Membrane in water
40167
    1TCq1    O1    1   3.655   2.784  11.405  0.1690  0.3374 -0.0366
    1TCq1    C1    2   3.546   2.781  11.328 -0.3451  0.0021 -0.9053
    1TCq1    O2    3   3.532   2.866  11.241  0.6423  0.0974  0.3838
    1TCq1    C2    4   3.503   2.640  11.325 -0.2285  0.0079  0.0786
    1TCq1    C3    5   3.510   2.570  11.212 -0.0431 -0.2455 -0.0583
    1TCq1    C4    6   3.487   2.434  11.207  0.6902  0.3883  0.3480
    1TCq1    C5    7   3.442   2.375  11.324  0.9807 -0.6632 -0.1811
    1TCq1    C6    8   3.431   2.458  11.438  0.5582  0.0342 -0.1409
    1TCq1    C7    9   3.456   2.595  11.438  0.6170 -0.0260 -0.4364
    1TCq1    C8   10   3.418   2.404  11.572  0.1423  0.4427  0.0054
    1TCq1    O4   11   3.411   2.484  11.662  0.0844 -0.3217  0.7045
    1TCq1    C9   12   3.521   2.344  11.095 -1.4946  0.1701 -0.5436
    1TCq1    O5   13   3.503   2.218  11.106  0.3560  0.1569 -0.4968
    1TCq1    O6   14   3.586   2.402  11.000  0.2913 -0.3041 -0.4702
    1TCq1    H1   15   3.681   2.699  11.448  1.6110 -0.4303 -2.4209
    1TCq1    H2   16   3.547   2.624  11.125  1.3491 -1.4700 -0.2221
    1TCq1    H3   17   3.430   2.267  11.330 -1.7102 -0.3194  0.4548
    1TCq1    H4   18   3.441   2.661  11.523 -2.2250  1.0251 -1.7410
    2MPD2     C   19   3.420   2.015  11.909 -0.4806 -0.1039 -0.2647
    2MPD2    C1   20   3.405   2.150  11.925  0.1286 -0.0355 -0.2457
    2MPD2    C2   21   3.414   2.240  11.819  0.3031 -0.3010 -0.0084
    2MPD2    C3   22   3.430   2.190  11.691  0.4293  0.4940  0.3372
    2MPD2    C4   23   3.447   2.052  11.675 -0.5050  0.3517 -0.1001
    2MPD2    C5   24   3.449   1.961  11.787 -0.4782  0.6173 -0.0029
    2MPD2     H   25   3.412   2.345  11.846 -3.3305 -0.7618  1.5530
    2MPD2    H1   26   3.447   2.006  11.577  1.5825  0.9338 -0.3709
    2MPD2    H2   27   3.420   1.949  11.995  0.4131  0.8465  0.4655
    2MPD2    H3   28   3.470   1.854  11.782 -2.0612  0.2082  1.8552
    2MPD2     N   29   3.438   2.271  11.576 -0.6433 -0.0583  0.1947
    2MPD2    H5   30   3.457   2.223  11.489  3.5056  1.4471  0.2784
    2MPD2    N1   31   3.386   2.203  12.057  0.1933 -0.4004  0.6219
    2MPD2    H7   32   3.348   2.297  12.050  3.9584  1.1868  1.2970
    3TCq1    O1   33   2.722   2.966  10.119 -0.7553  0.2395  0.0517
    3TCq1    C1   34   2.702   2.923  10.241  0.3524 -0.3435  0.6869
    3TCq1    O2   35   2.624   2.836  10.269 -0.2462  0.6059 -0.3283
    3TCq1    C2   36   2.732   3.024  10.344  0.7828 -0.0884  0.0556
    3TCq1    C3   37   2.738   3.161  10.314  0.4795 -0.7651 -0.3893
    3TCq1    C4   38   2.769   3.253  10.418  0.6214  0.2150  0.6642
    3TCq1    C5   39   2.758   3.204  10.547  0.6336  0.6707  0.0024
    3TCq1    C6   40   2.738   3.076  10.575 -0.2272 -0.0348  0.4604
    3TCq1    C7   41   2.723   2.988  10.478 -0.0638 -0.6133  0.6830
    3TCq1    C8   42   2.674   3.036  10.694  0.3836  0.3330 -0.0101
    3TCq1    O4   43   2.656   2.916  10.713 -0.1698  0.0290  0.4893
    3TCq1    C9   44   2.767   3.396  10.399 -0.0364  0.8650  0.0881
    3TCq1    O5   45   2.750   3.435  10.279 -0.6581  0.7422  0.9486
    3TCq1    O6   46   2.774   3.471  10.499  0.0688  0.0210 -0.3102
    3TCq1    H1   47   2.752   3.059  10.114  0.4031 -0.2744 -2.4725
    3TCq1    H2   48   2.749   3.200  10.214  2.3775  1.7024  0.7798
    3TCq1    H3   49   2.778   3.271  10.629  0.3413 -0.1413  0.7279
    3TCq1    H4   50   2.700   2.885  10.503  0.6972 -1.1223 -0.7495
    4MPD2     C   51   2.349   3.119  11.072 -0.2703  0.9330  0.3389
    4MPD2    C1   52   2.373   3.240  11.006  0.1726  0.1518 -0.2659
    4MPD2    C2   53   2.464   3.246  10.903 -0.6380 -0.4667 -0.3131
    4MPD2    C3   54   2.531   3.135  10.863 -0.7056  0.6380 -0.6491
    4MPD2    C4   55   2.514   3.020  10.939  1.0699 -0.2767  0.0545
    4MPD2    C5   56   2.430   3.016  11.047  0.3255 -0.0502 -0.1284
    4MPD2     H   57   2.487   3.340  10.853  0.7578 -1.6455 -1.8624
    4MPD2    H1   58   2.572   2.931  10.917 -0.9812 -1.6792  0.4098
    4MPD2    H2   59   2.280   3.116  11.155 -2.0296  1.2546 -1.1115
    4MPD2    H3   60   2.418   2.927  11.109 -0.5300 -0.7721 -1.3162
    4MPD2     N   61   2.608   3.142  10.747 -0.0357 -0.0224 -0.5596
    4MPD2    H5   62   2.618   3.230  10.697  1.1623  1.1055  1.6353
    4MPD2    N1   63   2.312   3.366  11.037  0.0097 -0.1756 -0.2969
    4MPD2    H7   64   2.338   3.451  10.988 -3.5323  0.5858 -0.8706
    5TCq1    O1   65   2.928   0.676  10.992 -0.1352 -0.1316  0.2320
    5TCq1    C1   66   2.989   0.565  10.949 -0.6120 -0.1675 -0.1336
    5TCq1    O2   67   3.108   0.545  10.925  0.1270  0.0170  0.1850
    5TCq1    C2   68   2.892   0.458  10.970 -0.5026 -0.1553  0.0065
    5TCq1    C3   69   2.788   0.476  11.065 -0.0420 -0.2652 -0.2013
    5TCq1    C4   70   2.702   0.369  11.081 -0.1575 -0.2946  0.1878
    5TCq1    C5   71   2.719   0.254  11.013  0.0545 -0.4122 -0.0069
    5TCq1    C6   72   2.827   0.244  10.927 -0.6223 -0.9911  0.3075
    5TCq1    C7   73   2.923   0.336  10.920 -0.0986 -0.6064  0.3944
    5TCq1    C8   74   2.875   0.114  10.884 -0.5083  0.5099 -0.2778
    5TCq1    O4   75   2.995   0.093  10.865 -0.2347 -0.5097 -0.5280
    5TCq1    C9   76   2.591   0.369  11.176  0.0966  0.0857  0.0014
    5TCq1    O5   77   2.612   0.442  11.280  0.0668  0.2208  0.0503
    5TCq1    O6   78   2.508   0.276  11.167 -0.4726 -0.2803 -0.2912
    5TCq1    H1   79   2.832   0.675  10.975 -0.0618  1.3363 -0.2789
    5TCq1    H2   80   2.763   0.569  11.115 -1.9984 -0.3813 -0.9367
    5TCq1    H3   81   2.652   0.170  11.027  1.3192 -1.0998  2.0276
    5TCq1    H4   82   3.016   0.320  10.866  0.0481  0.2073  0.4018
    6MPD2     C   83   2.677   4.567  10.762  0.6463  0.1732 -0.5570
    6MPD2    C1   84   2.793   4.631  10.796 -0.3565 -0.1048  0.1697
    6MPD2    C2   85   2.914   4.560  10.783  0.2078  0.1627  0.1149
    6MPD2    C3   86   2.915   4.438  10.715 -0.3571 -0.1539  0.7630
    6MPD2    C4   87   2.795   4.389  10.666  0.6211 -0.8235  0.2922
    6MPD2    C5   88   2.675   4.443  10.696 -0.8334 -0.3138  0.5103
    6MPD2     H   89   3.007   4.601  10.822  0.0304 -1.3303  2.1228
    6MPD2    H1   90   2.795   4.291  10.619  0.8487 -0.0100 -1.4059
    6MPD2    H2   91   2.586   4.621  10.784 -0.1092 -1.3433  0.0041
    6MPD2    H3   92   2.580   4.408  10.657 -0.0036 -1.4937 -0.4245
    6MPD2     N   93   3.037   4.367  10.703  0.7396 -0.3264 -0.2951
    6MPD2    H5   94   3.104   4.399  10.772 -0.5630  1.0453  0.3406
    6MPD2    N1   95   2.779   0.031  10.855  0.3389  0.4882 -0.5579
    6MPD2    H7   96   2.683   0.062  10.854  0.3579  0.5518 -0.3766
    7TCq1    O1   97   1.242   0.379  14.145  0.7566 -0.3956  0.4581
    7TCq1    C1   98   1.217   0.247  14.117 -0.2870 -0.2150 -0.0670
    7TCq1    O2   99   1.170   0.166  14.195  0.0665 -0.4136 -0.2550
    7TCq1    C2  100   1.287   0.217  13.989 -0.8871 -0.1097  0.6455
    7TCq1    C3  101   1.397   0.294  13.949 -0.4449  0.3493  0.0367
    7TCq1    C4  102   1.458   0.247  13.835 -0.3182 -0.4293  0.7272
    7TCq1    C5  103   1.416   0.137  13.764 -0.1491 -0.0905 -0.5721
    7TCq1    C6  104   1.313   0.061  13.814  0.3791 -0.6635  0.9522
    7TCq1    C7  105   1.247   0.107  13.922 -0.2881 -0.2594  0.0016
    7TCq1    C8  106   1.245   4.689  13.726 -0.2890 -0.7585 -0.5068
    7TCq1    O4  107   1.140   4.634  13.765 -0.2038  0.8032 -0.0818
    7TCq1    C9  108   1.573   0.313  13.785  0.1778  0.1548  0.4364
    7TCq1    O5  109   1.631   0.396  13.864  0.1211  0.3101  0.3268
    7TCq1    O6  110   1.630   0.272  13.680  0.2845  0.3126  0.5262
    7TCq1    H1  111   1.278   0.434  14.072  0.1010 -0.3565  0.1684
    7TCq1    H2  112   1.436   0.374  14.011  1.0538  1.1584 -1.9619
    7TCq1    H3  113   1.467   0.105  13.674 -0.6862 -0.2527 -0.8145
    7TCq1    H4  114   1.152   0.064  13.951 -0.2319  0.6856  1.5918
    8MPD2     C  115   1.313   4.272  13.427  0.1915 -0.0164 -0.4809
    8MPD2    C1  116   1.197   4.323  13.486 -0.3317 -0.1899 -0.6666
    8MPD2    C2  117   1.207   4.449  13.545 -0.1720  0.4191 -0.2055
    8MPD2    C3  118   1.325   4.518  13.559 -0.2812  0.2876 -0.1457
    8MPD2    C4  119   1.430   4.469  13.490  1.0448 -0.3641  0.2036
    8MPD2    C5  120   1.429   4.347  13.434  0.0319 -0.2730 -0.0593
    8MPD2     H  121   1.118   4.495  13.585  0.6482 -0.1226  2.2164
    8MPD2    H1  122   1.528   4.514  13.499  0.5086  0.6074  1.2710
    8MPD2    H2  123   1.316   4.178  13.373 -1.8745 -0.7548  0.6535
    8MPD2    H3  124   1.519   4.309  13.387  0.4567  2.3523 -1.3431
    8MPD2     N  125   1.339   4.635  13.639 -0.0639 -0.1393 -0.1133
    8MPD2    H5  126   1.428   4.684  13.642 -0.1185 -0.1410  1.2520
    8MPD2    N1  127   1.083   4.248  13.452 -0.2672  0.1026  0.6362
    8MPD2    H7  128   1.091   4.166  13.393 -0.0967  1.2643 -0.9699
    9TCq1    O1  129   3.992   2.520  10.709 -0.1449 -0.3433  0.3807
    9TCq1    C1  130   3.871   2.573  10.732  0.2919  0.5817  0.5682
    9TCq1    O2  131   3.805   2.549  10.833 -0.3578  0.0695  0.0357
    9TCq1    C2  132   3.825   2.646  10.619 -0.4873  0.1322  0.1797
    9TCq1    C3  133   3.855   2.611  10.494  0.2168  0.4451 -0.4632
    9TCq1    C4  134   3.768   2.670  10.406  0.1269  0.5777  0.6320
    9TCq1    C5  135   3.672   2.762  10.429  0.2986 -0.3063  0.0046
    9TCq1    C6  136   3.649   2.791  10.559 -0.1204 -0.2565  0.3011
    9TCq1    C7  137   3.728   2.729  10.661  0.1931 -1.0323  0.1446
    9TCq1    C8  138   3.590   2.920  10.596 -0.7530 -0.2149  0.0396
    9TCq1    O4  139   3.586   3.006  10.508 -0.3339 -0.0858  0.2108
    9TCq1    C9  140   3.795   2.625  10.268 -0.3358  0.1323 -0.3655
    9TCq1    O5  141   3.907   2.580  10.238  0.2317 -0.6407 -0.0412
    9TCq1    O6  142   3.694   2.625  10.186  0.2517 -0.7615  0.0246
    9TCq1    H1  143   4.039   2.554  10.630 -2.2380  1.4475 -0.1111
    9TCq1    H2  144   3.929   2.537  10.467 -0.8726 -1.1367  0.8594
    9TCq1    H3  145   3.608   2.791  10.347 -2.2865 -2.6359  1.1914
    9TCq1    H4  146   3.707   2.743  10.767 -0.1045  1.0809 -0.1944
   10MPD2     C  147   3.426   3.144  10.714  0.0554  0.1793  0.3605
   10MPD2    C1  148   3.447   3.022  10.774 -0.4858  0.0810 -0.4657
   10MPD2    C2  149   3.394   2.998  10.900  0.3583 -0.2702  0.0553
   10MPD2    C3  150   3.323   3.096  10.970 -0.1838 -0.6997  0.1452
   10MPD2    C4  151   3.318   3.226  10.913  0.2279 -0.5974  0.0943
   10MPD2    C5  152   3.369   3.250  10.786  0.5321  0.4153  0.4531
   10MPD2     H  153   3.403   2.900  10.945  2.2735  1.1321  2.7571
   10MPD2    H1  154   3.265   3.306  10.963 -0.8472 -0.0894 -1.8508
   10MPD2    H2  155   3.468   3.164  10.616  1.8567 -1.1133  0.8648
   10MPD2    H3  156   3.372   3.344  10.734 -0.3205  0.2211  0.0530
   10MPD2     N  157   3.247   3.072  11.091  1.3916 -0.5974 -0.5115
   10MPD2    H5  158   3.202   3.153  11.133 -2.3052 -2.3840 -1.0610
   10MPD2    N1  159   3.526   2.921  10.719 -0.5124  0.1235  0.2136
   10MPD2    H7  160   3.529   2.839  10.779  2.7006  0.9602  1.2161
   11TCq1    O1  161   4.098   2.559  13.704 -0.4801 -0.6842  0.1197
   11TCq1    C1  162   4.089   2.554  13.569  0.3159 -0.2852  0.3742
   11TCq1    O2  163   4.146   2.477  13.491 -0.4612  0.1475  0.3117
   11TCq1    C2  164   4.098   2.694  13.527  0.3516  0.1049  0.4474
   11TCq1    C3  165   4.218   2.734  13.463 -0.4904 -0.2948 -0.0840
   11TCq1    C4  166   4.234   2.865  13.428  0.1692 -0.4264  0.2612
   11TCq1    C5  167   4.134   2.956  13.462 -0.2623 -0.3229 -0.0105
   11TCq1    C6  168   4.017   2.917  13.529 -0.0234 -0.1454 -0.1504
   11TCq1    C7  169   4.008   2.781  13.558 -0.5184 -0.0473 -0.1210
   11TCq1    C8  170   3.937   3.003  13.618  0.4362  0.5778  0.2303
   11TCq1    O4  171   3.981   3.114  13.646 -0.2723 -0.4943 -0.3569
   11TCq1    C9  172   4.338   2.907  13.344 -0.2500  0.6581  0.1075
   11TCq1    O5  173   4.339   3.028  13.307 -0.3843  0.8123 -0.6728
   11TCq1    O6  174   4.436   2.820  13.327  0.1924  0.2673  0.1017
   11TCq1    H1  175   4.071   2.644  13.745 -0.1766 -0.8233  0.6109
   11TCq1    H2  176   4.288   2.657  13.433 -0.8388 -0.9213  0.7149
   11TCq1    H3  177   4.133   3.057  13.421 -0.7665 -0.5448 -0.5388
   11TCq1    H4  178   3.926   2.745  13.619  3.2285 -1.2632  4.1880
   12MPD2     C  179   3.735   3.098  13.821 -0.6531  0.3564  0.8311
   12MPD2    C1  180   3.717   2.993  13.730 -0.3054 -0.4059 -0.6127
   12MPD2    C2  181   3.600   2.932  13.720 -0.2072 -0.1546 -0.2054
   12MPD2    C3  182   3.499   2.968  13.809 -0.6074  0.5135 -0.2457
   12MPD2    C4  183   3.518   3.061  13.913 -0.0568  0.1149 -0.1973
   12MPD2    C5  184   3.638   3.120  13.918  0.5711 -0.2811 -0.2637
   12MPD2     H  185   3.588   2.841  13.662 -0.6832  0.4497 -1.0564
   12MPD2    H1  186   3.438   3.071  13.987 -0.2035 -1.1716 -0.1871
   12MPD2    H2  187   3.826   3.155  13.822  0.3843 -1.3484  2.7989
   12MPD2    H3  188   3.661   3.192  13.996 -0.4509 -0.3168  0.0667
   12MPD2     N  189   3.384   2.891  13.795  0.4934  0.5172  0.1879
   12MPD2    H5  190   3.386   2.808  13.736 -0.2900  0.4033  0.3269
   12MPD2    N1  191   3.817   2.949  13.639  0.1530 -0.1708  0.6074
   12MPD2    H7  192   3.804   2.862  13.589 -0.3297  0.3691 -0.2105
   13TCq1    O1  193   3.045   1.163  10.767  0.0752 -0.0020 -0.0849
   13TCq1    C1  194   3.144   1.255  10.767  0.1963  0.5615 -0.2846
   13TCq1    O2  195   3.210   1.287  10.669 -0.5313 -0.4194 -0.6531
   13TCq1    C2  196   3.132   1.331  10.894 -0.2024  0.3569 -0.3791
   13TCq1    C3  197   3.117   1.261  11.017 -0.1029 -1.0112 -0.2852
   13TCq1    C4  198   3.102   1.353  11.122 -0.5925 -0.2971  0.2171
   13TCq1    C5  199   3.113   1.490  11.111  0.0463 -0.5243  0.0038
   13TCq1    C6  200   3.130   1.547  10.992  0.1585 -0.5612  0.0502
   13TCq1    C7  201   3.143   1.471  10.882  0.3296  0.2878 -0.0247
   13TCq1    C8  202   3.088   1.684  10.981  0.1907  0.3693  0.0632
   13TCq1    O4  203   3.048   1.744  11.074 -0.3478  0.5094 -0.4248
   13TCq1    C9  204   3.062   1.304  11.251 -0.1592 -0.1601  0.2132
   13TCq1    O5  205   3.023   1.186  11.264  0.1203  0.0025  0.3484
   13TCq1    O6  206   3.080   1.379  11.350 -0.3622 -0.3471  0.0396
   13TCq1    H1  207   2.990   1.171  10.847 -2.0452 -0.6252 -1.4583
   13TCq1    H2  208   3.089   1.156  11.020 -0.2253 -1.0407 -2.4517
   13TCq1    H3  209   3.097   1.548  11.202  0.3885 -0.7890  0.2323
   13TCq1    H4  210   3.146   1.498  10.777  1.8070  2.7507  0.6514
   14MPD2     C  211   3.069   1.894  10.678 -0.3687 -0.7408  0.5506
   14MPD2    C1  212   3.040   1.857  10.804 -0.5585 -0.7301  0.0967
   14MPD2    C2  213   2.977   1.952  10.886  0.3835 -0.5256  0.1644
   14MPD2    C3  214   2.939   2.071  10.842 -0.3672  0.2983  0.2550
   14MPD2    C4  215   2.969   2.104  10.709  0.2360 -0.8150  0.7105
   14MPD2    C5  216   3.039   2.019  10.634  0.8221 -0.2735 -0.3388
   14MPD2     H  217   2.959   1.918  10.988  0.1048 -1.9826 -0.3731
   14MPD2    H1  218   2.946   2.192  10.650 -0.6966 -1.8561 -0.4824
   14MPD2    H2  219   3.117   1.817  10.620  2.1165  1.1505  0.0778
   14MPD2    H3  220   3.055   2.047  10.530 -0.4669  1.4982 -0.0569
   14MPD2     N  221   2.882   2.160  10.933 -0.0260  0.3924 -0.2692
   14MPD2    H5  222   2.871   2.126  11.028 -1.8146 -0.1099 -0.6581
   14MPD2    N1  223   3.090   1.730  10.849  0.2857 -0.3947 -0.1628
   14MPD2    H7  224   3.123   1.671  10.773 -1.8453 -1.5317 -0.2112
   15TCq1    O1  225   4.076   2.370   0.834  0.1972 -0.3517 -0.3324
   15TCq1    C1  226   4.027   2.409   0.952 -0.1398  0.1946  0.1658
   15TCq1    O2  227   3.972   2.516   0.975 -0.4616 -0.4987 -0.3020
   15TCq1    C2  228   4.073   2.332   1.063  0.3351 -0.0151 -0.0458
   15TCq1    C3  229   4.001   2.350   1.177  0.1706  0.3954 -0.1338
   15TCq1    C4  230   4.041   2.304   1.297 -0.0782 -0.1809 -0.5109
   15TCq1    C5  231   4.161   2.253   1.316  0.0978  0.2074  0.4210
   15TCq1    C6  232   4.240   2.258   1.204 -0.5365  0.0706 -0.3456
   15TCq1    C7  233   4.203   2.295   1.081  0.4644 -0.2920  0.1027
   15TCq1    C8  234   4.382   2.251   1.229 -0.1063  0.2588 -0.8006
   15TCq1    O4  235   4.450   2.240   1.129  0.3447  0.0650  0.1751
   15TCq1    C9  236   3.946   2.298   1.407  0.2127  0.7599 -0.4002
   15TCq1    O5  237   3.825   2.281   1.368 -0.5459 -0.3907  0.6064
   15TCq1    O6  238   3.979   2.281   1.525 -0.3755 -0.6857 -0.1536
   15TCq1    H1  239   4.149   2.305   0.845  1.7843  1.5029  0.2301
   15TCq1    H2  240   3.899   2.386   1.170 -0.2049 -0.7069 -0.4530
   15TCq1    H3  241   4.173   2.222   1.420  2.7413  1.6877  0.5541
   15TCq1    H4  242   4.270   2.288   0.996 -0.4636 -0.2273 -0.6367
   16MPD2     C  243   4.548   2.293   1.550 -0.0642 -0.0325 -0.1393
   16MPD2    C1  244   4.547   2.274   1.415 -0.1893  0.5070  0.5110
   16MPD2    C2  245   4.661   2.280   1.340  0.3230 -0.3027 -0.1004
   16MPD2    C3  246   0.057   2.298   1.404  0.2992 -0.0924  0.4139
   16MPD2    C4  247   0.067   2.310   1.544 -0.4278 -0.7972 -0.9492
   16MPD2    C5  248   4.672   2.319   1.611  0.5530 -0.0234  0.5495
   16MPD2     H  249   4.655   2.265   1.233 -1.8166  0.7509 -0.1252
   16MPD2    H1  250   0.158   2.319   1.603 -2.3831 -1.8458  2.2496
   16MPD2    H2  251   4.461   2.285   1.614  0.7479  1.3180  1.1320
   16MPD2    H3  252   4.671   2.341   1.717  0.6716  1.3547  0.2721
   16MPD2     N  253   0.176   2.298   1.329 -0.7720  0.6942  0.9189
   16MPD2    H5  254   0.174   2.293   1.228 -1.1315  1.9439  0.8664
   16MPD2    N1  255   4.415   2.259   1.358  0.2737  0.4878  0.6718
   16MPD2    H7  256   4.343   2.275   1.428  0.1544  1.0488  0.4221
   17TCq1    O1  257   3.531   1.783  11.320  0.0178  0.0952 -0.4310
   17TCq1    C1  258   3.433   1.699  11.292  0.3567 -0.3882  0.0790
   17TCq1    O2  259   3.445   1.577  11.299  0.0610 -0.3416 -0.0862
   17TCq1    C2  260   3.319   1.764  11.351 -0.1581 -0.8897  0.2143
   17TCq1    C3  261   3.258   1.706  11.460 -1.1754  0.0253 -0.3896
   17TCq1    C4  262   3.176   1.769  11.544 -0.0346 -0.1422  0.5918
   17TCq1    C5  263   3.155   1.903  11.530 -0.2409 -0.7943 -0.7118
   17TCq1    C6  264   3.215   1.965  11.426  0.4909 -0.0732  0.2992
   17TCq1    C7  265   3.289   1.891  11.335  0.2914  0.3934 -0.2802
   17TCq1    C8  266   3.174   2.098  11.396  0.1582 -0.1666 -0.5988
   17TCq1    O4  267   3.159   2.170  11.493 -0.2242 -0.3524  0.3463
   17TCq1    C9  268   3.092   1.696  11.636 -0.4845  0.2089 -0.0213
   17TCq1    O5  269   3.076   1.574  11.608 -0.8726  0.1537  0.1767
   17TCq1    O6  270   3.023   1.754  11.719  0.1449  0.6666 -0.2927
   17TCq1    H1  271   3.502   1.871  11.353 -1.3773 -0.0739 -1.1715
   17TCq1    H2  272   3.268   1.599  11.475 -0.7246 -0.3791 -3.5109
   17TCq1    H3  273   3.086   1.958  11.593 -1.4842 -2.7809 -0.3345
   17TCq1    H4  274   3.337   1.936  11.249  1.1782 -0.0574 -0.0225
   18MPD2     C  275   3.122   2.376  11.294 -0.1657  0.3338  0.1909
   18MPD2    C1  276   3.155   2.265  11.219 -0.0784  1.0770  0.4067
   18MPD2    C2  277   3.168   2.286  11.085 -0.1930  0.1750 -0.0568
   18MPD2    C3  278   3.164   2.408  11.021  0.4562  0.7344  0.0550
   18MPD2    C4  279   3.147   2.519  11.101 -0.1473  0.1230  0.4568
   18MPD2    C5  280   3.112   2.502  11.236 -0.8723 -0.1502  0.0631
   18MPD2     H  281   3.168   2.187  11.041 -1.2926  0.4981 -0.7948
   18MPD2    H1  282   3.155   2.619  11.060  1.2533 -0.1895 -0.0116
   18MPD2    H2  283   3.125   2.373  11.402 -0.1470 -1.2060  0.1400
   18MPD2    H3  284   3.112   2.591  11.298  2.0038  2.1135 -3.1582
   18MPD2     N  285   3.207   2.431  10.891 -0.3234  0.3828 -0.5020
   18MPD2    H5  286   3.208   2.523  10.848  0.6975 -0.3192 -1.9782
   18MPD2    N1  287   3.178   2.136  11.265  0.3905 -0.0677 -0.0556
   18MPD2    H7  288   3.209   2.063  11.202  0.4109  0.2311 -0.3921
   19TMC2    C1  289   0.007   2.253  13.605  0.0437  0.6219 -0.4473
   19TMC2    C2  290   4.711   2.245  13.468 -0.5226 -0.3810 -0.1169
   19TMC2    C3  291   4.588   2.211  13.427  0.1416  0.7180 -0.1053
   19TMC2    C4  292   4.631   2.218  13.691  0.2833  0.2579 -0.1664
   19TMC2    C5  293   4.513   2.177  13.644  0.4847  0.0060 -0.4169
   19TMC2    C6  294   4.488   2.177  13.512  0.4536 -0.4444  0.4508
   19TMC2     C  295   0.070   2.381  13.637  0.2709  0.2042 -0.3996
   19TMC2     O  296   0.095   2.462  13.546 -0.1119  0.0723 -1.1037
   19TMC2     H  297   0.066   2.265  13.399 -0.1503  0.2611  0.4971
   19TMC2    H1  298   4.655   2.211  13.797 -1.8290  0.2436  0.3255
   19TMC2    H2  299   4.388   2.168  13.472  0.3154 -0.4931  0.8022
   19TMC2    C7  300   4.391   2.138  13.729  0.1155 -0.0332 -0.1167
   19TMC2    C8  301   4.539   2.244  13.292 -0.7357 -0.4740 -0.2186
   19TMC2    O1  302   4.302   2.085  13.666  0.3292  0.5233  0.3741
   19TMC2    O2  303   4.441   2.318  13.289  0.3623  0.2578 -0.2326
   19TMC2    O5  304   4.528   2.119  13.239  0.5044 -0.2218  0.1713
   19TMC2    H5  305   4.608   2.066  13.258  0.0048 -1.2045 -0.5056
   20MPD2     C  306   0.199   2.627  13.758 -0.4102  0.2537 -0.1563
   20MPD2    C1  307   0.172   2.506  13.822  0.3109  0.1803 -0.7480
   20MPD2    C2  308   0.212   2.492  13.951 -0.3635 -0.0934 -0.5007
   20MPD2    C3  309   0.282   2.590  14.025  0.0768 -1.0237 -0.0072
   20MPD2    C4  310   0.308   2.709  13.956  0.5764 -0.6563 -0.6599
   20MPD2    C5  311   0.276   2.718  13.828 -0.9210  0.2898 -0.6821
   20MPD2     H  312   0.194   2.401  14.007  0.1187 -1.7602 -3.0096
   20MPD2    H1  313   0.372   2.779  14.008 -0.4611 -0.0326 -0.2236
   20MPD2    H2  314   0.187   2.640  13.651 -2.4956 -1.8088 -0.1732
   20MPD2    H3  315   0.318   2.800  13.770  0.3663  0.6260  0.7319
   20MPD2     N  316   0.320   2.575  14.163  0.0931 -0.3577  0.0095
   20MPD2    H5  317   0.344   2.663  14.208  0.8426  0.2946 -1.6566
   20MPD2    N1  318   0.111   2.395  13.764  0.2468  0.2459 -0.1647
   20MPD2    H7  319   0.087   2.315  13.821  0.1611  0.6012  0.3015
   21MPD2     C  320   2.519   3.575  14.364 -0.0380 -0.1623  0.5170
   21MPD2    C1  321   2.493   3.442  14.332 -0.3940 -0.3829  0.5853
   21MPD2    C2  322   2.367   3.390  14.359  0.2378 -0.2894 -0.1894
   21MPD2    C3  323   2.277   3.467  14.427  0.2439  0.5139  0.1899
   21MPD2    C4  324   2.302   3.599  14.458 -0.0600 -0.1204 -0.0198
   21MPD2    C5  325   2.424   3.650  14.418  0.4164  0.5181 -0.0087
   21MPD2     H  326   2.352   3.285  14.338 -0.7794 -0.5243  1.6498
   21MPD2    H1  327   2.234   3.654  14.522  0.3847  0.8808 -0.4069
   21MPD2    H2  328   2.612   3.626  14.340  0.1509 -0.6862  0.1463
   21MPD2    H3  329   2.445   3.747  14.461  0.3368  0.4133  0.2675
   21MPD2     N  330   2.157   3.425  14.478  0.0722 -0.4715  0.4202
   21MPD2    H5  331   2.093   3.497  14.510 -0.3616 -0.7842  0.2633
   21MPD2    N1  332   2.580   3.368  14.251 -0.1375  0.5225 -0.1471
   21MPD2    H7  333   2.548   3.273  14.234 -1.6568  1.1046 -0.5774
   22TCq2    C1  334   2.116   3.299  14.493  0.3038 -0.5680  0.6283
   22TCq2    O2  335   2.167   3.195  14.456  0.4687  0.0978 -0.0108
   22TCq2    C2  336   1.987   3.281  14.569 -0.0131 -0.1979  0.2132
   22TCq2    C3  337   1.987   3.185  14.664  0.2953  0.1604 -0.2691
   22TCq2    C4  338   1.908   3.209  14.772 -0.1530  0.1978  0.6026
   22TCq2    C5  339   1.827   3.324  14.774  0.7232  0.2335 -0.3487
   22TCq2    C6  340   1.823   3.411  14.675 -0.0438  0.4045 -0.2376
   22TCq2    C7  341   1.909   3.392  14.571  0.4372  0.1285  0.6078
   22TCq2    C8  342   1.690   3.456  14.641 -0.0157 -0.3025 -0.7338
   22TCq2    O4  343   1.600   3.406  14.705  0.1443 -0.3348 -0.9821
   22TCq2    C9  344   1.926   3.142  14.892  0.4262 -0.2957  0.2331
   22TCq2    O5  345   1.882   3.196  14.997  0.3224 -0.4298 -0.4781
   22TCq2    O6  346   2.001   3.043  14.885 -0.1816  0.1372 -0.3867
   22TCq2    H2  347   2.069   3.115  14.667 -1.4911 -1.9934 -1.2012
   22TCq2    H3  348   1.767   3.343  14.863  1.4124  0.3196  0.0954
   22TCq2    H4  349   1.906   3.443  14.476  1.0358  0.2917  0.6710
   23MPD2     C  350   4.218   4.078  14.228  0.1945  0.2700 -0.5618
   23MPD2    C1  351   4.153   4.101  14.348  0.0439 -0.6672 -0.5255
   23MPD2    C2  352   4.095   4.225  14.373  0.3961  0.9008  0.0019
   23MPD2    C3  353   4.103   4.329  14.283  0.0158 -0.0099 -0.5408
   23MPD2    C4  354   4.174   4.311  14.170 -0.2936  0.1780  0.5878
   23MPD2    C5  355   4.235   4.183  14.145 -0.8100  0.7582 -0.0794
   23MPD2     H  356   4.041   4.234  14.467  2.5818  1.1110  1.2286
   23MPD2    H1  357   4.182   4.393  14.100  0.7048 -2.0305 -1.8775
   23MPD2    H2  358   4.251   3.980  14.198  0.2928  0.2254 -0.3150
   23MPD2    H3  359   4.287   4.185  14.050  0.9033 -1.2463  0.8401
   23MPD2     N  360   4.020   4.445  14.304  0.5479 -0.3925  0.8745
   23MPD2    H5  361   4.048   4.532  14.260  1.7456 -0.8122  0.8151
   23MPD2    N1  362   4.169   4.015  14.459  0.3656  0.6876 -0.2941
   23MPD2    H7  363   4.111   4.035  14.539  1.2359 -2.4656  1.1358
   24TCq2    C1  364   3.902   4.440  14.381 -0.6308 -0.0817  0.7590
   24TCq2    O2  365   3.844   4.342  14.420 -0.2629  0.1254  0.0789
   24TCq2    C2  366   3.810   4.553  14.380 -0.3669 -0.3588 -0.8485
   24TCq2    C3  367   3.847   4.674  14.339  0.8676 -0.3242  0.0491
   24TCq2    C4  368   3.751   0.044  14.317 -0.2934 -0.1676  0.4268
   24TCq2    C5  369   3.617   0.020  14.343  0.5001 -0.0890 -0.4242
   24TCq2    C6  370   3.582   4.614  14.372  0.0845 -0.2068  0.1464
   24TCq2    C7  371   3.678   4.523  14.395 -0.5030  0.0386  0.1512
   24TCq2    C8  372   3.447   4.584  14.430 -0.3042 -0.2138 -0.4848
   24TCq2    O4  373   3.428   4.470  14.479 -0.0800 -0.2063  0.3641
   24TCq2    C9  374   3.789   0.182  14.283  0.2427 -1.1468 -0.3117
   24TCq2    O5  375   3.914   0.208  14.294  0.2962 -0.2145  0.0142
   24TCq2    O6  376   3.697   0.264  14.269  0.4100  0.3006  0.0779
   24TCq2    H2  377   3.949   4.706  14.321  0.2179  1.5336 -0.3579
   24TCq2    H3  378   3.551   0.104  14.360  1.0203 -0.1570  1.9142
   24TCq2    H4  379   3.640   4.430  14.436  0.1352  0.7067  2.2919
   25TMC2    C1  380   2.002   1.937  11.298 -0.4800  0.2255 -0.2842
   25TMC2    C2  381   1.939   2.048  11.264  0.7639 -0.2220  0.0688
   25TMC2    C3  382   1.852   2.103  11.357 -0.1776 -0.2695 -0.0552
   25TMC2    C4  383   1.969   1.869  11.417 -0.4960 -0.1823  0.1502
   25TMC2    C5  384   1.885   1.934  11.512 -0.0107 -0.0935 -0.1599
   25TMC2    C6  385   1.828   2.054  11.482  0.4108  0.2392  0.5484
   25TMC2     C  386   2.085   1.878  11.197  0.0677  0.0776 -0.0611
   25TMC2     O  387   2.078   1.927  11.085  0.5339  0.1255  0.6682
   25TMC2     H  388   1.963   2.091  11.167  1.4122 -0.2920  0.1950
   25TMC2    H1  389   2.014   1.774  11.439  2.6432  1.1733 -0.4343
   25TMC2    H2  390   1.759   2.101  11.551 -0.8807  0.0136 -0.5893
   25TMC2    C7  391   1.864   1.877  11.648  0.1379  0.1572  0.3391
   25TMC2    C8  392   1.778   2.215  11.304 -0.2451 -0.2480 -0.5429
   25TMC2    O1  393   1.933   1.785  11.685  0.2602  0.6856 -0.3028
   25TMC2    O2  394   1.832   2.288  11.225  0.3599  0.1442 -0.0989
   25TMC2    O5  395   1.689   2.260  11.388  0.2890 -0.3384 -0.1603
   25TMC2    H5  396   1.659   2.189  11.449  1.6034 -0.8626 -0.1312
   26MPD2     C  397   2.360   1.488  11.010  0.0150  0.9981 -0.2953
   26MPD2    C1  398   2.368   1.477  11.150 -0.2050 -0.1572 -0.0160
   26MPD2    C2  399   2.299   1.577  11.222 -0.7353  0.0346 -0.0216
   26MPD2    C3  400   2.239   1.687  11.159  0.1593  0.2993  0.4428
   26MPD2    C4  401   2.255   1.704  11.022 -0.5833 -0.3616  0.5471
   26MPD2    C5  402   2.306   1.597  10.949 -0.1413 -0.1225  0.1408
   26MPD2     H  403   2.290   1.577  11.330 -3.2485 -1.8231 -0.2262
   26MPD2    H1  404   2.210   1.783  10.963  1.5450 -0.2062 -0.8560
   26MPD2    H2  405   2.424   1.423  10.952  1.3381  0.3478  1.9426
   26MPD2    H3  406   2.309   1.607  10.841  2.1181  2.4742  0.4513
   26MPD2     N  407   2.155   1.768  11.245  0.3963 -0.0041 -0.3223
   26MPD2    H5  408   2.168   1.762  11.346  0.1716  0.6043 -0.2535
   26MPD2    N1  409   2.424   1.360  11.211 -0.5121 -0.3012  0.1347
   26MPD2    H7  410   2.445   1.285  11.146 -1.6664  1.2414 -2.0087
   27TMC2    C1  411   1.119   4.280  11.606 -0.8214 -0.5392  0.0619
   27TMC2    C2  412   1.112   4.309  11.474  0.0704  0.6240 -0.0651
   27TMC2    C3  413   1.212   4.266  11.387 -0.6402  0.0399  0.0105
   27TMC2    C4  414   1.219   4.190  11.649  0.0844  0.2329 -0.2000
   27TMC2    C5  415   1.309   4.145  11.557 -0.5034 -0.0168 -0.2990
   27TMC2    C6  416   1.311   4.183  11.423 -0.5790  0.2456 -1.0738
   27TMC2     C  417   1.015   4.332  11.702 -1.1191 -0.1566  0.2434
   27TMC2     O  418   0.928   4.407  11.658 -0.1100 -0.9104 -0.5033
   27TMC2     H  419   1.031   4.367  11.430 -0.5305  0.3459  0.6627
   27TMC2    H1  420   1.241   4.184  11.755 -1.3992  0.5579  0.1275
   27TMC2    H2  421   1.362   4.124  11.348 -0.6903 -0.1590 -0.8315
   27TMC2    C7  422   1.432   4.091  11.613  0.5153 -0.3313  0.3175
   27TMC2    C8  423   1.187   4.291  11.248  0.1591  0.5008 -0.2422
   27TMC2    O1  424   1.533   4.101  11.539  0.0235  0.0014 -0.7823
   27TMC2    O2  425   1.079   4.298  11.187 -0.3146  0.2241 -0.5752
   27TMC2    O5  426   1.307   4.294  11.194  0.0998  0.2173  0.2758
   27TMC2    H5  427   1.376   4.292  11.263  0.6720  0.5475 -0.2825
   28MPD2     C  428   0.727   4.248  12.122  0.0799  0.5568 -0.2176
   28MPD2    C1  429   0.835   4.170  12.123  0.3685  0.3475 -0.5945
   28MPD2    C2  430   0.935   4.184  12.033 -0.6048 -0.4464  0.8475
   28MPD2    C3  431   0.918   4.262  11.920  0.1079  0.8661  0.0674
   28MPD2    C4  432   0.801   4.343  11.922 -0.2707 -0.3282 -0.0476
   28MPD2    C5  433   0.705   4.330  12.023 -0.4554  0.0368 -0.0380
   28MPD2     H  434   1.026   4.129  12.054  0.1252  1.1981  1.9726
   28MPD2    H1  435   0.773   4.402  11.835 -0.6077 -1.2769 -0.5811
   28MPD2    H2  436   0.657   4.246  12.205  0.4016 -1.5279 -0.0169
   28MPD2    H3  437   0.624   4.401  12.024  1.5231  2.2996 -1.8790
   28MPD2     N  438   1.015   4.254  11.818  0.2203  0.1677 -0.6672
   28MPD2    H5  439   1.099   4.200  11.833 -0.9721 -1.6949 -0.7219
   28MPD2    N1  440   0.866   4.101  12.245 -0.0850  0.1778  0.2032
   28MPD2    H7  441   0.807   4.111  12.327  0.0652 -2.5997  0.6653
   29MPD2     C  442   0.891   0.855  14.286 -0.0179 -0.4370  0.7088
   29MPD2    C1  443   0.969   0.841  14.398 -0.3397  0.8614 -0.8758
   29MPD2    C2  444   1.013   0.955  14.470 -0.3965  0.6447 -0.1364
   29MPD2    C3  445   0.972   1.082  14.434  0.4165  1.0418  0.1006
   29MPD2    C4  446   0.894   1.089  14.320  1.2184  0.5478 -0.2484
   29MPD2    C5  447   0.859   0.980  14.244  0.2526  0.3180 -0.5526
   29MPD2     H  448   1.083   0.939  14.551 -0.1163  0.7159 -0.3626
   29MPD2    H1  449   0.860   1.184  14.280 -2.7106 -0.1381  1.4939
   29MPD2    H2  450   0.849   0.773  14.229 -0.9322 -0.8283  1.9399
   29MPD2    H3  451   0.790   0.998  14.162  0.2110  0.2525 -0.5323
   29MPD2     N  452   1.012   1.203  14.497 -0.6839 -0.2387 -0.5810
   29MPD2    H5  453   0.969   1.293  14.478 -3.1097 -1.3991 -0.6325
   29MPD2    N1  454   1.017   0.715  14.435  0.4954 -0.4349  0.0557
   29MPD2    H7  455   1.091   0.724  14.504 -0.2923  2.7806  0.4850
   30TCq2    C1  456   1.086   1.211  14.610  0.2376 -0.4195  0.3308
   30TCq2    O2  457   1.152   1.130  14.669  0.0089 -0.4789 -0.0426
   30TCq2    C2  458   1.085   1.344  14.663 -0.3120  0.7579 -0.3487
   30TCq2    C3  459   1.136   1.358  14.791 -0.3227  0.1578 -0.2706
   30TCq2    C4  460   1.172   1.480  14.833  0.1230 -0.9714 -0.4357
   30TCq2    C5  461   1.154   1.587  14.750  0.1430 -0.6934  0.5988
   30TCq2    C6  462   1.118   1.580  14.621  0.8995 -0.0383  0.1896
   30TCq2    C7  463   1.079   1.456  14.572 -0.5645 -0.0688 -0.3518
   30TCq2    C8  464   1.133   1.691  14.530  0.1049 -0.5511 -0.3496
   30TCq2    O4  465   1.078   1.673  14.420  0.0237 -0.3171 -0.0361
   30TCq2    C9  466   1.208   1.496  14.969 -0.0523  0.4824 -0.2641
   30TCq2    O5  467   1.217   1.391  15.040 -0.6206  0.4138  0.2382
   30TCq2    O6  468   1.253   1.608  14.994 -0.4530  0.0853  0.1713
   30TCq2    H2  469   1.133   1.278  14.864 -0.1154 -0.0793 -0.5173
   30TCq2    H3  470   1.167   1.686  14.793 -1.1822 -0.0013 -0.5534
   30TCq2    H4  471   1.062   1.442  14.466 -1.7234  1.4864 -0.3761
   31MPD2     C  472   3.739   0.480  14.865  0.0539 -0.5283  0.2783
   31MPD2    C1  473   3.609   0.518  14.839  0.0124 -0.2318  0.0608
   31MPD2    C2  474   3.510   0.438  14.898  0.7147  0.4299  0.1024
   31MPD2    C3  475   3.533   0.324  14.973 -0.0999 -0.2557 -0.1554
   31MPD2    C4  476   3.669   0.283  14.994 -0.2418 -0.1749 -0.6499
   31MPD2    C5  477   3.763   0.364  14.938  0.5419  0.4679  0.2940
   31MPD2     H  478   3.405   0.468  14.899  1.2781  2.3557  1.5914
   31MPD2    H1  479   3.698   0.199  15.056 -2.6409  0.8884  1.9289
   31MPD2    H2  480   3.821   0.543  14.831 -2.9315  2.0141 -2.1920
   31MPD2    H3  481   3.864   0.337  14.968  2.0146  1.8006 -3.5166
   31MPD2     N  482   3.438   0.265  15.058  0.1137  0.3088 -0.2888
   31MPD2    H5  483   3.479   0.185  15.106  0.0092 -1.2279 -2.7180
   31MPD2    N1  484   3.585   0.640  14.778  0.2115  0.1597 -0.5699
   31MPD2    H7  485   3.668   0.687  14.742  0.4479  0.8532  0.8682
   32TCq2    C1  486   3.301   0.294  15.058 -0.2640 -0.0690 -0.3141
   32TCq2    O2  487   3.234   0.384  15.006 -0.6177 -0.5200 -0.2162
   32TCq2    C2  488   3.229   0.191  15.139 -0.0500  0.3534  0.4946
   32TCq2    C3  489   3.092   0.194  15.139  0.5374  1.1311  0.0126
   32TCq2    C4  490   3.028   0.097  15.203 -0.0165 -1.0571 -0.2906
   32TCq2    C5  491   3.090   4.718  15.266  0.4923 -0.8263 -0.5012
   32TCq2    C6  492   3.227   4.718  15.271 -0.5428  0.2616  0.7108
   32TCq2    C7  493   3.302   0.089  15.197 -0.5713 -0.0651 -0.8804
   32TCq2    C8  494   3.289   4.639  15.375 -0.7536 -0.3621  0.0742
   32TCq2    O4  495   3.412   4.634  15.375  0.3885 -0.5178  0.4715
   32TCq2    C9  496   2.881   0.104  15.218 -0.1404 -0.0241 -0.0443
   32TCq2    O5  497   2.827   4.723  15.251 -0.1666 -0.2468  0.1418
   32TCq2    O6  498   2.819   0.207  15.190 -0.5711  0.1607  0.8692
   32TCq2    H2  499   3.035   0.278  15.101  0.7166  0.3966 -1.8724
   32TCq2    H3  500   3.032   4.641  15.316  0.7171 -2.1761 -2.2775
   32TCq2    H4  501   3.409   0.079  15.193 -0.4158  1.4067 -0.3249
   33MPD2     C  502   2.952   2.617  10.245 -0.0535 -0.2820  0.0843
   33MPD2    C1  503   3.091   2.621  10.263  0.1967  1.1466 -0.2322
   33MPD2    C2  504   3.163   2.689  10.166 -0.4291  0.4886 -0.1545
   33MPD2    C3  505   3.102   2.762  10.067 -0.7493 -0.1740  0.3390
   33MPD2    C4  506   2.964   2.751  10.052  0.2368  0.5727  0.4246
   33MPD2    C5  507   2.887   2.677  10.138  1.1377  0.7961 -0.5458
   33MPD2     H  508   3.265   2.720  10.187 -1.0066  2.4546 -0.2405
   33MPD2    H1  509   2.909   2.805   9.976 -0.5640 -2.0937 -0.8961
   33MPD2    H2  510   2.889   2.550  10.303 -0.5518  0.2509  0.1572
   33MPD2    H3  511   2.780   2.660  10.135  1.4042 -0.4742 -2.9176
   33MPD2     N  512   3.172   2.854   9.982 -0.1167  0.6399 -0.4644
   33MPD2    H5  513   3.113   2.918   9.931 -1.9133 -0.3117  0.3920
   33MPD2    N1  514   3.155   2.561  10.374 -0.2525 -0.5963  0.6084
   33MPD2    H7  515   3.099   2.516  10.445 -0.8703 -1.0075 -0.1443
   34TCq2    C1  516   3.308   2.843   9.951 -0.1724 -0.1776 -0.1615
   34TCq2    O2  517   3.386   2.750   9.969  0.2925  0.2957 -0.1986
   34TCq2    C2  518   3.365   2.949   9.881 -0.5845 -0.5455  1.1563
   34TCq2    C3  519   3.302   3.071   9.873  0.0074 -0.5154 -0.2048
   34TCq2    C4  520   3.358   3.176   9.805  0.1037  0.3100  0.0037
   34TCq2    C5  521   3.483   3.165   9.755  0.4508 -0.2544 -0.4111
   34TCq2    C6  522   3.554   3.052   9.770 -0.3991 -0.6212  0.1498
   34TCq2    C7  523   3.500   2.941   9.841 -0.1436  0.1107 -0.3539
   34TCq2    C8  524   3.683   3.051   9.710  0.2673 -0.1531 -0.0158
   34TCq2    O4  525   3.703   3.135   9.623 -0.6582  0.1075 -0.7888
   34TCq2    C9  526   3.292   3.306   9.797 -0.6552  0.4899 -0.3528
   34TCq2    O5  527   3.360   3.389   9.740 -0.2503 -0.3308 -0.0639
   34TCq2    O6  528   3.206   3.330   9.885  0.1492 -0.1001  0.2964
   34TCq2    H2  529   3.200   3.090   9.907  1.0548  1.0716  2.1072
   34TCq2    H3  530   3.520   3.247   9.695 -1.4231 -0.7249 -2.1740
   34TCq2    H4  531   3.557   2.849   9.841  0.2174  0.3266 -1.7568
   35MPD2     C  532   0.414   3.354  11.132 -0.2382 -0.0617  0.0123
   35MPD2    C1  533   0.441   3.489  11.153  0.7744  0.0657  0.7377
   35MPD2    C2  534   0.400   3.582  11.058  0.5083 -0.0713  0.2556
   35MPD2    C3  535   0.335   3.536  10.939  0.1215  0.0602  0.0291
   35MPD2    C4  536   0.332   3.398  10.914 -0.8512  0.6415 -0.6399
   35MPD2    C5  537   0.363   3.312  11.015 -0.2811  0.1243 -0.2162
   35MPD2     H  538   0.406   3.689  11.074  3.2191 -0.6325  3.0530
   35MPD2    H1  539   0.292   3.359  10.821 -2.8259 -1.2091  0.9648
   35MPD2    H2  540   0.456   3.290  11.210  1.1067 -1.3337 -1.7596
   35MPD2    H3  541   0.353   3.204  11.008  1.3374 -0.0856  0.6125
   35MPD2     N  542   0.276   3.626  10.845 -0.5169  0.5076 -0.4748
   35MPD2    H5  543   0.285   3.725  10.866 -0.4932  0.9730 -2.7037
   35MPD2    N1  544   0.488   3.529  11.279 -0.1586  0.0643  0.2656
   35MPD2    H7  545   0.507   3.453  11.344 -0.7623 -0.0638  0.2875
   36TCq2    C1  546   0.195   3.594  10.740  0.7925  0.0580 -0.0454
   36TCq2    O2  547   0.191   3.496  10.661  0.3420 -0.4805 -0.1563
   36TCq2    C2  548   0.113   3.711  10.705  0.7611 -0.5394  0.5598
   36TCq2    C3  549   0.128   3.841  10.740 -0.0752 -0.2174  0.5439
   36TCq2    C4  550   0.031   3.930  10.722  0.2402 -0.2836  0.0405
   36TCq2    C5  551   4.633   3.892  10.676 -0.4617  0.6657  0.1763
   36TCq2    C6  552   4.623   3.764  10.632 -0.6660  0.4548 -0.5242
   36TCq2    C7  553   4.719   3.666  10.653  0.2105  1.1480 -0.4032
   36TCq2    C8  554   4.495   3.699  10.600  0.1573  0.2575 -0.1271
   36TCq2    O4  555   4.493   3.577  10.564  0.1118  0.5696 -0.0291
   36TCq2    C9  556   0.052   4.069  10.778 -0.0823  0.3612 -0.8383
   36TCq2    O5  557   4.697   4.165  10.759 -0.3443  0.2698 -0.6549
   36TCq2    O6  558   0.162   4.083  10.834  0.0787 -0.0531  0.3567
   36TCq2    H2  559   0.218   3.883  10.783 -0.2500 -0.7424  1.4020
   36TCq2    H3  560   4.559   3.971  10.670 -0.9073  0.1603 -0.8580
   36TCq2    H4  561   4.712   3.559  10.637  0.3561  0.8534  1.5982
   37TMC2    C1  562   2.305   0.150  11.528 -0.6684  0.0492  0.6422
   37TMC2    C2  563   2.273   0.283  11.525  0.3957  0.5075  0.1021
   37TMC2    C3  564   2.378   0.371  11.520  0.4060  0.1715  0.2246
   37TMC2    C4  565   2.436   0.110  11.516 -0.2363  1.0390 -0.2432
   37TMC2    C5  566   2.540   0.200  11.527 -0.1868 -0.4753 -0.1381
   37TMC2    C6  567   2.512   0.337  11.526 -0.3251 -0.5286 -0.4491
   37TMC2     C  568   2.208   0.053  11.486  0.1448  0.0707  0.0313
   37TMC2     O  569   2.106   0.112  11.447 -0.4366 -0.8162  0.3846
   37TMC2     H  570   2.174   0.326  11.528  0.3130  0.4106 -1.2652
   37TMC2    H1  571   2.457   0.004  11.508  0.9449  1.1572  1.5351
   37TMC2    H2  572   2.590   0.412  11.532 -1.2048  0.4841 -1.5507
   37TMC2    C7  573   2.672   0.146  11.516 -0.6964  0.2519  0.5130
   37TMC2    C8  574   2.352   0.516  11.508 -0.2479  0.5498  0.0422
   37TMC2    O1  575   2.684   0.029  11.558  0.1255 -0.1226  0.1304
   37TMC2    O2  576   2.250   0.572  11.549  0.2579 -0.2246 -0.7606
   37TMC2    O5  577   2.419   0.570  11.410  0.2390 -0.1576  0.2054
   37TMC2    H5  578   2.478   0.504  11.367  0.4855 -0.2124  0.6270
   38MPD2     C  579   1.969   4.315  11.517  0.5949 -0.1497  0.1971
   38MPD2    C1  580   2.095   4.295  11.566 -0.0739  0.0695 -0.0949
   38MPD2    C2  581   2.176   4.405  11.574 -0.2631  0.3348 -0.1387
   38MPD2    C3  582   2.137   4.537  11.526  0.1606  0.3567  0.6696
   38MPD2    C4  583   2.009   4.546  11.481 -0.2952 -0.3987 -0.3781
   38MPD2    C5  584   1.925   4.442  11.473  0.2805 -0.1577 -0.3143
   38MPD2     H  585   2.271   4.391  11.624 -0.7909 -2.4595  0.0891
   38MPD2    H1  586   1.968   4.639  11.441  1.1803  1.2908  2.0422
   38MPD2    H2  587   1.905   4.231  11.494 -1.3032  1.9383 -2.0851
   38MPD2    H3  588   1.834   4.472  11.421  2.4921  2.2715 -2.7732
   38MPD2     N  589   2.226   4.651  11.536  0.2849 -0.2182 -0.2607
   38MPD2    H5  590   2.318   4.625  11.571 -1.3394 -1.7301  2.8864
   38MPD2    N1  591   2.136   4.173  11.634  0.1170  0.2274 -0.5035
   38MPD2    H7  592   2.230   4.184  11.673  0.7833 -0.1570 -2.0308
   39MPD2     C  593   0.921   1.954   1.535 -0.9081 -0.6738  0.4052
   39MPD2    C1  594   0.829   2.048   1.558  1.0799 -0.2537 -0.2067
   39MPD2    C2  595   0.704   2.031   1.488  0.0556 -0.1267  0.4815
   39MPD2    C3  596   0.680   1.926   1.397  0.6437  0.0852  0.0669
   39MPD2    C4  597   0.788   1.843   1.369  1.1944 -0.4457 -0.0306
   39MPD2    C5  598   0.904   1.855   1.447  0.2188 -0.0779 -0.5517
   39MPD2     H  599   0.623   2.102   1.499  0.6073  0.6399 -0.4216
   39MPD2    H1  600   0.778   1.756   1.306  1.2800  0.3287 -1.1121
   39MPD2    H2  601   1.018   1.959   1.584 -0.0201 -0.9636 -1.3481
   39MPD2    H3  602   0.988   1.788   1.434 -0.4909 -0.8753 -0.9866
   39MPD2     N  603   0.563   1.909   1.318 -0.4936 -0.0818  0.8363
   39MPD2    H5  604   0.569   1.831   1.253  0.3490 -0.4534  1.3578
   39MPD2    N1  605   0.858   2.159   1.644 -0.4605 -0.1329 -0.2016
   39MPD2    H7  606   0.949   2.167   1.689 -0.8613  0.8579  0.4330
   40TCq2    C1  607   0.766   2.256   1.671  0.1777 -0.0854  0.2843
   40TCq2    O2  608   0.647   2.269   1.645 -0.6588 -0.3105  0.3535
   40TCq2    C2  609   0.836   2.354   1.746 -0.1254 -0.1052 -0.2085
   40TCq2    C3  610   0.766   2.402   1.853  0.6298 -0.2815  0.4648
   40TCq2    C4  611   0.830   2.480   1.944 -0.2443  0.5608 -0.0938
   40TCq2    C5  612   0.959   2.518   1.927  0.5240 -0.2779 -0.7175
   40TCq2    C6  613   1.022   2.467   1.822 -0.6283 -0.5514 -0.5129
   40TCq2    C7  614   0.972   2.381   1.737 -0.2537 -0.5059 -0.3031
   40TCq2    C8  615   1.155   2.523   1.802  0.8838  0.9129 -0.6359
   40TCq2    O4  616   1.190   2.617   1.867  0.3264 -0.1007  0.1357
   40TCq2    C9  617   0.762   2.523   2.062  0.0456 -0.5795 -0.4854
   40TCq2    O5  618   0.637   2.535   2.045 -0.3195 -0.3106 -0.0900
   40TCq2    O6  619   0.828   2.586   2.144 -0.1640 -0.1234  0.2319
   40TCq2    H2  620   0.663   2.378   1.875  1.1856 -2.6498  0.4433
   40TCq2    H3  621   1.005   2.579   2.004  0.7155 -1.7623  0.3286
   40TCq2    H4  622   1.032   2.342   1.655  1.4457  2.6195 -0.5363
   41TMC2    C1  623   4.691   4.352  13.265  0.0720  0.0856 -0.3463
   41TMC2    C2  624   4.652   4.465  13.327 -0.4282  0.3870 -0.9528
   41TMC2    C3  625   4.563   4.547  13.259 -0.2836  0.3430  0.5956
   41TMC2    C4  626   4.642   4.320  13.138 -0.2095 -0.2772  0.1059
   41TMC2    C5  627   4.559   4.404  13.078  0.3122  0.6572 -0.0150
   41TMC2    C6  628   4.502   4.511  13.139  0.1305  0.2419  0.1525
   41TMC2     C  629   0.033   4.240  13.330 -0.6957  0.6479 -0.5961
   41TMC2     O  630   0.069   4.150  13.256  0.1923  0.4726 -0.1324
   41TMC2     H  631   4.677   4.496  13.428 -0.9895  0.1102 -0.7273
   41TMC2    H1  632   4.679   4.231  13.089  0.7987  0.3865 -0.3430
   41TMC2    H2  633   4.438   4.587  13.095  1.1433  0.8401 -0.2956
   41TMC2    C7  634   4.499   4.377  12.948 -0.0660 -0.3868  0.3441
   41TMC2    C8  635   4.518   4.678  13.315  0.0049 -0.0920  1.2524
   41TMC2    O1  636   4.389   4.422  12.931 -0.2703  0.1633  0.2808
   41TMC2    O2  637   4.589   0.016  13.386  0.4052  0.2090  0.4972
   41TMC2    O5  638   4.384   4.669  13.322  0.7718 -0.0409 -0.6702
   41TMC2    H5  639   4.349   4.597  13.265 -1.9722 -0.3927  1.4771
   42MPD2     C  640   0.132   4.023  13.522 -0.0468 -0.5858 -0.1705
   42MPD2    C1  641   0.056   4.139  13.552  0.3786  0.3642 -0.6910
   42MPD2    C2  642   0.008   4.156  13.680 -0.1660 -0.3680  0.3654
   42MPD2    C3  643   0.030   4.057  13.774  0.3932 -0.5677 -0.0824
   42MPD2    C4  644   0.112   3.946  13.755 -0.7336 -0.0605 -1.4777
   42MPD2    C5  645   0.160   3.932  13.627 -0.1079 -0.6086 -0.1420
   42MPD2     H  646   4.676   4.242  13.711 -0.4113 -0.3611 -0.1121
   42MPD2    H1  647   0.135   3.865  13.823 -0.7071  1.2468  0.0582
   42MPD2    H2  648   0.154   4.004  13.418  1.5653  0.6572 -0.0636
   42MPD2    H3  649   0.229   3.852  13.604  3.3647  1.9668  1.3351
   42MPD2     N  650   4.707   4.065  13.912  0.1211  0.4463 -0.5155
   42MPD2    H5  651   0.019   3.991  13.971 -2.2468 -1.2624 -1.1440
   42MPD2    N1  652   0.022   4.242  13.463 -0.6149  0.2413 -0.1912
   42MPD2    H7  653   4.694   4.322  13.498 -0.6435  0.5805 -1.0088
   43MPD2     C  654   0.758   2.063   0.417  0.1175  0.1003  1.1927
   43MPD2    C1  655   0.869   2.069   0.491  0.0715  0.0188  0.2006
   43MPD2    C2  656   0.885   2.153   0.593  0.1960 -0.2787  0.6005
   43MPD2    C3  657   0.782   2.245   0.612  0.0733  0.1633 -0.5842
   43MPD2    C4  658   0.670   2.243   0.539 -0.1929 -0.0935 -0.4551
   43MPD2    C5  659   0.654   2.149   0.440  0.0568 -0.0345 -0.1907
   43MPD2     H  660   0.978   2.149   0.648  0.1678 -1.2768  0.5779
   43MPD2    H1  661   0.592   2.317   0.557  0.1999  0.8502 -2.6233
   43MPD2    H2  662   0.744   1.996   0.333 -1.8332  1.0639  0.7466
   43MPD2    H3  663   0.566   2.146   0.377 -2.0120 -1.2510  2.7083
   43MPD2     N  664   0.796   2.363   0.689  0.2708 -0.2768  0.1386
   43MPD2    H5  665   0.718   2.429   0.686 -0.1216 -0.7613 -0.2220
   43MPD2    N1  666   0.974   1.974   0.471 -0.5092  0.2241  0.3116
   43MPD2    H7  667   1.054   1.983   0.534  0.0284 -3.9157  0.1839
   44TCq2    C1  668   1.070   2.679   1.096  0.4640  0.3708 -0.3726
   44TCq2    O2  669   1.183   2.635   1.069  0.1028  0.1070 -0.0367
   44TCq2    C2  670   0.976   2.672   0.985  0.3165 -0.3126  0.0109
   44TCq2    C3  671   0.898   2.777   0.939 -0.4564  0.4219  0.5147
   44TCq2    C4  672   0.825   2.749   0.828  0.2231  0.4218 -0.0677
   44TCq2    C5  673   0.824   2.628   0.766  0.5563  0.3245 -1.0665
   44TCq2    C6  674   0.894   2.527   0.824 -0.8239  0.1181  0.0933
   44TCq2    C7  675   0.981   2.546   0.928 -0.9094 -0.2886 -0.1675
   44TCq2    C8  676   0.906   2.397   0.767  0.2853  0.1177 -0.2840
   44TCq2    O4  677   1.015   2.338   0.774 -0.6195  0.1910 -0.7134
   44TCq2    C9  678   0.738   2.859   0.787 -0.4167  0.5311 -0.5335
   44TCq2    O5  679   0.653   2.827   0.706  0.1478  0.0508  0.2740
   44TCq2    O6  680   0.750   2.976   0.832  0.2786 -0.1426 -0.9047
   44TCq2    H2  681   0.897   2.876   0.983 -1.3734 -0.0966  1.6636
   44TCq2    H3  682   0.762   2.613   0.679  0.5439 -2.1276 -0.6200
   44TCq2    H4  683   1.040   2.468   0.976  0.4818  1.0835  0.3805
   45TMC2    C1  684   1.947   4.476   9.618  0.9150  0.0377 -0.0332
   45TMC2    C2  685   1.868   4.439   9.505 -0.5392  0.2594  0.7528
   45TMC2    C3  686   1.760   4.522   9.475 -0.0147 -0.1320 -0.4883
   45TMC2    C4  687   1.926   4.588   9.688  0.4157  0.1532  0.3579
   45TMC2    C5  688   1.819   4.664   9.655  0.4840  0.5040 -0.2423
   45TMC2    C6  689   1.737   4.639   9.548 -0.0708  0.1766 -0.3442
   45TMC2     C  690   2.047   4.385   9.667 -0.0487  0.6432  0.6951
   45TMC2     O  691   2.076   4.396   9.786 -0.4553 -0.3749  0.3493
   45TMC2     H  692   1.854   4.335   9.476  2.3369 -0.1595  0.8996
   45TMC2    H1  693   1.995   4.603   9.770 -0.5586 -1.0659  1.4231
   45TMC2    H2  694   1.648   4.699   9.535 -0.1339 -0.0324 -0.9114
   45TMC2    C7  695   1.810   0.054   9.742  0.2047 -0.4874  0.3166
   45TMC2    C8  696   1.708   4.504   9.340 -0.2813 -0.2699 -0.7092
   45TMC2    O1  697   1.881   0.048   9.838  0.6016 -0.7716 -0.1940
   45TMC2    O2  698   1.722   4.396   9.280  0.1019 -0.1976  0.2356
   45TMC2    O5  699   1.748   4.617   9.280 -0.4312 -0.1819  0.5649
   45TMC2    H5  700   1.732   4.705   9.321  0.0761 -0.2877  0.9917
   46MPD2     C  701   2.276   4.206   9.699 -0.4009 -0.1099  0.7928
   46MPD2    C1  702   2.176   4.191   9.602  0.9779  1.1560  0.1165
   46MPD2    C2  703   2.173   4.071   9.532 -0.6112 -0.8856 -0.1047
   46MPD2    C3  704   2.252   3.964   9.564  0.4728 -0.1691  0.0787
   46MPD2    C4  705   2.346   3.981   9.664 -0.4532  0.6297 -0.6178
   46MPD2    C5  706   2.360   4.102   9.729  0.1139 -0.4915 -0.4104
   46MPD2     H  707   2.105   4.062   9.448 -2.4025 -1.0198  1.3629
   46MPD2    H1  708   2.418   3.902   9.682 -0.3448  0.5425 -1.4006
   46MPD2    H2  709   2.302   4.304   9.738 -0.6328  0.3093 -0.0918
   46MPD2    H3  710   2.442   4.118   9.798 -1.4863 -0.0637  1.3855
   46MPD2     N  711   2.226   3.847   9.500 -0.2494 -0.1435 -0.4472
   46MPD2    H5  712   2.152   3.848   9.430  0.3110 -1.5786 -1.0793
   46MPD2    N1  713   2.085   4.292   9.570 -0.2058 -0.0672 -0.3949
   46MPD2    H7  714   2.035   4.284   9.482 -0.2710  0.4082 -0.4006
   47TMC2    C1  715   3.565   0.109   9.435  0.5049 -0.6278  0.2090
   47TMC2    C2  716   3.646   0.137   9.330  0.0378 -0.0582  0.1255
   47TMC2    C3  717   3.593   0.193   9.218 -0.0095 -0.5699  0.3463
   47TMC2    C4  718   3.428   0.113   9.418  0.7703  0.3406 -0.7092
   47TMC2    C5  719   3.372   0.164   9.301  0.9435  0.4448  0.6933
   47TMC2    C6  720   3.456   0.211   9.206 -0.7751  0.1724 -0.5409
   47TMC2     C  721   3.612   0.086   9.567 -0.5608  0.5131 -0.3993
   47TMC2     O  722   3.526   0.083   9.656  0.2810  0.3445  0.6607
   47TMC2     H  723   3.753   0.154   9.343  0.0030  0.0593  0.2530
   47TMC2    H1  724   3.367   0.099   9.506  1.7471 -1.1188 -0.2525
   47TMC2    H2  725   3.412   0.266   9.123  1.5245 -0.4114 -2.1203
   47TMC2    C7  726   3.223   0.187   9.295  0.5873 -0.0634  0.0161
   47TMC2    C8  727   3.674   0.295   9.153  0.8048  0.0840  0.1075
   47TMC2    O1  728   3.183   0.264   9.210 -0.8493  0.3229 -0.4063
   47TMC2    O2  729   3.757   0.359   9.214 -0.2097  0.4634 -0.5681
   47TMC2    O5  730   3.626   0.328   9.030 -0.1274 -0.3391 -0.8212
   47TMC2    H5  731   3.605   0.245   8.982  2.9103 -0.5466 -1.7618
   48MPD2     C  732   3.772   0.026   9.803  0.0486 -0.2521  0.0955
   48MPD2    C1  733   3.814   0.002   9.672 -0.6329  1.6936  0.2810
   48MPD2    C2  734   3.933   4.663   9.653 -0.0757  0.0488  0.2616
   48MPD2    C3  735   4.017   4.624   9.756 -0.3713  1.1286  0.1043
   48MPD2    C4  736   3.981   4.659   9.887  0.3448 -0.0464  0.4107
   48MPD2    C5  737   3.859   4.715   9.902  0.8450  0.5834  0.3016
   48MPD2     H  738   3.957   4.645   9.549 -0.3201 -0.2533  0.2584
   48MPD2    H1  739   4.025   4.634   9.983  1.6964  0.6249 -0.0372
   48MPD2    H2  740   3.671   0.059   9.828  0.4957 -0.4635  2.1216
   48MPD2    H3  741   3.822   0.001  10.003 -1.1217  1.2534 -0.4929
   48MPD2     N  742   4.134   4.545   9.731  0.5210  0.2052 -0.3750
   48MPD2    H5  743   4.146   4.512   9.636  0.3440  0.3229 -0.4375
   48MPD2    N1  744   3.740   0.042   9.560 -0.4561 -0.0431 -0.0415
   48MPD2    H7  745   3.783   0.028   9.470  0.5343  0.8118  0.2936
   49MPD2     C  746   2.950   1.908  10.267 -0.2058  0.7441 -0.3086
   49MPD2    C1  747   3.014   1.789  10.299 -0.5092 -0.5546 -0.3597
   49MPD2    C2  748   2.974   1.719  10.411 -0.2274  0.3042 -0.8247
   49MPD2    C3  749   2.860   1.758  10.478  0.1374 -0.5625  0.3250
   49MPD2    C4  750   2.793   1.870  10.441  0.1095 -0.2230 -0.8325
   49MPD2    C5  751   2.844   1.943  10.341  0.2917 -0.8149  0.1766
   49MPD2     H  752   3.030   1.629  10.434 -0.0535  1.0076  1.4499
   49MPD2    H1  753   2.695   1.899  10.479  0.2043 -0.3322 -0.4997
   49MPD2    H2  754   2.977   1.977  10.188  0.9371  0.9866  0.2897
   49MPD2    H3  755   2.795   2.033  10.304  2.3940  1.4105  2.8154
   49MPD2     N  756   2.807   1.686  10.588  0.2363 -0.1662 -0.2936
   49MPD2    H5  757   2.727   1.723  10.638 -0.7022 -0.3448 -1.6916
   49MPD2    N1  758   3.117   1.739  10.217  0.1838 -0.1391 -0.1105
   49MPD2    H7  759   3.164   1.653  10.246 -1.3578 -1.0471 -0.3227
   50TCq2    C1  760   3.173   1.810  10.109 -0.1306  0.1735  0.1968
   50TCq2    O2  761   3.139   1.914  10.050  0.0335 -0.1079  0.0491
   50TCq2    C2  762   3.260   1.720  10.038 -0.5207  0.0485  0.1329
   50TCq2    C3  763   3.259   1.581  10.054 -0.2531  0.3132 -0.3951
   50TCq2    C4  764   3.345   1.506   9.980  0.0485 -0.1873 -0.1496
   50TCq2    C5  765   3.433   1.563   9.891  0.6025 -0.3947 -0.6142
   50TCq2    C6  766   3.445   1.698   9.890 -0.2868  0.0250  0.2357
   50TCq2    C7  767   3.352   1.778   9.951  0.2593 -0.0302  0.2927
   50TCq2    C8  768   3.542   1.755   9.797 -0.0916  1.3407 -0.5264
   50TCq2    O4  769   3.532   1.879   9.775 -0.3013  0.3841  0.2453
   50TCq2    C9  770   3.339   1.363   9.997  0.5523 -0.0523  0.2825
   50TCq2    O5  771   3.396   1.292   9.908  0.4160 -0.4196  0.1169
   50TCq2    O6  772   3.284   1.324  10.106 -0.0093  0.1692 -0.5645
   50TCq2    H2  773   3.181   1.526  10.107 -0.5712  2.0911  0.9715
   50TCq2    H3  774   3.501   1.498   9.839  1.3504  1.2193 -1.6530
   50TCq2    H4  775   3.358   1.886   9.953  0.2832  0.0076 -1.6886
   51MPD2     C  776   2.252   0.476   1.064 -0.0435  0.2966  0.4731
   51MPD2    C1  777   2.321   0.477   1.190 -0.0529 -0.4734  0.1098
   51MPD2    C2  778   2.324   0.599   1.257  0.5839 -0.1022  0.2553
   51MPD2    C3  779   2.243   0.706   1.223  0.2910 -0.0799  0.5884
   51MPD2    C4  780   2.169   0.689   1.102  0.0304  0.3244  0.1162
   51MPD2    C5  781   2.173   0.579   1.029 -0.5177  0.0685  0.3697
   51MPD2     H  782   2.385   0.602   1.347  0.1810  1.5124  0.4857
   51MPD2    H1  783   2.121   0.772   1.051  2.1525  0.3819 -1.7937
   51MPD2    H2  784   2.234   0.386   1.008  0.6211  1.3867 -1.4921
   51MPD2    H3  785   2.111   0.584   0.940  0.5227  2.2253 -0.2089
   51MPD2     N  786   2.243   0.837   1.283 -0.0883 -0.2101  0.4378
   51MPD2    H5  787   2.175   0.899   1.240  0.9829  1.7948  1.6680
   51MPD2    N1  788   2.403   0.370   1.235  0.1388 -0.5892 -1.0747
   51MPD2    H7  789   2.443   0.381   1.327  0.2170 -0.7147 -1.0945
   52TCq2    C1  790   2.314   0.866   1.401 -0.0134  0.3614 -0.7939
   52TCq2    O2  791   2.396   0.803   1.468 -0.2382  0.1485 -0.7833
   52TCq2    C2  792   2.319   1.008   1.439  0.0529  0.6787 -0.1837
   52TCq2    C3  793   2.225   1.092   1.388  0.5997 -0.5642  0.2211
   52TCq2    C4  794   2.223   1.225   1.425  0.5073  0.0158 -0.0131
   52TCq2    C5  795   2.313   1.277   1.520 -0.0406 -0.9219 -0.2271
   52TCq2    C6  796   2.406   1.184   1.576 -0.4720  0.0629  0.6035
   52TCq2    C7  797   2.403   1.048   1.542  0.2220 -0.1811 -0.0369
   52TCq2    C8  798   2.495   1.225   1.676  0.2621  0.0550 -0.1278
   52TCq2    O4  799   2.502   1.348   1.692 -0.1399  0.0615  0.1145
   52TCq2    C9  800   2.108   1.308   1.379 -0.0381  0.7320 -0.6553
   52TCq2    O5  801   2.099   1.420   1.442  0.3254 -0.3073  0.2873
   52TCq2    O6  802   2.006   1.252   1.324  0.3035  0.1032  0.1541
   52TCq2    H2  803   2.150   1.049   1.322 -0.6862 -0.7497  1.8119
   52TCq2    H3  804   2.300   1.380   1.552 -2.1178 -0.7973 -1.4876
   52TCq2    H4  805   2.468   0.975   1.588 -0.3152  0.4270  1.6725
   53TMC2    C1  806   3.285   4.497  11.474  0.5607 -0.2521 -0.3307
   53TMC2    C2  807   3.370   4.401  11.427 -0.8981 -0.0214 -0.1385
   53TMC2    C3  808   3.393   4.297  11.511  0.2726 -0.1963  0.7927
   53TMC2    C4  809   3.226   4.489  11.600  0.4407 -0.0806 -0.0575
   53TMC2    C5  810   3.263   4.386  11.680  0.3299  0.1132  0.3338
   53TMC2    C6  811   3.347   4.286  11.640 -0.4570 -0.1792 -0.3216
   53TMC2     C  812   3.257   4.607  11.388 -0.0956  0.1753 -0.1711
   53TMC2     O  813   3.327   4.623  11.287  0.0168  0.1932  0.4127
   53TMC2     H  814   3.420   4.392  11.332 -3.9291 -0.3078 -1.7023
   53TMC2    H1  815   3.170   4.565  11.653  0.0982 -1.3550  1.4263
   53TMC2    H2  816   3.366   4.195  11.695 -1.2978  0.2668  0.7070
   53TMC2    C7  817   3.220   4.384  11.820  0.1737 -0.0092 -0.8347
   53TMC2    C8  818   3.501   4.212  11.478  0.3066  0.1633  0.3045
   53TMC2    O1  819   3.116   4.444  11.848  0.2052  0.1166 -0.0333
   53TMC2    O2  820   3.528   4.182  11.361 -0.2017 -0.1988  0.0187
   53TMC2    O5  821   3.597   4.239  11.573 -0.6711 -0.1710  0.0623
   53TMC2    H5  822   3.566   4.267  11.661  0.8287  0.3392  0.4233
   54MPD2     C  823   3.139   0.154  11.304  0.5796 -0.1297 -0.5186
   54MPD2    C1  824   3.088   0.065  11.392  0.5717  0.1869 -1.0024
   54MPD2    C2  825   2.960   0.092  11.441  0.5701 -0.4547  0.4925
   54MPD2    C3  826   2.883   0.200  11.403 -0.1114 -0.3193  0.3119
   54MPD2    C4  827   2.946   0.284  11.313 -0.1989  0.5397  0.4987
   54MPD2    C5  828   3.072   0.269  11.264  0.0248 -0.2090  0.3286
   54MPD2     H  829   2.916   0.015  11.504 -1.0287  0.3342  0.3305
   54MPD2    H1  830   2.896   0.375  11.285 -2.1580  0.1572  2.7319
   54MPD2    H2  831   3.238   0.143  11.260  0.6845  0.0463 -0.3255
   54MPD2    H3  832   3.105   0.349  11.200  3.6983 -2.3561 -0.4047
   54MPD2     N  833   2.747   0.233  11.436  0.2619  0.3195 -0.2088
   54MPD2    H5  834   2.708   0.316  11.393  1.9398  0.2116 -1.8959
   54MPD2    N1  835   3.145   4.669  11.433  0.0097 -0.6230 -0.1757
   54MPD2    H7  836   3.101   4.624  11.513 -2.0334  1.7168  0.0115
   55MPD2     C  837   3.448   1.545   0.367  0.6298  0.2460 -0.1382
   55MPD2    C1  838   3.363   1.463   0.437  0.7179 -0.1652  0.1387
   55MPD2    C2  839   3.247   1.515   0.481 -0.0209 -0.4196 -0.3027
   55MPD2    C3  840   3.215   1.647   0.458  0.1318  0.4039  0.3564
   55MPD2    C4  841   3.292   1.728   0.379  0.0676 -0.2989 -0.4010
   55MPD2    C5  842   3.412   1.677   0.340  1.0118  0.9586 -0.7020
   55MPD2     H  843   3.175   1.460   0.541  0.8692  0.2621  1.3812
   55MPD2    H1  844   3.279   1.833   0.359  1.2048  0.1910  1.4584
   55MPD2    H2  845   3.534   1.502   0.317 -0.1297 -1.3536 -0.0660
   55MPD2    H3  846   3.483   1.737   0.284  1.1735  0.5540 -0.9299
   55MPD2     N  847   3.090   1.699   0.504  0.7991 -0.3699  0.0492
   55MPD2    H5  848   3.040   1.632   0.562 -0.3761 -0.1467 -0.6984
   55MPD2    N1  849   3.407   1.328   0.459 -0.4060  0.3876  0.3491
   55MPD2    H7  850   3.501   1.296   0.437 -0.2451  0.6154  0.7040
   56TCq2    C1  851   3.334   1.230   0.519 -0.1669 -0.6769 -0.1313
   56TCq2    O2  852   3.213   1.226   0.540  0.1134  0.4012 -0.3006
   56TCq2    C2  853   3.411   1.130   0.580 -0.9942 -0.5417  0.3980
   56TCq2    C3  854   3.549   1.136   0.575 -0.1921  0.2930  0.0021
   56TCq2    C4  855   3.611   1.021   0.618 -0.9564 -0.1710 -0.4164
   56TCq2    C5  856   3.544   0.910   0.662 -0.4211 -0.3780 -0.4808
   56TCq2    C6  857   3.409   0.917   0.669 -0.2055  0.3056 -0.2115
   56TCq2    C7  858   3.335   1.018   0.619 -0.2281 -0.0068  0.1769
   56TCq2    C8  859   3.335   0.792   0.700  0.1335  0.4464 -0.3408
   56TCq2    O4  860   3.390   0.682   0.696 -0.1231 -0.3638  0.2180
   56TCq2    C9  861   3.757   1.019   0.613 -0.0415  0.4320 -0.5169
   56TCq2    O5  862   3.813   0.909   0.637  0.2499 -0.3051  0.5346
   56TCq2    O6  863   3.819   1.118   0.566  0.5276 -0.4779 -0.5232
   56TCq2    H2  864   3.608   1.223   0.549  0.1830  0.0878  0.1675
   56TCq2    H3  865   3.604   0.828   0.699  0.0534  0.5602  0.8412
   56TCq2    H4  866   3.227   1.010   0.618 -0.1524 -1.0988  0.1620
   57TMC2    C1  867   2.967   3.423  13.723 -0.3723 -0.1781 -0.8281
   57TMC2    C2  868   3.052   3.443  13.828  0.3060  0.0304 -0.1902
   57TMC2    C3  869   3.172   3.383  13.835 -0.2525 -0.0652 -0.1217
   57TMC2    C4  870   3.012   3.343  13.618 -0.4092 -0.2160  0.3941
   57TMC2    C5  871   3.131   3.275  13.630 -0.9258  0.4622 -0.3738
   57TMC2    C6  872   3.211   3.292  13.739 -0.6301  0.5416  0.7070
   57TMC2     C  873   2.824   3.405  13.770 -0.6617 -0.0630  0.2002
   57TMC2     O  874   2.793   3.457  13.873 -0.0953  0.6100  0.0723
   57TMC2     H  875   3.012   3.488  13.918  0.4396  2.9982 -1.5975
   57TMC2    H1  876   2.943   3.331  13.535  0.2877  0.1856 -0.2521
   57TMC2    H2  877   3.312   3.252  13.740 -0.1195  1.7700 -0.7153
   57TMC2    C7  878   3.186   3.196  13.524 -0.4523 -0.4403 -0.1182
   57TMC2    C8  879   3.237   3.390  13.962 -0.6624  0.3483  0.2129
   57TMC2    O1  880   3.278   3.117  13.544  0.2295 -0.0647 -0.1717
   57TMC2    O2  881   3.212   3.482  14.043  0.4783 -0.3406 -0.1654
   57TMC2    O5  882   3.266   3.264  14.004 -0.0983  0.0496  0.5429
   57TMC2    H5  883   3.242   3.186  13.950 -4.5173  1.9680 -0.2333
   58MPD2     C  884   2.376   3.162  13.800  0.1278  0.0249  0.3600
   58MPD2    C1  885   2.427   3.267  13.870 -0.4823  0.2896 -0.4586
   58MPD2    C2  886   2.547   3.328  13.826  0.1755 -0.3259 -0.2758
   58MPD2    C3  887   2.631   3.259  13.733  0.2314 -0.0794 -0.4448
   58MPD2    C4  888   2.576   3.157  13.659  0.7620 -0.0506 -0.8131
   58MPD2    C5  889   2.453   3.112  13.694  0.8678  0.4821  0.3037
   58MPD2     H  890   2.574   3.418  13.879 -1.1685  0.6242 -1.2069
   58MPD2    H1  891   2.636   3.128  13.574  0.4252 -0.6184 -0.8553
   58MPD2    H2  892   2.275   3.128  13.815 -0.2700  0.5843 -1.0501
   58MPD2    H3  893   2.408   3.040  13.625 -3.9121  0.2990  3.6045
   58MPD2     N  894   2.756   3.311  13.694 -0.2182  0.3594  0.4170
   58MPD2    H5  895   2.817   3.263  13.628 -0.9818 -0.1614  0.0966
   58MPD2    N1  896   2.359   3.352  13.967 -0.4310  0.1503 -0.3731
   58MPD2    H7  897   2.400   3.442  13.987  0.4968 -0.4569  0.4766
   59MPD2     C  898   0.542   3.311  13.174 -0.0244  0.0253 -0.1020
   59MPD2    C1  899   0.587   3.341  13.044 -0.1271 -0.2054  0.1697
   59MPD2    C2  900   0.726   3.381  13.042 -0.3459 -0.3424 -0.7283
   59MPD2    C3  901   0.797   3.417  13.153  0.1878  0.0176 -0.3773
   59MPD2    C4  902   0.743   3.397  13.273 -0.0388 -0.5869  0.2434
   59MPD2    C5  903   0.618   3.340  13.282  0.7862 -0.6311  0.1161
   59MPD2     H  904   0.773   3.403  12.946  2.0425 -0.0609  0.4981
   59MPD2    H1  905   0.795   3.414  13.367 -0.0786 -0.7906  0.3032
   59MPD2    H2  906   0.439   3.278  13.183 -0.2338  0.8260  0.5054
   59MPD2    H3  907   0.579   3.315  13.380 -0.5788  0.4284 -0.1571
   59MPD2     N  908   0.923   3.471  13.155  0.4431 -0.7970  0.9143
   59MPD2    H5  909   0.948   3.504  13.248  1.2688 -0.8403  0.7119
   59MPD2    N1  910   0.514   3.332  12.924  0.1912 -0.4431 -0.4396
   59MPD2    H7  911   0.569   3.322  12.839 -0.5577  0.6215 -1.0506
   60TCq2    C1  912   0.380   3.322  12.909  0.3483  0.1363 -0.2503
   60TCq2    O2  913   0.295   3.331  13.001 -0.4329  0.1774 -0.1324
   60TCq2    C2  914   0.331   3.336  12.773 -0.1108  0.1705  0.1272
   60TCq2    C3  915   0.217   3.403  12.749  0.1183 -0.0295 -0.0086
   60TCq2    C4  916   0.178   3.413  12.618  0.5298  0.1080 -0.3531
   60TCq2    C5  917   0.253   3.368  12.509  0.3684 -0.2253  0.4676
   60TCq2    C6  918   0.370   3.304  12.542  0.1137 -0.0355  0.6921
   60TCq2    C7  919   0.414   3.297  12.673 -0.3819 -0.1692  0.0160
   60TCq2    C8  920   0.460   3.259  12.439  0.0109 -0.5856 -0.9716
   60TCq2    O4  921   0.554   3.188  12.470 -0.4186 -0.3648  0.4827
   60TCq2    C9  922   0.046   3.463  12.596 -0.8504 -0.5881 -0.0656
   60TCq2    O5  923   4.713   3.508  12.697 -0.4905 -0.0570 -0.1302
   60TCq2    O6  924   4.718   3.438  12.484  0.1796 -0.0678  0.7403
   60TCq2    H2  925   0.159   3.436  12.835  0.5936 -0.2014  0.3738
   60TCq2    H3  926   0.224   3.383  12.406  0.0459 -0.8642  0.4665
   60TCq2    H4  927   0.494   3.227  12.695  1.4383  1.3076 -1.9127
   61MPD2     C  928   0.054   4.525  14.242 -0.0962 -0.7806  0.6852
   61MPD2    C1  929   0.118   4.628  14.300  0.6140  0.2120  0.2375
   61MPD2    C2  930   0.148   0.016  14.231 -0.1619 -0.4179 -0.3831
   61MPD2    C3  931   0.094   0.038  14.111 -0.2688 -0.1332 -0.3412
   61MPD2    C4  932   0.023   4.660  14.046  0.4535  0.1986  0.0016
   61MPD2    C5  933   0.018   4.537  14.105  0.4536 -0.4471  0.1173
   61MPD2     H  934   0.216   0.092  14.268 -2.6334  1.4102  0.3767
   61MPD2    H1  935   4.706   4.674  13.947 -0.5347  1.3748  0.5872
   61MPD2    H2  936   0.041   4.428  14.289  0.6860 -0.4373  1.6006
   61MPD2    H3  937   4.707   4.451  14.050  0.3511  0.9342 -1.9761
   61MPD2     N  938   0.108   0.154  14.042  0.7103 -0.3676  0.4633
   61MPD2    H5  939   0.081   0.149  13.944 -2.1620 -0.7799  1.2961
   61MPD2    N1  940   0.161   4.620  14.435 -0.0186  0.0792  1.0584
   61MPD2    H7  941   0.229   4.685  14.472 -1.1936  3.5885 -2.9084
   62TCq2    C1  942   0.131   4.522  14.525 -0.2264 -0.2871  0.5350
   62TCq2    O2  943   0.069   4.417  14.522  0.1039 -0.3486 -0.8457
   62TCq2    C2  944   0.187   4.556  14.652  0.3432 -0.0087 -0.5408
   62TCq2    C3  945   0.275   4.471  14.710 -0.0469  0.0033 -0.4891
   62TCq2    C4  946   0.352   4.515  14.815  0.9067 -0.4507  0.5660
   62TCq2    C5  947   0.325   4.626  14.882 -0.7059 -0.3551  0.3737
   62TCq2    C6  948   0.243   4.714  14.822  0.4801 -0.5807 -0.0602
   62TCq2    C7  949   0.187   4.686  14.699  0.1540  0.1097 -0.2589
   62TCq2    C8  950   0.203   0.119  14.872 -0.3414  0.4993 -0.3394
   62TCq2    O4  951   0.282   0.166  14.952  0.0235  0.2288  0.5801
   62TCq2    C9  952   0.452   4.424  14.868 -0.1973 -0.3470 -0.8114
   62TCq2    O5  953   0.490   4.443  14.984 -0.1828  0.0146 -0.0382
   62TCq2    O6  954   0.463   4.309  14.813 -0.0236 -0.3684 -0.1415
   62TCq2    H2  955   0.294   4.376  14.660  0.7095  1.2447 -2.5723
   62TCq2    H3  956   0.374   4.654  14.975  0.5268 -2.4502  0.3569
   62TCq2    H4  957   0.142   0.035  14.633  0.0674  1.3980  1.2578
   63TMC2    C1  958   3.900   4.441  10.743 -0.6714 -0.4008 -0.4478
   63TMC2    C2  959   3.799   4.526  10.782  0.5394 -0.7440  0.6282
   63TMC2    C3  960   3.810   4.580  10.906  0.0857  0.3695  0.5459
   63TMC2    C4  961   4.010   4.404  10.818  0.1584  0.8114 -0.9576
   63TMC2    C5  962   4.018   4.462  10.938 -0.0109  0.0176 -0.5493
   63TMC2    C6  963   3.927   4.557  10.981  0.4574  0.3044 -0.3076
   63TMC2     C  964   3.886   4.386  10.608  0.0966 -0.2485  0.0599
   63TMC2     O  965   3.825   4.459  10.529 -0.0182 -0.0742 -0.2014
   63TMC2     H  966   3.718   4.548  10.712 -1.3661 -0.7680  2.8394
   63TMC2    H1  967   4.078   4.323  10.794  0.2368  1.3481 -2.5653
   63TMC2    H2  968   3.940   4.596  11.082 -0.2503 -0.2427 -0.0073
   63TMC2    C7  969   4.130   4.443  11.028  0.7630 -0.0846 -0.3009
   63TMC2    C8  970   3.711   4.667  10.947  0.3071  0.2919  0.2335
   63TMC2    O1  971   4.106   4.415  11.145 -0.7974  0.2485 -0.0392
   63TMC2    O2  972   3.734   0.016  11.041  0.6183  0.4978  0.1833
   63TMC2    O5  973   3.588   4.626  10.901 -0.5682 -0.9512  0.7597
   63TMC2    H5  974   3.583   4.545  10.846 -1.4995 -0.1625 -0.3177
   64MPD2     C  975   3.871   4.031  10.240 -0.3840 -0.2580  0.0506
   64MPD2    C1  976   3.968   3.990  10.330  0.0382  0.0519  0.4863
   64MPD2    C2  977   3.990   4.078  10.441  0.1200  0.3686  0.3865
   64MPD2    C3  978   3.922   4.197  10.458 -0.1060  0.1349 -0.6736
   64MPD2    C4  979   3.828   4.230  10.366 -0.7685  0.1880  0.1568
   64MPD2    C5  980   3.805   4.146  10.262  0.8583  0.5679 -0.2937
   64MPD2     H  981   4.068   4.047  10.511 -0.1161  1.8331  1.3198
   64MPD2    H1  982   3.771   4.323  10.368 -1.2150 -0.0885  0.3287
   64MPD2    H2  983   3.850   3.984  10.144  2.0324  0.8076 -1.0051
   64MPD2    H3  984   3.729   4.177  10.192  1.5844  1.4595 -0.6900
   64MPD2     N  985   3.951   4.272  10.579 -0.1444 -0.1498 -0.1780
   64MPD2    H5  986   4.021   4.234  10.641 -2.6632 -3.2287  0.7970
   64MPD2    N1  987   4.050   3.878  10.314  0.4778 -0.2236  0.2101
   64MPD2    H7  988   4.135   3.875  10.370  0.3079  0.6689  0.5151
   65MPD2     C  989   0.833   3.896  15.699  0.7314 -0.4647 -0.3179
   65MPD2    C1  990   0.852   3.923  15.565  0.4584 -0.4327 -0.1027
   65MPD2    C2  991   0.808   3.831  15.471  0.7523 -0.1014  0.5152
   65MPD2    C3  992   0.743   3.714  15.508 -0.7149  0.3952  0.5260
   65MPD2    C4  993   0.733   3.690  15.644 -0.4930  0.4029 -0.2306
   65MPD2    C5  994   0.767   3.787  15.738 -0.2034  0.2667 -0.4733
   65MPD2     H  995   0.798   3.870  15.371  0.1883 -1.5248  0.0153
   65MPD2    H1  996   0.676   3.606  15.683 -0.8851  0.7099 -0.1348
   65MPD2    H2  997   0.858   3.969  15.775 -0.0529 -1.0838  0.5371
   65MPD2    H3  998   0.743   3.776  15.843  4.4810  0.5070  0.6325
   65MPD2     N  999   0.682   3.617  15.420  0.5891  0.1831 -0.2757
   65MPD2    H5 1000   0.646   3.531  15.459  0.0334  0.0834 -1.0045
   65MPD2    N1 1001   0.904   4.049  15.525  0.3001  0.0142 -0.2188
   65MPD2    H7 1002   0.908   4.062  15.424  0.9565 -0.8480 -0.3039
   66TCq2    C1 1003   0.915   4.161  15.600 -0.0892 -0.0813  0.3846
   66TCq2    O2 1004   0.866   4.191  15.708 -0.0341  0.7186 -0.2065
   66TCq2    C2 1005   0.948   4.272  15.508  0.7871  0.0489 -0.8210
   66TCq2    C3 1006   1.018   4.253  15.389 -0.2654 -0.3652  0.0901
   66TCq2    C4 1007   1.027   4.348  15.299 -0.2503  0.1646 -0.4512
   66TCq2    C5 1008   0.969   4.469  15.316 -0.5823 -0.3100  0.3465
   66TCq2    C6 1009   0.904   4.496  15.431  0.4918 -0.3934 -0.1451
   66TCq2    C7 1010   0.896   4.402  15.529  0.7176 -0.3032  0.5740
   66TCq2    C8 1011   0.903   4.634  15.463  0.0725 -0.1505 -0.1490
   66TCq2    O4 1012   0.971   4.720  15.404 -0.2203  0.0757 -0.2950
   66TCq2    C9 1013   1.100   4.324  15.178  0.1506  0.2476 -0.4796
   66TCq2    O5 1014   1.178   4.227  15.179  0.1755 -0.2050 -0.2845
   66TCq2    O6 1015   1.058   4.379  15.073  0.4001 -0.4203  0.7389
   66TCq2    H2 1016   1.065   4.158  15.367  1.2712  0.6262 -0.8781
   66TCq2    H3 1017   0.964   4.536  15.231 -2.8359 -0.1112  0.6518
   66TCq2    H4 1018   0.866   4.423  15.631 -0.3244 -1.7788  0.5704
   67MPD2     C 1019   0.741   3.499  13.799 -0.6737 -0.1195  0.1447
   67MPD2    C1 1020   0.647   3.503  13.894 -0.1195 -0.0466  0.1550
   67MPD2    C2 1021   0.516   3.501  13.861  0.4435  0.4119  0.3980
   67MPD2    C3 1022   0.486   3.508  13.725  0.8387  0.1862 -0.2877
   67MPD2    C4 1023   0.581   3.525  13.626 -0.9431  0.1706 -0.2944
   67MPD2    C5 1024   0.715   3.515  13.661  0.2755 -0.4029  0.0109
   67MPD2     H 1025   0.437   3.508  13.935  0.6395 -0.1267  0.6591
   67MPD2    H1 1026   0.565   3.536  13.519 -0.3975 -0.3640 -0.4340
   67MPD2    H2 1027   0.843   3.492  13.834 -0.4513  0.5850 -0.3505
   67MPD2    H3 1028   0.796   3.523  13.589 -0.8196 -2.5404 -1.4474
   67MPD2     N 1029   0.356   3.502  13.679  0.0984  0.0470 -0.2436
   67MPD2    H5 1030   0.350   3.506  13.578 -0.0979  1.8811 -0.1487
   67MPD2    N1 1031   0.679   3.510  14.032  0.0639 -0.4669  0.4486
   67MPD2    H7 1032   0.601   3.511  14.096  1.9918 -2.6586  2.8487
   68TCq2    C1 1033   0.808   3.484  14.082 -0.3537  0.2940 -0.0959
   68TCq2    O2 1034   0.912   3.442  14.037  0.1422  0.5096 -0.5514
   68TCq2    C2 1035   0.801   3.487  14.229 -0.0997  0.0210 -0.0476
   68TCq2    C3 1036   0.767   3.598  14.299 -0.3764 -0.3687  0.4543
   68TCq2    C4 1037   0.788   3.608  14.433  0.5514  0.1105  0.8071
   68TCq2    C5 1038   0.855   3.501  14.500 -0.5951 -0.4471 -0.2987
   68TCq2    C6 1039   0.894   3.392  14.428 -0.2038 -0.8133  0.2369
   68TCq2    C7 1040   0.860   3.380  14.293  0.6898 -0.0690 -1.1186
   68TCq2    C8 1041   0.979   3.294  14.483  0.1341 -0.1147  0.3669
   68TCq2    O4 1042   1.032   3.218  14.401 -0.4493 -1.0089 -0.5021
   68TCq2    C9 1043   0.755   3.726  14.502 -0.3209  0.5746 -0.5935
   68TCq2    O5 1044   0.794   3.730  14.621  0.2783  0.4730  0.1466
   68TCq2    O6 1045   0.690   3.809  14.434  0.1730 -0.4221 -0.1952
   68TCq2    H2 1046   0.717   3.681  14.250 -1.4046 -0.9345  0.5576
   68TCq2    H3 1047   0.880   3.514  14.604  0.3098 -1.3461 -0.4126
   68TCq2    H4 1048   0.890   3.297  14.231 -0.9277 -0.8204 -0.9174
   69TMC2    C1 1049   3.078   4.637  12.252  0.8197  0.5254 -1.0672
   69TMC2    C2 1050   2.946   4.686  12.239 -0.2811 -0.1150 -0.2480
   69TMC2    C3 1051   2.923   0.050  12.137 -1.1201 -0.1104  0.4931
   69TMC2    C4 1052   3.172   4.656  12.156  0.1491  0.2148  0.7240
   69TMC2    C5 1053   3.143   0.026  12.062 -0.0849 -0.4151  0.2260
   69TMC2    C6 1054   3.019   0.094  12.046 -0.2057  0.3189 -0.1003
   69TMC2     C 1055   3.110   4.541  12.353  0.0431  0.1581 -0.0263
   69TMC2     O 1056   3.021   4.519  12.434 -0.3095  0.6020 -0.0824
   69TMC2     H 1057   2.866   4.669  12.310 -1.0267 -1.3229 -1.3719
   69TMC2    H1 1058   3.260   4.595  12.145 -2.6492 -3.3369 -1.9054
   69TMC2    H2 1059   2.991   0.154  11.960 -0.7836 -0.4398 -0.4472
   69TMC2    C7 1060   3.231   0.042  11.947 -0.4296  0.5246 -0.1653
   69TMC2    C8 1061   2.796   0.114  12.133  0.1791  0.0794  0.3988
   69TMC2    O1 1062   3.316   4.679  11.940  0.1856  0.0446 -0.5879
   69TMC2    O2 1063   2.700   0.051  12.168 -0.5278 -0.5345 -0.2142
   69TMC2    O5 1064   2.818   0.247  12.141  0.4496 -0.2995 -0.1386
   69TMC2    H5 1065   2.903   0.276  12.101 -0.3510  0.3429 -1.3785
   70MPD2     C 1066   3.435   4.389  12.405 -0.3304  0.1403  0.0772
   70MPD2    C1 1067   3.303   4.418  12.441 -0.2787  0.4958  0.3829
   70MPD2    C2 1068   3.246   4.369  12.555  0.0903 -0.5783 -0.1684
   70MPD2    C3 1069   3.320   4.279  12.633  0.3396 -0.1244  0.4965
   70MPD2    C4 1070   3.448   4.250  12.600  0.3563 -0.2918 -0.0800
   70MPD2    C5 1071   3.500   4.302  12.487  1.5952  0.0484  0.2615
   70MPD2     H 1072   3.145   4.401  12.578  0.9079  2.0758 -0.3382
   70MPD2    H1 1073   3.506   4.180  12.659 -1.9703 -2.2386 -0.1093
   70MPD2    H2 1074   3.486   4.420  12.314 -0.3149 -0.4680 -0.1269
   70MPD2    H3 1075   3.602   4.277  12.460  1.2315 -2.7007  1.3835
   70MPD2     N 1076   3.274   4.214  12.743  0.7885 -0.5151  0.6719
   70MPD2    H5 1077   3.331   4.141  12.785  3.3571  1.2187  0.2501
   70MPD2    N1 1078   3.243   4.510  12.349 -0.1024 -0.0887 -0.8610
   70MPD2    H7 1079   3.305   4.551  12.280 -0.0862  1.5676  0.1376
   71TMC2    C1 1080   1.005   1.328   1.124  0.5995  0.2470  0.0735
   71TMC2    C2 1081   1.118   1.251   1.138  0.2505  0.1830 -0.5928
   71TMC2    C3 1082   1.179   1.260   1.261 -0.2822  0.1939  0.6651
   71TMC2    C4 1083   0.956   1.413   1.216  0.2433  0.7006  0.5015
   71TMC2    C5 1084   1.023   1.415   1.334  0.0664  0.0170 -0.1364
   71TMC2    C6 1085   1.136   1.344   1.361  0.8199  0.0194 -0.5056
   71TMC2     C 1086   0.952   1.346   0.993 -0.4419  0.3614 -0.6029
   71TMC2     O 1087   0.841   1.399   0.984 -0.1929 -0.3280  0.0641
   71TMC2     H 1088   1.139   1.174   1.065 -1.1726 -2.2780  1.6100
   71TMC2    H1 1089   0.883   1.488   1.190  1.6400  1.9922  0.3097
   71TMC2    H2 1090   1.185   1.333   1.457  2.3896  2.7749 -0.9781
   71TMC2    C7 1091   0.964   1.479   1.452 -0.3341 -0.4482 -0.3605
   71TMC2    C8 1092   1.306   1.197   1.271 -0.8947 -0.1210  0.0697
   71TMC2    O1 1093   1.030   1.495   1.560 -0.0436 -0.1526 -0.5133
   71TMC2    O2 1094   1.410   1.253   1.305  0.2074  0.8352 -0.0218
   71TMC2    O5 1095   1.287   1.071   1.245 -0.4262  0.0760 -0.7257
   71TMC2    H5 1096   1.197   1.044   1.218  0.7839 -1.0415 -3.7501
   72MPD2     C 1097   1.006   1.336   0.475 -0.5723 -0.0146 -0.0752
   72MPD2    C1 1098   0.907   1.397   0.549  0.3369 -0.1253  0.8823
   72MPD2    C2 1099   0.911   1.382   0.688  0.7552  0.0947  0.1149
   72MPD2    C3 1100   1.010   1.307   0.749  0.4234 -0.5295  1.0901
   72MPD2    C4 1101   1.096   1.236   0.665  0.7071  0.7992  0.5323
   72MPD2    C5 1102   1.100   1.252   0.531 -0.4878 -0.6277 -0.2686
   72MPD2     H 1103   0.839   1.439   0.744  2.6121  2.5329  0.0140
   72MPD2    H1 1104   1.178   1.172   0.696 -0.3133 -0.2166  1.1442
   72MPD2    H2 1105   1.008   1.346   0.367 -1.1373  0.3372 -0.0527
   72MPD2    H3 1106   1.174   1.196   0.475  0.6032  0.2598  0.2750
   72MPD2     N 1107   1.030   1.294   0.895 -0.4181  0.1106  0.1919
   72MPD2    H5 1108   1.114   1.244   0.922  0.5838  2.3483  1.2213
   72MPD2    N1 1109   0.813   1.484   0.499 -0.1832 -0.7332  0.0143
   72MPD2    H7 1110   0.749   1.540   0.554  1.2033  0.3445  0.5260
   73TMC2    C1 1111   0.543   2.274  13.703  0.2277  0.0510 -0.4696
   73TMC2    C2 1112   0.420   2.222  13.736 -0.5493  0.4006  0.3268
   73TMC2    C3 1113   0.402   2.186  13.866  0.2226 -1.2280  0.7159
   73TMC2    C4 1114   0.645   2.285  13.802  0.1388  0.0159  0.5311
   73TMC2    C5 1115   0.615   2.248  13.932 -0.7626 -0.2710 -0.0591
   73TMC2    C6 1116   0.495   2.197  13.971  0.7442  0.7117  0.6559
   73TMC2     C 1117   0.537   2.404  13.642 -0.4234  0.9296  0.3312
   73TMC2     O 1118   0.610   2.479  13.701  0.3643 -0.3136  0.4705
   73TMC2     H 1119   0.339   2.216  13.665 -0.3945  2.0340  0.0169
   73TMC2    H1 1120   0.746   2.315  13.775  1.0619 -2.7367  0.9351
   73TMC2    H2 1121   0.484   2.156  14.071 -3.2759  0.5759  0.1248
   73TMC2    C7 1122   0.668   2.344  14.021 -0.0833 -0.0782 -0.1630
   73TMC2    C8 1123   0.278   2.128  13.892  0.1848  0.6003 -0.4844
   73TMC2    O1 1124   0.691   2.309  14.135  0.2629  1.0712 -0.1380
   73TMC2    O2 1125   0.190   2.113  13.806 -0.0942 -0.1243 -0.6424
   73TMC2    O5 1126   0.261   2.157  14.021  0.6540  0.7490 -0.0810
   73TMC2    H5 1127   0.323   2.221  14.063 -1.1046  1.5996  1.2673
   74MPD2     C 1128   0.385   2.769  13.323  0.4333  0.4362 -0.5628
   74MPD2    C1 1129   0.452   2.777  13.448 -0.2593 -0.1703  0.2366
   74MPD2    C2 1130   0.485   2.656  13.510 -0.0031  0.2402 -0.4058
   74MPD2    C3 1131   0.445   2.538  13.458 -0.2079 -0.1883  0.4100
   74MPD2    C4 1132   0.367   2.534  13.349 -0.3725  0.4156  0.1451
   74MPD2    C5 1133   0.331   2.651  13.286 -0.5188 -0.2013 -0.4988
   74MPD2     H 1134   0.532   2.669  13.607  0.3436  1.1208 -0.6910
   74MPD2    H1 1135   0.325   2.436  13.326  0.4190 -0.4839  2.5543
   74MPD2    H2 1136   0.368   2.857  13.262 -1.7280  2.3860  2.8408
   74MPD2    H3 1137   0.254   2.650  13.210 -2.3133 -1.7747  1.3349
   74MPD2     N 1138   0.462   2.413  13.529  0.4771  0.1349 -0.3607
   74MPD2    H5 1139   0.419   2.331  13.487 -0.8857 -0.1503  1.6179
   74MPD2    N1 1140   0.488   2.902  13.502 -0.0863  0.0908 -0.0893
   74MPD2    H7 1141   0.466   2.983  13.445 -0.5581 -1.2478 -1.8482
   75TCq2    C1 1142   0.239   3.503  13.757 -0.0441  0.5094 -0.3940
   75TCq2    O2 1143   0.224   3.490  13.877  0.0157  0.1887 -0.5575
   75TCq2    C2 1144   0.119   3.535  13.678  0.3256 -0.0147 -0.1002
   75TCq2    C3 1145   0.004   3.517  13.740 -0.0703 -0.7834  0.7892
   75TCq2    C4 1146   4.617   3.568  13.689 -0.6246 -0.0299  0.0989
   75TCq2    C5 1147   4.610   3.636  13.566  0.0612  0.5245 -0.6695
   75TCq2    C6 1148   0.008   3.636  13.494 -0.3672 -0.1325 -0.8252
   75TCq2    C7 1149   0.124   3.597  13.556  0.2701 -0.1175 -0.1951
   75TCq2    C8 1150   0.007   3.719  13.378 -0.5251  0.5197  0.1964
   75TCq2    O4 1151   0.089   3.697  13.286  0.7065 -0.0492 -0.3390
   75TCq2    C9 1152   4.487   3.549  13.764  0.3422 -0.1257  0.4004
   75TCq2    O5 1153   4.496   3.545  13.888 -0.0100 -0.3179 -0.1337
   75TCq2    O6 1154   4.382   3.536  13.699 -0.0174  0.4036 -0.2280
   75TCq2    H2 1155   0.004   3.457  13.830  0.2492 -0.2778  1.1268
   75TCq2    H3 1156   4.517   3.647  13.513 -0.2596  0.5683 -0.0965
   75TCq2    H4 1157   0.220   3.597  13.506 -0.0826 -0.4641 -0.8865
   76MPD2     C 1158   4.220   4.271  11.740 -0.0512 -0.5175  0.1517
   76MPD2    C1 1159   4.140   4.227  11.635 -0.1508 -0.1884 -0.1847
   76MPD2    C2 1160   4.172   4.110  11.570  0.2026  0.4970  0.3732
   76MPD2    C3 1161   4.270   4.023  11.622  0.3122  0.1197 -0.7946
   76MPD2    C4 1162   4.331   4.061  11.739  0.1080  0.1877  0.0287
   76MPD2    C5 1163   4.315   4.190  11.785  0.5617  0.0252 -0.7878
   76MPD2     H 1164   4.129   4.097  11.472 -3.8733 -1.8940  2.4922
   76MPD2    H1 1165   4.411   4.005  11.786  0.5868  0.6037 -0.2832
   76MPD2    H2 1166   4.189   4.356  11.801  2.7567  0.1058  0.7034
   76MPD2    H3 1167   4.377   4.217  11.869 -0.7214  0.5114 -0.0029
   76MPD2     N 1168   4.312   3.899  11.565  0.1137 -0.2132 -0.0856
   76MPD2    H5 1169   4.378   3.842  11.617 -1.9723 -2.5931 -0.0395
   76MPD2    N1 1170   4.038   4.302  11.573  0.2918  0.2327  0.1551
   76MPD2    H7 1171   3.993   4.255  11.496  0.3308 -1.6930  1.3067
   77TCq2    C1 1172   4.259   3.851  11.448  0.9818 -0.2249  0.7891
   77TCq2    O2 1173   4.178   3.895  11.362  0.2519  0.3485  0.3649
   77TCq2    C2 1174   4.339   3.732  11.414  0.2013  0.0048 -0.3736
   77TCq2    C3 1175   4.278   3.637  11.335  0.4381 -0.5030 -0.3346
   77TCq2    C4 1176   4.353   3.527  11.300  0.2896 -0.9222  0.2794
   77TCq2    C5 1177   4.484   3.518  11.335 -0.1068 -0.0490  0.3617
   77TCq2    C6 1178   4.541   3.617  11.412  0.2023 -0.0404  0.1425
   77TCq2    C7 1179   4.474   3.727  11.448 -0.5554  0.9945  0.3771
   77TCq2    C8 1180   4.666   3.589  11.487  0.1510 -0.3380 -1.0105
   77TCq2    O4 1181   0.022   3.518  11.428  0.2808 -0.1192 -0.0337
   77TCq2    C9 1182   4.299   3.426  11.211 -0.5672  0.3002  0.6371
   77TCq2    O5 1183   4.181   3.446  11.164 -0.0878 -0.1276  0.3863
   77TCq2    O6 1184   4.375   3.344  11.160  0.0501 -0.8639 -0.9546
   77TCq2    H2 1185   4.176   3.652  11.300  0.4178 -0.6213 -0.3252
   77TCq2    H3 1186   4.539   3.430  11.303 -0.1442 -0.5753  1.7470
   77TCq2    H4 1187   4.528   3.803  11.503 -0.7261  0.7453  0.8913
   78MPD1     C 1188   1.000   3.571   2.337 -0.6406 -0.3513 -0.5770
   78MPD1    C1 1189   1.121   3.529   2.388  0.2844  0.0932  0.2743
   78MPD1    C2 1190   1.238   3.562   2.316  0.3598 -0.3156 -0.0526
   78MPD1    C3 1191   1.221   3.630   2.202  0.2978  0.3603 -0.1678
   78MPD1    C4 1192   1.097   3.661   2.143 -1.1371 -0.6143  0.1763
   78MPD1    C5 1193   0.990   3.615   2.214  0.0614  0.0685 -0.1262
   78MPD1     H 1194   1.336   3.526   2.345  1.2169  2.2214  0.1940
   78MPD1    H1 1195   1.094   3.708   2.045  0.6846  0.3790  0.5861
   78MPD1    H2 1196   0.909   3.541   2.389 -0.1835 -1.2252 -0.2835
   78MPD1    H3 1197   0.888   3.636   2.182  0.0949 -0.2075 -0.4141
   78MPD1     N 1198   1.328   3.651   2.113  0.1299  0.6051  0.5714
   78MPD1    H5 1199   1.302   3.688   2.022  0.0313 -0.6438  0.0940
   78MPD1    N1 1200   1.122   3.445   2.493 -0.1287 -0.0307  0.6924
   78MPD1    H6 1201   1.209   3.454   2.546 -0.0447  0.1966  0.5140
   78MPD1    H7 1202   1.045   3.461   2.558 -0.2041  0.2356  0.5368
   79TCq2    C1 1203   1.457   3.661   2.149 -0.5134  0.2727 -0.1599
   79TCq2    O2 1204   1.508   3.647   2.258  0.3317 -0.1831 -0.3671
   79TCq2    C2 1205   1.552   3.702   2.042  0.4497 -0.4389 -0.9633
   79TCq2    C3 1206   1.514   3.716   1.912 -0.9518  0.2285  0.4712
   79TCq2    C4 1207   1.604   3.762   1.823 -0.4291 -0.7240 -0.3212
   79TCq2    C5 1208   1.731   3.804   1.856 -0.3620  0.6034 -0.2017
   79TCq2    C6 1209   1.765   3.795   1.986 -0.2589  0.3638  0.9582
   79TCq2    C7 1210   1.678   3.740   2.078 -0.4829 -0.5167 -0.0144
   79TCq2    C8 1211   1.880   3.879   2.020 -0.4849 -0.1848 -0.3365
   79TCq2    O4 1212   1.941   3.934   1.927  0.3162 -0.1757  0.0685
   79TCq2    C9 1213   1.574   3.759   1.682  0.1070  0.0785 -0.2271
   79TCq2    O5 1214   1.642   3.832   1.612  0.3865 -0.0380  0.4950
   79TCq2    O6 1215   1.469   3.705   1.645 -0.2363  0.0057  0.1541
   79TCq2    H2 1216   1.420   3.682   1.870 -0.7282  2.8459 -2.1781
   79TCq2    H3 1217   1.797   3.843   1.780  2.1279 -0.1498  1.5880
   79TCq2    H4 1218   1.694   3.762   2.183 -3.0727 -1.8222  0.6752
   80MPD2     C 1219   2.926   4.100  11.757  0.0959 -0.3121 -0.5544
   80MPD2    C1 1220   2.880   3.975  11.710 -0.9008  0.6193 -0.0356
   80MPD2    C2 1221   2.752   3.936  11.730 -0.2107 -0.3944 -0.5361
   80MPD2    C3 1222   2.663   4.013  11.799  0.0675 -1.1355  0.0289
   80MPD2    C4 1223   2.705   4.136  11.835  0.2666  0.7416 -0.5002
   80MPD2    C5 1224   2.830   4.177  11.809 -0.1146  0.0086  0.1102
   80MPD2     H 1225   2.724   3.839  11.691 -0.3982 -0.7598  0.5168
   80MPD2    H1 1226   2.627   4.206  11.864 -0.1321  0.2171 -0.3081
   80MPD2    H2 1227   3.027   4.139  11.752 -0.0826  0.3046  0.7820
   80MPD2    H3 1228   2.855   4.277  11.844  0.1059 -0.4494  1.2369
   80MPD2     N 1229   2.529   3.982  11.816  0.5148 -0.1225 -0.1830
   80MPD2    H5 1230   2.471   4.059  11.848  0.2460 -0.3521 -0.1171
   80MPD2    N1 1231   2.960   3.894  11.631 -0.6812 -0.0109  0.0394
   80MPD2    H7 1232   2.913   3.818  11.582  1.8868 -1.3084 -0.4339
   81TCq2    C1 1233   3.087   3.921  11.589  0.3612  0.0814 -0.3584
   81TCq2    O2 1234   3.160   4.019  11.606  0.4844  0.5839  0.1335
   81TCq2    C2 1235   3.139   3.816  11.503  0.7476 -0.8047  0.0594
   81TCq2    C3 1236   3.233   3.865  11.408  0.1589  0.3678  0.0748
   81TCq2    C4 1237   3.233   3.796  11.290  0.4446  0.2046 -0.2209
   81TCq2    C5 1238   3.153   3.694  11.267  0.9967 -0.9557  0.4091
   81TCq2    C6 1239   3.062   3.641  11.358  0.4993 -0.7950 -0.0121
   81TCq2    C7 1240   3.061   3.700  11.482 -0.4607 -0.1334 -0.3398
   81TCq2    C8 1241   2.959   3.556  11.299 -0.8960 -0.4223 -0.5863
   81TCq2    O4 1242   2.923   3.567  11.183  0.5074  0.3074  0.2269
   81TCq2    C9 1243   3.310   3.856  11.184 -0.7431 -0.3376  0.5985
   81TCq2    O5 1244   3.333   3.793  11.074 -0.5214  0.9439 -0.1941
   81TCq2    O6 1245   3.325   3.977  11.194  0.7613  0.2432  0.2469
   81TCq2    H2 1246   3.301   3.948  11.424 -0.1142  0.8823 -1.4490
   81TCq2    H3 1247   3.143   3.655  11.167 -2.1312  2.0985 -0.4800
   81TCq2    H4 1248   3.007   3.655  11.564 -0.6655  0.4558 -0.1475
   82MPD2     C 1249   1.683   3.256  10.587 -0.7938  0.0650 -0.3050
   82MPD2    C1 1250   1.683   3.124  10.547  0.0730  0.4622  0.0960
   82MPD2    C2 1251   1.689   3.016  10.641  0.3690  0.3898  0.1884
   82MPD2    C3 1252   1.677   3.048  10.777  0.1312  0.2930  0.1155
   82MPD2    C4 1253   1.655   3.182  10.810  0.2648  0.2716  0.6881
   82MPD2    C5 1254   1.664   3.286  10.717 -0.5608  0.7370 -0.2921
   82MPD2     H 1255   1.691   2.912  10.611 -6.4099  0.2617  0.0272
   82MPD2    H1 1256   1.642   3.215  10.912 -0.9216  2.3587 -0.1411
   82MPD2    H2 1257   1.679   3.344  10.523 -0.9606 -0.1136 -0.5398
   82MPD2    H3 1258   1.661   3.388  10.753  0.4371  1.1078 -1.2312
   82MPD2     N 1259   1.660   2.938  10.856  0.7066  0.1280  0.0871
   82MPD2    H5 1260   1.668   2.846  10.813  1.3116  0.0479  0.3714
   82MPD2    N1 1261   1.690   3.096  10.405  0.8304  0.1634  0.3450
   82MPD2    H7 1262   1.695   3.176  10.342  3.3267 -0.1722  0.1234
   83TCq2    C1 1263   1.638   2.947  10.989 -0.5852 -0.3837  0.6525
   83TCq2    O2 1264   1.608   3.041  11.057 -0.5785  0.0686  0.1666
   83TCq2    C2 1265   1.576   2.819  11.015  0.0423 -0.0018  0.3059
   83TCq2    C3 1266   1.627   2.721  10.936 -0.1719 -0.3478 -0.0056
   83TCq2    C4 1267   1.550   2.626  10.882 -0.1253  0.0125 -0.0764
   83TCq2    C5 1268   1.423   2.614  10.920 -0.2209  0.4610  0.3050
   83TCq2    C6 1269   1.363   2.715  10.995 -0.0885  0.1484 -0.1981
   83TCq2    C7 1270   1.442   2.816  11.045 -0.1018  0.2054 -0.7555
   83TCq2    C8 1271   1.220   2.711  11.031 -1.1188 -0.0690  0.1129
   83TCq2    O4 1272   1.165   2.803  11.093 -0.5006  0.1002 -0.5866
   83TCq2    C9 1273   1.610   2.516  10.817  0.2790  0.1231  0.4529
   83TCq2    O5 1274   1.724   2.483  10.858  0.6004 -0.1269 -0.0732
   83TCq2    O6 1275   1.533   2.453  10.740  0.2801  0.8991  0.5186
   83TCq2    H2 1276   1.734   2.703  10.929 -0.0250  1.0521 -1.1628
   83TCq2    H3 1277   1.371   2.524  10.890 -0.4556  0.6166  0.2415
   83TCq2    H4 1278   1.394   2.892  11.105 -0.1562 -0.2419 -0.2263
   84TCq2    C1 1279   2.847   1.571  10.640 -0.1375  0.6324 -0.5935
   84TCq2    O2 1280   2.918   1.482  10.601  0.3242  0.0103 -0.3817
   84TCq2    C2 1281   2.788   1.549  10.772 -0.5800 -0.5273  0.3938
   84TCq2    C3 1282   2.807   1.430  10.827 -0.4071 -0.0940  0.0604
   84TCq2    C4 1283   2.772   1.404  10.956 -0.3801  0.5456  0.5875
   84TCq2    C5 1284   2.729   1.500  11.040 -0.0320  0.0038  0.2327
   84TCq2    C6 1285   2.701   1.626  10.985  0.8556  0.2087 -1.0557
   84TCq2    C7 1286   2.738   1.647  10.857 -0.4821  0.0052  0.1332
   84TCq2    C8 1287   2.649   1.734  11.061  0.1073  0.7221 -0.0415
   84TCq2    O4 1288   2.643   1.847  11.014 -0.2470  0.2735  0.4124
   84TCq2    C9 1289   2.797   1.272  11.010  0.1133 -1.1077 -0.1864
   84TCq2    O5 1290   2.852   1.187  10.934 -0.3120  0.1053 -0.2342
   84TCq2    O6 1291   2.777   1.256  11.135 -0.3129  0.1284 -0.2090
   84TCq2    H2 1292   2.848   1.346  10.771 -0.6695 -1.1956  1.5258
   84TCq2    H3 1293   2.718   1.479  11.146 -0.7303  2.5894  0.6546
   84TCq2    H4 1294   2.730   1.752  10.831  0.1204  0.1900  0.7034
   85MPD2     C 1295   2.629   0.242  15.835 -0.5060 -0.7993  0.2842
   85MPD2    C1 1296   2.753   0.178  15.838  0.1114 -0.0330  0.6220
   85MPD2    C2 1297   2.867   0.255  15.819 -0.0534  0.7422  0.1154
   85MPD2    C3 1298   2.857   0.391  15.787  0.7359 -0.1141 -0.3473
   85MPD2    C4 1299   2.737   0.446  15.769  0.2972  0.4338 -0.2245
   85MPD2    C5 1300   2.629   0.372  15.796 -0.6075  0.4908  0.4362
   85MPD2     H 1301   2.963   0.206  15.832 -0.4466 -0.0430  0.0519
   85MPD2    H1 1302   2.728   0.553  15.763 -0.0780  0.5317  1.8706
   85MPD2    H2 1303   2.534   0.191  15.846 -1.2498  0.5752  0.1989
   85MPD2    H3 1304   2.532   0.417  15.784 -0.5577  0.5010  0.0629
   85MPD2     N 1305   2.978   0.464  15.779  0.5082  0.5119 -0.2715
   85MPD2    H5 1306   3.057   0.411  15.814  1.0025  1.6539  0.3300
   85MPD2    N1 1307   2.763   0.038  15.855  0.7377  0.2828 -0.0298
   85MPD2    H7 1308   2.857   4.724  15.850  1.4637  2.0749 -0.2893
   86TCq2    C1 1309   2.996   0.590  15.736 -0.1958  0.3192  0.1569
   86TCq2    O2 1310   2.911   0.662  15.679 -0.2698  0.5069  0.4156
   86TCq2    C2 1311   3.137   0.643  15.761  0.0333  0.1987 -0.1833
   86TCq2    C3 1312   3.158   0.783  15.753 -0.2905  0.0761  0.7239
   86TCq2    C4 1313   3.279   0.838  15.768 -1.4908  0.4347 -0.0000
   86TCq2    C5 1314   3.387   0.762  15.784 -0.3499  0.0228  0.0936
   86TCq2    C6 1315   3.372   0.628  15.782 -0.1477  0.2766  0.4183
   86TCq2    C7 1316   3.248   0.564  15.772  0.0129 -0.3176  0.0900
   86TCq2    C8 1317   3.489   0.541  15.786  0.5743  0.0775 -0.1528
   86TCq2    O4 1318   3.465   0.424  15.807  0.1499  0.0639  0.2797
   86TCq2    C9 1319   3.284   0.980  15.757  0.1480  0.5916 -0.2917
   86TCq2    O5 1320   3.397   1.031  15.781  0.6254 -0.8406 -0.2977
   86TCq2    O6 1321   3.191   1.043  15.710 -0.4795 -0.0882  0.2164
   86TCq2    H2 1322   3.075   0.852  15.754  1.1901  1.8219  1.9300
   86TCq2    H3 1323   3.480   0.816  15.802 -0.9771  0.7382  1.2052
   86TCq2    H4 1324   3.242   0.456  15.779 -0.8179 -0.2659  0.2500
   87MPD2     C 1325   4.672   3.510   0.846 -0.6931  0.7626 -0.0145
   87MPD2    C1 1326   4.710   3.585   0.957 -0.2960  0.6969  0.3941
   87MPD2    C2 1327   4.666   3.718   0.962  0.2310  0.1454  0.0694
   87MPD2    C3 1328   4.568   3.764   0.876  0.2680 -0.8308 -0.5191
   87MPD2    C4 1329   4.520   3.684   0.772 -0.1513  0.1346 -0.2817
   87MPD2    C5 1330   4.585   3.560   0.752  0.4208 -0.0539 -0.0293
   87MPD2     H 1331   4.679   3.786   1.045 -0.4283 -1.4232  1.4433
   87MPD2    H1 1332   4.446   3.712   0.697  0.6011  1.1407 -0.6422
   87MPD2    H2 1333   4.700   3.406   0.845  2.5677  1.6547 -3.0393
   87MPD2    H3 1334   4.542   3.501   0.672 -1.3409  1.2358 -0.0258
   87MPD2     N 1335   4.514   3.897   0.895 -0.4335  0.0921  0.1184
   87MPD2    H5 1336   4.565   3.960   0.956 -0.6479  1.7056 -1.3668
   87MPD2    N1 1337   0.072   3.523   1.053 -0.4841 -0.3636 -0.3280
   87MPD2    H7 1338   0.117   3.435   1.033 -2.1822 -1.4499  0.5958
   88TCq2    C1 1339   0.083   3.561   1.185 -0.0855 -0.6257  0.5292
   88TCq2    O2 1340   4.720   3.629   1.238  0.0796  0.4095 -0.3886
   88TCq2    C2 1341   0.164   3.476   1.274  0.3530  0.1171  0.2434
   88TCq2    C3 1342   0.152   3.497   1.407 -0.0146  0.6249 -0.2794
   88TCq2    C4 1343   0.259   3.463   1.486  0.6287  0.5878 -0.3490
   88TCq2    C5 1344   0.381   3.419   1.434 -0.2901  0.1740 -0.0925
   88TCq2    C6 1345   0.390   3.418   1.297  0.0008  0.0536  0.2827
   88TCq2    C7 1346   0.285   3.438   1.218  0.4078 -1.4275 -0.2913
   88TCq2    C8 1347   0.521   3.436   1.230  0.0969 -0.3664 -0.7536
   88TCq2    O4 1348   0.516   3.437   1.112  0.3669  0.2162  0.2047
   88TCq2    C9 1349   0.243   3.490   1.626 -0.5390  0.1934  0.3642
   88TCq2    O5 1350   0.134   3.518   1.669 -0.6696  0.4377 -0.2701
   88TCq2    O6 1351   0.349   3.512   1.692 -0.1705  0.7872 -0.7774
   88TCq2    H2 1352   0.064   3.530   1.460  0.3841 -0.8987  1.3072
   88TCq2    H3 1353   0.456   3.405   1.510 -1.3842  0.4221  1.0437
   88TCq2    H4 1354   0.297   3.424   1.111  0.4471 -0.0896 -0.4583
   89MPD2     C 1355   1.434   2.567   1.731  0.9623  0.1082  0.3582
   89MPD2    C1 1356   1.365   2.455   1.712  0.0035  0.1562 -0.4901
   89MPD2    C2 1357   1.432   2.347   1.668 -0.4595  0.2443 -0.0895
   89MPD2    C3 1358   1.569   2.351   1.648 -0.0932 -0.0468 -0.2251
   89MPD2    C4 1359   1.646   2.467   1.676 -0.0770  0.4230  0.4137
   89MPD2    C5 1360   1.572   2.574   1.713  0.6721 -0.3460 -0.6224
   89MPD2     H 1361   1.373   2.256   1.660 -3.2275  2.0386  0.1859
   89MPD2    H1 1362   1.750   2.473   1.647  0.1160  1.3099  1.2973
   89MPD2    H2 1363   1.394   2.662   1.764  1.1636 -1.4612  5.1081
   89MPD2    H3 1364   1.623   2.667   1.736  0.5131 -0.5786  0.6654
   89MPD2     N 1365   1.620   2.233   1.593 -0.0144  0.1827 -0.1410
   89MPD2    H5 1366   1.559   2.160   1.559  0.7084 -0.5695  0.1663
   89MPD2    N1 1367   1.232   2.433   1.743  0.7634 -0.8850  0.9538
   89MPD2    H7 1368   1.187   2.343   1.727  2.4142 -1.2277 -1.8170
   90TCq2    C1 1369   1.750   2.204   1.576  0.1048  1.0843  0.2377
   90TCq2    O2 1370   1.849   2.271   1.605 -0.0930  0.2999  0.3647
   90TCq2    C2 1371   1.765   2.080   1.504  0.1352 -1.4472 -0.5226
   90TCq2    C3 1372   1.873   2.001   1.531 -0.4763  0.1987  0.7016
   90TCq2    C4 1373   1.910   1.898   1.449  0.3887 -0.4477  0.1161
   90TCq2    C5 1374   1.844   1.878   1.334 -0.8657 -0.4991 -0.9408
   90TCq2    C6 1375   1.750   1.970   1.296  0.3878 -0.6089  0.2621
   90TCq2    C7 1376   1.700   2.064   1.381 -0.4652  1.0000  0.4187
   90TCq2    C8 1377   1.676   1.931   1.180  0.7297  0.4213 -0.2420
   90TCq2    O4 1378   1.708   1.819   1.138  0.4476 -0.0123 -0.7226
   90TCq2    C9 1379   2.029   1.820   1.480  0.1492 -0.6988  0.1292
   90TCq2    O5 1380   2.102   1.850   1.582 -0.5129 -0.9319  0.3695
   90TCq2    O6 1381   2.026   1.710   1.422  0.3108 -0.2692  0.6565
   90TCq2    H2 1382   1.933   2.022   1.619  1.3631  0.2429 -0.5720
   90TCq2    H3 1383   1.883   1.807   1.262 -1.2985 -1.9653  0.2404
   90TCq2    H4 1384   1.632   2.145   1.357 -2.3875 -0.4563  1.0064
   91TMC2    C1 1385   2.834   1.414  16.828 -0.5121  0.0081 -0.3542
   91TMC2    C2 1386   2.882   1.502  16.738 -0.9827 -0.7376  0.8186
   91TMC2    C3 1387   2.800   1.542  16.641  0.2430 -0.5950  0.2404
   91TMC2    C4 1388   2.696   1.387  16.837 -0.1559  0.0897  0.0413
   91TMC2    C5 1389   2.622   1.420  16.727  0.2397 -0.5805 -0.1027
   91TMC2    C6 1390   2.678   1.488  16.623  0.1136  0.2312  0.0678
   91TMC2     C 1391   2.924   1.352  16.929  0.6791  0.2217 -0.4664
   91TMC2     O 1392   2.871   1.320  17.034  0.3252 -0.0846  0.1723
   91TMC2     H 1393   2.983   1.541  16.744 -1.0858 -0.4298  0.5245
   91TMC2    H1 1394   2.663   1.325  16.920 -0.4756  0.6895  0.3572
   91TMC2    H2 1395   2.627   1.524  16.534  0.7910  1.2640  0.0975
   91TMC2    C7 1396   2.530   1.316  16.687 -0.1375  0.0416 -0.2943
   91TMC2    C8 1397   2.840   1.635  16.538  0.0018  0.5955  0.2947
   91TMC2    O1 1398   2.466   1.263  16.776 -0.2571  0.1594 -0.1719
   91TMC2    O2 1399   2.797   1.626  16.423 -0.2692 -0.3589  0.5748
   91TMC2    O5 1400   2.931   1.727  16.579  0.6163  0.6663  0.5901
   91TMC2    H5 1401   2.951   1.721  16.675  0.9978  0.1710  0.4795
   92MPD2     C 1402   3.157   1.236  17.085  0.7228 -0.0682 -0.0362
   92MPD2    C1 1403   3.156   1.279  16.950 -0.4996  0.9063  0.2126
   92MPD2    C2 1404   3.260   1.245  16.872 -0.1372  0.1819 -0.2298
   92MPD2    C3 1405   3.372   1.178  16.920 -0.6947  0.1731  0.6945
   92MPD2    C4 1406   3.368   1.131  17.052 -0.2472  0.3073 -0.2507
   92MPD2    C5 1407   3.265   1.166  17.133 -0.0524 -0.3804 -0.7158
   92MPD2     H 1408   3.260   1.268  16.766 -0.2785  0.2705 -0.2103
   92MPD2    H1 1409   3.447   1.077  17.103 -1.6954 -0.2671  1.4021
   92MPD2    H2 1410   3.067   1.251  17.143  1.3625 -0.2320  0.9930
   92MPD2    H3 1411   3.261   1.133  17.236 -1.2405  1.9980  0.0146
   92MPD2     N 1412   3.483   1.144  16.838 -0.9392  0.3835 -0.6648
   92MPD2    H5 1413   3.482   1.196  16.751 -2.3025 -0.4008 -1.1153
   92MPD2    N1 1414   3.052   1.328  16.880 -0.4530  0.5851  0.7839
   92MPD2    H7 1415   3.064   1.339  16.779 -1.0470 -1.9593  0.4362
   93MPD2     C 1416   4.358   1.820  13.876 -0.0709  0.8666  0.1850
   93MPD2    C1 1417   4.391   1.764  13.752  0.3141 -0.2149  0.3722
   93MPD2    C2 1418   4.292   1.701  13.676  0.4637 -0.2375  0.4620
   93MPD2    C3 1419   4.160   1.690  13.722  0.0219  0.8420 -0.2279
   93MPD2    C4 1420   4.125   1.753  13.840  0.4798 -0.6225 -0.4077
   93MPD2    C5 1421   4.223   1.819  13.915  0.5106 -0.3361  0.3731
   93MPD2     H 1422   4.326   1.657  13.583  0.1030  2.2047 -0.8296
   93MPD2    H1 1423   4.020   1.745  13.869  0.2400  0.0369 -1.1138
   93MPD2    H2 1424   4.432   1.882  13.925  2.0217 -0.4104 -1.3637
   93MPD2    H3 1425   4.193   1.866  14.008  0.1409 -1.2734  0.7251
   93MPD2     N 1426   4.056   1.626  13.645  0.2095  0.2872 -0.2016
   93MPD2    H5 1427   3.959   1.631  13.676 -0.7408 -0.6344 -2.9406
   93MPD2    N1 1428   4.523   1.775  13.699  0.0490 -0.1021  0.0275
   93MPD2    H7 1429   4.532   1.761  13.599  1.1211 -1.8139  0.3711
   94TCq2    C1 1430   4.638   1.823  13.762  0.6194  0.3591 -1.1755
   94TCq2    O2 1431   4.660   1.845  13.880 -0.3802  0.5084  0.3981
   94TCq2    C2 1432   0.020   1.830  13.667  0.4298 -0.4223  0.0012
   94TCq2    C3 1433   0.005   1.878  13.543  0.1376 -0.2548  0.2459
   94TCq2    C4 1434   0.120   1.910  13.467 -0.5856 -0.0269  0.4077
   94TCq2    C5 1435   0.244   1.894  13.528 -0.3259  0.6309 -0.0962
   94TCq2    C6 1436   0.256   1.853  13.654 -0.1798 -0.4470 -0.2600
   94TCq2    C7 1437   0.142   1.812  13.729 -0.0276 -0.1447 -0.6763
   94TCq2    C8 1438   0.387   1.840  13.711 -0.4448  0.3770  0.2453
   94TCq2    O4 1439   0.486   1.843  13.644 -0.1876  0.4962  0.0834
   94TCq2    C9 1440   0.109   1.962  13.335 -0.1169  0.4077 -0.1163
   94TCq2    O5 1441   4.720   1.957  13.284  0.4163 -0.0349  0.0999
   94TCq2    O6 1442   0.217   1.964  13.277  0.2290 -0.3251  0.1036
   94TCq2    H2 1443   4.630   1.884  13.501  1.1063 -0.8260 -2.1295
   94TCq2    H3 1444   0.336   1.915  13.475 -1.2337 -0.2827 -2.0316
   94TCq2    H4 1445   0.149   1.773  13.830  0.5635 -0.2632 -0.7665
   95TMC2    C1 1446   4.677   2.984  15.679 -0.3424  0.1206  0.4826
   95TMC2    C2 1447   4.711   2.868  15.750  0.0504  0.0578  0.0648
   95TMC2    C3 1448   4.665   2.871  15.878 -0.2373 -0.2716  0.0793
   95TMC2    C4 1449   4.583   3.075  15.731 -0.0293 -0.0325  0.1745
   95TMC2    C5 1450   4.522   3.048  15.851 -0.0907  0.1271 -0.6195
   95TMC2    C6 1451   4.553   2.938  15.920  0.7492 -0.5473  0.5086
   95TMC2     C 1452   0.011   2.995  15.550 -0.1293  1.1669  1.1752
   95TMC2     O 1453   0.103   2.924  15.519  0.1282 -0.3027 -0.3127
   95TMC2     H 1454   0.073   2.813  15.715 -1.0075 -1.1539 -0.6514
   95TMC2    H1 1455   4.572   3.172  15.685  0.0048 -0.2567 -0.3055
   95TMC2    H2 1456   4.513   2.922  16.019  0.7832  2.1660  0.9719
   95TMC2    C7 1457   4.432   3.148  15.908 -0.3974  0.0418  0.3526
   95TMC2    C8 1458   4.711   2.769  15.969 -0.0980 -0.3283 -0.4962
   95TMC2    O1 1459   4.414   3.136  16.025  0.2688 -0.2523  0.3054
   95TMC2    O2 1460   4.691   2.653  15.931  0.0623  0.4331 -0.0235
   95TMC2    O5 1461   4.704   2.812  16.095 -0.6597  0.0722  0.5755
   95TMC2    H5 1462   0.001   2.908  16.095 -1.8648  0.3618 -0.0272
   96MPD2     C 1463   0.054   3.183  15.086  0.3879 -1.2515 -0.0581
   96MPD2    C1 1464   0.141   3.186  15.192  0.0969 -0.6164 -0.2565
   96MPD2    C2 1465   0.102   3.137  15.315 -0.3210  0.5184  0.2355
   96MPD2    C3 1466   4.702   3.099  15.344 -0.5964  0.2764  0.3266
   96MPD2    C4 1467   4.602   3.121  15.246  0.0621 -0.7144 -0.4736
   96MPD2    C5 1468   4.645   3.156  15.119  0.0031 -0.0458  0.1128
   96MPD2     H 1469   0.177   3.141  15.393 -1.6583  0.9062  1.5107
   96MPD2    H1 1470   4.496   3.101  15.257 -0.6051  1.8448 -2.2798
   96MPD2    H2 1471   0.084   3.216  14.987 -1.2681 -0.9639 -0.4702
   96MPD2    H3 1472   4.574   3.160  15.038  1.0856  0.8365 -0.7976
   96MPD2     N 1473   4.658   3.074  15.474 -0.1192 -0.0698  0.2751
   96MPD2    H5 1474   4.561   3.091  15.499 -0.0564 -1.1283  1.2318
   96MPD2    N1 1475   0.271   3.239  15.168 -0.0915  0.3680 -0.1626
   96MPD2    H7 1476   0.285   3.282  15.077 -0.3441 -1.9265 -1.2769
   97MPD2     C 1477   2.121   0.458   1.611  0.4554 -0.2442 -0.6161
   97MPD2    C1 1478   2.061   0.569   1.573 -0.8426 -0.2498 -0.3904
   97MPD2    C2 1479   1.996   0.568   1.450  0.5275  0.7361  0.2853
   97MPD2    C3 1480   1.996   0.452   1.374 -0.0352 -0.0982 -0.1067
   97MPD2    C4 1481   2.071   0.347   1.420  0.4014  0.2141  0.3931
   97MPD2    C5 1482   2.131   0.344   1.541 -0.1299  0.2932 -0.8496
   97MPD2     H 1483   1.936   0.653   1.418 -1.3961 -1.2822 -1.4241
   97MPD2    H1 1484   2.066   0.255   1.363 -0.5512  0.6605 -0.2443
   97MPD2    H2 1485   2.168   0.462   1.708 -0.0607  1.6696 -0.4493
   97MPD2    H3 1486   2.187   0.262   1.584 -1.8786 -0.5797 -0.2354
   97MPD2     N 1487   1.934   0.439   1.250  0.4516 -0.3868  0.0075
   97MPD2    H5 1488   1.927   0.343   1.218 -0.5706 -0.5733  0.7729
   97MPD2    N1 1489   2.070   0.683   1.657 -0.6286  0.3759  0.4922
   97MPD2    H7 1490   2.130   0.675   1.738 -0.0826 -0.1218  0.0378
   98TCq2    C1 1491   1.865   0.541   1.182  0.3464 -0.1708 -0.0978
   98TCq2    O2 1492   1.863   0.660   1.215  0.2419  0.3514  0.2067
   98TCq2    C2 1493   1.822   0.504   1.048  0.2818 -0.8842 -0.2841
   98TCq2    C3 1494   1.745   0.392   1.034 -0.3216 -0.2180  0.8614
   98TCq2    C4 1495   1.670   0.373   0.926 -0.2283  1.2561 -0.1425
   98TCq2    C5 1496   1.665   0.464   0.828 -0.0590  0.4699  0.8663
   98TCq2    C6 1497   1.740   0.581   0.842  0.2054  0.1122  0.6739
   98TCq2    C7 1498   1.823   0.600   0.946  0.3163  0.3795  0.1276
   98TCq2    C8 1499   1.793   0.628   0.720 -0.3610  0.6038 -0.4839
   98TCq2    O4 1500   1.914   0.641   0.709 -0.0777 -0.1895 -0.2790
   98TCq2    C9 1501   1.588   0.263   0.921 -0.3852  0.6122 -0.3296
   98TCq2    O5 1502   1.503   0.247   0.830 -0.2167  0.0954  0.2064
   98TCq2    O6 1503   1.602   0.176   1.011  0.0228  0.0742  0.3822
   98TCq2    H2 1504   1.728   0.319   1.112  0.3720 -0.5065  0.7428
   98TCq2    H3 1505   1.600   0.448   0.743  0.1530 -0.7520  0.9341
   98TCq2    H4 1506   1.887   0.685   0.964  2.5647 -1.3975  0.4635
   99MPD2     C 1507   1.222   2.809   1.562 -0.3701 -0.0312 -0.1410
   99MPD2    C1 1508   1.085   2.811   1.561  0.1478 -0.3719  0.4426
   99MPD2    C2 1509   1.020   2.783   1.443  0.2664  0.5995 -0.1406
   99MPD2    C3 1510   1.090   2.762   1.326  0.2667 -0.3077 -0.2207
   99MPD2    C4 1511   1.234   2.768   1.332 -1.1034  0.4206  0.4111
   99MPD2    C5 1512   1.296   2.789   1.446  0.2976  0.0465  0.4669
   99MPD2     H 1513   0.913   2.780   1.431  0.1450  0.9916  0.8260
   99MPD2    H1 1514   1.299   2.759   1.245  0.8642 -0.8358  2.0279
   99MPD2    H2 1515   1.278   2.821   1.655  0.2336  0.4499 -0.5618
   99MPD2    H3 1516   1.404   2.796   1.449  0.2499  0.9811  0.1685
   99MPD2     N 1517   1.026   2.744   1.208  0.0804 -0.5847  0.0797
   99MPD2    H5 1518   0.926   2.763   1.212  0.1926  0.2788 -1.2325
   99MPD2    N1 1519   1.018   2.828   1.683  0.3736  0.1972 -0.2995
   99MPD2    H7 1520   1.077   2.840   1.765  0.6689  1.7481 -0.7368
  100TCq2    C1 1521   0.889   2.862   1.709 -0.0884 -0.1641 -0.2626
  100TCq2    O2 1522   0.801   2.877   1.629 -0.0449 -0.1343 -0.6304
  100TCq2    C2 1523   0.863   2.898   1.843  0.3599  0.6727 -0.0113
  100TCq2    C3 1524   0.954   2.874   1.940 -0.2851  0.0880  0.6027
  100TCq2    C4 1525   0.912   2.898   2.067  0.1141 -0.1676  0.1890
  100TCq2    C5 1526   0.786   2.947   2.106  0.1032 -0.0004 -0.1159
  100TCq2    C6 1527   0.707   2.975   2.001  0.4414 -0.3319 -0.4453
  100TCq2    C7 1528   0.739   2.943   1.874  0.5172 -0.4718  0.3123
  100TCq2    C8 1529   0.568   2.981   2.042 -0.6814  0.4828  0.2734
  100TCq2    O4 1530   0.539   3.035   2.153  0.2585  0.2674 -0.3719
  100TCq2    C9 1531   0.995   2.851   2.179  0.1706  0.3298 -0.9170
  100TCq2    O5 1532   1.102   2.791   2.147  0.1328 -0.1027  0.3230
  100TCq2    O6 1533   0.944   2.845   2.292  0.0862 -0.2491  0.0931
  100TCq2    H2 1534   1.053   2.831   1.932 -0.3319 -0.1141  1.0926
  100TCq2    H3 1535   0.751   2.949   2.209 -0.4133 -1.2551 -0.2567
  100TCq2    H4 1536   0.663   2.948   1.797  0.5969 -1.3993  0.1743
  101MPD2     C 1537   1.834   3.869  12.727  0.5754  0.3808  0.0885
  101MPD2    C1 1538   1.737   3.962  12.767 -0.9327 -0.0658 -0.8169
  101MPD2    C2 1539   1.613   3.913  12.803 -0.3589 -0.5732  0.4612
  101MPD2    C3 1540   1.594   3.781  12.808  0.5590  0.1089  0.1768
  101MPD2    C4 1541   1.692   3.690  12.767 -0.0523  0.2207  0.0947
  101MPD2    C5 1542   1.809   3.735  12.717 -0.1993 -0.0716  0.2731
  101MPD2     H 1543   1.535   3.979  12.841  0.8993  1.9362 -1.3647
  101MPD2    H1 1544   1.662   3.586  12.765  0.7885 -0.0367  1.0435
  101MPD2    H2 1545   1.925   3.904  12.679 -0.8908 -0.7313 -3.5370
  101MPD2    H3 1546   1.888   3.671  12.680 -0.8415 -1.2926  0.9919
  101MPD2     N 1547   1.472   3.742  12.874 -0.4185  0.4575  0.3193
  101MPD2    H5 1548   1.410   3.812  12.915 -1.2115  0.1993 -0.4365
  101MPD2    N1 1549   1.772   4.101  12.766  0.2173  0.2991  0.1439
  101MPD2    H7 1550   1.864   4.138  12.742 -0.5095  2.1403  0.1754
  102TCq2    C1 1551   2.082   4.474  12.833  0.4925 -0.1931 -0.2900
  102TCq2    O2 1552   2.121   4.565  12.767 -0.6252  0.0741  0.3457
  102TCq2    C2 1553   1.937   4.465  12.839  0.5172  0.1767  0.6008
  102TCq2    C3 1554   1.868   4.566  12.787  0.0097  0.0740  0.7264
  102TCq2    C4 1555   1.740   4.547  12.739 -0.7945  1.2898 -0.2059
  102TCq2    C5 1556   1.693   4.425  12.738 -0.5748  0.4807  0.8590
  102TCq2    C6 1557   1.758   4.327  12.809 -0.0841  0.9550  0.0849
  102TCq2    C7 1558   1.886   4.344  12.852  0.5221  0.4567 -0.3458
  102TCq2    C8 1559   1.690   4.207  12.801  0.6441 -0.0551 -0.1686
  102TCq2    O4 1560   1.567   4.201  12.829  0.0871 -0.4050 -0.3217
  102TCq2    C9 1561   1.664   4.661  12.690  0.6096  0.4191  0.4200
  102TCq2    O5 1562   1.715   0.052  12.699  0.3190 -0.0296  1.0931
  102TCq2    O6 1563   1.547   4.627  12.657 -0.0181  0.4029 -0.0490
  102TCq2    H2 1564   1.917   4.661  12.768 -1.3183  0.5225 -0.4535
  102TCq2    H3 1565   1.585   4.421  12.725 -0.6325  1.2259  1.1101
  102TCq2    H4 1566   1.956   4.266  12.878  0.0148  0.3131  0.5643
  103TMC2    C1 1567   0.222   4.022  12.103  0.1282  0.7290 -0.1973
  103TMC2    C2 1568   0.351   3.994  12.129 -0.2570  0.0847 -0.3738
  103TMC2    C3 1569   0.398   4.009  12.252 -0.0287 -0.1269 -0.2279
  103TMC2    C4 1570   0.133   4.058  12.206  0.3488  0.0501 -0.0419
  103TMC2    C5 1571   0.193   4.072  12.329  0.1056 -0.4502  0.1414
  103TMC2    C6 1572   0.322   4.040  12.364  0.3301 -0.5920 -0.1575
  103TMC2     C 1573   0.151   3.948  11.997  0.9167  0.4705  0.5288
  103TMC2     O 1574   0.039   3.985  11.969 -0.2448 -0.0705  0.7820
  103TMC2     H 1575   0.421   3.955  12.056 -1.7670 -0.8213 -1.3236
  103TMC2    H1 1576   0.029   4.078  12.183 -0.1754  2.0312  4.0960
  103TMC2    H2 1577   0.368   4.038  12.462 -0.2422  1.6575  0.1600
  103TMC2    C7 1578   0.120   4.125  12.448 -0.5522 -0.2227  0.4119
  103TMC2    C8 1579   0.531   3.969  12.275 -0.0177 -0.1554  0.3316
  103TMC2    O1 1580   0.181   4.143  12.550 -0.2826 -0.5666 -0.2632
  103TMC2    O2 1581   0.600   3.909  12.194  0.4650  0.4766 -0.2212
  103TMC2    O5 1582   0.577   4.057  12.366 -0.0578 -0.0452 -0.0137
  103TMC2    H5 1583   0.517   4.134  12.374 -2.0010 -1.6915  1.4069
  104MPD2     C 1584   0.271   3.625  11.864  0.1002  1.2584  0.9989
  104MPD2    C1 1585   0.197   3.737  11.869  0.1392  0.6040  0.3981
  104MPD2    C2 1586   0.091   3.754  11.780 -0.7173 -0.2217 -0.0114
  104MPD2    C3 1587   0.068   3.646  11.692 -0.1902  0.3974 -0.0292
  104MPD2    C4 1588   0.143   3.530  11.690  0.2620 -0.0508  0.2506
  104MPD2    C5 1589   0.246   3.523  11.775  0.0355  0.5344 -0.3297
  104MPD2     H 1590   0.026   3.839  11.786 -0.9246 -0.2232 -2.2438
  104MPD2    H1 1591   0.136   3.443  11.626  1.4060  0.1174 -0.0987
  104MPD2    H2 1592   0.354   3.603  11.931  0.4378  0.8376  0.4445
  104MPD2    H3 1593   0.312   3.438  11.782 -0.2113  0.3207 -0.6294
  104MPD2     N 1594   4.687   3.663  11.602  0.0689  0.5035  0.0526
  104MPD2    H5 1595   4.623   3.737  11.629 -0.4100 -0.3305  1.1815
  104MPD2    N1 1596   0.227   3.838  11.965  0.4265 -0.1003  0.2883
  104MPD2    H7 1597   0.311   3.830  12.020 -1.2244 -0.6362  2.7046
  105MPD2     C 1598   0.979   2.930   0.212  0.0098 -0.8697 -0.2104
  105MPD2    C1 1599   1.055   3.036   0.167 -0.2123  0.3811  0.4080
  105MPD2    C2 1600   1.078   3.146   0.251 -0.3460 -0.1678 -0.3726
  105MPD2    C3 1601   1.029   3.141   0.378  0.3381 -0.0671  0.2066
  105MPD2    C4 1602   0.955   3.035   0.423 -0.0650 -0.5315  0.3969
  105MPD2    C5 1603   0.924   2.932   0.341 -0.5519 -0.6460  1.0692
  105MPD2     H 1604   1.129   3.236   0.219  1.0012 -0.5695  0.6359
  105MPD2    H1 1605   0.918   3.030   0.525 -2.0506 -0.3610 -0.3070
  105MPD2    H2 1606   0.963   2.835   0.162  0.2276 -0.4249 -1.1221
  105MPD2    H3 1607   0.862   2.850   0.375  1.3378 -3.8434 -3.1550
  105MPD2     N 1608   1.075   3.246   0.466  0.0786  0.2433  0.0439
  105MPD2    H5 1609   1.127   3.317   0.415  0.2684 -0.4115 -0.6652
  105MPD2    N1 1610   1.130   3.028   0.046 -0.2072 -0.4354 -0.1068
  105MPD2    H7 1611   1.183   3.112   0.027 -0.7758 -0.1319 -0.3379
  106TCq2    C1 1612   1.058   3.257   0.601  0.2863  0.5532 -0.0732
  106TCq2    O2 1613   1.020   3.170   0.679  0.5561 -0.6616  0.0787
  106TCq2    C2 1614   1.118   3.371   0.652 -0.3189  0.6173 -0.2632
  106TCq2    C3 1615   1.196   3.448   0.581  0.0055 -0.6534  0.5118
  106TCq2    C4 1616   1.243   3.565   0.632 -0.6752  0.4691  0.4160
  106TCq2    C5 1617   1.213   3.602   0.761 -0.2908  0.1776  0.6202
  106TCq2    C6 1618   1.127   3.524   0.833 -0.7922 -0.5637 -0.3679
  106TCq2    C7 1619   1.069   3.414   0.773 -0.6150  0.4595  0.3550
  106TCq2    C8 1620   1.109   3.554   0.972 -0.5518  0.3707 -0.0666
  106TCq2    O4 1621   1.199   3.609   1.035  0.1035  0.2503  0.0280
  106TCq2    C9 1622   1.329   3.637   0.542 -0.8357 -0.0424  0.0231
  106TCq2    O5 1623   1.401   3.730   0.590  0.5644 -0.4778  0.2393
  106TCq2    O6 1624   1.302   3.624   0.418  0.6526 -0.1835 -0.3404
  106TCq2    H2 1625   1.241   3.417   0.487  0.0947 -1.3980  0.8009
  106TCq2    H3 1626   1.255   3.696   0.796 -1.6166  1.7350 -1.9221
  106TCq2    H4 1627   0.992   3.360   0.827  0.4758 -0.9128  0.5231
  107TMC2    C1 1628   2.094   2.464  11.417 -0.6810 -0.0141  0.5186
  107TMC2    C2 1629   2.175   2.537  11.338 -0.0888 -0.3965 -0.5784
  107TMC2    C3 1630   2.281   2.479  11.280  0.4848  0.5125 -0.1876
  107TMC2    C4 1631   2.112   2.328  11.427  0.5417  0.0734 -0.0226
  107TMC2    C5 1632   2.224   2.278  11.374 -0.1520  0.2313 -0.6636
  107TMC2    C6 1633   2.312   2.354  11.308  0.5367 -0.3600  0.0480
  107TMC2     C 1634   1.984   2.516  11.489 -0.6582  0.9930 -0.7793
  107TMC2     O 1635   1.931   2.447  11.574 -0.0526  0.2136  0.3775
  107TMC2     H 1636   2.166   2.644  11.322  2.6405 -0.1912 -0.7081
  107TMC2    H1 1637   2.035   2.266  11.473 -1.6278  1.6533 -1.5097
  107TMC2    H2 1638   2.396   2.306  11.260  2.1465 -0.0435  2.5617
  107TMC2    C7 1639   2.262   2.140  11.413  0.1503  0.2104  0.1021
  107TMC2    C8 1640   2.378   2.564  11.215 -0.0191  0.3793 -0.1685
  107TMC2    O1 1641   2.187   2.093  11.498 -0.5730  0.2755 -0.5056
  107TMC2    O2 1642   2.450   2.642  11.275 -0.2044 -0.5740  0.0423
  107TMC2    O5 1643   2.414   2.506  11.099 -0.1698 -0.1907 -0.3169
  107TMC2    H5 1644   2.351   2.438  11.068 -0.6933  0.5122 -0.7776
  108MPD2     C 1645   1.811   2.828  11.394 -0.1062  0.3556 -0.0274
  108MPD2    C1 1646   1.842   2.724  11.472 -0.4385  0.1360 -0.3446
  108MPD2    C2 1647   1.777   2.711  11.589  0.3055  1.1209  0.5594
  108MPD2    C3 1648   1.664   2.787  11.622 -0.5363 -0.3310 -0.0311
  108MPD2    C4 1649   1.625   2.882  11.527 -0.0192  0.5623 -0.3318
  108MPD2    C5 1650   1.703   2.900  11.417 -0.5651 -0.5662  0.3860
  108MPD2     H 1651   1.812   2.642  11.665 -0.7007 -0.2040 -0.1774
  108MPD2    H1 1652   1.538   2.946  11.533  0.7129  1.3362  1.9495
  108MPD2    H2 1653   1.863   2.839  11.300 -2.5730 -1.2898 -1.5621
  108MPD2    H3 1654   1.684   2.966  11.333  1.1704 -1.2970 -0.5863
  108MPD2     N 1655   1.573   2.771  11.730  0.6059  0.2474  0.6660
  108MPD2    H5 1656   1.496   2.837  11.739 -0.4450 -0.6338 -1.8544
  108MPD2    N1 1657   1.946   2.633  11.431  0.1834  0.4569  0.8591
  108MPD2    H7 1658   1.972   2.650  11.334 -2.5655  0.9884  0.2126
  109MPD2     C 1659   2.513   4.663   2.553  0.2476 -0.2181 -0.0479
  109MPD2    C1 1660   2.484   0.021   2.449 -0.5666  0.4063  0.0161
  109MPD2    C2 1661   2.506   0.157   2.460 -0.5275 -0.7005 -0.3298
  109MPD2    C3 1662   2.560   0.215   2.570 -0.4735  0.0163 -0.5922
  109MPD2    C4 1663   2.583   0.132   2.673 -0.6314 -0.0701  0.4728
  109MPD2    C5 1664   2.555   4.724   2.666 -0.4489 -0.5750  0.2917
  109MPD2     H 1665   2.460   0.222   2.386 -2.8675 -1.3580  0.5509
  109MPD2    H1 1666   2.633   0.166   2.763 -1.1694 -1.0668  1.1479
  109MPD2    H2 1667   2.497   4.557   2.543  0.6615 -0.1237 -1.7225
  109MPD2    H3 1668   2.567   4.669   2.759  2.7676 -0.9014 -0.3269
  109MPD2     N 1669   2.597   0.356   2.561  0.3426 -0.1824 -0.0597
  109MPD2    H5 1670   2.570   0.401   2.474  1.4699 -0.4428 -0.5423
  109MPD2    N1 1671   2.423   4.680   2.339  0.5503 -0.9545 -0.3000
  109MPD2    H7 1672   2.416   4.579   2.345  2.8421 -1.3355 -3.3379
  110TCq2    C1 1673   2.670   0.428   2.649 -0.6344  0.0053 -0.6657
  110TCq2    O2 1674   2.718   0.378   2.748  0.2598  0.4591 -0.3195
  110TCq2    C2 1675   2.700   0.567   2.622 -0.5677  0.7424 -0.2505
  110TCq2    C3 1676   2.793   0.631   2.697  0.6571 -0.2286  0.7813
  110TCq2    C4 1677   2.793   0.769   2.695 -0.6108 -0.0737 -0.3367
  110TCq2    C5 1678   2.699   0.843   2.630 -0.5350  0.0053  0.4288
  110TCq2    C6 1679   2.602   0.769   2.563  0.0755 -0.2894 -0.1616
  110TCq2    C7 1680   2.603   0.637   2.556 -0.3079 -0.6217 -0.9079
  110TCq2    C8 1681   2.507   0.840   2.478 -0.3610 -0.0348 -0.2326
  110TCq2    O4 1682   2.410   0.775   2.442 -0.2343 -0.3799  0.2324
  110TCq2    C9 1683   2.886   0.844   2.775  0.8011  0.0096  0.6807
  110TCq2    O5 1684   2.877   0.971   2.755 -0.0615 -0.1348  0.1844
  110TCq2    O6 1685   2.935   0.791   2.880 -0.1605  0.2567 -0.6755
  110TCq2    H2 1686   2.859   0.580   2.766  0.0717 -2.1310 -0.0694
  110TCq2    H3 1687   2.694   0.950   2.644  1.9988  0.4314 -1.7914
  110TCq2    H4 1688   2.517   0.580   2.523 -0.3757 -1.0800  0.0516
  111TMC2    C1 1689   1.692   4.378  11.832  0.5893  0.3739 -0.0723
  111TMC2    C2 1690   1.642   4.295  11.928  0.5208 -0.3116 -0.1994
  111TMC2    C3 1691   1.726   4.251  12.026  0.6320  0.0591  0.0323
  111TMC2    C4 1692   1.823   4.410  11.824 -0.1720  0.0787  0.6341
  111TMC2    C5 1693   1.901   4.351  11.920 -0.0786 -0.6077  0.6893
  111TMC2    C6 1694   1.860   4.260  12.012  0.1008 -0.1900  0.4071
  111TMC2     C 1695   1.596   4.456  11.755  0.1329  0.4719 -0.2771
  111TMC2     O 1696   1.635   4.502  11.648  0.2732 -0.1699  0.3400
  111TMC2     H 1697   1.538   4.271  11.946 -0.1559  1.8982 -1.0606
  111TMC2    H1 1698   1.858   4.480  11.749  0.9961 -0.6993  0.4594
  111TMC2    H2 1699   1.929   4.231  12.090 -1.1001 -0.5556  1.3299
  111TMC2    C7 1700   2.040   4.390  11.946  1.3175  0.2065 -0.0105
  111TMC2    C8 1701   1.673   4.142  12.113  0.6664 -0.2765 -0.3353
  111TMC2    O1 1702   2.109   4.310  12.000 -0.0850  0.7275 -0.8307
  111TMC2    O2 1703   1.560   4.143  12.158 -0.0588  0.2499  0.0670
  111TMC2    O5 1704   1.771   4.077  12.172 -0.0846  0.1615 -0.1753
  111TMC2    H5 1705   1.849   4.057  12.115 -0.3459  0.4246 -0.6309
  112MPD2     C 1706   1.137   4.675  11.676 -0.1906 -0.2456 -0.5598
  112MPD2    C1 1707   1.245   4.642  11.594 -0.1745  0.1353 -0.1627
  112MPD2    C2 1708   1.357   4.579  11.643  0.0954  0.2868  0.0459
  112MPD2    C3 1709   1.366   4.547  11.776 -0.3192 -0.2572 -0.0820
  112MPD2    C4 1710   1.256   4.563  11.855 -0.3847  0.1597 -0.0561
  112MPD2    C5 1711   1.143   4.632  11.806  0.0289  0.9627 -0.0814
  112MPD2     H 1712   1.441   4.560  11.577 -0.6250 -0.5367 -0.6438
  112MPD2    H1 1713   1.254   4.525  11.956  0.8506 -1.9912 -0.8328
  112MPD2    H2 1714   1.049   0.004  11.643  1.8118  1.2582 -3.4445
  112MPD2    H3 1715   1.054   4.654  11.864 -0.4461  0.2934 -0.5457
  112MPD2     N 1716   1.478   4.477  11.823  0.4140 -0.3176 -0.4396
  112MPD2    H5 1717   1.479   4.452  11.922 -3.3194  2.1464  0.1963
  112MPD2    N1 1718   1.259   4.686  11.465  0.0631  0.1062  0.1526
  112MPD2    H7 1719   1.345   4.655  11.422 -1.2339 -1.4370 -1.3427
  113MPD2     C 1720   4.601   2.642   0.816 -0.6650 -0.8496 -0.9968
  113MPD2    C1 1721   4.512   2.736   0.844 -0.0016 -0.0227 -0.7096
  113MPD2    C2 1722   4.385   2.736   0.777 -0.0044 -0.6111  0.3283
  113MPD2    C3 1723   4.341   2.637   0.697  0.3534 -0.8076 -0.0621
  113MPD2    C4 1724   4.436   2.540   0.660  0.1217 -0.5490 -0.3255
  113MPD2    C5 1725   4.561   2.541   0.728  0.4518 -0.2867  0.2232
  113MPD2     H 1726   4.313   2.805   0.820  0.8182 -0.0299  0.7819
  113MPD2    H1 1727   4.412   2.448   0.607 -0.1916 -0.0975 -0.9735
  113MPD2    H2 1728   4.701   2.636   0.858  0.1086 -0.1524 -2.7549
  113MPD2    H3 1729   4.630   2.462   0.703 -0.4581 -1.1500  0.4504
  113MPD2     N 1730   4.206   2.636   0.638  0.2098  0.2381  0.4505
  113MPD2    H5 1731   4.181   2.564   0.571  3.7456  1.5394 -2.2707
  113MPD2    N1 1732   4.529   2.845   0.932  0.1394  0.2577 -0.0824
  113MPD2    H7 1733   4.455   2.915   0.937  0.9230  1.1966 -1.4314
  114TCq2    C1 1734   4.116   2.737   0.656  0.1712  0.0562  0.3194
  114TCq2    O2 1735   4.119   2.853   0.700 -0.7027  0.6957 -0.3554
  114TCq2    C2 1736   3.984   2.713   0.593  0.5667 -0.2587  0.1225
  114TCq2    C3 1737   3.915   2.819   0.542  0.5437  0.2443 -0.5233
  114TCq2    C4 1738   3.794   2.803   0.480  0.1927  0.1307  0.2767
  114TCq2    C5 1739   3.744   2.676   0.473 -0.4516  0.5364  0.2348
  114TCq2    C6 1740   3.806   2.567   0.523  0.1433  0.9363 -0.1244
  114TCq2    C7 1741   3.922   2.589   0.588 -0.0805 -0.7819  0.0688
  114TCq2    C8 1742   3.721   2.450   0.533  0.2496  0.2502  0.4868
  114TCq2    O4 1743   3.614   2.446   0.474 -0.0759  0.3921  0.2807
  114TCq2    C9 1744   3.712   2.915   0.441  0.4014  0.1069 -0.4134
  114TCq2    O5 1745   3.767   3.023   0.421  0.4881  0.4696  0.4836
  114TCq2    O6 1746   3.589   2.890   0.422  0.4114  0.4322 -0.7495
  114TCq2    H2 1747   3.942   2.923   0.554  0.5045  0.0075  1.7141
  114TCq2    H3 1748   3.646   2.672   0.428 -0.3703  0.9861  0.0248
  114TCq2    H4 1749   3.952   2.520   0.666  2.2738  0.9223  0.6734
  115TMC2    C1 1750   0.477   0.297   0.182 -0.2573 -0.4131 -0.1465
  115TMC2    C2 1751   0.353   0.306   0.238  0.5890 -0.3065  0.2296
  115TMC2    C3 1752   0.321   0.417   0.306 -0.3394  0.8470 -0.4797
  115TMC2    C4 1753   0.571   0.402   0.181  0.3579 -0.0553  0.3366
  115TMC2    C5 1754   0.531   0.515   0.249  0.4038 -0.3840 -0.3398
  115TMC2    C6 1755   0.410   0.525   0.309  0.1232  0.4320  0.6266
  115TMC2     C 1756   0.514   0.163   0.123  0.4256  0.1084 -0.0243
  115TMC2     O 1757   0.421   0.086   0.121 -0.6649  0.0446  0.0365
  115TMC2     H 1758   0.283   0.224   0.231  1.5944 -0.9850 -1.6358
  115TMC2    H1 1759   0.668   0.402   0.132  1.2992 -0.5823  2.1817
  115TMC2    H2 1760   0.381   0.621   0.351 -0.2736  1.1802 -1.3860
  115TMC2    C7 1761   0.613   0.631   0.243  0.5190  0.2718  0.2357
  115TMC2    C8 1762   0.215   0.396   0.405 -0.3712  0.0541  0.3497
  115TMC2    O1 1763   0.606   0.702   0.341 -0.3758  0.5944 -0.2407
  115TMC2    O2 1764   0.104   0.346   0.381 -0.1166  0.1510  0.6000
  115TMC2    O5 1765   0.236   0.476   0.511  0.0765  0.5278 -0.2952
  115TMC2    H5 1766   0.332   0.475   0.531 -0.0894 -0.1652  0.4809
  116MPD2     C 1767   0.772   4.569  17.526  0.0744  0.5338 -0.3303
  116MPD2    C1 1768   0.637   4.573  17.560 -0.2012  0.3694  0.2513
  116MPD2    C2 1769   0.593   4.676  17.635 -0.9566 -0.2278  0.5197
  116MPD2    C3 1770   0.674   0.052  17.687  0.3963  0.5081 -0.8080
  116MPD2    C4 1771   0.801   0.057  17.633 -0.8282  0.1828  0.3964
  116MPD2    C5 1772   0.850   4.679  17.555  0.3657  0.7810 -0.1314
  116MPD2     H 1773   0.489   4.668  17.663 -0.5789  0.2581  2.0928
  116MPD2    H1 1774   0.854   0.147  17.662 -2.6054  1.0796  0.8813
  116MPD2    H2 1775   0.814   4.493  17.461  0.5946  0.3149  0.2620
  116MPD2    H3 1776   0.953   4.676  17.521  0.1360  0.0605 -0.7583
  116MPD2     N 1777   0.641   0.147   0.078  0.5512 -0.0334  0.6123
  116MPD2    H5 1778   0.719   0.204   0.109  0.0203 -0.4321  2.7174
  116MPD2    N1 1779   0.561   4.475  17.497 -0.3639 -0.7966  0.4269
  116MPD2    H7 1780   0.617   4.401  17.456  0.4279  0.4887 -0.7881
  117TMC2    C1 1781   3.667   1.909  13.843 -0.0955  0.2601  0.0485
  117TMC2    C2 1782   3.681   1.771  13.848 -0.4525 -0.5084 -0.2242
  117TMC2    C3 1783   3.733   1.714  13.961  0.8402 -0.1814  0.0068
  117TMC2    C4 1784   3.706   1.987  13.945  0.3957  0.2063 -0.2254
  117TMC2    C5 1785   3.775   1.929  14.045  0.1311 -0.4083 -0.0807
  117TMC2    C6 1786   3.793   1.792  14.056 -0.7312  0.1234  0.5920
  117TMC2     C 1787   3.614   1.957  13.723 -0.2070  0.0248  0.4180
  117TMC2     O 1788   3.649   1.909  13.618 -0.0235  0.0768  0.1671
  117TMC2     H 1789   3.649   1.718  13.759 -0.4249  1.8982 -1.6931
  117TMC2    H1 1790   3.685   2.092  13.955  2.2269  0.4969  0.5633
  117TMC2    H2 1791   3.847   1.753  14.141 -1.9040  1.0968  1.7887
  117TMC2    C7 1792   3.873   2.017  14.115 -0.3155 -0.0337  0.2816
  117TMC2    C8 1793   3.790   1.586  13.932  0.6823 -0.4564 -1.1591
  117TMC2    O1 1794   3.896   2.005  14.237 -0.0167 -0.9300  0.1683
  117TMC2    O2 1795   3.829   1.557  13.818 -0.0578 -0.0895 -0.0697
  117TMC2    O5 1796   3.841   1.544  14.048  0.5189  0.3974 -0.2469
  117TMC2    H5 1797   3.779   1.554  14.123 -1.9340  0.4968 -2.2993
  118MPD2     C 1798   4.114   2.199  14.159  0.2152 -0.2792  0.7256
  118MPD2    C1 1799   4.084   2.132  14.040  0.0835  0.4164 -0.5158
  118MPD2    C2 1800   4.171   2.130  13.936  0.5461 -0.3106  1.1520
  118MPD2    C3 1801   4.295   2.189  13.950 -0.1477  1.0140 -0.1788
  118MPD2    C4 1802   4.330   2.247  14.070 -0.2967 -0.4272  0.1716
  118MPD2    C5 1803   4.240   2.252  14.172 -0.0481 -0.0447 -0.3271
  118MPD2     H 1804   4.152   2.080  13.841 -1.6894  0.9129  0.9497
  118MPD2    H1 1805   4.426   2.290  14.093 -1.2679  0.4908  2.4693
  118MPD2    H2 1806   4.033   2.222  14.227  0.3488 -0.9387  1.1056
  118MPD2    H3 1807   4.267   2.311  14.259 -0.6947  0.7023 -0.6307
  118MPD2     N 1808   4.401   2.188  13.855 -0.0141 -0.2420 -0.0430
  118MPD2    H5 1809   4.488   2.236  13.877  0.9512 -1.5122 -1.0531
  118MPD2    N1 1810   3.961   2.065  14.016 -0.3686 -0.3855 -0.0736
  118MPD2    H7 1811   3.940   2.042  13.920  1.2906 -2.6084  0.1016
  119MPD2     C 1812   2.552   3.786  13.953  1.3560  0.9796  0.2836
  119MPD2    C1 1813   2.415   3.776  13.965 -0.4067 -0.1327 -0.1929
  119MPD2    C2 1814   2.346   3.706  13.869  0.0863 -0.3454 -0.4127
  119MPD2    C3 1815   2.420   3.640  13.766  0.0413 -0.0774  0.5035
  119MPD2    C4 1816   2.556   3.647  13.755 -0.0584  0.4444 -0.3072
  119MPD2    C5 1817   2.620   3.716  13.851 -0.7741 -0.1065 -0.1226
  119MPD2     H 1818   2.238   3.700  13.873  0.1655 -1.4078  0.1488
  119MPD2    H1 1819   2.602   3.605  13.666  1.3141 -0.2903  0.7501
  119MPD2    H2 1820   2.617   3.835  14.026 -0.0361  1.6109  1.1042
  119MPD2    H3 1821   2.725   3.740  13.841 -0.6613  0.0356  1.4306
  119MPD2     N 1822   2.345   3.564  13.669 -0.5927  0.6326 -0.0432
  119MPD2    H5 1823   2.399   3.522  13.594 -1.9842  1.1848 -1.3450
  119MPD2    N1 1824   2.344   3.822  14.080  0.7094 -0.0565  0.5346
  119MPD2    H7 1825   2.382   3.910  14.113 -0.5866  0.1636  1.4574
  120TCq2    C1 1826   2.212   3.525  13.675  0.2008  1.4040 -0.1340
  120TCq2    O2 1827   2.124   3.531  13.759  0.5153  0.4831 -0.4598
  120TCq2    C2 1828   2.190   3.426  13.566 -0.1793 -0.7585  0.7297
  120TCq2    C3 1829   2.249   3.446  13.443  0.4349 -0.6294  1.1495
  120TCq2    C4 1830   2.240   3.343  13.354  0.0243  0.2257 -0.1681
  120TCq2    C5 1831   2.164   3.238  13.385  0.7073  0.3430 -1.2731
  120TCq2    C6 1832   2.079   3.240  13.497  0.0630  0.0103 -0.2861
  120TCq2    C7 1833   2.096   3.334  13.594 -0.4765 -0.1449  0.0456
  120TCq2    C8 1834   1.984   3.132  13.511  0.7938  0.1186  0.2669
  120TCq2    O4 1835   1.972   3.046  13.422 -0.4215  0.4013  0.0376
  120TCq2    C9 1836   2.317   3.350  13.239 -0.6243  0.5236  0.5803
  120TCq2    O5 1837   2.306   3.256  13.157 -0.0550 -0.4376 -0.3683
  120TCq2    O6 1838   2.397   3.444  13.226  0.3320  0.6177 -0.6487
  120TCq2    H2 1839   2.335   3.511  13.428 -1.3913  0.9917 -2.2644
  120TCq2    H3 1840   2.160   3.149  13.324  1.1087 -1.9379  2.0402
  120TCq2    H4 1841   2.025   3.337  13.676 -0.8066  4.1758 -0.4283
  121TMC2    C1 1842   4.418   0.914  14.302  0.7235 -0.3058 -0.1234
  121TMC2    C2 1843   4.424   0.905  14.438 -0.1604 -0.0924 -0.0822
  121TMC2    C3 1844   4.412   0.775  14.479 -0.0204 -0.4267  0.6920
  121TMC2    C4 1845   4.370   0.818  14.218  0.5175 -0.1091 -0.3183
  121TMC2    C5 1846   4.341   0.701  14.272 -0.2500 -0.4289 -0.5087
  121TMC2    C6 1847   4.366   0.676  14.402  0.9929  0.8133  0.0756
  121TMC2     C 1848   4.420   1.049  14.246 -0.2331  0.7695 -0.2640
  121TMC2     O 1849   4.414   1.142  14.329 -0.2176  0.2401 -0.8848
  121TMC2     H 1850   4.475   0.983  14.493  0.0491 -1.2838  1.4269
  121TMC2    H1 1851   4.345   0.830  14.113 -3.8724 -1.6267  0.5475
  121TMC2    H2 1852   4.367   0.571  14.428 -1.2051  0.4644 -1.1789
  121TMC2    C7 1853   4.258   0.612  14.198 -0.2350 -0.4552  0.0817
  121TMC2    C8 1854   4.461   0.744  14.619  0.1743 -0.2631  0.0910
  121TMC2    O1 1855   4.296   0.496  14.198 -0.6570  0.0926 -0.6365
  121TMC2    O2 1856   4.548   0.795  14.684  0.2146 -0.2102  1.3490
  121TMC2    O5 1857   4.369   0.663  14.677 -1.0346 -0.1866  0.1123
  121TMC2    H5 1858   4.289   0.636  14.626  1.4865 -2.1111 -2.8416
  122MPD2     C 1859   4.313   1.274  14.079  0.1285 -0.6639  0.5483
  122MPD2    C1 1860   4.384   1.165  14.030  0.2273  0.0013  0.4673
  122MPD2    C2 1861   4.411   1.159  13.896 -0.2244  1.0429  0.1954
  122MPD2    C3 1862   4.374   1.264  13.814 -0.1218 -0.1133  0.2056
  122MPD2    C4 1863   4.318   1.383  13.863  1.1752 -0.0359  0.3516
  122MPD2    C5 1864   4.280   1.377  13.996 -0.2209  0.4470 -0.4830
  122MPD2     H 1865   4.449   1.067  13.855 -0.2136  1.0697  0.1449
  122MPD2    H1 1866   4.292   1.464  13.796 -1.1883 -0.8094  0.3120
  122MPD2    H2 1867   4.299   1.279  14.187 -2.9757  0.7489  0.0910
  122MPD2    H3 1868   4.227   1.462  14.037 -2.6188 -1.0734 -0.4192
  122MPD2     N 1869   4.397   1.257  13.670  0.1441  0.0214  0.4582
  122MPD2    H5 1870   4.353   1.330  13.616  0.6476 -0.6207 -0.8207
  122MPD2    N1 1871   4.413   1.049  14.105  0.5104  0.4459  0.1148
  122MPD2    H7 1872   4.454   0.963  14.070 -1.1203  0.0787 -0.9390
  123MPD2     C 1873   2.597   2.406  10.063 -0.4795  0.5692  0.0610
  123MPD2    C1 1874   2.637   2.427   9.936  1.5346 -0.0831 -0.3134
  123MPD2    C2 1875   2.546   2.493   9.854 -0.7856  0.0204  0.7442
  123MPD2    C3 1876   2.423   2.542   9.896 -0.4390 -0.0841 -0.3928
  123MPD2    C4 1877   2.376   2.508  10.020 -0.8859 -0.1567 -0.1176
  123MPD2    C5 1878   2.465   2.445  10.101  0.3572 -0.1802 -0.0258
  123MPD2     H 1879   2.577   2.514   9.752  1.0995 -1.7497  0.9533
  123MPD2    H1 1880   2.279   2.542  10.054 -0.2228  0.5284  1.0822
  123MPD2    H2 1881   2.666   2.356  10.130  1.3110  1.7077 -0.9616
  123MPD2    H3 1882   2.427   2.411  10.196  0.5193  1.8654  0.7831
  123MPD2     N 1883   2.356   2.640   9.822 -0.3705  0.0765 -0.0873
  123MPD2    H5 1884   2.410   2.663   9.739  1.4530 -0.1876  1.0407
  123MPD2    N1 1885   2.776   2.402   9.902 -0.0827 -0.7704  0.4121
  123MPD2    H7 1886   2.829   2.342   9.964  0.1914  0.0268  0.9560
  124TCq2    C1 1887   2.235   2.698   9.842  0.2722  0.2408 -0.4411
  124TCq2    O2 1888   2.141   2.655   9.909 -0.9493  0.4067 -0.1424
  124TCq2    C2 1889   2.225   2.819   9.760 -0.2635  0.0229 -0.5309
  124TCq2    C3 1890   2.096   2.847   9.723 -0.7916 -0.5641  0.0782
  124TCq2    C4 1891   2.079   2.927   9.613  0.5776 -0.2235  0.0907
  124TCq2    C5 1892   2.175   3.007   9.564 -0.5190  0.1839  0.4665
  124TCq2    C6 1893   2.303   2.975   9.606 -0.5493  0.4864 -0.2982
  124TCq2    C7 1894   2.334   2.881   9.707 -0.0841 -0.0337 -1.0788
  124TCq2    C8 1895   2.412   2.998   9.516 -0.1707  0.1332 -0.0318
  124TCq2    O4 1896   2.493   2.911   9.496  0.4814  0.4898 -0.1447
  124TCq2    C9 1897   1.955   2.926   9.540 -0.7696  0.3783  0.0828
  124TCq2    O5 1898   1.951   2.986   9.429  0.7623 -0.7964  0.2601
  124TCq2    O6 1899   1.859   2.865   9.594 -0.0038  0.2830  0.2064
  124TCq2    H2 1900   2.014   2.789   9.764 -1.0391 -1.1201 -1.1911
  124TCq2    H3 1901   2.156   3.069   9.478 -0.7439 -0.8692 -0.2371
  124TCq2    H4 1902   2.433   2.845   9.731 -0.4224  0.9623  1.8286
  125TMC2    C1 1903   2.326   0.452   9.266  0.7599 -0.6229 -0.0744
  125TMC2    C2 1904   2.345   0.506   9.139  0.0545  0.1542 -0.2939
  125TMC2    C3 1905   2.449   0.443   9.068 -1.2671  0.1099 -0.4862
  125TMC2    C4 1906   2.399   0.351   9.322  0.0380 -0.0984  0.9083
  125TMC2    C5 1907   2.504   0.307   9.251 -0.6247 -0.7171  0.1418
  125TMC2    C6 1908   2.531   0.350   9.122 -0.4937  0.1940 -0.2058
  125TMC2     C 1909   2.195   0.487   9.328 -0.4724  0.0189  0.3588
  125TMC2     O 1910   2.100   0.490   9.253  0.0645 -0.8221 -0.2154
  125TMC2     H 1911   2.279   0.584   9.106 -0.8278  0.1160  1.3502
  125TMC2    H1 1912   2.381   0.318   9.424  3.1082 -1.0575  1.1443
  125TMC2    H2 1913   2.607   0.303   9.060 -1.1060  1.8651 -2.2517
  125TMC2    C7 1914   2.574   0.194   9.299 -0.1911  0.1694  0.0698
  125TMC2    C8 1915   2.497   0.520   8.948  0.2796  0.1725  0.5802
  125TMC2    O1 1916   2.512   0.123   9.383 -0.0433 -0.3404 -0.2510
  125TMC2    O2 1917   2.419   0.584   8.877  0.3421 -0.1350 -0.3477
  125TMC2    O5 1918   2.616   0.573   8.989  0.8242 -0.0889 -0.0644
  125TMC2    H5 1919   2.670   0.510   9.041 -0.0396  0.3631  1.3805
  126MPD1     C 1920   1.907   0.700   9.673  0.0522  0.2050  0.0133
  126MPD1    C1 1921   2.032   0.687   9.728 -0.2082  0.2033  0.4981
  126MPD1    C2 1922   2.124   0.633   9.647  0.2783 -0.5544 -0.2653
  126MPD1    C3 1923   2.098   0.559   9.536  0.0014 -0.1921  0.1975
  126MPD1    C4 1924   1.962   0.553   9.492 -0.0660  0.1473  0.0010
  126MPD1    C5 1925   1.876   0.636   9.555 -0.4024 -0.4580 -0.0846
  126MPD1     H 1926   2.225   0.636   9.686  0.5319 -0.1905 -0.9605
  126MPD1    H1 1927   1.928   0.507   9.401  1.2090  0.6300 -0.7288
  126MPD1    H2 1928   1.834   0.762   9.723  0.1066 -0.4482  0.8925
  126MPD1    H3 1929   1.775   0.647   9.518 -0.6632 -0.3244  0.6604
  126MPD1     N 1930   2.207   0.514   9.459  0.0321  0.0916 -0.2429
  126MPD1    H5 1931   2.300   0.517   9.499 -0.3711 -0.7645  0.7544
  126MPD1    N1 1932   2.066   0.772   9.832  0.5961  0.4167 -0.2639
  126MPD1    H6 1933   2.135   0.737   9.897  0.3809 -1.9398 -1.2989
  126MPD1    H7 1934   1.983   0.794   9.888 -1.1661 -0.8270 -2.3750
  127MPD2     C 1935   4.073   3.653   9.325  0.0242  0.4430 -0.5617
  127MPD2    C1 1936   4.201   3.635   9.382 -0.5363  0.6187 -0.0816
  127MPD2    C2 1937   4.260   3.739   9.451  0.6815  0.1300  0.0642
  127MPD2    C3 1938   4.181   3.852   9.477 -0.3642 -0.4666  0.0974
  127MPD2    C4 1939   4.056   3.865   9.425 -0.3265  0.2710  0.1507
  127MPD2    C5 1940   4.012   3.773   9.335 -0.3480 -0.0165  0.2418
  127MPD2     H 1941   4.353   3.737   9.508 -0.4420  1.9233  1.9449
  127MPD2    H1 1942   3.994   3.953   9.433 -1.4399 -0.5291  0.2255
  127MPD2    H2 1943   4.011   3.582   9.271 -0.3285  0.6139 -0.3790
  127MPD2    H3 1944   3.910   3.782   9.299  0.0828 -2.4106 -1.5494
  127MPD2     N 1945   4.237   3.954   9.554  0.3367  0.4104 -0.2328
  127MPD2    H5 1946   4.330   3.942   9.594 -0.0826 -0.3423  0.5148
  127MPD2    N1 1947   4.253   3.508   9.379  0.3709  0.3428  0.1563
  127MPD2    H7 1948   4.201   3.426   9.350  0.4830 -0.1144  1.2141
  128TCq2    C1 1949   4.383   3.490   9.403  0.1700  0.4327 -0.1023
  128TCq2    O2 1950   4.476   3.564   9.427  0.1926  0.1343 -0.0691
  128TCq2    C2 1951   4.416   3.350   9.360  0.4803 -0.4600  0.0975
  128TCq2    C3 1952   4.521   3.320   9.277  0.1966 -0.4434  0.5475
  128TCq2    C4 1953   4.538   3.189   9.233 -0.1368  0.1319 -0.0159
  128TCq2    C5 1954   4.454   3.091   9.275  0.7453 -0.6710  0.1668
  128TCq2    C6 1955   4.343   3.122   9.356 -0.0367  0.8701  0.0386
  128TCq2    C7 1956   4.323   3.253   9.395 -0.2795 -0.6692 -0.5295
  128TCq2    C8 1957   4.271   3.003   9.404  1.1097 -0.6015 -0.2349
  128TCq2    O4 1958   4.324   2.895   9.382  0.0992  0.2967 -0.1313
  128TCq2    C9 1959   4.628   3.171   9.124 -0.0061  0.0471  0.1339
  128TCq2    O5 1960   4.635   3.056   9.077 -0.2529  0.3431  0.5574
  128TCq2    O6 1961   4.684   3.269   9.066  0.2263 -0.5840  1.1472
  128TCq2    H2 1962   4.595   3.395   9.252  2.7117 -3.5092 -1.0977
  128TCq2    H3 1963   4.463   2.994   9.227 -0.6342 -0.6396 -0.1603
  128TCq2    H4 1964   4.247   3.273   9.469 -1.1778 -1.1686 -1.3180
  129MPD2     C 1965   2.686   4.513   1.962 -0.3079 -0.7449 -0.1353
  129MPD2    C1 1966   2.687   4.425   1.858  0.0783  0.7394  0.5132
  129MPD2    C2 1967   2.701   4.468   1.731  0.1972  0.3001  0.1144
  129MPD2    C3 1968   2.700   4.600   1.703  0.1615  0.8031 -0.2382
  129MPD2    C4 1969   2.695   4.689   1.808  0.3118  1.4458  0.5121
  129MPD2    C5 1970   2.687   4.647   1.932  0.3134 -0.2274  0.0075
  129MPD2     H 1971   2.707   4.395   1.651 -0.1554 -1.4509  1.6553
  129MPD2    H1 1972   2.691   0.072   1.803 -0.3401  1.4391  0.7941
  129MPD2    H2 1973   2.669   4.483   2.065  0.4235 -1.6509 -0.2777
  129MPD2    H3 1974   2.684   0.001   2.006 -2.9025  0.4882 -0.8852
  129MPD2     N 1975   2.692   4.644   1.569  0.1763 -0.1132 -0.3962
  129MPD2    H5 1976   2.700   4.569   1.502  2.1231 -0.3133  0.0504
  129MPD2    N1 1977   2.680   4.283   1.873 -0.8479  0.1435  0.6730
  129MPD2    H7 1978   2.683   4.232   1.785 -0.9598  0.9369  0.2099
  130TCq2    C1 1979   2.649   4.218   1.990 -0.1899 -0.4204  0.1008
  130TCq2    O2 1980   2.605   4.260   2.096 -0.2047  0.1426 -0.1416
  130TCq2    C2 1981   2.672   4.076   1.981  0.1487 -0.1844  0.3309
  130TCq2    C3 1982   2.774   4.033   1.897 -0.1431  0.5399 -0.2518
  130TCq2    C4 1983   2.789   3.897   1.890 -0.5880  0.0758  0.0234
  130TCq2    C5 1984   2.710   3.813   1.955  0.6872  0.3331  0.4239
  130TCq2    C6 1985   2.611   3.861   2.034 -0.2477 -0.3982  0.1309
  130TCq2    C7 1986   2.590   3.995   2.057  0.3418  0.1136  0.2822
  130TCq2    C8 1987   2.511   3.769   2.088  0.1400  0.5949 -0.4605
  130TCq2    O4 1988   2.505   3.660   2.033 -0.1497 -0.6086  0.0735
  130TCq2    C9 1989   2.918   3.851   1.837 -0.5122 -0.3046 -0.7789
  130TCq2    O5 1990   2.929   3.725   1.836 -0.1648 -0.2345  0.4982
  130TCq2    O6 1991   2.985   3.926   1.760 -0.6188  0.0883 -0.6711
  130TCq2    H2 1992   2.848   4.099   1.853  0.4591 -0.7230 -1.1140
  130TCq2    H3 1993   2.733   3.708   1.951  0.7752  0.4227 -1.4330
  130TCq2    H4 1994   2.524   4.038   2.132 -0.9698 -0.1452 -0.7410
  131MPD2     C 1995   3.441   2.984   9.391 -0.4711  0.1447 -0.4993
  131MPD2    C1 1996   3.328   3.020   9.458 -0.0991  0.6273  0.2384
  131MPD2    C2 1997   3.262   2.922   9.529 -0.0105  0.0420  0.4624
  131MPD2    C3 1998   3.316   2.793   9.543  0.3003  0.5792  0.5596
  131MPD2    C4 1999   3.446   2.778   9.497  0.1476  0.0926 -0.5633
  131MPD2    C5 2000   3.505   2.864   9.412 -0.0321  0.1651  0.4808
  131MPD2     H 2001   3.164   2.946   9.568 -1.0703  2.0072 -3.3680
  131MPD2    H1 2002   3.497   2.682   9.502  0.8552  0.3002 -3.7141
  131MPD2    H2 2003   3.476   3.049   9.311  1.5843  2.2533  2.1497
  131MPD2    H3 2004   3.604   2.847   9.371  0.4188  0.0173  1.6351
  131MPD2     N 2005   3.238   2.697   9.610 -0.1056  0.1078  0.2395
  131MPD2    H5 2006   3.141   2.727   9.611  0.0045  0.5755 -2.1409
  131MPD2    N1 2007   3.279   3.149   9.448 -0.3837 -0.2293 -0.6548
  131MPD2    H7 2008   3.342   3.215   9.404 -0.1824  0.0779  0.0920
  132TCq2    C1 2009   2.941   3.626   9.583 -0.5387 -0.1413 -0.6995
  132TCq2    O2 2010   2.916   3.586   9.698  0.0653 -0.7232  0.4196
  132TCq2    C2 2011   3.023   3.540   9.499  0.4538 -0.4055 -1.5283
  132TCq2    C3 2012   3.054   3.577   9.367 -0.4030 -0.1355 -0.3196
  132TCq2    C4 2013   3.133   3.496   9.295  0.1747  0.3440 -0.9387
  132TCq2    C5 2014   3.173   3.370   9.341 -0.0063  0.4462 -0.1228
  132TCq2    C6 2015   3.145   3.344   9.470  0.3691 -0.5027 -0.3356
  132TCq2    C7 2016   3.071   3.426   9.553 -0.3430 -0.4238  0.5659
  132TCq2    C8 2017   3.174   3.206   9.514  0.0290  0.1347 -0.5510
  132TCq2    O4 2018   3.100   3.164   9.597  0.8837  0.2400 -0.0800
  132TCq2    C9 2019   3.160   3.542   9.163 -0.3628  0.1689  0.0254
  132TCq2    O5 2020   3.094   3.641   9.118  0.3508 -0.3518  0.4470
  132TCq2    O6 2021   3.219   3.458   9.092 -0.5687  0.4413 -0.8631
  132TCq2    H2 2022   3.035   3.679   9.336 -1.5577  0.8490  3.6702
  132TCq2    H3 2023   3.222   3.300   9.274 -0.9632  0.9061 -1.2925
  132TCq2    H4 2024   3.059   3.405   9.659  1.4137 -0.1776  0.8121
  133MPD2     C 2025   2.393   2.868   9.088  0.0408 -0.4670 -0.3655
  133MPD2    C1 2026   2.488   2.974   9.073  0.3234 -0.1477  0.2126
  133MPD2    C2 2027   2.448   3.101   9.111  0.4677 -0.7100  0.5455
  133MPD2    C3 2028   2.315   3.125   9.149 -0.4348  0.6472  0.2390
  133MPD2    C4 2029   2.230   3.021   9.158 -0.6568  0.0264 -0.2182
  133MPD2    C5 2030   2.267   2.899   9.127 -0.2598 -0.1301 -0.9882
  133MPD2     H 2031   2.510   3.190   9.114  2.1081 -1.8908  1.1227
  133MPD2    H1 2032   2.126   3.029   9.188 -0.5904  0.3446 -0.0810
  133MPD2    H2 2033   2.414   2.765   9.061 -2.5602 -0.3855 -2.6835
  133MPD2    H3 2034   2.200   2.814   9.135 -1.4899  0.6119 -3.5130
  133MPD2     N 2035   2.267   3.256   9.175  0.2937 -0.0068  0.3957
  133MPD2    H5 2036   2.169   3.262   9.202  0.1625  1.7615 -0.4923
  133MPD2    N1 2037   2.622   2.946   9.028  0.5673  0.8544  0.5995
  133MPD2    H7 2038   2.648   2.849   9.016 -0.3924  0.3185  2.9369
  134TCq2    C1 2039   2.715   3.046   8.996 -0.9939 -0.3577 -0.7797
  134TCq2    O2 2040   2.700   3.168   8.991 -0.0531 -0.0428 -0.5691
  134TCq2    C2 2041   2.832   2.978   8.942  0.4999 -0.5701  0.1494
  134TCq2    C3 2042   2.905   3.053   8.857  0.6559 -0.0362  0.5011
  134TCq2    C4 2043   3.006   2.993   8.790 -0.3191  0.1865  0.4686
  134TCq2    C5 2044   3.044   2.863   8.813  0.6302  0.6868  0.0621
  134TCq2    C6 2045   2.967   2.792   8.902  0.4221 -0.3383 -0.2087
  134TCq2    C7 2046   2.852   2.842   8.962  0.3690  0.7559 -0.0439
  134TCq2    C8 2047   2.998   2.653   8.923 -0.4521  0.9605  0.0077
  134TCq2    O4 2048   3.108   2.607   8.889  0.1492 -0.0987 -0.5212
  134TCq2    C9 2049   3.105   3.080   8.724 -0.0974  0.1282 -0.9205
  134TCq2    O5 2050   3.107   3.203   8.751 -0.1114  0.2087  0.2013
  134TCq2    O6 2051   3.203   3.022   8.667  0.4571 -0.1705 -0.6162
  134TCq2    H2 2052   2.894   3.160   8.846  0.1398 -0.2392 -0.9247
  134TCq2    H3 2053   3.140   2.833   8.772  0.8587  1.9357 -0.2934
  134TCq2    H4 2054   2.803   2.788   9.043 -1.8573  1.8401 -0.6717
  135MPD2     C 2055   3.728   0.375   9.708  1.0006  0.1504  0.5139
  135MPD2    C1 2056   3.753   0.387   9.574 -0.1974  0.3353  0.2160
  135MPD2    C2 2057   3.876   0.347   9.520 -0.4706  0.4759 -0.1098
  135MPD2    C3 2058   3.973   0.299   9.608 -0.1218 -0.5672 -0.3594
  135MPD2    C4 2059   3.948   0.300   9.746 -0.2654  0.8705 -0.5277
  135MPD2    C5 2060   3.827   0.334   9.795 -0.1606 -0.7646  0.1391
  135MPD2     H 2061   3.896   0.351   9.414  1.3585  0.8687  0.2391
  135MPD2    H1 2062   4.018   0.266   9.822 -0.6373 -0.5247 -0.8112
  135MPD2    H2 2063   3.630   0.388   9.751  1.1017 -2.3040  1.5005
  135MPD2    H3 2064   3.805   0.322   9.901  2.2218  0.7817  0.8201
  135MPD2     N 2065   4.088   0.231   9.563 -0.2827 -0.8514  0.4335
  135MPD2    H5 2066   4.146   0.188   9.634  1.5037 -0.1459 -0.5907
  135MPD2    N1 2067   3.661   0.447   9.487 -0.2557 -0.1348  0.4449
  135MPD2    H7 2068   3.693   0.465   9.393  0.1846  0.6854  0.7523
  136TCq2    C1 2069   3.528   0.492   9.517 -0.4170  0.0118  0.6732
  136TCq2    O2 2070   3.452   0.458   9.608  0.0953  0.3281  0.1426
  136TCq2    C2 2071   3.464   0.564   9.403  0.3643 -0.3265  0.7298
  136TCq2    C3 2072   3.551   0.598   9.303 -0.1342  0.3785  0.4695
  136TCq2    C4 2073   3.497   0.615   9.176 -0.3116  0.9609  0.1409
  136TCq2    C5 2074   3.357   0.616   9.159 -0.1895 -0.0098 -0.2493
  136TCq2    C6 2075   3.278   0.590   9.263  0.1857  0.1699  0.0386
  136TCq2    C7 2076   3.328   0.566   9.389 -0.0002 -0.1440  0.1182
  136TCq2    C8 2077   3.132   0.594   9.240  0.2473 -0.0334 -0.0163
  136TCq2    O4 2078   3.094   0.669   9.149  0.2002 -0.3197 -0.2537
  136TCq2    C9 2079   3.579   0.637   9.058 -0.5443 -0.4068  0.2746
  136TCq2    O5 2080   3.520   0.637   8.945  0.1326  0.0795 -0.0677
  136TCq2    O6 2081   3.696   0.683   9.074  0.0775  0.0404 -0.4163
  136TCq2    H2 2082   3.658   0.603   9.316  0.0785 -1.2306 -0.6704
  136TCq2    H3 2083   3.312   0.622   9.061  1.0305 -0.3722 -0.8368
  136TCq2    H4 2084   3.276   0.554   9.483 -0.2357 -0.5453 -0.0649
  137MPD2     C 2085   3.698   4.452   9.442  0.7030 -0.5085 -0.1973
  137MPD2    C1 2086   3.563   4.473   9.438  0.3356 -0.4748  0.8654
  137MPD2    C2 2087   3.478   4.456   9.551  0.0866 -1.0102 -0.3389
  137MPD2    C3 2088   3.538   4.407   9.660  0.5015 -0.9774  0.3216
  137MPD2    C4 2089   3.678   4.404   9.668 -0.2804 -0.2720  0.0644
  137MPD2    C5 2090   3.760   4.429   9.562  0.2361  0.0504  0.3881
  137MPD2     H 2091   3.370   4.452   9.542  0.0451 -1.1687  0.1912
  137MPD2    H1 2092   3.722   4.359   9.757 -0.6329 -0.0854  0.3313
  137MPD2    H2 2093   3.760   4.471   9.356  2.4678 -0.8353  0.9895
  137MPD2    H3 2094   3.868   4.417   9.571  0.4252  0.3430 -1.4790
  137MPD2     N 2095   3.449   4.367   9.770 -0.2508 -0.7138  0.1711
  137MPD2    H5 2096   3.348   4.366   9.760  0.0813 -4.6292 -2.3730
  137MPD2    N1 2097   3.517   4.498   9.307 -0.6599 -0.6669  0.1224
  137MPD2    H7 2098   3.582   4.481   9.232 -0.8000 -1.6154  0.2185
  138TCq2    C1 2099   3.384   4.532   9.273 -0.0812 -0.2842 -0.0889
  138TCq2    O2 2100   3.290   4.553   9.343 -0.0036 -0.4465 -0.6626
  138TCq2    C2 2101   3.370   4.563   9.130  0.5012  0.7230 -0.1629
  138TCq2    C3 2102   3.492   4.586   9.063 -0.2433  0.6027 -0.3888
  138TCq2    C4 2103   3.484   4.667   8.955  0.4932  0.1250 -0.5039
  138TCq2    C5 2104   3.371   4.721   8.905  0.0211  0.1090  0.2675
  138TCq2    C6 2105   3.258   4.696   8.975  0.0079 -0.6535 -0.2724
  138TCq2    C7 2106   3.250   4.622   9.091 -0.2220 -0.6389 -0.4527
  138TCq2    C8 2107   3.129   0.026   8.926  0.3922 -0.0576  0.5848
  138TCq2    O4 2108   3.138   0.105   8.836 -0.2139  0.3562  0.0238
  138TCq2    C9 2109   3.606   4.712   8.896 -0.9743 -0.3974 -0.6863
  138TCq2    O5 2110   3.706   4.629   8.898 -0.0941 -0.3499 -0.3696
  138TCq2    O6 2111   3.613   0.112   8.884 -0.3517  0.0189  0.5106
  138TCq2    H2 2112   3.591   4.564   9.100  0.9651  1.9331 -2.8149
  138TCq2    H3 2113   3.380   0.066   8.824 -2.1693  2.8381  2.4076
  138TCq2    H4 2114   3.162   4.612   9.155  0.4981 -1.9220  0.3458
  139TMC2    C1 2115   3.644   3.083  13.319  0.5179  0.7775  0.1895
  139TMC2    C2 2116   3.676   3.135  13.194  0.0332 -0.2020  0.3625
  139TMC2    C3 2117   3.651   3.266  13.175 -0.1050  0.6428 -0.4186
  139TMC2    C4 2118   3.610   3.167  13.425 -0.4144 -0.0577  0.3048
  139TMC2    C5 2119   3.591   3.301  13.401 -0.2413  0.2836 -0.6635
  139TMC2    C6 2120   3.606   3.353  13.275  0.8244  0.9648  0.0441
  139TMC2     C 2121   3.639   2.948  13.345  0.1899 -0.4254 -0.5508
  139TMC2     O 2122   3.566   2.919  13.437  0.0871 -0.2107 -0.2953
  139TMC2     H 2123   3.683   3.065  13.111  1.3299  0.7270 -0.3054
  139TMC2    H1 2124   3.599   3.125  13.524 -0.6576  0.1064  0.3464
  139TMC2    H2 2125   3.580   3.455  13.249  1.3665  1.3082  0.8472
  139TMC2    C7 2126   3.510   3.381  13.484 -0.1524 -0.3279  0.2491
  139TMC2    C8 2127   3.634   3.316  13.034  0.4353  0.2291  0.0807
  139TMC2    O1 2128   3.424   3.452  13.433 -0.1964  0.1840  0.7410
  139TMC2    O2 2129   3.583   3.255  12.945 -0.4538  0.2511  0.6620
  139TMC2    O5 2130   3.692   3.439  13.026 -0.5453 -0.0340  0.5337
  139TMC2    H5 2131   3.726   3.463  13.115 -1.7087  0.2353  0.9103
  140MPD2     C 2132   3.586   2.665  13.312  0.1174  0.0162  0.1531
  140MPD2    C1 2133   3.705   2.722  13.291  0.3364 -0.0363 -1.0049
  140MPD2    C2 2134   3.809   2.640  13.254 -0.0348 -0.5102 -0.7368
  140MPD2    C3 2135   3.792   2.503  13.251  0.3695  0.1720  0.1263
  140MPD2    C4 2136   3.670   2.445  13.271 -0.8753  0.1026 -1.0559
  140MPD2    C5 2137   3.569   2.529  13.305 -0.0885  0.5667 -0.1370
  140MPD2     H 2138   3.903   2.692  13.236  0.9076 -1.5856  1.1117
  140MPD2    H1 2139   3.656   2.339  13.259 -0.0239 -0.0592 -0.6189
  140MPD2    H2 2140   3.495   2.719  13.338 -0.0128 -1.2499  2.2811
  140MPD2    H3 2141   3.470   2.491  13.328 -0.0797  0.7137  0.1466
  140MPD2     N 2142   3.912   2.425  13.230  0.4326  0.0326  0.3193
  140MPD2    H5 2143   3.993   2.473  13.192  1.0501 -1.5687 -0.3792
  140MPD2    N1 2144   3.722   2.860  13.284  0.1307 -0.0571  0.3338
  140MPD2    H7 2145   3.799   2.903  13.234  0.4855 -0.2116  0.7516
  141TCq2    C1 2146   4.635   4.161  13.977 -0.0860 -0.3770  0.2534
  141TCq2    O2 2147   4.581   4.262  13.936  0.2005  0.7374 -0.2912
  141TCq2    C2 2148   4.633   4.129  14.123 -0.0109 -0.1208  0.3107
  141TCq2    C3 2149   4.652   4.001  14.174  0.0477  0.7384 -0.1987
  141TCq2    C4 2150   4.600   3.971  14.294 -0.7225 -0.2906  0.5078
  141TCq2    C5 2151   4.546   4.068  14.372  0.0146 -0.0492 -0.5725
  141TCq2    C6 2152   4.529   4.199  14.321  0.8009 -0.1201 -0.1730
  141TCq2    C7 2153   4.570   4.223  14.193  0.2640 -0.4905 -0.2535
  141TCq2    C8 2154   4.477   4.305  14.411 -0.1868 -0.7994  0.7032
  141TCq2    O4 2155   4.428   4.273  14.517 -0.3600 -0.0807 -0.5346
  141TCq2    C9 2156   4.606   3.838  14.332 -0.7008 -0.3718 -0.1567
  141TCq2    O5 2157   4.603   3.808  14.453  0.2212 -0.0497 -0.7472
  141TCq2    O6 2158   4.617   3.757  14.231 -0.0940  0.2090  0.0407
  141TCq2    H2 2159   4.699   3.915  14.128 -0.3482  0.3071  0.2004
  141TCq2    H3 2160   4.525   4.040  14.474 -0.1841  1.5179 -0.1725
  141TCq2    H4 2161   4.544   4.314  14.139 -1.0669 -0.4144  0.5316
  142MPD2     C 2162   3.425   2.226   9.326  0.0733 -0.6335 -0.6639
  142MPD2    C1 2163   3.288   2.237   9.306  0.4650  0.0370  0.2966
  142MPD2    C2 2164   3.236   2.362   9.279 -0.4976 -0.3884 -0.4173
  142MPD2    C3 2165   3.320   2.467   9.266 -0.7238  0.5172 -0.3665
  142MPD2    C4 2166   3.455   2.457   9.302  0.0772  0.4385 -0.5351
  142MPD2    C5 2167   3.508   2.335   9.326 -0.0350  0.9674  0.6522
  142MPD2     H 2168   3.131   2.369   9.254 -0.1920 -2.6486 -2.3095
  142MPD2    H1 2169   3.519   2.544   9.315  0.5074  0.2461 -1.4013
  142MPD2    H2 2170   3.476   2.130   9.327  0.2874 -0.4856  2.4568
  142MPD2    H3 2171   3.614   2.329   9.350  0.0473  1.4733  0.3989
  142MPD2     N 2172   3.277   2.599   9.247  0.0976 -0.2185 -0.1324
  142MPD2    H5 2173   3.351   2.667   9.234 -2.3323  2.3183 -0.6498
  142MPD2    N1 2174   3.225   2.120   9.312 -0.2078  0.1929 -0.1406
  142MPD2    H7 2175   3.285   2.039   9.323  1.8405  1.7576  0.0021
  143TCq2    C1 2176   3.148   2.637   9.240  0.4580 -0.8839  0.6188
  143TCq2    O2 2177   3.050   2.587   9.292  0.0948 -0.0262  0.5367
  143TCq2    C2 2178   3.132   2.775   9.204 -0.4457  0.4904  0.7259
  143TCq2    C3 2179   3.219   2.845   9.128 -0.3135  0.7900 -1.4987
  143TCq2    C4 2180   3.197   2.981   9.117  0.1385  0.0876 -0.4247
  143TCq2    C5 2181   3.083   3.036   9.164  0.5182  0.1453  0.3090
  143TCq2    C6 2182   3.001   2.966   9.243 -0.0669 -0.0008  0.1243
  143TCq2    C7 2183   3.028   2.836   9.262  0.4805 -0.1654  0.1454
  143TCq2    C8 2184   2.892   3.024   9.311 -0.5191 -0.8224 -0.6663
  143TCq2    O4 2185   2.851   2.955   9.403  0.8592  0.3489  0.8235
  143TCq2    C9 2186   3.297   3.061   9.050 -0.1747  0.0288  0.5979
  143TCq2    O5 2187   3.267   3.188   9.041  0.5464  0.1872 -0.2307
  143TCq2    O6 2188   3.409   3.007   9.015  0.4022  0.0619 -0.2432
  143TCq2    H2 2189   3.305   2.803   9.078 -0.1828 -2.2742  1.3566
  143TCq2    H3 2190   3.075   3.144   9.152 -2.0407 -0.2853 -1.7705
  143TCq2    H4 2191   2.962   2.775   9.323  0.2583 -0.2613 -0.1920
  144MPD2     C 2192   4.349   2.960   0.425  0.2002  0.0561  0.3371
  144MPD2    C1 2193   4.345   2.841   0.356 -0.4069  0.0076  0.0963
  144MPD2    C2 2194   4.447   2.751   0.368  0.1166 -0.9441  0.8748
  144MPD2    C3 2195   4.556   2.781   0.451  0.8511 -0.0810 -0.3899
  144MPD2    C4 2196   4.559   2.903   0.521  1.0515 -0.1933 -0.3024
  144MPD2    C5 2197   4.455   2.983   0.506  0.5701 -0.2907  0.5331
  144MPD2     H 2198   4.438   2.658   0.313 -2.7924 -1.3610  2.0355
  144MPD2    H1 2199   4.649   2.938   0.570  1.7751 -2.0726 -0.2740
  144MPD2    H2 2200   4.273   3.037   0.430  0.6853  0.5227  0.5376
  144MPD2    H3 2201   4.461   3.076   0.561 -0.7246 -0.1199  0.3888
  144MPD2     N 2202   4.669   2.701   0.454  0.1139  0.3487 -0.1289
  144MPD2    H5 2203   0.019   2.743   0.509 -2.4999  3.9798  0.6815
  144MPD2    N1 2204   4.224   2.807   0.283 -0.2901  0.5862  0.3095
  144MPD2    H7 2205   4.222   2.708   0.260  1.3171  0.0368  2.5448
  145TCq2    C1 2206   4.678   2.570   0.415  1.1773  0.3925 -0.6868
  145TCq2    O2 2207   4.583   2.505   0.373 -0.1065  0.1812  0.4489
  145TCq2    C2 2208   0.089   2.512   0.418 -0.6456 -0.2199  0.6055
  145TCq2    C3 2209   0.114   2.410   0.329  0.0073 -0.0870 -0.4270
  145TCq2    C4 2210   0.244   2.366   0.318  0.3963  0.2528 -0.3133
  145TCq2    C5 2211   0.340   2.407   0.406  0.3263 -0.4323  0.3373
  145TCq2    C6 2212   0.311   2.505   0.502 -0.4942  0.5420  0.1569
  145TCq2    C7 2213   0.187   2.559   0.509 -0.5093  0.1037  0.0997
  145TCq2    C8 2214   0.400   2.522   0.620  0.7705 -0.0801 -0.4751
  145TCq2    O4 2215   0.522   2.522   0.599  0.0565 -0.4766 -0.3494
  145TCq2    C9 2216   0.282   2.286   0.198  0.4255  0.8353 -0.1246
  145TCq2    O5 2217   0.398   2.240   0.202 -0.0621  0.6569 -0.0657
  145TCq2    O6 2218   0.184   2.258   0.120  0.5549 -0.2313 -0.1771
  145TCq2    H2 2219   0.030   2.369   0.274 -1.5985 -0.0274  1.9726
  145TCq2    H3 2220   0.443   2.385   0.379  0.4752  0.5668  0.1013
  145TCq2    H4 2221   0.173   2.626   0.592 -1.3586  0.8199 -0.6174
  146TMC2    C1 2222   1.680   0.407  12.143 -0.2906  0.4060  1.0008
  146TMC2    C2 2223   1.607   0.449  12.034 -0.0564  0.4387  0.3900
  146TMC2    C3 2224   1.650   0.439  11.909  0.3434 -0.2403 -0.5093
  146TMC2    C4 2225   1.807   0.363  12.126  0.7588  0.3714  0.1301
  146TMC2    C5 2226   1.854   0.360  11.997 -0.2439 -0.1379  0.1607
  146TMC2    C6 2227   1.778   0.395  11.889  1.0860 -0.6035 -0.1252
  146TMC2     C 2228   1.688   0.521  12.229  0.1948 -0.1266  0.1817
  146TMC2     O 2229   1.641   0.625  12.187  0.3473 -0.4318  0.8240
  146TMC2     H 2230   1.505   0.477  12.058 -1.3577 -1.0419 -3.4627
  146TMC2    H1 2231   1.874   0.327  12.203  2.0801 -1.2690 -1.7746
  146TMC2    H2 2232   1.815   0.383  11.788 -0.2336 -0.2494 -0.6612
  146TMC2    C7 2233   1.996   0.379  11.967 -0.0882 -0.2331  0.3491
  146TMC2    C8 2234   1.582   0.509  11.805  0.2930  0.8058 -0.0756
  146TMC2    O1 2235   2.017   0.458  11.871  0.6593  0.0105  0.1610
  146TMC2    O2 2236   1.472   0.550  11.837 -0.0476  0.2772 -0.1304
  146TMC2    O5 2237   1.673   0.570  11.729  0.4954  0.2143  0.3419
  146TMC2    H5 2238   1.747   0.514  11.699  0.6118  1.7750 -2.2901
  147MPD2     C 2239   2.494   0.333  12.079 -0.3758 -0.7868 -0.5355
  147MPD2    C1 2240   2.423   0.258  12.171 -1.2800  0.2307  0.2776
  147MPD2    C2 2241   2.286   0.248  12.147 -0.7997 -0.4922 -0.0471
  147MPD2    C3 2242   2.220   0.318  12.049 -0.0662  0.3458  0.2340
  147MPD2    C4 2243   2.297   0.396  11.959  0.0458 -0.1041 -0.5815
  147MPD2    C5 2244   2.433   0.395  11.971 -0.2880  0.3121  0.0625
  147MPD2     H 2245   2.220   0.193  12.213  0.7608 -1.5847  0.5872
  147MPD2    H1 2246   2.255   0.452  11.877 -0.0268  2.0270  0.9262
  147MPD2    H2 2247   2.602   0.334  12.068 -0.1089  0.6065  2.3718
  147MPD2    H3 2248   2.488   0.462  11.905 -0.1826 -1.2820 -1.4747
  147MPD2     N 2249   2.081   0.312  12.053  0.6429 -0.7683  0.1562
  147MPD2    H5 2250   2.043   0.237  12.110 -0.0758 -1.5476 -1.3603
  147MPD2    N1 2251   2.493   0.212  12.283  0.1782  0.2286 -0.3447
  147MPD2    H7 2252   2.591   0.239  12.282  0.5209 -1.0890 -1.4265
  148MPD2     C 2253   1.620   4.061  10.238 -0.2763  0.1941  0.0795
  148MPD2    C1 2254   1.694   3.965  10.310  0.0902 -0.1757 -0.4695
  148MPD2    C2 2255   1.749   3.860  10.250 -0.6267  0.1924 -0.1834
  148MPD2    C3 2256   1.732   3.834  10.115  0.0865 -0.4413  0.2205
  148MPD2    C4 2257   1.677   3.936  10.045 -0.8415 -0.5883  0.4248
  148MPD2    C5 2258   1.618   4.045  10.100 -0.2098  0.0701 -0.6646
  148MPD2     H 2259   1.791   3.790  10.322  1.5318  1.1741 -0.4569
  148MPD2    H1 2260   1.666   3.930   9.937 -0.4465  1.1769  0.2751
  148MPD2    H2 2261   1.563   4.140  10.285  0.1502  1.1805 -1.0728
  148MPD2    H3 2262   1.575   4.117  10.032 -0.3851 -0.4682 -1.1207
  148MPD2     N 2263   1.783   3.717  10.048 -0.2410  0.2449  0.1321
  148MPD2    H5 2264   1.751   3.701   9.953  1.5165  0.5535 -0.5241
  148MPD2    N1 2265   1.698   3.965  10.454 -0.2390 -0.2493  0.6470
  148MPD2    H7 2266   1.761   3.898  10.496  0.6731  0.2664  0.1162
  149TCq2    C1 2267   1.620   4.049  10.532  0.4484  0.0996 -0.3023
  149TCq2    O2 2268   1.530   4.131  10.512 -0.5308  0.3656 -0.5159
  149TCq2    C2 2269   1.644   4.012  10.671 -0.0822  0.1774 -0.3967
  149TCq2    C3 2270   1.601   4.104  10.756  0.2849  1.2005  0.7745
  149TCq2    C4 2271   1.605   4.073  10.890  0.0248  1.0257 -0.4893
  149TCq2    C5 2272   1.661   3.959  10.941  0.3691  0.4287 -0.8980
  149TCq2    C6 2273   1.703   3.870  10.843 -0.2209  0.2196 -0.5906
  149TCq2    C7 2274   1.709   3.898  10.710 -0.3189  0.6802 -0.4663
  149TCq2    C8 2275   1.766   3.745  10.873  0.0689 -0.6385 -0.6539
  149TCq2    O4 2276   1.864   3.714  10.808  0.4786  0.4108  0.1837
  149TCq2    C9 2277   1.587   4.183  10.980  0.2913 -0.1349  1.0947
  149TCq2    O5 2278   1.581   4.298  10.934  0.0674 -0.0366 -0.1986
  149TCq2    O6 2279   1.625   4.164  11.102 -1.1652  0.5175  0.4690
  149TCq2    H2 2280   1.562   4.199  10.723  2.0034  2.4440  2.3040
  149TCq2    H3 2281   1.671   3.941  11.048 -0.9098  0.2113 -0.8151
  149TCq2    H4 2282   1.739   3.815  10.646 -1.8472 -0.4166  0.2535
  150MPD2     C 2283   3.021   3.364  11.812  0.1791  0.3270  0.0172
  150MPD2    C1 2284   3.118   3.344  11.713  0.5153  0.6437 -0.3690
  150MPD2    C2 2285   3.201   3.449  11.686 -0.4321  0.0963 -0.5446
  150MPD2    C3 2286   3.198   3.569  11.759 -0.4860 -0.7466  0.4170
  150MPD2    C4 2287   3.109   3.587  11.868  0.3871 -0.1273 -0.1980
  150MPD2    C5 2288   3.022   3.479  11.882 -0.2417  0.7261 -0.0411
  150MPD2     H 2289   3.273   3.444  11.605 -0.3464  1.2728 -0.5487
  150MPD2    H1 2290   3.092   3.672  11.933 -3.0072 -0.3777 -0.8043
  150MPD2    H2 2291   2.951   3.283  11.831 -2.9334  3.2876  1.0876
  150MPD2    H3 2292   2.949   3.491  11.961 -0.2328 -0.6949  0.1846
  150MPD2     N 2293   3.304   3.659  11.729  0.2644  1.0593  0.0081
  150MPD2    H5 2294   3.375   3.635  11.660  0.5682  0.3494  0.5573
  150MPD2    N1 2295   3.120   3.220  11.646  0.2105 -0.1084  0.3931
  150MPD2    H7 2296   3.042   3.157  11.658 -0.5763  0.4846 -1.4987
  151TCq2    C1 2297   3.314   3.782  11.781  0.2633 -0.1424  0.3256
  151TCq2    O2 2298   3.254   3.825  11.877 -0.4180  0.2097 -0.8146
  151TCq2    C2 2299   3.430   3.862  11.736 -0.6755 -0.3756 -0.0797
  151TCq2    C3 2300   3.490   3.841  11.615  0.6523  0.5942 -0.4416
  151TCq2    C4 2301   3.623   3.884  11.599  0.2192 -0.2883 -0.1031
  151TCq2    C5 2302   3.692   3.953  11.695  0.5748  0.1579 -0.2411
  151TCq2    C6 2303   3.624   3.989  11.809  0.1886 -0.0779  0.3354
  151TCq2    C7 2304   3.488   3.946  11.837 -0.5568  0.5184  0.2326
  151TCq2    C8 2305   3.720   4.021  11.919 -0.6968  0.4357 -0.3989
  151TCq2    O4 2306   3.704   4.125  11.983  0.1655 -0.5165  0.0747
  151TCq2    C9 2307   3.699   3.841  11.486  0.4551  0.1627  0.0920
  151TCq2    O5 2308   3.817   3.889  11.469 -0.0083 -0.5017 -0.7131
  151TCq2    O6 2309   3.649   3.764  11.406 -0.0746  0.6686 -0.2229
  151TCq2    H2 2310   3.440   3.777  11.543 -0.5661  0.8596  0.1667
  151TCq2    H3 2311   3.791   3.992  11.678  0.3832 -0.3347 -2.5793
  151TCq2    H4 2312   3.447   3.935  11.937 -0.7773 -1.9993 -0.1298
  152MPD2     C 2313   3.227   3.180  12.336  0.2386  0.7365 -0.6880
  152MPD2    C1 2314   3.226   3.218  12.201 -0.6172 -0.1570 -0.1054
  152MPD2    C2 2315   3.143   3.150  12.110 -0.0284  0.2900  0.1314
  152MPD2    C3 2316   3.067   3.048  12.160 -0.1197 -0.0583  0.0252
  152MPD2    C4 2317   3.062   3.023  12.297  0.0303 -0.6090 -0.0885
  152MPD2    C5 2318   3.152   3.081  12.386  0.0847  0.0152 -0.2166
  152MPD2     H 2319   3.129   3.174  12.005  0.0176 -2.3455 -0.4728
  152MPD2    H1 2320   3.004   2.941  12.338  0.4291  0.4972  2.7552
  152MPD2    H2 2321   3.299   3.232  12.398 -0.4995  2.3265 -1.1621
  152MPD2    H3 2322   3.167   3.045  12.487 -0.9230  0.3804  0.0613
  152MPD2     N 2323   2.977   2.986  12.064  0.2073 -0.1495  0.1242
  152MPD2    H5 2324   2.974   3.022  11.969 -2.7532  1.0682  0.6577
  152MPD2    N1 2325   3.308   3.320  12.156 -0.3222 -0.4285  0.1759
  152MPD2    H7 2326   3.364   3.372  12.223  0.1572 -1.3037  0.4547
  153TCq2    C1 2327   3.350   3.332  12.023  0.2654 -0.0516 -0.1530
  153TCq2    O2 2328   3.354   3.248  11.932 -0.2230 -0.3321  0.1362
  153TCq2    C2 2329   3.419   3.456  11.996 -0.3006 -0.1050 -0.1469
  153TCq2    C3 2330   3.517   3.453  11.900 -0.1298  0.1715 -1.1261
  153TCq2    C4 2331   3.612   3.554  11.901 -0.0976 -0.2493  0.0776
  153TCq2    C5 2332   3.634   3.640  12.006 -0.2225  0.3623 -0.8891
  153TCq2    C6 2333   3.542   3.635  12.111  0.2210 -0.1895  0.5008
  153TCq2    C7 2334   3.430   3.550  12.104 -0.1891 -0.1375 -0.0109
  153TCq2    C8 2335   3.553   3.721  12.223 -0.0601 -0.7254  0.3907
  153TCq2    O4 2336   3.453   3.750  12.289  0.0048 -0.1571  0.1738
  153TCq2    C9 2337   3.706   3.556  11.798  1.5024 -0.2167  0.0088
  153TCq2    O5 2338   3.704   3.460  11.715 -0.1311  0.2841  0.7591
  153TCq2    O6 2339   3.787   3.656  11.790  0.2849  0.2512 -0.4066
  153TCq2    H2 2340   3.498   3.394  11.811 -0.7349 -0.1773 -0.7643
  153TCq2    H3 2341   3.719   3.708  12.009  2.0749 -2.5837  1.0412
  153TCq2    H4 2342   3.363   3.552  12.190  0.0714 -2.8530  0.2665
  154MPD2     C 2343   4.642   3.189  17.339  0.0394 -0.0635  0.3032
  154MPD2    C1 2344   4.639   3.326  17.353  0.3392 -0.2695  0.6076
  154MPD2    C2 2345   4.561   3.371  17.459  0.3186  0.1703 -0.6296
  154MPD2    C3 2346   4.487   3.290  17.545  0.4448  0.2987  0.1392
  154MPD2    C4 2347   4.487   3.152  17.516  0.3154  0.0953  0.8047
  154MPD2    C5 2348   4.560   3.105  17.416  0.8700  0.6522 -0.4873
  154MPD2     H 2349   4.561   3.474  17.493  1.4466 -0.0127 -0.0747
  154MPD2    H1 2350   4.422   3.090  17.577  0.9191 -1.7656 -0.4242
  154MPD2    H2 2351   4.694   3.143  17.256  1.1763 -2.1731  2.2211
  154MPD2    H3 2352   4.578   2.999  17.404  1.3500  0.5926  0.7877
  154MPD2     N 2353   4.435   3.335  17.662  0.1081 -0.2853  0.3830
  154MPD2    H5 2354   4.430   3.435  17.681  3.6223 -0.1820  0.7315
  154MPD2    N1 2355   4.707   3.421  17.272  0.0580  0.3732 -0.1602
  154MPD2    H7 2356   4.693   3.518  17.297 -0.1052 -0.6344  3.6875
  155TCq2    C1 2357   0.051   3.395  17.154 -0.0781 -1.0776 -0.6125
  155TCq2    O2 2358   0.070   3.289  17.096 -0.1418  0.1090  0.1440
  155TCq2    C2 2359   0.071   3.522  17.085  0.1708  0.0999 -0.5836
  155TCq2    C3 2360   4.702   3.619  17.097  0.0510 -0.3520  0.3604
  155TCq2    C4 2361   4.714   3.727  17.009  1.3981  0.4124 -0.1473
  155TCq2    C5 2362   0.077   3.723  16.904  0.2467 -0.0584 -0.3022
  155TCq2    C6 2363   0.170   3.618  16.889  0.2512 -0.0575  0.2416
  155TCq2    C7 2364   0.170   3.525  16.993  0.8299  0.4610 -0.6650
  155TCq2    C8 2365   0.268   3.612  16.782  0.5489 -0.5909 -1.1798
  155TCq2    O4 2366   0.345   3.520  16.793  0.2964  0.1372 -0.4285
  155TCq2    C9 2367   4.624   3.839  17.031  0.5044 -0.2602 -0.7433
  155TCq2    O5 2368   4.652   3.943  16.967 -0.2698 -0.3253 -0.1231
  155TCq2    O6 2369   4.535   3.824  17.121  0.2063  0.1690  0.1848
  155TCq2    H2 2370   4.627   3.626  17.174  0.1871 -0.6326  0.5205
  155TCq2    H3 2371   0.073   3.804  16.832  0.3607  1.1875  1.0836
  155TCq2    H4 2372   0.232   3.436  16.988 -0.6522 -0.8008  3.3183
  156MPD2     C 2373   3.458   0.491  12.498  0.1924 -0.4196 -0.3425
  156MPD2    C1 2374   3.495   0.577  12.401 -0.1908 -0.0530  0.3998
  156MPD2    C2 2375   3.598   0.663  12.427 -0.2067 -0.8363 -0.2802
  156MPD2    C3 2376   3.670   0.651  12.550 -0.7123 -0.7277  0.2967
  156MPD2    C4 2377   3.631   0.564  12.652  0.0425  0.2164  0.1426
  156MPD2    C5 2378   3.519   0.494  12.624 -0.1952  0.4420  0.2721
  156MPD2     H 2379   3.629   0.731  12.349  0.3028  0.0927  0.7200
  156MPD2    H1 2380   3.674   0.567  12.751 -0.0926  0.6967  0.1867
  156MPD2    H2 2381   3.374   0.424  12.479  0.7027 -0.7608 -1.3697
  156MPD2    H3 2382   3.486   0.423  12.698 -0.0160 -0.6361 -0.6864
  156MPD2     N 2383   3.783   0.729  12.567 -0.0103 -0.0027 -0.0387
  156MPD2    H5 2384   3.800   0.809  12.507 -1.1576  0.4438  0.2257
  156MPD2    N1 2385   3.412   0.588  12.286  0.1697 -0.0157  0.0592
  156MPD2    H7 2386   3.352   0.509  12.264 -0.9735  1.1969 -1.2140
  157TCq2    C1 2387   3.413   0.696  12.201  0.9704  0.4742  0.4566
  157TCq2    O2 2388   3.488   0.797  12.202  0.1606 -0.2701 -0.8809
  157TCq2    C2 2389   3.323   0.680  12.087 -0.0279 -0.3048  0.7244
  157TCq2    C3 2390   3.224   0.587  12.083 -0.3300  0.2535  0.3940
  157TCq2    C4 2391   3.151   0.570  11.967  0.0745 -0.3032  0.6907
  157TCq2    C5 2392   3.181   0.644  11.859  0.2203  0.8706 -0.0373
  157TCq2    C6 2393   3.275   0.738  11.869  0.1809  0.3326  0.7037
  157TCq2    C7 2394   3.354   0.757  11.981 -0.2229 -0.6429  0.0844
  157TCq2    C8 2395   3.336   0.784  11.747 -0.2162 -0.0661 -0.5534
  157TCq2    O4 2396   3.267   0.808  11.651 -0.4915 -0.2079 -0.1654
  157TCq2    C9 2397   3.049   0.467  11.958 -0.8103 -0.3154 -0.0699
  157TCq2    O5 2398   3.034   0.393  12.058  0.0494  0.0650 -0.0068
  157TCq2    O6 2399   2.989   0.454  11.848 -0.0820  0.4948  0.6098
  157TCq2    H2 2400   3.193   0.537  12.174 -0.9490 -2.2027 -1.1610
  157TCq2    H3 2401   3.131   0.625  11.764  1.1671 -1.6011 -0.0564
  157TCq2    H4 2402   3.430   0.833  11.990  0.3078 -0.8200 -2.9680
  158TMC2    C1 2403   3.682   4.511  13.288 -0.2782 -0.7561  0.0359
  158TMC2    C2 2404   3.740   4.515  13.160 -0.4690 -0.0055 -0.0739
  158TMC2    C3 2405   3.654   4.499  13.051  0.1648 -0.2172  0.3637
  158TMC2    C4 2406   3.542   4.515  13.312 -0.3346 -0.6609 -0.1871
  158TMC2    C5 2407   3.464   4.512  13.196 -0.7329 -0.3698 -0.0310
  158TMC2    C6 2408   3.519   4.498  13.071 -1.0520 -0.1769  0.6528
  158TMC2     C 2409   3.780   4.546  13.386  0.2252 -0.0520 -0.4202
  158TMC2     O 2410   3.876   4.615  13.356 -0.0402  0.0992 -0.6744
  158TMC2     H 2411   3.846   4.523  13.142 -0.3210 -1.5558  0.0513
  158TMC2    H1 2412   3.505   4.530  13.413  0.5298  0.3524 -0.0199
  158TMC2    H2 2413   3.460   4.494  12.980 -0.5587  1.0875  0.2742
  158TMC2    C7 2414   3.323   4.480  13.203  0.2704  0.0401  0.1483
  158TMC2    C8 2415   3.722   4.450  12.933  0.5650  0.7068  0.1457
  158TMC2    O1 2416   3.260   4.486  13.103 -0.2638  0.4799  0.1772
  158TMC2    O2 2417   3.823   4.506  12.891 -0.1060  0.2215 -0.4528
  158TMC2    O5 2418   3.718   4.318  12.957  0.0083  0.2826 -0.3474
  158TMC2    H5 2419   3.636   4.294  13.007 -0.1951  0.4258 -0.6097
  159MPD2     C 2420   4.026   4.431  13.813 -0.5464 -0.7107  0.0702
  159MPD2    C1 2421   3.894   4.398  13.839 -0.2054  0.1854 -0.3314
  159MPD2    C2 2422   3.802   4.416  13.740 -0.4814 -0.7912 -0.5983
  159MPD2    C3 2423   3.846   4.469  13.616  0.0198  0.2321 -0.0149
  159MPD2    C4 2424   3.977   4.485  13.592  0.0053 -0.3514  0.6835
  159MPD2    C5 2425   4.072   4.468  13.684 -0.0462 -0.0823  0.4172
  159MPD2     H 2426   3.695   4.406  13.745 -0.2778 -0.8453  3.1064
  159MPD2    H1 2427   4.012   4.532  13.501  1.0659 -0.0439  1.2547
  159MPD2    H2 2428   4.095   4.418  13.895 -0.2103  0.5040 -0.0267
  159MPD2    H3 2429   4.176   4.494  13.667 -0.6819  0.8318 -2.0899
  159MPD2     N 2430   3.752   4.477  13.507  0.2543  0.3211 -0.2751
  159MPD2    H5 2431   3.669   4.419  13.514  1.2912 -1.2652 -1.1957
  159MPD2    N1 2432   3.874   4.340  13.971  0.4763  0.3203 -0.6387
  159MPD2    H7 2433   3.961   4.325  14.022  0.3419  0.3128 -0.4112
  160TMC2    C1 2434   3.296   2.153   1.380 -0.6992  0.2882  0.5519
  160TMC2    C2 2435   3.412   2.087   1.418  0.3174 -0.1667 -0.5306
  160TMC2    C3 2436   3.532   2.115   1.362 -0.4259 -0.0919  0.9754
  160TMC2    C4 2437   3.302   2.248   1.285  0.0272  0.5790  0.0074
  160TMC2    C5 2438   3.429   2.276   1.231  0.0743 -0.6305  0.4188
  160TMC2    C6 2439   3.548   2.212   1.265 -0.0723  0.3208  0.3128
  160TMC2     C 2440   3.174   2.115   1.447 -0.6143  0.3925  0.4759
  160TMC2     O 2441   3.200   2.042   1.542  0.1778 -0.0058 -0.2334
  160TMC2     H 2442   3.405   2.010   1.494 -4.3182  1.9309  1.2289
  160TMC2    H1 2443   3.220   2.311   1.252 -0.5313  0.0882  0.4937
  160TMC2    H2 2444   3.638   2.221   1.204  0.7512  2.4469  1.8554
  160TMC2    C7 2445   3.426   2.334   1.094  0.2204 -0.5531 -0.5500
  160TMC2    C8 2446   3.625   2.008   1.377  0.1098 -0.1000 -0.7359
  160TMC2    O1 2447   3.339   2.287   1.024 -0.2175  0.2446 -0.0844
  160TMC2    O2 2448   3.596   1.890   1.396  0.0895 -0.0818  0.1519
  160TMC2    O5 2449   3.729   2.050   1.302 -0.0722 -0.2837 -0.0822
  160TMC2    H5 2450   3.752   2.143   1.320  1.0292 -0.2746 -1.5029
  161MPD2     C 2451   2.912   2.153   1.578  0.2282 -0.3955 -0.1622
  161MPD2    C1 2452   2.927   2.177   1.442 -0.3899 -0.2655  0.2161
  161MPD2    C2 2453   2.831   2.227   1.360 -0.3147 -0.9543  0.8949
  161MPD2    C3 2454   2.712   2.259   1.417  0.0702  0.9326 -0.3112
  161MPD2    C4 2455   2.690   2.228   1.547  0.3332 -0.1366  0.1156
  161MPD2    C5 2456   2.791   2.178   1.633  0.5789  0.0868 -0.2741
  161MPD2     H 2457   2.850   2.242   1.255  0.8543 -1.6267  1.0029
  161MPD2    H1 2458   2.600   2.251   1.603 -0.0473 -0.5250 -0.3348
  161MPD2    H2 2459   2.986   2.111   1.645  1.5728  1.0823 -0.7360
  161MPD2    H3 2460   2.770   2.162   1.738 -0.9106  0.9493 -0.4364
  161MPD2     N 2461   2.601   2.294   1.342  0.2974 -0.3036 -0.2447
  161MPD2    H5 2462   2.515   2.310   1.394  0.6130  3.9368 -1.0487
  161MPD2    N1 2463   3.057   2.156   1.374  0.6689 -0.0747  0.0681
  161MPD2    H7 2464   3.069   2.193   1.280  0.6785 -0.1073  0.0568
  162TMC2    C1 2465   1.997   3.993   1.013  0.1197  0.0144 -0.8792
  162TMC2    C2 2466   2.112   4.023   1.089 -0.2427 -0.1151 -0.0889
  162TMC2    C3 2467   2.146   3.936   1.189 -0.6075  0.8430 -0.5391
  162TMC2    C4 2468   1.923   3.879   1.041 -0.1006  0.8206 -0.2203
  162TMC2    C5 2469   1.955   3.803   1.151  0.0286 -0.5783 -0.0389
  162TMC2    C6 2470   2.068   3.826   1.228 -0.8719  0.3927  0.2665
  162TMC2     C 2471   2.018   4.006   0.873  0.3435  0.2257 -0.8263
  162TMC2     O 2472   1.988   3.912   0.800  0.7187 -0.2583 -0.2814
  162TMC2     H 2473   2.174   4.111   1.073 -0.1507  0.1117  1.4822
  162TMC2    H1 2474   1.847   3.847   0.970  0.0816  1.7462 -0.8385
  162TMC2    H2 2475   2.083   3.764   1.316  0.4266  0.1458 -0.1251
  162TMC2    C7 2476   1.866   3.694   1.182 -0.1706  0.1216  0.0143
  162TMC2    C8 2477   2.249   3.986   1.280 -0.5141  0.0626 -0.3545
  162TMC2    O1 2478   1.799   3.648   1.090 -0.0459 -0.0008  0.0492
  162TMC2    O2 2479   2.246   4.110   1.293  0.0473  0.1561 -0.5846
  162TMC2    O5 2480   2.272   3.899   1.379  0.3832 -0.4803 -1.0880
  162TMC2    H5 2481   2.289   3.806   1.356  0.1343 -1.0178  0.8738
  163MPD2     C 2482   2.213   4.271   0.483  0.3597  0.4005 -0.4582
  163MPD2    C1 2483   2.188   4.135   0.483 -0.7699 -0.2748 -0.2520
  163MPD2    C2 2484   2.141   4.087   0.609  0.1852  0.1911  0.4125
  163MPD2    C3 2485   2.119   4.172   0.719  0.3984 -0.1398 -0.2112
  163MPD2    C4 2486   2.144   4.302   0.713  0.1288  0.3816  0.1295
  163MPD2    C5 2487   2.188   4.355   0.592 -0.4874  0.1971  0.4771
  163MPD2     H 2488   2.136   3.980   0.629  0.2706  0.4496  1.8681
  163MPD2    H1 2489   2.126   4.367   0.797 -1.2875  1.1984 -0.7942
  163MPD2    H2 2490   2.244   4.313   0.388  1.4178 -0.4647 -0.5015
  163MPD2    H3 2491   2.213   4.460   0.601  1.2344 -0.3283  1.8531
  163MPD2     N 2492   2.076   4.129   0.845  0.1942 -0.0129 -0.2321
  163MPD2    H5 2493   2.081   4.187   0.928  0.3097 -1.1641  0.5564
  163MPD2    N1 2494   2.208   4.058   0.371  0.2356 -0.3443  0.5288
  163MPD2    H7 2495   2.259   4.097   0.292  0.3470  0.8231  1.1884
  164TCq2    C1 2496   2.212   3.395  11.127 -0.2848  0.0300  0.6380
  164TCq2    O2 2497   2.161   3.318  11.210  0.4102 -0.3540  0.2041
  164TCq2    C2 2498   2.184   3.542  11.132 -0.5007  0.4380 -0.1398
  164TCq2    C3 2499   2.270   3.631  11.079 -0.1194  0.0599 -0.4594
  164TCq2    C4 2500   2.239   3.766  11.074 -0.1678 -0.8467 -0.0342
  164TCq2    C5 2501   2.119   3.811  11.116  0.3891 -0.1079 -0.2658
  164TCq2    C6 2502   2.037   3.717  11.179 -0.1988  0.6165  0.9587
  164TCq2    C7 2503   2.069   3.584  11.183  0.5435 -0.5129  0.3361
  164TCq2    C8 2504   1.908   3.760  11.233  0.3381 -0.9403  0.0424
  164TCq2    O4 2505   1.862   3.867  11.191  0.0066 -0.1350 -0.1196
  164TCq2    C9 2506   2.334   3.862  11.020 -0.3411 -0.3832 -0.4670
  164TCq2    O5 2507   2.294   3.980  11.010 -0.4438  0.0178 -0.1481
  164TCq2    O6 2508   2.450   3.816  10.998 -0.4423  0.3410 -0.6164
  164TCq2    H2 2509   2.371   3.609  11.047 -0.6335 -0.3329 -1.7974
  164TCq2    H3 2510   2.085   3.914  11.112  2.5361  0.5806 -0.5619
  164TCq2    H4 2511   2.000   3.506  11.212  0.2752 -0.1234  0.7406
  165MPD2     C 2512   2.628   1.044   1.972  0.4985  0.0845 -0.3635
  165MPD2    C1 2513   2.615   1.143   1.878  0.2168 -0.3656  0.3305
  165MPD2    C2 2514   2.704   1.245   1.883 -0.8498 -0.4487 -0.1093
  165MPD2    C3 2515   2.788   1.261   1.994 -0.2186  0.8387  0.8032
  165MPD2    C4 2516   2.788   1.166   2.099  0.1586  0.8611 -0.8754
  165MPD2    C5 2517   2.706   1.058   2.085 -0.3420  0.3532  0.0730
  165MPD2     H 2518   2.694   1.326   1.811 -1.6169 -0.7047 -0.2900
  165MPD2    H1 2519   2.846   1.166   2.190 -1.5948  3.1977  0.2415
  165MPD2    H2 2520   2.565   0.956   1.975  2.0280 -1.0152 -0.5071
  165MPD2    H3 2521   2.707   0.975   2.155  1.0509 -0.7969 -1.3413
  165MPD2     N 2522   2.882   1.366   2.001 -0.2370 -0.0263  0.2682
  165MPD2    H5 2523   2.950   1.368   2.077  1.1287  1.1669 -0.9885
  165MPD2    N1 2524   2.528   1.125   1.767  0.1224 -0.2687 -0.1368
  165MPD2    H7 2525   2.482   1.036   1.755 -1.5224  0.5363  0.2009
  166TCq2    C1 2526   2.934   1.441   1.899  0.0422  0.5462 -0.0466
  166TCq2    O2 2527   2.903   1.427   1.782  0.1612  0.0120 -1.2054
  166TCq2    C2 2528   3.052   1.521   1.930  0.0695 -0.3354  0.8797
  166TCq2    C3 2529   3.073   1.563   2.056  0.2949  0.2930  0.2592
  166TCq2    C4 2530   3.196   1.601   2.087  0.4521 -1.1500 -0.0211
  166TCq2    C5 2531   3.296   1.613   1.994  0.2719 -0.5304 -0.1023
  166TCq2    C6 2532   3.275   1.551   1.870 -0.4177 -0.5326  0.4807
  166TCq2    C7 2533   3.152   1.506   1.835  0.8209 -0.0768  0.0627
  166TCq2    C8 2534   3.378   1.558   1.768 -0.5356  0.3368  0.2706
  166TCq2    O4 2535   3.445   1.661   1.765 -1.1255 -0.7093  0.3139
  166TCq2    C9 2536   3.209   1.645   2.230  0.4485  0.3002  0.0904
  166TCq2    O5 2537   3.319   1.699   2.257  0.4529  0.1745 -0.0396
  166TCq2    O6 2538   3.126   1.609   2.317 -0.2452  0.3601 -0.2624
  166TCq2    H2 2539   2.991   1.573   2.127  1.4034  1.6020  1.3507
  166TCq2    H3 2540   3.392   1.654   2.023  0.2680  0.6341 -1.7014
  166TCq2    H4 2541   3.141   1.484   1.729  1.7965  0.9224 -0.2433
  167TMC2    C1 2542   1.525   3.586  12.281 -0.3285 -0.1902 -0.5644
  167TMC2    C2 2543   1.435   3.658  12.362  0.0873  0.8000 -0.5933
  167TMC2    C3 2544   1.370   3.593  12.464  0.2353  0.4427  0.1957
  167TMC2    C4 2545   1.561   3.455  12.314 -0.2156 -0.1429  0.0667
  167TMC2    C5 2546   1.499   3.407  12.423  0.0035  0.0492  0.5605
  167TMC2    C6 2547   1.398   3.470  12.492  0.2721 -0.1936 -0.1469
  167TMC2     C 2548   1.600   3.644  12.180  0.5212  1.1521 -0.2635
  167TMC2     O 2549   1.716   3.613  12.160 -0.3589 -0.2474 -0.6609
  167TMC2     H 2550   1.403   3.758  12.337 -0.3297  1.0301  0.9024
  167TMC2    H1 2551   1.626   3.396  12.250  0.0073 -0.9484  1.0292
  167TMC2    H2 2552   1.347   3.428  12.577 -1.6947 -3.5194 -2.9972
  167TMC2    C7 2553   1.541   3.277  12.481 -0.4105 -0.1026 -0.8380
  167TMC2    C8 2554   1.271   3.660  12.543 -0.1468 -0.0031 -0.4312
  167TMC2    O1 2555   1.517   3.258  12.605 -0.1937 -0.2092  0.2221
  167TMC2    O2 2556   1.192   3.583  12.599  0.3548  0.1331  0.6077
  167TMC2    O5 2557   1.231   3.775  12.491 -0.8070 -0.1757  0.6503
  167TMC2    H5 2558   1.307   3.836  12.479 -0.3775 -1.1786 -1.7800
  168MPD2     C 2559   1.709   3.834  11.966 -0.5851 -0.1243  0.0269
  168MPD2    C1 2560   1.575   3.815  11.995  0.0848  0.2979  0.5496
  168MPD2    C2 2561   1.483   3.887  11.919  0.8222 -0.0958 -0.6356
  168MPD2    C3 2562   1.520   3.970  11.816 -0.0053  0.7929 -0.1326
  168MPD2    C4 2563   1.654   3.992  11.790  0.5025  0.4211  0.0126
  168MPD2    C5 2564   1.742   3.921  11.863  0.4228  0.8494 -0.2395
  168MPD2     H 2565   1.377   3.873  11.937  0.4901  1.9934 -0.9876
  168MPD2    H1 2566   1.690   4.051  11.706  3.1507  0.9723  1.5271
  168MPD2    H2 2567   1.786   3.780  12.020 -0.0121 -1.2209 -1.8794
  168MPD2    H3 2568   1.845   3.942  11.839  1.6018 -2.8941  1.4787
  168MPD2     N 2569   1.425   4.031  11.735  0.2556 -0.2537  0.4216
  168MPD2    H5 2570   1.330   4.025  11.770 -0.2526  2.0362 -0.5639
  168MPD2    N1 2571   1.528   3.730  12.097  0.1567 -0.7378  0.6817
  168MPD2    H7 2572   1.428   3.736  12.113  0.0279  2.9830 -1.7200
  169MPD1     C 2573   0.548   0.452  10.100  0.1759  0.0100  0.6551
  169MPD1    C1 2574   0.677   0.472  10.052 -0.3046 -0.4289 -0.5454
  169MPD1    C2 2575   0.706   0.584   9.979  0.1182  0.4396 -0.2847
  169MPD1    C3 2576   0.607   0.679   9.971  0.8245 -0.4737 -0.0364
  169MPD1    C4 2577   0.479   0.668  10.023 -0.0308  0.2109 -0.7707
  169MPD1    C5 2578   0.456   0.551  10.087 -0.2233  0.1561 -0.1652
  169MPD1     H 2579   0.798   0.585   9.921  0.3025 -1.2959 -0.0461
  169MPD1    H1 2580   0.400   0.742  10.023  0.1150  0.3529  0.3881
  169MPD1    H2 2581   0.518   0.362  10.151  2.6765 -0.4068  1.4052
  169MPD1    H3 2582   0.360   0.547  10.138  0.8545  0.1782  1.8564
  169MPD1     N 2583   0.643   0.789   9.889 -0.3212  0.2794 -0.1835
  169MPD1    H5 2584   0.741   0.802   9.866 -0.2317  0.1170  0.1122
  169MPD1    N1 2585   0.765   0.362  10.057 -0.1605  0.1264  0.1932
  169MPD1    H6 2586   0.752   0.308  10.141  0.1703 -0.8032 -0.3606
  169MPD1    H7 2587   0.862   0.391  10.043 -0.4963  0.1491 -2.1766
  170MPD1     C 2588   2.522   1.175  12.490  0.0977 -0.4400 -0.5070
  170MPD1    C1 2589   2.496   1.306  12.529 -0.8121 -0.2701  0.2649
  170MPD1    C2 2590   2.514   1.337  12.663 -0.3403 -0.7050 -0.9128
  170MPD1    C3 2591   2.527   1.238  12.761 -0.2580 -0.3662 -0.7137
  170MPD1    C4 2592   2.524   1.102  12.721 -0.5275 -0.8733 -0.7908
  170MPD1    C5 2593   2.524   1.081  12.586  0.3596  0.2935  0.2098
  170MPD1     H 2594   2.506   1.438  12.701 -1.2983 -0.8463 -0.7446
  170MPD1    H1 2595   2.526   1.016  12.788  1.7771  0.6660  1.1150
  170MPD1    H2 2596   2.541   1.148  12.387 -0.6668 -1.6826 -0.3187
  170MPD1    H3 2597   2.523   0.975  12.562  1.3045  0.9246 -2.5780
  170MPD1     N 2598   2.523   1.283  12.900 -0.2872  0.4816  0.2183
  170MPD1    H5 2599   2.551   1.379  12.913  0.5483  0.3178 -0.3771
  170MPD1    N1 2600   2.497   1.412  12.434 -0.1270  0.4968  0.2249
  170MPD1    H6 2601   2.447   1.494  12.469 -0.0328 -0.8334  3.5274
  170MPD1    H7 2602   2.460   1.379  12.345 -0.5255  2.5037 -0.3394
  171MPD1     C 2603   1.223   2.256  15.430 -0.4304 -0.0517  0.1674
  171MPD1    C1 2604   1.222   2.138  15.365  0.1663 -0.0199 -0.4904
  171MPD1    C2 2605   1.271   2.021  15.421 -0.1335 -0.6225 -0.2342
  171MPD1    C3 2606   1.322   2.027  15.550  0.4727 -0.1739  0.2476
  171MPD1    C4 2607   1.310   2.148  15.622  0.6288 -0.0813  0.4315
  171MPD1    C5 2608   1.257   2.261  15.557  0.0444 -0.1049  0.6737
  171MPD1     H 2609   1.264   1.921  15.380  4.7441  0.2172 -3.0916
  171MPD1    H1 2610   1.336   2.145  15.727  3.0413  1.0343 -0.1408
  171MPD1    H2 2611   1.183   2.344  15.380 -1.4198 -0.5016  0.1703
  171MPD1    H3 2612   1.261   2.351  15.616  0.5861 -0.8148  1.7207
  171MPD1     N 2613   1.376   1.912  15.617 -0.2185 -0.3138  0.4740
  171MPD1    H5 2614   1.408   1.933  15.711  2.1091 -0.0985 -0.3687
  171MPD1    N1 2615   1.149   2.130  15.249  0.0103  0.1200  0.2268
  171MPD1    H6 2616   1.180   2.068  15.175 -0.4666 -1.5183  1.3878
  171MPD1    H7 2617   1.131   2.222  15.210 -0.4858 -0.0073  0.1500
  172MPD1     C 2618   3.402   1.952   0.136 -0.6386  0.4218 -0.2106
  172MPD1    C1 2619   3.463   2.057   0.210  0.1369  0.0238 -0.4224
  172MPD1    C2 2620   3.595   2.064   0.237  0.0862  0.2432 -0.3611
  172MPD1    C3 2621   3.676   1.984   0.155 -0.0195 -0.2841 -0.0982
  172MPD1    C4 2622   3.612   1.885   0.079 -0.2605  0.3061 -1.2294
  172MPD1    C5 2623   3.481   1.866   0.066 -0.2962  0.1426 -0.4048
  172MPD1     H 2624   3.631   2.131   0.314  0.6960 -3.1139  2.3128
  172MPD1    H1 2625   3.672   1.827   0.010  1.8684 -0.9417  1.6582
  172MPD1    H2 2626   3.294   1.958   0.121 -0.5236 -0.0793 -1.2275
  172MPD1    H3 2627   3.441   1.788   0.003 -2.0420  0.5790  0.1733
  172MPD1     N 2628   3.816   1.985   0.140  0.4830 -0.1134 -0.1053
  172MPD1    H5 2629   3.865   1.919   0.081 -1.5193 -0.6056 -1.2226
  172MPD1    N1 2630   3.388   2.146   0.283  0.0512  0.2335  0.3518
  172MPD1    H6 2631   3.301   2.178   0.240 -0.6306  0.2359  1.7263
  172MPD1    H7 2632   3.437   2.229   0.314  2.3541 -1.2183  0.5657
  173MPD1     C 2633   1.699   2.059  14.363  0.5882 -0.9392  0.9841
  173MPD1    C1 2634   1.580   2.014  14.307 -0.2472  0.3580 -0.2147
  173MPD1    C2 2635   1.540   1.890  14.345 -0.6320  0.0895  0.3652
  173MPD1    C3 2636   1.598   1.821  14.449 -0.2804  0.9964 -1.0696
  173MPD1    C4 2637   1.709   1.874  14.509  0.2497 -0.6289 -0.5892
  173MPD1    C5 2638   1.756   1.990  14.463  0.3931 -0.1613  0.0911
  173MPD1     H 2639   1.447   1.848  14.308 -0.3202 -0.1687 -0.1192
  173MPD1    H1 2640   1.763   1.808  14.576  2.1929 -0.2178 -1.7481
  173MPD1    H2 2641   1.749   2.151  14.334 -0.4824 -0.7165 -0.1541
  173MPD1    H3 2642   1.852   2.029  14.495  0.6154 -0.8418  0.2391
  173MPD1     N 2643   1.543   1.693  14.477 -0.2750 -0.6129 -0.5878
  173MPD1    H5 2644   1.466   1.655  14.423  0.8134 -1.8252 -1.2753
  173MPD1    N1 2645   1.525   2.071  14.192  0.2958 -0.1336  0.2285
  173MPD1    H6 2646   1.424   2.058  14.201  0.2863 -0.3505 -0.1504
  173MPD1    H7 2647   1.551   2.169  14.187  2.5413 -0.8153 -1.4664
  174MPD1     C 2648   1.131   0.954  13.992  0.3915  0.1744 -0.3428
  174MPD1    C1 2649   1.120   1.093  14.017 -0.4279 -0.1673  1.1038
  174MPD1    C2 2650   1.193   1.159  14.115  0.2233 -0.1905 -0.9954
  174MPD1    C3 2651   1.262   1.086  14.209  0.0006  0.3880 -0.7012
  174MPD1    C4 2652   1.257   0.948  14.187 -0.4443  0.4095  0.6142
  174MPD1    C5 2653   1.197   0.879  14.082 -0.4957 -0.0752  0.2394
  174MPD1     H 2654   1.215   1.264  14.100 -1.4642  0.1503 -1.0819
  174MPD1    H1 2655   1.305   0.873  14.250  2.7546  0.7839 -1.3768
  174MPD1    H2 2656   1.081   0.903  13.911  0.4171 -1.1577  0.4770
  174MPD1    H3 2657   1.192   0.772  14.062 -1.1488  0.1169 -0.6534
  174MPD1     N 2658   1.326   1.143  14.324 -0.1769  0.0075 -0.4096
  174MPD1    H5 2659   1.380   1.085  14.388  1.9107  0.9249 -1.3552
  174MPD1    N1 2660   1.061   1.172  13.921 -0.0682 -0.4861 -0.1807
  174MPD1    H6 2661   1.030   1.264  13.951 -0.1126 -0.1455 -1.2918
  174MPD1    H7 2662   0.981   1.117  13.889  0.4600 -0.8815 -0.8198
  175MPD1     C 2663   0.624   2.685  15.154 -0.7129  0.5353  0.4989
  175MPD1    C1 2664   0.520   2.603  15.108  0.4801 -0.0176 -0.1371
  175MPD1    C2 2665   0.407   2.600  15.181  0.1129  0.5211 -0.8755
  175MPD1    C3 2666   0.410   2.655  15.306 -1.2517 -0.4290  0.6687
  175MPD1    C4 2667   0.518   2.724  15.362  0.1621 -0.2120 -0.0426
  175MPD1    C5 2668   0.631   2.744  15.282 -0.1564 -0.9563 -0.3571
  175MPD1     H 2669   0.313   2.558  15.146  0.5447 -1.2728  0.1493
  175MPD1    H1 2670   0.518   2.759  15.464 -0.9413 -3.6396  1.1377
  175MPD1    H2 2671   0.709   2.715  15.093 -0.7988 -0.4495 -0.1063
  175MPD1    H3 2672   0.716   2.797  15.321 -0.1763  1.3449 -3.4434
  175MPD1     N 2673   0.298   2.651  15.395 -0.8416 -0.1890 -0.5274
  175MPD1    H5 2674   0.324   2.663  15.493  1.8206  1.4260 -1.4324
  175MPD1    N1 2675   0.523   2.557  14.971  1.0064  0.1174 -0.0686
  175MPD1    H6 2676   0.619   2.527  14.952  0.9032 -0.3183  0.1183
  175MPD1    H7 2677   0.472   2.471  14.956  0.6101  0.2400  0.6121
  176MPD1     C 2678   2.163   3.624  17.442  0.1645  0.3860 -0.2617
  176MPD1    C1 2679   2.036   3.584  17.400  0.3216  0.4473 -0.3039
  176MPD1    C2 2680   1.992   3.611  17.278  0.1173  0.1069  0.0569
  176MPD1    C3 2681   2.070   3.693  17.191 -0.3528 -0.7158  0.3951
  176MPD1    C4 2682   2.194   3.736  17.231  0.1702 -0.1073  0.1671
  176MPD1    C5 2683   2.242   3.701  17.356 -0.4091  0.3534  0.0712
  176MPD1     H 2684   1.895   3.571  17.248  0.5468 -1.0396  0.1964
  176MPD1    H1 2685   2.257   3.788  17.160 -0.5303 -0.6508 -0.8497
  176MPD1    H2 2686   2.199   3.601  17.542  1.1606 -1.0109 -0.9400
  176MPD1    H3 2687   2.346   3.716  17.381 -1.1257  2.5438  1.6893
  176MPD1     N 2688   2.013   3.711  17.064 -0.5866  0.4058 -0.6027
  176MPD1    H5 2689   1.940   3.645  17.040 -0.0963 -0.4561  0.2597
  176MPD1    N1 2690   1.948   3.522  17.488  0.4008  0.2233  0.1022
  176MPD1    H6 2691   1.886   3.460  17.437 -1.1923  2.8432 -1.1766
  176MPD1    H7 2692   1.988   3.475  17.569 -0.1228  0.3568  0.4461
  177MPD1     C 2693   0.289   4.153  10.121  0.4870 -0.8641 -0.9578
  177MPD1    C1 2694   0.257   4.278  10.086  0.1150  0.2891 -0.1941
  177MPD1    C2 2695   0.135   4.298  10.026  0.1191  0.2394 -0.1047
  177MPD1    C3 2696   0.041   4.200   9.999  0.4083  0.7214  0.1615
  177MPD1    C4 2697   0.079   4.069  10.033 -0.2039  0.0676  0.6330
  177MPD1    C5 2698   0.200   4.053  10.090  0.0845  0.1147  0.3843
  177MPD1     H 2699   0.122   4.399   9.991 -0.1057  0.5632  0.9404
  177MPD1    H1 2700   0.011   3.985  10.032 -0.1274  0.0024  1.1684
  177MPD1    H2 2701   0.374   4.124  10.181  0.4913  1.0202 -0.0403
  177MPD1    H3 2702   0.225   3.959  10.139 -1.0391 -1.1025 -1.3944
  177MPD1     N 2703   4.644   4.225   9.931 -0.4623  0.1894  0.8532
  177MPD1    H5 2704   4.631   4.320   9.899  1.3745  0.2717  0.2930
  177MPD1    N1 2705   0.335   4.394  10.124 -0.1564  0.6903 -1.0960
  177MPD1    H6 2706   0.311   4.474  10.065 -2.0165  1.0574  0.1472
  177MPD1    H7 2707   0.435   4.377  10.123 -0.5916 -1.7565 -2.2344
  178MPD1     C 2708   2.353   0.990  17.235  0.8092 -0.2065 -0.6631
  178MPD1    C1 2709   2.246   0.916  17.185  0.2246  0.2105  0.3055
  178MPD1    C2 2710   2.271   0.794  17.123  0.4988  0.7252 -0.7297
  178MPD1    C3 2711   2.393   0.733  17.122 -0.6535 -0.0893 -1.0025
  178MPD1    C4 2712   2.500   0.802  17.172 -0.3331  0.3848  0.1700
  178MPD1    C5 2713   2.476   0.926  17.224 -0.2103  0.3509  0.0722
  178MPD1     H 2714   2.189   0.744  17.073  0.4706 -1.5724  1.6425
  178MPD1    H1 2715   2.602   0.765  17.174  0.9703  3.8927 -0.5700
  178MPD1    H2 2716   2.352   1.084  17.288 -1.5384 -1.2750  1.1571
  178MPD1    H3 2717   2.557   0.982  17.269  0.8988 -0.5909 -0.7508
  178MPD1     N 2718   2.427   0.614  17.050 -0.3541 -0.0263  0.3865
  178MPD1    H5 2719   2.521   0.577  17.047 -0.8573 -1.0610 -2.6257
  178MPD1    N1 2720   2.117   0.969  17.188  0.1960  0.5469 -0.3671
  178MPD1    H6 2721   2.044   0.900  17.172  1.0828 -0.5976  0.5666
  178MPD1    H7 2722   2.091   1.023  17.270  1.1076  1.5545 -0.7446
  179MPD1     C 2723   2.517   3.788  15.648 -0.5445 -0.1147  0.0225
  179MPD1    C1 2724   2.439   3.721  15.557  0.2890 -0.3267 -0.5882
  179MPD1    C2 2725   2.341   3.636  15.606 -0.3409 -0.5739 -0.0112
  179MPD1    C3 2726   2.299   3.641  15.737 -0.3572  0.0059  0.4240
  179MPD1    C4 2727   2.367   3.724  15.822 -0.2798  0.6743  0.3252
  179MPD1    C5 2728   2.480   3.791  15.784  0.5625 -0.6652 -0.7222
  179MPD1     H 2729   2.290   3.575  15.533  0.1920 -2.1043  0.9057
  179MPD1    H1 2730   2.356   3.729  15.930 -3.4000  0.7677  0.0037
  179MPD1    H2 2731   2.593   3.859  15.618 -1.1397  0.6559  0.3498
  179MPD1    H3 2732   2.527   3.858  15.854 -0.0274 -1.4495  0.4225
  179MPD1     N 2733   2.203   3.561  15.793 -0.2587 -0.2855  0.0306
  179MPD1    H5 2734   2.194   3.566  15.894  0.4658 -1.3471  0.1475
  179MPD1    N1 2735   2.477   3.718  15.427  0.4089  0.3958  0.4046
  179MPD1    H6 2736   2.405   3.700  15.358  1.7037 -0.6139 -0.6949
  179MPD1    H7 2737   2.526   3.804  15.405 -0.1162  0.0459 -2.1138
  180MPD1     C 2738   1.519   4.543  15.223  0.0406 -0.0466 -0.3213
  180MPD1    C1 2739   1.607   4.650  15.201  0.1348  0.1921  0.3279
  180MPD1    C2 2740   1.603   4.710  15.081 -0.1858  1.1716 -0.1635
  180MPD1    C3 2741   1.521   4.667  14.973 -0.1101  0.5515  0.1270
  180MPD1    C4 2742   1.439   4.556  15.003 -0.3705 -0.1660  0.4232
  180MPD1    C5 2743   1.443   4.494  15.127  0.5979 -0.3532 -0.0038
  180MPD1     H 2744   1.664   0.073  15.065 -0.2701  1.2010 -0.3179
  180MPD1    H1 2745   1.375   4.506  14.930  1.4078  0.1184 -1.3307
  180MPD1    H2 2746   1.519   4.494  15.320  0.3250  0.1460 -0.2229
  180MPD1    H3 2747   1.380   4.408  15.149  1.1542 -1.5036 -2.9254
  180MPD1     N 2748   1.543   0.005  14.848  0.3304  1.0763  0.2567
  180MPD1    H5 2749   1.610   0.081  14.841 -0.2959  1.3702 -2.8231
  180MPD1    N1 2750   1.673   4.717  15.306 -0.1515 -0.3830 -0.2843
  180MPD1    H6 2751   1.724   4.652  15.365 -1.1654 -1.9899 -1.1953
  180MPD1    H7 2752   1.739   0.051  15.255  0.2441  1.0048  1.8394
  181MPD1     C 2753   4.125   4.630  10.370  0.0208  0.3451  0.2847
  181MPD1    C1 2754   4.026   4.686  10.297  0.4328 -0.4473 -0.0907
  181MPD1    C2 2755   4.046   0.085  10.250 -0.2136  0.1719  0.2272
  181MPD1    C3 2756   4.175   0.139  10.257  0.1105 -0.6102 -0.0890
  181MPD1    C4 2757   4.276   0.076  10.324 -0.1175 -0.3706 -0.2583
  181MPD1    C5 2758   4.254   4.681  10.376  0.8872 -0.3814 -0.3238
  181MPD1     H 2759   3.961   0.140  10.210  0.2877  0.1366 -0.8894
  181MPD1    H1 2760   4.372   0.125  10.336  0.1016 -0.5593 -1.2138
  181MPD1    H2 2761   4.123   4.540  10.432  0.0385 -1.0144 -1.6945
  181MPD1    H3 2762   4.326   4.631  10.440 -1.4066 -0.5182  2.1772
  181MPD1     N 2763   4.202   0.269  10.199  0.1914 -0.3977 -0.1698
  181MPD1    H5 2764   4.293   0.313  10.205 -0.2541  0.3813  0.9277
  181MPD1    N1 2765   3.898   4.637  10.294  0.2324  0.0734 -0.2266
  181MPD1    H6 2766   3.853   4.631  10.204 -0.4475  0.5942  0.0825
  181MPD1    H7 2767   3.881   4.550  10.345 -0.0234  1.1775  1.5981
  182MPD1     C 2768   0.286   1.655   1.444 -0.0239 -0.4647  0.5716
  182MPD1    C1 2769   0.334   1.590   1.332 -0.0605 -0.1763  0.6759
  182MPD1    C2 2770   0.238   1.524   1.254 -0.5443  0.2591 -0.1341
  182MPD1    C3 2771   0.100   1.520   1.291 -0.2291 -0.2032 -0.0937
  182MPD1    C4 2772   0.062   1.578   1.408 -0.3771  0.6852  0.1854
  182MPD1    C5 2773   0.154   1.653   1.476  0.5948  0.9635  0.1956
  182MPD1     H 2774   0.272   1.477   1.162  1.8758  0.1147  0.8284
  182MPD1    H1 2775   4.680   1.577   1.426 -0.9797  1.1585 -3.3808
  182MPD1    H2 2776   0.352   1.715   1.507 -0.9716  0.5240  0.6176
  182MPD1    H3 2777   0.127   1.714   1.561 -0.9560  0.8872 -0.2469
  182MPD1     N 2778   0.004   1.449   1.216  0.2987 -0.1118  0.3481
  182MPD1    H5 2779   4.636   1.475   1.248  0.1850  0.3461 -0.3617
  182MPD1    N1 2780   0.462   1.598   1.284  0.4508 -0.0277  0.1104
  182MPD1    H6 2781   0.488   1.510   1.239  1.0883  1.1340 -1.7868
  182MPD1    H7 2782   0.526   1.622   1.359 -1.0620  1.6496  0.8701
  183MPD1     C 2783   1.635   1.740   9.248 -0.2725 -0.1250 -0.8774
  183MPD1    C1 2784   1.658   1.639   9.331  0.1564  0.1340 -0.0545
  183MPD1    C2 2785   1.561   1.537   9.341 -0.0410 -0.1555  0.6375
  183MPD1    C3 2786   1.438   1.552   9.285  0.0595  0.9693  0.2991
  183MPD1    C4 2787   1.413   1.664   9.209  0.2001 -0.5421 -0.0640
  183MPD1    C5 2788   1.509   1.759   9.194 -0.3485  0.4265  0.0950
  183MPD1     H 2789   1.585   1.448   9.399 -1.1341 -0.2907  0.8744
  183MPD1    H1 2790   1.321   1.673   9.152 -0.8224 -0.1869  1.6346
  183MPD1    H2 2791   1.707   1.816   9.222  1.2943 -0.3728  2.7283
  183MPD1    H3 2792   1.496   1.835   9.118  0.9468  0.8430  0.2790
  183MPD1     N 2793   1.344   1.447   9.306  0.0137 -0.6287  0.2348
  183MPD1    H5 2794   1.380   1.369   9.360  1.6920  0.2345  0.3449
  183MPD1    N1 2795   1.793   1.611   9.379 -0.4661  0.5658 -0.1598
  183MPD1    H6 2796   1.860   1.688   9.382 -1.3599  1.3601 -0.5295
  183MPD1    H7 2797   1.805   1.541   9.452 -0.3866 -0.6197 -1.3074
  184MPD1     C 2798   4.473   3.046   9.757 -0.6446  0.1437 -0.1860
  184MPD1    C1 2799   4.522   3.173   9.726  0.0239  0.2535  0.8043
  184MPD1    C2 2800   4.429   3.274   9.720  0.2263  0.1582  0.4843
  184MPD1    C3 2801   4.292   3.252   9.734 -0.8250 -0.2344  0.1049
  184MPD1    C4 2802   4.248   3.127   9.748  0.2777  0.3400  0.0756
  184MPD1    C5 2803   4.337   3.029   9.770  0.0398 -0.2300  0.3678
  184MPD1     H 2804   4.460   3.376   9.701  0.2106 -0.1233 -1.0682
  184MPD1    H1 2805   4.143   3.100   9.754  0.1250  0.9967  0.4278
  184MPD1    H2 2806   4.539   2.960   9.760  1.6167  1.8792  0.2888
  184MPD1    H3 2807   4.291   2.931   9.768  1.6677 -0.9894 -0.4127
  184MPD1     N 2808   4.187   3.352   9.732 -0.0599 -0.2759 -0.0335
  184MPD1    H5 2809   4.094   3.312   9.733 -0.1270 -0.1352 -0.7296
  184MPD1    N1 2810   4.657   3.191   9.726  0.5375  0.7828 -0.1151
  184MPD1    H6 2811   4.674   3.268   9.662 -0.3069  0.1267 -1.1316
  184MPD1    H7 2812   4.697   3.108   9.683  2.2115  1.2556  0.5407
  185MPD1     C 2813   3.497   3.707   9.085  0.6355 -0.2336 -0.5402
  185MPD1    C1 2814   3.602   3.621   9.089  0.6138  1.0604 -0.1920
  185MPD1    C2 2815   3.677   3.609   9.210  1.0936 -0.8325 -0.5504
  185MPD1    C3 2816   3.634   3.666   9.328 -0.1057  0.1901  0.0732
  185MPD1    C4 2817   3.524   3.754   9.317 -0.5150 -0.3165  0.3118
  185MPD1    C5 2818   3.467   3.775   9.195  0.7701 -0.5117 -0.1815
  185MPD1     H 2819   3.757   3.536   9.216 -1.4357 -3.7073 -1.6468
  185MPD1    H1 2820   3.484   3.811   9.400  1.7930 -1.6846  2.3720
  185MPD1    H2 2821   3.451   3.741   8.993  0.7926 -2.7780 -1.5686
  185MPD1    H3 2822   3.387   3.847   9.186 -0.3171 -1.3846  2.4261
  185MPD1     N 2823   3.699   3.651   9.457 -0.2878 -0.3215  0.5385
  185MPD1    H5 2824   3.661   3.710   9.531 -0.4577 -0.8117  0.8407
  185MPD1    N1 2825   3.661   3.588   8.961  0.0211 -0.0935  0.0464
  185MPD1    H6 2826   3.710   3.499   8.960 -0.9122 -0.6116  0.4805
  185MPD1    H7 2827   3.596   3.588   8.883  0.7593 -0.2583 -0.5641
  186MPD1     C 2828   2.377   3.268  15.178 -0.2457 -0.1750 -0.1698
  186MPD1    C1 2829   2.295   3.271  15.284 -0.6534  0.7422  0.0375
  186MPD1    C2 2830   2.342   3.309  15.406  0.3996 -0.3280 -0.0059
  186MPD1    C3 2831   2.470   3.327  15.424  0.3585 -0.3831 -0.3592
  186MPD1    C4 2832   2.551   3.330  15.312  0.3123  0.3384 -0.1655
  186MPD1    C5 2833   2.506   3.297  15.190 -0.7106 -0.3764 -0.4253
  186MPD1     H 2834   2.268   3.317  15.485  1.6961  1.5775  1.0195
  186MPD1    H1 2835   2.654   3.357  15.330  0.1754 -0.3757  1.7113
  186MPD1    H2 2836   2.338   3.258  15.077  4.2048 -0.8465 -1.8291
  186MPD1    H3 2837   2.568   3.301  15.101  2.0689  1.2458  1.5895
  186MPD1     N 2838   2.529   3.353  15.548 -0.2116 -0.5769  0.1421
  186MPD1    H5 2839   2.617   3.403  15.557 -1.1392  0.9804  0.6580
  186MPD1    N1 2840   2.158   3.267  15.253  0.5199  0.2396  0.0985
  186MPD1    H6 2841   2.123   3.212  15.330 -0.8648 -0.0357 -0.7237
  186MPD1    H7 2842   2.133   3.207  15.174  2.1948 -0.0294 -0.2247
  187MPD1     C 2843   2.523   0.185  17.375  0.4730 -0.2274  0.5462
  187MPD1    C1 2844   2.460   0.103  17.287 -0.9489 -0.3046  1.4003
  187MPD1    C2 2845   2.342   0.147  17.227  1.4997 -0.2733 -0.1371
  187MPD1    C3 2846   2.293   0.274  17.254  0.5958  0.2483  0.6419
  187MPD1    C4 2847   2.356   0.354  17.350 -0.5700  0.1002  0.2923
  187MPD1    C5 2848   2.471   0.308  17.409 -0.5506  0.0650  0.4008
  187MPD1     H 2849   2.298   0.088  17.147 -0.1384 -0.0335  0.5884
  187MPD1    H1 2850   2.321   0.455  17.371  0.5905  0.7818 -1.0979
  187MPD1    H2 2851   2.609   0.160  17.436 -0.2496 -3.2721  0.3190
  187MPD1    H3 2852   2.519   0.367  17.486  0.0733 -0.1545  0.1823
  187MPD1     N 2853   2.178   0.329  17.199 -0.4472 -0.4449  0.7532
  187MPD1    H5 2854   2.129   0.410  17.238 -2.9317 -1.4544 -0.2641
  187MPD1    N1 2855   2.520   4.708  17.257 -0.1294  0.4071  0.5626
  187MPD1    H6 2856   2.580   4.673  17.331 -0.3691  1.2303  1.1415
  187MPD1    H7 2857   2.450   4.635  17.244  0.4589 -0.0613 -0.0017
  188MPD1     C 2858   1.461   0.582  10.335 -0.6719 -0.0603  0.6379
  188MPD1    C1 2859   1.484   0.550  10.200 -0.9126  0.0423  0.3116
  188MPD1    C2 2860   1.498   0.416  10.171  0.4598 -0.2650 -0.3104
  188MPD1    C3 2861   1.534   0.330  10.273  0.5584 -0.2864 -0.0525
  188MPD1    C4 2862   1.542   0.372  10.406  0.0706 -0.2236  0.2944
  188MPD1    C5 2863   1.499   0.495  10.433  0.0396 -0.0915 -0.2110
  188MPD1     H 2864   1.508   0.383  10.068  0.1196  0.9365 -0.7320
  188MPD1    H1 2865   1.565   0.305  10.489  0.5971 -1.3993 -0.8038
  188MPD1    H2 2866   1.445   0.688  10.354  0.2299 -0.1206  1.7153
  188MPD1    H3 2867   1.500   0.524  10.538  2.2316  0.0393 -0.2597
  188MPD1     N 2868   1.562   0.195  10.250 -0.5942 -0.5885 -0.3329
  188MPD1    H5 2869   1.584   0.143  10.334 -1.6783  0.3295  0.5201
  188MPD1    N1 2870   1.450   0.643  10.099 -0.2093  0.1056 -0.1807
  188MPD1    H6 2871   1.466   0.740  10.126 -0.5394  0.2577 -0.5291
  188MPD1    H7 2872   1.500   0.634  10.011  2.4788  0.8039  1.2812
  189MPD1     C 2873   2.709   0.685   0.614 -0.2587 -0.2846  0.4321
  189MPD1    C1 2874   2.594   0.621   0.576  0.9145  0.3400 -0.1077
  189MPD1    C2 2875   2.493   0.700   0.516  0.0536  0.3972  0.0427
  189MPD1    C3 2876   2.505   0.837   0.509 -0.1220 -0.6821 -0.9012
  189MPD1    C4 2877   2.624   0.899   0.543  0.8802  0.0496  0.1907
  189MPD1    C5 2878   2.729   0.822   0.587  0.5903 -0.0865 -0.5413
  189MPD1     H 2879   2.411   0.648   0.467 -0.5554  1.5489 -0.1630
  189MPD1    H1 2880   2.644   1.005   0.551 -0.5769  0.4306 -1.3083
  189MPD1    H2 2881   2.790   0.630   0.660  1.6261  0.4378 -1.9725
  189MPD1    H3 2882   2.822   0.872   0.614  0.3024  0.8509 -1.2800
  189MPD1     N 2883   2.393   0.909   0.451 -0.2717  0.2558  0.5877
  189MPD1    H5 2884   2.314   0.849   0.430 -0.5544  0.1813  1.8744
  189MPD1    N1 2885   2.576   0.478   0.582 -0.1867 -0.0047  0.0945
  189MPD1    H6 2886   2.483   0.455   0.619 -0.5403  2.7812  0.9446
  189MPD1    H7 2887   2.632   0.431   0.653  2.1421  2.7362  0.0369
  190MPD1     C 2888   2.369   0.666  15.529  0.5759 -0.1220 -0.5443
  190MPD1    C1 2889   2.300   0.578  15.607  0.3274  0.0553  1.3271
  190MPD1    C2 2890   2.311   0.443  15.593 -0.2078  0.1784 -0.1748
  190MPD1    C3 2891   2.404   0.394  15.502  0.1539 -0.4180 -0.3492
  190MPD1    C4 2892   2.470   0.484  15.422 -0.0181 -0.1986 -0.2235
  190MPD1    C5 2893   2.462   0.614  15.440 -0.3781  1.1101  0.1714
  190MPD1     H 2894   2.260   0.365  15.648 -0.2945 -0.0243 -0.5413
  190MPD1    H1 2895   2.538   0.448  15.346  0.1728  0.5430 -0.4052
  190MPD1    H2 2896   2.370   0.774  15.542  0.3137 -0.3944  1.8261
  190MPD1    H3 2897   2.527   0.677  15.380  0.8510  0.5057  0.8752
  190MPD1     N 2898   2.415   0.255  15.497  0.1873 -0.6867 -0.4019
  190MPD1    H5 2899   2.359   0.213  15.571 -0.4504 -1.0195 -1.0731
  190MPD1    N1 2900   2.208   0.623  15.703 -0.0948 -0.1439  0.1821
  190MPD1    H6 2901   2.164   0.711  15.678  1.3113  0.9820  1.6397
  190MPD1    H7 2902   2.139   0.549  15.713  0.6277 -1.0800 -1.6840
  191MPD1     C 2903   0.860   1.984  13.074  0.1969  0.0223 -0.6204
  191MPD1    C1 2904   0.780   2.056  12.991  1.0139 -0.5960 -0.0767
  191MPD1    C2 2905   0.832   2.106  12.874  0.2280  0.2911 -0.1251
  191MPD1    C3 2906   0.959   2.082  12.831 -0.6500 -0.7469  0.2662
  191MPD1    C4 2907   1.041   2.026  12.925 -0.1210  1.4205 -0.1022
  191MPD1    C5 2908   0.991   1.975  13.045 -1.2746  0.2968 -0.1457
  191MPD1     H 2909   0.777   2.179  12.816  0.7119  0.3028 -0.5684
  191MPD1    H1 2910   1.147   2.015  12.901 -0.4701  0.6040 -1.2860
  191MPD1    H2 2911   0.822   1.936  13.164 -0.0721  0.5491 -0.4574
  191MPD1    H3 2912   1.052   1.921  13.115 -1.1388 -0.5498 -0.9222
  191MPD1     N 2913   1.000   2.140  12.711 -0.6877 -0.3996 -0.1603
  191MPD1    H5 2914   0.934   2.200  12.662 -0.2561  0.5270  0.3957
  191MPD1    N1 2915   0.659   2.110  13.039 -0.3470 -0.0295  0.3248
  191MPD1    H6 2916   0.590   2.125  12.965  1.2691 -0.1824 -1.2188
  191MPD1    H7 2917   0.613   2.047  13.104  0.8549 -2.4556 -1.1469
  192MPD1     C 2918   0.614   2.869  12.497  0.4566 -0.4537 -0.3978
  192MPD1    C1 2919   0.742   2.891  12.458 -0.2691  0.7967  0.2783
  192MPD1    C2 2920   0.833   2.785  12.451 -0.0314  0.3167 -0.6243
  192MPD1    C3 2921   0.795   2.661  12.490  0.0831 -0.0030 -0.0679
  192MPD1    C4 2922   0.665   2.648  12.539 -0.1187  0.2783  0.0990
  192MPD1    C5 2923   0.569   2.746  12.538  0.5600 -0.6236 -1.1046
  192MPD1     H 2924   0.935   2.806  12.423  0.7743 -0.7437  1.5112
  192MPD1    H1 2925   0.632   2.550  12.572  1.5870  0.3080  1.9205
  192MPD1    H2 2926   0.537   2.944  12.506 -0.0848 -1.0907  0.2635
  192MPD1    H3 2927   0.473   2.732  12.586 -0.9377 -0.7758 -4.1293
  192MPD1     N 2928   0.884   2.553  12.503 -0.3445  0.2436 -0.9471
  192MPD1    H5 2929   0.855   2.476  12.564 -2.5039  0.8635 -1.2071
  192MPD1    N1 2930   0.775   3.021  12.434 -0.2083  0.3999  0.0646
  192MPD1    H6 2931   0.835   3.033  12.352  0.3625 -0.6852  0.3267
  192MPD1    H7 2932   0.700   3.088  12.418 -2.6512 -2.5461 -0.7540
  193MPD1     C 2933   1.107   1.487  17.332  0.4812 -0.4457  0.4928
  193MPD1    C1 2934   1.189   1.455  17.226  1.0194 -0.5387  0.7889
  193MPD1    C2 2935   1.252   1.563  17.159  0.8212 -0.7269 -0.4260
  193MPD1    C3 2936   1.230   1.691  17.201  0.4527 -0.0661 -0.3763
  193MPD1    C4 2937   1.152   1.721  17.305  0.0436 -0.2536  0.1343
  193MPD1    C5 2938   1.087   1.623  17.365 -0.2722  0.7345  0.3281
  193MPD1     H 2939   1.325   1.539  17.083  3.1038 -0.0114  1.5525
  193MPD1    H1 2940   1.129   1.821  17.341  1.2791  0.5701 -1.4227
  193MPD1    H2 2941   1.056   1.411  17.389 -0.2917  0.4127  0.9431
  193MPD1    H3 2942   1.021   1.655  17.445 -0.3057 -0.3746  0.7467
  193MPD1     N 2943   1.299   1.802  17.157  0.3224 -0.0847  0.7801
  193MPD1    H5 2944   1.286   1.885  17.213  0.4045  0.5017 -0.0629
  193MPD1    N1 2945   1.189   1.324  17.171 -0.1678  0.2273 -0.1036
  193MPD1    H6 2946   1.274   1.310  17.117 -0.0599  2.4415 -0.5203
  193MPD1    H7 2947   1.183   1.254  17.245 -1.2061  0.5903  0.1582
  194MPD1     C 2948   3.437   4.717  16.357  0.5452 -0.0697  0.4767
  194MPD1    C1 2949   3.324   4.660  16.408  0.7141 -0.2543 -0.2730
  194MPD1    C2 2950   3.322   4.519  16.425  0.0440  0.2569 -0.0537
  194MPD1    C3 2951   3.428   4.437  16.383 -0.4105 -0.3818 -0.3417
  194MPD1    C4 2952   3.527   4.500  16.319 -0.2025  0.6279 -0.5862
  194MPD1    C5 2953   3.537   4.637  16.315 -0.6149 -0.0768  0.4069
  194MPD1     H 2954   3.238   4.479  16.481  0.7625 -2.2804 -0.8110
  194MPD1    H1 2955   3.612   4.451  16.273 -0.1332  1.0614 -0.9227
  194MPD1    H2 2956   3.449   0.099  16.346 -1.0844  0.1793  1.1379
  194MPD1    H3 2957   3.628   4.670  16.266  0.7124 -0.5838  2.5261
  194MPD1     N 2958   3.441   4.306  16.415 -0.2570 -0.5258  0.2510
  194MPD1    H5 2959   3.522   4.255  16.380 -0.6722 -1.0597  0.0677
  194MPD1    N1 2960   3.223   0.012  16.472  0.1010  0.2785 -0.1822
  194MPD1    H6 2961   3.226   0.112  16.450  0.2609  0.2949 -0.0868
  194MPD1    H7 2962   3.137   4.705  16.429  1.1522 -1.7064 -0.8038
  195MPD1     C 2963   1.978   0.289  17.537  0.2782 -0.2954 -0.3014
  195MPD1    C1 2964   1.996   0.163  17.483  0.3858 -1.1498  0.8073
  195MPD1    C2 2965   1.881   0.080  17.475 -0.0080 -0.6648  0.4325
  195MPD1    C3 2966   1.757   0.132  17.493 -0.4109 -0.1770  0.5512
  195MPD1    C4 2967   1.741   0.264  17.530 -0.2225  1.0775 -0.0642
  195MPD1    C5 2968   1.853   0.340  17.543  0.1067  0.1367  0.0143
  195MPD1     H 2969   1.897   4.706  17.433  1.2912  0.5336 -1.8767
  195MPD1    H1 2970   1.650   0.322  17.538 -1.2608 -0.6168  0.5032
  195MPD1    H2 2971   2.062   0.353  17.562  1.0446 -0.6775 -1.8942
  195MPD1    H3 2972   1.848   0.442  17.580  1.0903  1.8929 -4.5996
  195MPD1     N 2973   1.642   0.055  17.490  0.1760  0.4081  0.5929
  195MPD1    H5 2974   1.557   0.100  17.523 -1.0916 -1.4275 -0.1820
  195MPD1    N1 2975   2.122   0.107  17.473  0.3266 -0.3451 -0.0101
  195MPD1    H6 2976   2.128   0.043  17.395  2.8013 -1.8932  1.4452
  195MPD1    H7 2977   2.191   0.182  17.467 -1.4742  1.0266 -3.5911
  196MPD1     C 2978   0.200   1.393  17.390  1.2396 -0.7552  0.2128
  196MPD1    C1 2979   0.153   1.496  17.472 -0.9771  0.2808 -0.0169
  196MPD1    C2 2980   0.218   1.534  17.588  0.4056 -0.5035  0.7182
  196MPD1    C3 2981   0.336   1.470  17.620 -0.0006  0.3320 -0.2340
  196MPD1    C4 2982   0.392   1.373  17.532 -0.7964  0.1046  0.2347
  196MPD1    C5 2983   0.322   1.337  17.414 -0.4774  0.2836 -0.3861
  196MPD1     H 2984   0.171   1.607  17.653  0.0201 -0.4952  0.4228
  196MPD1    H1 2985   0.488   1.325  17.548 -0.1741  0.6379 -1.9056
  196MPD1    H2 2986   0.148   1.365  17.300  1.3893  2.7066 -0.9601
  196MPD1    H3 2987   0.363   1.257  17.353 -1.6413  2.1198 -3.5660
  196MPD1     N 2988   0.416   1.508   0.031 -0.4326 -0.2978  0.8406
  196MPD1    H5 2989   0.502   1.455   0.044 -1.2585 -1.6137  0.9609
  196MPD1    N1 2990   0.027   1.544  17.447 -0.7687  0.1627  0.0831
  196MPD1    H6 2991   0.015   1.644  17.463 -1.0982  0.5389 -2.6393
  196MPD1    H7 2992   4.720   1.524  17.353  0.9394 -3.4996  0.2886
  197MPD1     C 2993   4.159   2.499  16.985 -0.1579 -0.1263  0.1234
  197MPD1    C1 2994   4.261   2.471  17.080 -0.0142 -0.3351 -0.2268
  197MPD1    C2 2995   4.385   2.487  17.026 -0.2049 -0.0317  0.2014
  197MPD1    C3 2996   4.409   2.519  16.895 -0.3854 -0.3585  0.8145
  197MPD1    C4 2997   4.309   2.535  16.812  0.3002  0.3601 -0.3675
  197MPD1    C5 2998   4.182   2.534  16.858 -0.0503  0.0012  0.3142
  197MPD1     H 2999   4.466   2.477  17.097 -0.6006 -0.3889  0.6089
  197MPD1    H1 3000   4.317   2.576  16.711  1.8461 -0.6552 -0.6500
  197MPD1    H2 3001   4.055   2.497  17.015 -1.0872  2.8922 -2.8843
  197MPD1    H3 3002   4.100   2.567  16.796  2.5649  2.4963 -1.7655
  197MPD1     N 3003   4.538   2.544  16.840  0.4868 -0.6191  0.0412
  197MPD1    H5 3004   4.551   2.556  16.740 -1.2830  0.2207 -0.0822
  197MPD1    N1 3005   4.228   2.455  17.220 -0.6370 -0.1367  0.2455
  197MPD1    H6 3006   4.297   2.400  17.271 -0.7458 -0.0262  0.5138
  197MPD1    H7 3007   4.136   2.411  17.225 -0.8271  0.1738 -0.4394
  198MPD1     C 3008   1.758   1.749  16.007  0.1683  0.3795  0.1923
  198MPD1    C1 3009   1.755   1.638  16.087 -0.0927  0.1879 -0.5891
  198MPD1    C2 3010   1.824   1.530  16.046 -0.0020 -0.0830  0.2680
  198MPD1    C3 3011   1.889   1.529  15.925 -0.2580  0.5541  0.1170
  198MPD1    C4 3012   1.877   1.631  15.839  1.1896  0.2449 -0.2456
  198MPD1    C5 3013   1.817   1.742  15.882  0.0345 -0.1847 -0.0255
  198MPD1     H 3014   1.818   1.444  16.113  0.7021 -0.4763 -0.1772
  198MPD1    H1 3015   1.915   1.630  15.737 -0.8610 -0.0065 -1.0162
  198MPD1    H2 3016   1.701   1.834  16.045  0.3735  0.4013  0.4500
  198MPD1    H3 3017   1.818   1.834  15.824 -1.8218 -0.8125 -1.0440
  198MPD1     N 3018   1.973   1.418  15.893 -0.1747 -0.5012  0.1473
  198MPD1    H5 3019   1.975   1.343  15.962  1.3558 -0.2143  0.4124
  198MPD1    N1 3020   1.695   1.642  16.214  0.1810  0.1458 -0.1168
  198MPD1    H6 3021   1.672   1.550  16.251  2.6230 -0.0745  0.8506
  198MPD1    H7 3022   1.612   1.702  16.209 -1.2848 -1.7671  1.3306
  199MPD1     C 3023   4.471   0.149   9.840  0.3164  0.6476  0.5394
  199MPD1    C1 3024   4.342   0.197   9.840 -0.8731 -0.2401  0.6501
  199MPD1    C2 3025   4.315   0.326   9.798  0.5490  0.5422 -0.1493
  199MPD1    C3 3026   4.426   0.407   9.759  0.4095  0.8064 -0.1384
  199MPD1    C4 3027   4.547   0.348   9.746  0.4677 -0.1259 -0.1874
  199MPD1    C5 3028   4.575   0.224   9.789  0.4124  0.0919  0.4849
  199MPD1     H 3029   4.212   0.361   9.799 -0.0770 -1.2963 -0.5730
  199MPD1    H1 3030   4.631   0.400   9.701  0.8358  0.3631  1.0706
  199MPD1    H2 3031   4.499   0.049   9.872 -0.7838  0.1055 -0.1906
  199MPD1    H3 3032   4.673   0.179   9.775 -0.6817 -2.6045  1.4280
  199MPD1     N 3033   4.416   0.532   9.697 -1.2992 -0.2095  0.5040
  199MPD1    H5 3034   4.500   0.583   9.673 -3.0776  0.7226 -3.7546
  199MPD1    N1 3035   4.234   0.108   9.854 -0.3593 -0.3185  0.2427
  199MPD1    H6 3036   4.261   0.019   9.895 -0.2989 -0.8127 -0.8745
  199MPD1    H7 3037   4.160   0.152   9.910  0.3426  2.4835 -1.0570
  200MPD1     C 3038   2.812   1.742  14.627  0.0076  1.4586  0.4621
  200MPD1    C1 3039   2.700   1.798  14.563 -0.7567 -0.5610  0.0327
  200MPD1    C2 3040   2.718   1.894  14.465  0.1363  0.1309 -0.5811
  200MPD1    C3 3041   2.842   1.948  14.443 -0.2972  0.0233 -0.3695
  200MPD1    C4 3042   2.952   1.910  14.524 -0.3051  0.5234 -0.4138
  200MPD1    C5 3043   2.930   1.810  14.614  0.4812 -0.3408 -0.2115
  200MPD1     H 3044   2.634   1.939  14.413  0.5825  1.6375  0.0321
  200MPD1    H1 3045   3.051   1.953  14.514 -1.0469  2.7915  2.0688
  200MPD1    H2 3046   2.812   1.654  14.691  0.3018  1.5349  0.5677
  200MPD1    H3 3047   3.016   1.778  14.672 -1.2410 -1.6887  1.6032
  200MPD1     N 3048   2.852   2.046  14.344 -0.7906 -0.2608  0.4285
  200MPD1    H5 3049   2.767   2.074  14.295 -1.0886 -0.7642  0.6609
  200MPD1    N1 3050   2.566   1.760  14.583  0.0268  0.1789 -0.1270
  200MPD1    H6 3051   2.542   1.721  14.674  1.0524  2.5464  1.1669
  200MPD1    H7 3052   2.496   1.823  14.545  0.9709  0.5722 -1.2164
  201MPD1     C 3053   1.619   1.274  13.171 -0.3816  0.6087  0.5147
  201MPD1    C1 3054   1.704   1.277  13.280 -0.1969 -0.5974 -0.3501
  201MPD1    C2 3055   1.678   1.187  13.378  0.3899 -0.0409 -0.0603
  201MPD1    C3 3056   1.566   1.103  13.377 -0.0698  0.0845  0.2744
  201MPD1    C4 3057   1.487   1.112  13.264 -0.1803  0.3743 -0.0030
  201MPD1    C5 3058   1.503   1.200  13.161  0.3566  0.1051 -0.7507
  201MPD1     H 3059   1.744   1.191  13.464  1.3193 -2.9609 -0.6284
  201MPD1    H1 3060   1.401   1.048  13.250 -0.5613  1.0460 -0.7301
  201MPD1    H2 3061   1.631   1.335  13.082 -1.6660  0.7996  0.4629
  201MPD1    H3 3062   1.437   1.186  13.076  0.2980  1.4140 -0.9128
  201MPD1     N 3063   1.547   1.023  13.490 -0.2127  0.5231  0.0203
  201MPD1    H5 3064   1.622   1.021  13.558  1.3312 -1.0745 -1.7638
  201MPD1    N1 3065   1.821   1.353  13.275 -0.0873 -0.0648 -0.4338
  201MPD1    H6 3066   1.866   1.369  13.365 -0.3125 -1.5804 -0.0624
  201MPD1    H7 3067   1.811   1.446  13.235  0.6256  0.3148  0.2646
  202MPD1     C 3068   0.244   4.603   9.500 -0.3485 -0.1840 -0.0287
  202MPD1    C1 3069   0.284   4.719   9.564  0.5338 -0.2207 -0.4378
  202MPD1    C2 3070   0.413   0.024   9.536 -0.0023  0.1868  0.3368
  202MPD1    C3 3071   0.511   4.656   9.518 -0.2051  0.0198 -0.4944
  202MPD1    C4 3072   0.473   4.532   9.493 -0.1828  0.4187  0.3133
  202MPD1    C5 3073   0.340   4.507   9.472  1.2857  0.4083 -0.3031
  202MPD1     H 3074   0.444   0.127   9.552  0.7040 -0.1317  1.0083
  202MPD1    H1 3075   0.538   4.448   9.474  1.3133  1.4540  0.8262
  202MPD1    H2 3076   0.140   4.586   9.473 -0.5397  1.7078 -0.4781
  202MPD1    H3 3077   0.304   4.410   9.440 -1.6116  1.5144 -0.4712
  202MPD1     N 3078   0.645   4.689   9.538  0.5398  0.3581  0.7087
  202MPD1    H5 3079   0.715   4.616   9.547  1.0225  0.7636  0.2458
  202MPD1    N1 3080   0.193   0.097   9.575 -0.1965  0.4051  0.3280
  202MPD1    H6 3081   0.229   0.168   9.639  1.5978  0.0480 -0.2923
  202MPD1    H7 3082   0.098   0.073   9.602 -0.6014 -1.6389 -2.8278
  203MPD1     C 3083   4.139   2.396  12.107  0.2765 -0.2473  0.0468
  203MPD1    C1 3084   4.176   2.287  12.027  0.0056 -0.4498 -0.5259
  203MPD1    C2 3085   4.174   2.162  12.083  0.4833 -0.1026 -0.1489
  203MPD1    C3 3086   4.148   2.144  12.216  0.9237 -0.6053  0.3863
  203MPD1    C4 3087   4.116   2.251  12.292  0.1398 -0.0756  0.4683
  203MPD1    C5 3088   4.112   2.376  12.236 -1.1567 -0.1130  0.1248
  203MPD1     H 3089   4.201   2.083  12.014 -0.2125 -0.0013 -0.5416
  203MPD1    H1 3090   4.090   2.235  12.396 -1.3947 -2.0696 -0.2139
  203MPD1    H2 3091   4.133   2.495  12.063  1.9120 -1.5540 -3.1801
  203MPD1    H3 3092   4.094   2.464  12.298 -0.6660  0.6350 -0.7883
  203MPD1     N 3093   4.154   2.016  12.270  0.2405 -0.3861 -0.1736
  203MPD1    H5 3094   4.158   1.940  12.203 -0.1058 -1.1961  0.7146
  203MPD1    N1 3095   4.178   2.309  11.891 -0.6076  0.7441  0.1352
  203MPD1    H6 3096   4.247   2.248  11.847 -0.6271  0.8100  0.0134
  203MPD1    H7 3097   4.224   2.397  11.871  0.1195  1.0951  3.4106
  204MPD1     C 3098   2.880   2.790  17.595  0.3401 -0.0775  0.1024
  204MPD1    C1 3099   2.968   2.706  17.663 -1.0481 -0.4661  0.4863
  204MPD1    C2 3100   3.046   2.630  17.589  0.2000 -0.2398  0.8019
  204MPD1    C3 3101   3.036   2.615  17.456 -0.4681  0.2599 -0.3354
  204MPD1    C4 3102   2.936   2.686  17.387 -0.2168 -0.2817  0.5651
  204MPD1    C5 3103   2.859   2.776  17.459 -0.9640  0.5713  0.5542
  204MPD1     H 3104   3.125   2.573  17.636  2.5844  2.2003 -0.2629
  204MPD1    H1 3105   2.890   2.658  17.293  3.4451 -1.7724 -0.7455
  204MPD1    H2 3106   2.827   2.865  17.652  1.4820  0.6966  0.1357
  204MPD1    H3 3107   2.781   2.833  17.410  1.5988  2.2980 -1.5820
  204MPD1     N 3108   3.106   2.509  17.388  0.4826 -0.3852  0.0680
  204MPD1    H5 3109   3.182   2.465  17.438  0.3861 -1.9277 -1.1388
  204MPD1    N1 3110   2.989   2.721   0.096 -0.2466 -0.8374 -0.1830
  204MPD1    H6 3111   3.013   2.631   0.138 -0.5501  0.2249  2.2112
  204MPD1    H7 3112   2.915   2.774   0.140 -0.9638 -1.6478 -0.4084
  205MPD1     C 3113   4.238   1.366  16.873 -0.2369 -0.7993 -0.3352
  205MPD1    C1 3114   4.124   1.404  16.818 -0.2939 -0.4040  0.7925
  205MPD1    C2 3115   4.003   1.382  16.890  0.4008 -0.1408  0.2798
  205MPD1    C3 3116   3.999   1.317  17.011 -0.5416 -0.2960 -0.0240
  205MPD1    C4 3117   4.120   1.287  17.064  0.0582 -0.0262  0.4217
  205MPD1    C5 3118   4.235   1.312  17.002 -0.3050 -0.6305  0.4513
  205MPD1     H 3119   3.912   1.418  16.843  0.7751 -0.4838 -0.6980
  205MPD1    H1 3120   4.125   1.247  17.165 -0.1607 -0.1132  0.3977
  205MPD1    H2 3121   4.330   1.376  16.817  0.7979 -3.3609  0.9354
  205MPD1    H3 3122   4.324   1.284  17.058 -0.2346 -0.8957  0.2034
  205MPD1     N 3123   3.884   1.296  17.083  0.3625 -0.2751 -0.3794
  205MPD1    H5 3124   3.890   1.266  17.180 -0.3204  2.2443  0.4453
  205MPD1    N1 3125   4.123   1.447  16.685 -0.2787  0.1782 -0.8245
  205MPD1    H6 3126   4.206   1.488  16.644  1.5875 -2.3891  0.4389
  205MPD1    H7 3127   4.039   1.505  16.673  0.3330  1.8232  2.9129
  206MPD1     C 3128   4.159   3.744  16.412 -0.4971  0.5252  0.5268
  206MPD1    C1 3129   4.024   3.765  16.413  0.4791 -0.2527  0.1227
  206MPD1    C2 3130   3.982   3.850  16.314 -0.7795 -0.3442 -0.2377
  206MPD1    C3 3131   4.058   3.900  16.211 -0.0192  0.4901  0.0655
  206MPD1    C4 3132   4.188   3.857  16.204  0.4315  0.5047 -0.1770
  206MPD1    C5 3133   4.238   3.784  16.309  0.7041  0.5202 -0.1821
  206MPD1     H 3134   3.887   3.899  16.328 -1.0341 -0.8474 -0.1877
  206MPD1    H1 3135   4.250   3.888  16.121 -0.6530 -1.3862 -1.6951
  206MPD1    H2 3136   4.214   3.696  16.493 -1.8303  1.5690  2.0536
  206MPD1    H3 3137   4.344   3.759  16.311  0.4521 -0.2810  3.1426
  206MPD1     N 3138   4.016   3.995  16.112 -0.2320 -0.7359  0.5400
  206MPD1    H5 3139   4.081   4.010  16.035 -2.2291  2.3369 -0.5719
  206MPD1    N1 3140   3.960   3.729  16.531 -0.1242 -0.2139  0.2659
  206MPD1    H6 3141   3.998   3.651  16.583  0.2241  0.7204  1.4059
  206MPD1    H7 3142   3.865   3.699  16.507  0.2170  0.5315 -2.0439
  207MPD1     C 3143   2.258   1.618   9.350  0.1905  0.2120 -0.4907
  207MPD1    C1 3144   2.289   1.695   9.242  0.5686  0.4937 -0.1503
  207MPD1    C2 3145   2.414   1.751   9.246 -0.7514 -0.0732 -0.7637
  207MPD1    C3 3146   2.510   1.706   9.333 -0.2163 -0.0521 -0.0509
  207MPD1    C4 3147   2.482   1.598   9.420  0.0032  0.5476 -0.6734
  207MPD1    C5 3148   2.350   1.563   9.438 -0.5185 -0.1341  0.4105
  207MPD1     H 3149   2.449   1.818   9.169 -0.7511 -1.2583 -1.7911
  207MPD1    H1 3150   2.551   1.553   9.491  0.2106  1.2503 -0.4270
  207MPD1    H2 3151   2.161   1.571   9.362  1.7706 -3.0169 -0.1567
  207MPD1    H3 3152   2.316   1.497   9.517  0.7141 -0.9494  0.2698
  207MPD1     N 3153   2.642   1.755   9.337 -0.1081 -0.4172  0.5269
  207MPD1    H5 3154   2.699   1.710   9.408  2.2031  0.4004 -0.8211
  207MPD1    N1 3155   2.193   1.741   9.153 -0.3385 -0.4905  0.8039
  207MPD1    H6 3156   2.222   1.770   9.060  1.2325 -2.0715  0.8093
  207MPD1    H7 3157   2.115   1.675   9.147 -1.9639  1.5529 -0.3813
  208MPD1     C 3158   0.097   0.811  17.131 -0.0962  0.1703  0.0724
  208MPD1    C1 3159   0.142   0.880  17.242 -0.8766  0.4601  0.2655
  208MPD1    C2 3160   0.067   0.884  17.361 -0.1140 -0.4991 -0.2499
  208MPD1    C3 3161   4.675   0.818  17.368 -0.8220  0.0698  0.3569
  208MPD1    C4 3162   4.636   0.738  17.261  0.0156  0.1774 -0.3619
  208MPD1    C5 3163   4.703   0.743  17.140 -0.0972 -1.2087  0.1851
  208MPD1     H 3164   0.105   0.950  17.438 -0.2670 -1.2688  0.4888
  208MPD1    H1 3165   4.544   0.682  17.253  0.0988  0.0421 -0.3710
  208MPD1    H2 3166   0.148   0.798  17.036  0.2188 -0.9642  0.3947
  208MPD1    H3 3167   4.660   0.683  17.061  1.2723 -0.7730 -0.8951
  208MPD1     N 3168   4.601   0.831  17.490  0.6651  0.1361 -0.0462
  208MPD1    H5 3169   4.641   0.882  17.568  0.2226 -0.4909  0.5900
  208MPD1    N1 3170   0.255   0.960  17.225  0.6330  0.3860  0.1354
  208MPD1    H6 3171   0.301   0.908  17.150  1.3752 -0.6544  1.3174
  208MPD1    H7 3172   0.296   0.952  17.318 -0.4123 -2.9850  0.3007
  209MPD1     C 3173   2.412   0.974  10.217 -0.2420 -0.0020  0.2832
  209MPD1    C1 3174   2.522   0.987  10.300 -0.5832  0.4431  0.3188
  209MPD1    C2 3175   2.643   0.994  10.242  0.3080  0.4520  0.0835
  209MPD1    C3 3176   2.648   1.015  10.109 -0.9380  1.3003 -0.6075
  209MPD1    C4 3177   2.537   1.013  10.028 -0.1651 -0.3237 -0.1009
  209MPD1    C5 3178   2.416   1.000  10.083 -0.0012 -0.2421 -0.4466
  209MPD1     H 3179   2.731   0.982  10.305  0.9367  0.8931 -0.7032
  209MPD1    H1 3180   2.533   1.025   9.921 -0.7330 -0.1346 -0.0634
  209MPD1    H2 3181   2.310   0.969  10.254 -0.6303 -0.9280 -0.9085
  209MPD1    H3 3182   2.324   1.013  10.028 -0.5955  0.9535  0.8569
  209MPD1     N 3183   2.776   1.021  10.047 -0.1274 -1.0401  0.1664
  209MPD1    H5 3184   2.864   1.007  10.095  0.1194  2.2553  0.6847
  209MPD1    N1 3185   2.520   0.934  10.432 -0.2965  0.0531  0.0175
  209MPD1    H6 3186   2.577   0.993  10.492 -0.0783  0.7155 -0.8468
  209MPD1    H7 3187   2.426   0.931  10.472 -0.2127  1.2821  0.3164
  210MPD1     C 3188   3.652   0.928  10.294 -0.0985  0.5293  0.1592
  210MPD1    C1 3189   3.594   0.824  10.237 -0.8335  0.2804  0.1429
  210MPD1    C2 3190   3.498   0.846  10.142  0.8915 -0.0402  0.4739
  210MPD1    C3 3191   3.468   0.972  10.091 -0.2769  0.4958  0.0274
  210MPD1    C4 3192   3.541   1.075  10.143 -0.6644 -0.6617 -0.2639
  210MPD1    C5 3193   3.632   1.053  10.245 -0.1110 -0.0183 -0.0134
  210MPD1     H 3194   3.449   0.759  10.099 -4.3144  1.1590  4.0054
  210MPD1    H1 3195   3.520   1.178  10.116 -0.9264 -0.3831  1.0012
  210MPD1    H2 3196   3.712   0.907  10.382 -0.4191  0.0204  0.2583
  210MPD1    H3 3197   3.690   1.138  10.281  1.1654 -0.5115 -0.9243
  210MPD1     N 3198   3.366   0.999  10.009  0.8935  0.0773  0.4763
  210MPD1    H5 3199   3.355   1.097   9.985 -0.9324 -0.6267 -1.5885
  210MPD1    N1 3200   3.603   0.701  10.295  0.7984  0.1678 -0.0749
  210MPD1    H6 3201   3.578   0.628  10.228  0.4958 -0.1763  0.4090
  210MPD1    H7 3202   3.700   0.698  10.324  0.7602 -1.7018 -0.1482
  211MPD1     C 3203   4.573   0.939  16.802 -0.3657 -0.0329 -0.1549
  211MPD1    C1 3204   4.546   1.042  16.716  0.3668 -0.2184 -0.5419
  211MPD1    C2 3205   4.412   1.081  16.703  0.6136 -0.1183  0.1626
  211MPD1    C3 3206   4.313   1.011  16.770  0.5409  0.3520 -0.0423
  211MPD1    C4 3207   4.342   0.906  16.845 -0.3878  0.6571 -0.2744
  211MPD1    C5 3208   4.471   0.869  16.864  0.6845  0.2956 -0.3732
  211MPD1     H 3209   4.387   1.169  16.645  2.1892 -0.8289 -1.6054
  211MPD1    H1 3210   4.265   0.853  16.900  1.7317 -2.4772 -0.3291
  211MPD1    H2 3211   4.675   0.905  16.820 -0.2679  0.8876  0.9802
  211MPD1    H3 3212   4.501   0.780  16.918 -0.4593 -0.1372 -0.4621
  211MPD1     N 3213   4.182   1.057  16.749 -0.1916  0.0029 -0.0096
  211MPD1    H5 3214   4.162   1.136  16.689  0.8050  2.2663  2.6639
  211MPD1    N1 3215   4.639   1.132  16.658 -0.7065  0.1487 -0.2609
  211MPD1    H6 3216   4.606   1.162  16.566  1.8310  1.9420 -0.5686
  211MPD1    H7 3217   0.002   1.085  16.642 -0.0042  2.3945 -2.8862
  212MPD1     C 3218   2.928   0.033  16.126 -0.0365  0.0240  0.1757
  212MPD1    C1 3219   3.020   4.679  16.065 -0.5200 -0.5283 -0.3108
  212MPD1    C2 3220   3.043   4.555  16.119  0.3330  1.4392 -0.4641
  212MPD1    C3 3221   2.992   4.512  16.239 -0.0797  0.9086 -0.5771
  212MPD1    C4 3222   2.930   4.609  16.316  0.4471 -0.2558  0.9726
  212MPD1    C5 3223   2.891   4.724  16.252 -0.4131  0.7787 -0.6803
  212MPD1     H 3224   3.115   4.485  16.078  0.3406  0.1956  1.6589
  212MPD1    H1 3225   2.900   4.591  16.419 -1.3751  2.3936  0.8861
  212MPD1    H2 3226   2.887   0.121  16.078 -1.6662 -1.6023 -1.4466
  212MPD1    H3 3227   2.812   0.055  16.301 -1.4008  0.7904 -2.2830
  212MPD1     N 3228   3.026   4.392  16.307  0.1809 -0.1194 -0.1312
  212MPD1    H5 3229   2.973   4.376  16.392  0.0475  1.1009  0.0165
  212MPD1    N1 3230   3.063   4.721  15.933 -0.3549  0.1370  1.0430
  212MPD1    H6 3231   3.151   4.688  15.895 -0.6928  2.6290 -1.9662
  212MPD1    H7 3232   3.065   0.098  15.933  0.5813  0.1100 -1.4056
  213MPD1     C 3233   1.429   0.758  15.667 -0.1825  0.2386  0.1327
  213MPD1    C1 3234   1.292   0.715  15.660  0.8628 -0.0768 -1.1406
  213MPD1    C2 3235   1.248   0.684  15.539  0.5511  0.0379  0.5471
  213MPD1    C3 3236   1.334   0.653  15.432  0.1459 -0.0978 -0.5288
  213MPD1    C4 3237   1.477   0.661  15.448  0.5514 -0.6925 -0.5053
  213MPD1    C5 3238   1.512   0.724  15.568  0.2034  0.5914 -0.5988
  213MPD1     H 3239   1.142   0.677  15.518  1.1443 -2.1901 -1.6551
  213MPD1    H1 3240   1.557   0.658  15.374  0.7050  1.5467 -0.4316
  213MPD1    H2 3241   1.476   0.796  15.757 -4.2399  1.6254  1.6771
  213MPD1    H3 3242   1.615   0.756  15.582 -0.1152  1.7254 -0.8205
  213MPD1     N 3243   1.282   0.604  15.312 -0.0027 -0.3561 -0.2766
  213MPD1    H5 3244   1.181   0.593  15.310 -0.0032 -0.6218  1.0483
  213MPD1    N1 3245   1.202   0.768  15.752 -0.2221  0.2708 -0.2829
  213MPD1    H6 3246   1.249   0.770  15.842  0.3857  1.6545 -0.6245
  213MPD1    H7 3247   1.120   0.709  15.762 -0.7725  1.1717  0.5480
  214MPD1     C 3248   0.717   4.712  15.130 -0.4387 -0.8892  0.2205
  214MPD1    C1 3249   0.763   4.723  15.006  0.1005  0.0039  0.0010
  214MPD1    C2 3250   0.846   0.107  14.989 -0.2734 -0.2022 -0.5817
  214MPD1    C3 3251   0.871   0.206  15.084 -0.1920 -0.1500 -0.8331
  214MPD1    C4 3252   0.808   0.194  15.208  0.1956  0.2412 -0.1054
  214MPD1    C5 3253   0.745   0.071  15.236 -0.2555  0.0939 -0.1391
  214MPD1     H 3254   0.891   0.121  14.892  0.3009 -0.5390 -0.3604
  214MPD1    H1 3255   0.827   0.266  15.287 -0.6429  0.9997 -0.5898
  214MPD1    H2 3256   0.638   4.642  15.156  0.2948 -1.5173  0.7478
  214MPD1    H3 3257   0.702   0.051  15.334 -0.0554 -0.1734 -0.1054
  214MPD1     N 3258   0.964   0.315  15.059  0.5065  0.6164 -0.4485
  214MPD1    H5 3259   0.992   0.370  15.140 -2.2153  1.7089 -0.2631
  214MPD1    N1 3260   0.742   4.606  14.926 -0.1392 -0.4711 -0.2125
  214MPD1    H6 3261   0.731   4.627  14.827  0.8654 -0.1941 -0.2694
  214MPD1    H7 3262   0.657   4.559  14.958 -0.6442  0.2681 -0.4819
  215MPD1     C 3263   1.835   0.632  10.936  0.7342 -0.5758 -0.4620
  215MPD1    C1 3264   1.786   0.701  10.827  0.2505  0.1594 -0.3426
  215MPD1    C2 3265   1.848   0.828  10.795 -0.2290  0.0794 -0.2704
  215MPD1    C3 3266   1.928   0.891  10.889  0.2980 -0.4952  0.3862
  215MPD1    C4 3267   1.969   0.820  10.996 -0.6547  0.4746  0.1016
  215MPD1    C5 3268   1.925   0.691  11.016  0.3779 -0.4751  0.3700
  215MPD1     H 3269   1.821   0.878  10.702 -1.9194 -0.5818 -0.1316
  215MPD1    H1 3270   2.034   0.856  11.075  1.0712 -0.6386 -0.7973
  215MPD1    H2 3271   1.816   0.526  10.951  1.5436 -0.8876 -1.6661
  215MPD1    H3 3272   1.969   0.639  11.100  1.3743 -0.0706  0.0992
  215MPD1     N 3273   1.969   1.028  10.862  0.3148 -0.5717  0.1741
  215MPD1    H5 3274   1.940   1.072  10.775  1.8735 -2.9020 -1.5114
  215MPD1    N1 3275   1.698   0.646  10.730  0.0552 -0.0109 -0.1568
  215MPD1    H6 3276   1.651   0.717  10.673  0.3814 -1.7682 -2.6193
  215MPD1    H7 3277   1.635   0.581  10.776 -0.7864  1.2499  0.4909
  216MPD1     C 3278   3.864   2.737  16.030 -0.2605  1.0225  0.0745
  216MPD1    C1 3279   3.735   2.777  16.001  0.2816 -0.2218  0.2011
  216MPD1    C2 3280   3.693   2.886  16.070 -0.3279 -0.2877  0.6744
  216MPD1    C3 3281   3.766   2.941  16.180  0.4216  0.1216 -0.0259
  216MPD1    C4 3282   3.894   2.891  16.207  0.4582  0.1683  0.3544
  216MPD1    C5 3283   3.939   2.789  16.134  0.5453  0.0765 -0.8314
  216MPD1     H 3284   3.595   2.930  16.051 -0.7095 -1.3253  0.2443
  216MPD1    H1 3285   3.964   2.935  16.277  1.9681 -0.1629 -0.9305
  216MPD1    H2 3286   3.908   2.654  15.975 -0.7673  0.9240 -0.1841
  216MPD1    H3 3287   4.037   2.749  16.158 -0.2651 -1.4179  0.0202
  216MPD1     N 3288   3.694   3.025  16.264  0.1829 -1.1020  0.0776
  216MPD1    H5 3289   3.593   3.022  16.252 -0.0148  4.0245  0.5105
  216MPD1    N1 3290   3.670   2.735  15.888  0.5108  0.9184  0.2796
  216MPD1    H6 3291   3.694   2.640  15.861  0.4358  1.0052 -0.0816
  216MPD1    H7 3292   3.569   2.743  15.901  0.3252  2.2912 -2.1610
  217MPD1     C 3293   0.349   0.610   9.379 -0.4312 -0.6181  0.4888
  217MPD1    C1 3294   0.227   0.660   9.427  0.6395  0.4362  0.0248
  217MPD1    C2 3295   0.123   0.570   9.447  0.0191  0.3032 -0.5054
  217MPD1    C3 3296   0.127   0.443   9.398 -0.6978  0.2843  0.3739
  217MPD1    C4 3297   0.244   0.401   9.340  0.0258 -0.2196 -0.4214
  217MPD1    C5 3298   0.353   0.484   9.338 -0.4118  0.1268  0.6886
  217MPD1     H 3299   0.042   0.616   9.504  0.6871 -0.8282  1.3328
  217MPD1    H1 3300   0.255   0.301   9.301  0.8246 -0.9388  1.6636
  217MPD1    H2 3301   0.438   0.672   9.382  0.1844 -1.4790  0.0529
  217MPD1    H3 3302   0.449   0.440   9.312 -0.5533 -0.1624  0.6613
  217MPD1     N 3303   0.015   0.352   9.398 -0.0509  0.0431 -0.4595
  217MPD1    H5 3304   0.034   0.254   9.382  0.8880 -0.0263  1.1321
  217MPD1    N1 3305   0.223   0.786   9.483 -0.2769 -0.1990 -0.3818
  217MPD1    H6 3306   0.134   0.833   9.500  0.3923  0.8113  0.3456
  217MPD1    H7 3307   0.282   0.847   9.426  1.8795 -1.3297  0.6455
  218MPD1     C 3308   0.731   1.613  13.575 -0.2634 -0.0434  0.5603
  218MPD1    C1 3309   0.856   1.560  13.546  0.1638  0.3384 -1.0768
  218MPD1    C2 3310   0.892   1.558  13.410 -0.0948 -0.1749 -0.6463
  218MPD1    C3 3311   0.807   1.590  13.306  0.1102 -0.1915 -0.2813
  218MPD1    C4 3312   0.678   1.623  13.339  0.5825  0.6819  0.7939
  218MPD1    C5 3313   0.645   1.636  13.469  0.2042  0.4945 -0.1044
  218MPD1     H 3314   0.992   1.522  13.389  0.6047  1.9327 -0.8909
  218MPD1    H1 3315   0.599   1.646  13.268  0.7554  1.0172  0.7055
  218MPD1    H2 3316   0.703   1.622  13.680  0.9421 -1.1405  0.9816
  218MPD1    H3 3317   0.546   1.657  13.509 -0.4968 -0.2593 -1.4410
  218MPD1     N 3318   0.845   1.577  13.175  0.2087  0.5412 -0.6476
  218MPD1    H5 3319   0.935   1.538  13.147  1.7978  3.5090  0.4031
  218MPD1    N1 3320   0.952   1.565  13.642 -0.7451  0.4721  0.1727
  218MPD1    H6 3321   1.034   1.511  13.615 -1.9143 -1.1970 -0.0710
  218MPD1    H7 3322   0.922   1.535  13.735 -0.9917  0.5975  0.1341
  219MPD1     C 3323   1.148   1.981  12.205 -0.2294 -0.3474 -0.3450
  219MPD1    C1 3324   1.031   2.013  12.273  0.3978 -0.3789 -0.0109
  219MPD1    C2 3325   1.000   1.945  12.391 -0.2198 -0.5027  0.6588
  219MPD1    C3 3326   1.092   1.864  12.460  0.0878  0.0580  0.0358
  219MPD1    C4 3327   1.221   1.854  12.404 -0.6341 -0.1349 -0.5530
  219MPD1    C5 3328   1.243   1.909  12.275  0.6071 -0.4823  0.5110
  219MPD1     H 3329   0.900   1.964  12.429 -0.1444  1.2610  0.0138
  219MPD1    H1 3330   1.298   1.806  12.463 -3.7963 -0.5533  3.2768
  219MPD1    H2 3331   1.158   2.024  12.106 -0.6394 -0.4676 -0.4416
  219MPD1    H3 3332   1.343   1.905  12.235 -0.2767 -1.9433 -1.5678
  219MPD1     N 3333   1.070   1.796  12.582  0.4045 -0.3229 -0.1640
  219MPD1    H5 3334   1.152   1.754  12.625  0.1456 -1.6974 -1.0161
  219MPD1    N1 3335   0.924   2.058  12.198  0.5789  0.0786 -0.5836
  219MPD1    H6 3336   0.854   2.090  12.264  0.7009  2.8882 -1.7979
  219MPD1    H7 3337   0.965   2.128  12.135 -1.4578  2.0018  0.2496
  220MPD1     C 3338   1.218   2.155  10.406  0.1383  0.3120  0.5545
  220MPD1    C1 3339   1.133   2.077  10.337  0.2518 -0.2201  0.0061
  220MPD1    C2 3340   1.183   1.971  10.268 -0.2534  0.4383 -0.7161
  220MPD1    C3 3341   1.319   1.953  10.251 -0.2555 -0.7811 -0.0551
  220MPD1    C4 3342   1.400   2.042  10.310  0.2741 -0.1052  0.3414
  220MPD1    C5 3343   1.351   2.143  10.385  0.0656  0.4705 -0.6049
  220MPD1     H 3344   1.107   1.898  10.243  2.1023 -2.1056 -0.3029
  220MPD1    H1 3345   1.508   2.039  10.314  0.3751  0.3859 -1.8899
  220MPD1    H2 3346   1.175   2.225  10.477  0.4363 -0.2053  1.2574
  220MPD1    H3 3347   1.418   2.211  10.436  1.7755  0.2710 -2.5590
  220MPD1     N 3348   1.364   1.847  10.176 -0.5360  0.1077 -0.2582
  220MPD1    H5 3349   1.293   1.794  10.126  2.0651 -0.6887 -3.0968
  220MPD1    N1 3350   1.002   2.093  10.389 -0.4081 -0.1177 -0.2638
  220MPD1    H6 3351   0.990   2.194  10.387 -3.9147 -0.5577 -2.3588
  220MPD1    H7 3352   0.933   2.044  10.332  0.6715 -0.6093 -1.1601
  221MPD1     C 3353   3.165   0.414  17.087 -0.1083 -0.1551 -0.1376
  221MPD1    C1 3354   3.169   0.466  16.960  0.1393  0.0479 -0.6000
  221MPD1    C2 3355   3.293   0.470  16.893 -0.8006  0.5039 -0.0630
  221MPD1    C3 3356   3.409   0.438  16.962  0.6329 -0.1020 -0.1521
  221MPD1    C4 3357   3.397   0.376  17.088 -0.1534 -0.4854  0.7636
  221MPD1    C5 3358   3.275   0.368  17.146  0.1661 -0.1652 -0.4989
  221MPD1     H 3359   3.305   0.499  16.789 -0.0533  0.2590 -0.0465
  221MPD1    H1 3360   3.488   0.342  17.137 -0.8643 -0.8630  1.7939
  221MPD1    H2 3361   3.066   0.396  17.128 -0.0852 -3.0877 -1.3522
  221MPD1    H3 3362   3.266   0.323  17.244  0.4944  1.7163  0.3930
  221MPD1     N 3363   3.534   0.450  16.903  0.0720  0.3797 -0.4391
  221MPD1    H5 3364   3.613   0.398  16.942  0.6538  0.1142 -1.9819
  221MPD1    N1 3365   3.056   0.486  16.881 -0.2140 -0.3004  0.5227
  221MPD1    H6 3366   3.071   0.557  16.810 -0.8909  0.4798  1.1651
  221MPD1    H7 3367   2.978   0.514  16.940 -0.5344 -1.2153  0.5395
  222MPD1     C 3368   3.257   3.566  16.592 -0.0401 -0.3561  0.8124
  222MPD1    C1 3369   3.226   3.452  16.653  0.2107  0.0128  0.3215
  222MPD1    C2 3370   3.211   3.452  16.797 -0.7236 -0.0741  0.3681
  222MPD1    C3 3371   3.203   3.573  16.858  0.6606 -0.5151  0.0194
  222MPD1    C4 3372   3.221   3.691  16.796  0.1268 -0.7730 -0.2389
  222MPD1    C5 3373   3.267   3.684  16.662 -0.5737 -0.8728  0.4420
  222MPD1     H 3374   3.193   3.358  16.848 -1.7677 -0.1848 -0.1905
  222MPD1    H1 3375   3.214   3.789  16.841 -0.0271 -0.8311 -0.1384
  222MPD1    H2 3376   3.274   3.580  16.486 -0.5199  0.2204  0.8061
  222MPD1    H3 3377   3.273   3.778  16.608  0.7113 -1.7228 -0.8912
  222MPD1     N 3378   3.161   3.587  16.995  0.2500  0.2679  0.4177
  222MPD1    H5 3379   3.168   3.677  17.041  1.5877  0.0321  0.6808
  222MPD1    N1 3380   3.236   3.337  16.573  0.0122  0.1681 -0.3496
  222MPD1    H6 3381   3.172   3.270  16.616  0.9030 -1.5497 -1.7064
  222MPD1    H7 3382   3.229   3.347  16.472 -0.7112  1.0276 -0.2092
  223MPD1     C 3383   2.936   3.112   0.267  0.0687 -0.4970 -0.2151
  223MPD1    C1 3384   2.919   3.245   0.273 -0.4136  0.1178 -0.1111
  223MPD1    C2 3385   2.911   3.323   0.165  0.2226 -0.2051 -0.0393
  223MPD1    C3 3386   2.956   3.275   0.041 -0.0752 -0.7786  0.4685
  223MPD1    C4 3387   2.984   3.137   0.036  0.7234 -0.5606  0.2031
  223MPD1    C5 3388   2.985   3.058   0.151 -0.3770 -0.8944  0.2099
  223MPD1     H 3389   2.895   3.430   0.176 -1.2890 -0.1086 -3.4713
  223MPD1    H1 3390   3.015   3.092  17.645  2.2263 -1.1287  0.9809
  223MPD1    H2 3391   2.930   3.053   0.357 -2.7858 -1.1956 -0.8683
  223MPD1    H3 3392   3.018   2.955   0.146 -2.7728 -1.5513 -1.8464
  223MPD1     N 3393   2.964   3.366  17.631 -0.0303  0.2472 -0.0688
  223MPD1    H5 3394   2.939   3.463  17.645 -0.5257 -0.1766  1.9577
  223MPD1    N1 3395   2.867   3.294   0.398  0.5139 -0.2219  0.2880
  223MPD1    H6 3396   2.896   3.237   0.477  0.0530 -3.4106 -1.8575
  223MPD1    H7 3397   2.892   3.391   0.417  0.0677 -0.6090  2.8700
  224MPD1     C 3398   0.887   0.631   9.158  0.1282 -0.3821  0.2862
  224MPD1    C1 3399   0.834   0.734   9.232  0.6287  0.6053  0.2223
  224MPD1    C2 3400   0.766   0.696   9.345  0.1987 -0.7275  0.3598
  224MPD1    C3 3401   0.746   0.563   9.383  0.1429 -0.8198  0.6807
  224MPD1    C4 3402   0.794   0.463   9.305 -0.0619 -0.0528  0.4947
  224MPD1    C5 3403   0.877   0.498   9.200 -0.0093  0.7418 -0.7165
  224MPD1     H 3404   0.730   0.780   9.403  0.5826 -2.3976  3.0623
  224MPD1    H1 3405   0.773   0.359   9.325  3.6008 -0.1954  3.7118
  224MPD1    H2 3406   0.946   0.645   9.068 -0.0652 -1.5786 -0.0241
  224MPD1    H3 3407   0.933   0.421   9.148  0.7134  1.2117 -0.6456
  224MPD1     N 3408   0.663   0.526   9.489  0.1108 -0.1219 -0.4878
  224MPD1    H5 3409   0.659   0.428   9.516  0.9376 -0.9510 -3.3425
  224MPD1    N1 3410   0.859   0.868   9.200  0.0812  0.0155  0.2593
  224MPD1    H6 3411   0.779   0.920   9.235 -0.4992 -0.3800 -0.4673
  224MPD1    H7 3412   0.877   0.871   9.099  0.8206  0.7543  0.4040
  225MPD1     C 3413   4.461   2.895  12.946 -0.0731  0.1853  0.4926
  225MPD1    C1 3414   4.556   2.800  12.971 -0.8076  0.2166  0.2235
  225MPD1    C2 3415   4.631   2.760  12.863  0.0151  0.2259  0.3791
  225MPD1    C3 3416   4.588   2.801  12.739  0.4442  0.6129 -0.5526
  225MPD1    C4 3417   4.491   2.897  12.714 -0.4242 -0.1356  0.4855
  225MPD1    C5 3418   4.430   2.947  12.824 -0.6838  0.9839 -0.1054
  225MPD1     H 3419   4.725   2.707  12.875 -0.3874 -0.6561 -0.3257
  225MPD1    H1 3420   4.461   2.944  12.621  0.0131 -0.3247  0.2487
  225MPD1    H2 3421   4.407   2.943  13.026 -1.0875 -0.3080  0.1008
  225MPD1    H3 3422   4.359   3.028  12.814 -0.0952  1.5528  0.3066
  225MPD1     N 3423   4.656   2.765  12.625 -0.0137  0.2264 -0.8156
  225MPD1    H5 3424   4.646   2.813  12.536  1.6873  0.9603 -0.6076
  225MPD1    N1 3425   4.601   2.779  13.103  0.6424  0.7630 -0.0834
  225MPD1    H6 3426   4.518   2.784  13.162 -0.7793  1.3375 -2.1178
  225MPD1    H7 3427   4.636   2.685  13.119 -2.2484  0.0759  2.2961
  226MPD1     C 3428   0.173   0.206   8.959 -0.2134 -0.7000  0.3824
  226MPD1    C1 3429   0.042   0.233   8.981 -0.6790  0.4816 -0.5692
  226MPD1    C2 3430   0.011   0.365   9.019 -0.2223  0.1031 -0.2022
  226MPD1    C3 3431   0.109   0.462   9.032  0.3380 -0.3131 -0.7068
  226MPD1    C4 3432   0.236   0.431   8.995  0.4802 -0.4432 -0.2398
  226MPD1    C5 3433   0.269   0.305   8.960 -0.1317  0.7482  0.1817
  226MPD1     H 3434   4.632   0.377   9.047  0.1964 -0.7420  1.7148
  226MPD1    H1 3435   0.310   0.509   8.984  0.3607 -0.1771  0.8086
  226MPD1    H2 3436   0.210   0.106   8.941 -1.6668 -1.0694 -0.5923
  226MPD1    H3 3437   0.373   0.285   8.936 -0.5463  0.3990 -1.2804
  226MPD1     N 3438   0.071   0.594   9.075 -0.1965 -0.0820 -0.1864
  226MPD1    H5 3439   4.699   0.617   9.096  0.1079 -0.2706  1.4433
  226MPD1    N1 3440   4.684   0.125   9.003  0.2974  0.3491 -0.8436
  226MPD1    H6 3441   4.714   0.042   8.953  1.2553  0.4033 -0.3654
  226MPD1    H7 3442   4.587   0.154   8.991  0.3430  0.7906 -0.1433
  227MPD1     C 3443   3.993   0.816   9.216  0.3805 -0.2441 -0.8133
  227MPD1    C1 3444   4.069   0.709   9.255  0.8143 -0.5612  0.2035
  227MPD1    C2 3445   4.210   0.724   9.246  0.4587 -0.3012  0.6064
  227MPD1    C3 3446   4.264   0.845   9.208 -0.5740  0.0100 -0.2637
  227MPD1    C4 3447   4.190   0.950   9.161  0.4825  0.7147  0.0236
  227MPD1    C5 3448   4.057   0.932   9.169 -0.6175 -0.5654 -0.8773
  227MPD1     H 3449   4.269   0.637   9.273 -0.6640 -1.3365 -0.2478
  227MPD1    H1 3450   4.226   1.041   9.115 -0.3026  1.1381  0.2392
  227MPD1    H2 3451   3.885   0.818   9.226  0.3673 -2.7646 -0.6102
  227MPD1    H3 3452   3.993   1.014   9.138 -0.2618 -0.6047 -1.7282
  227MPD1     N 3453   4.405   0.851   9.198 -0.6862 -0.5144  0.2713
  227MPD1    H5 3454   4.455   0.762   9.205 -0.2010 -0.4767 -2.8918
  227MPD1    N1 3455   4.014   0.593   9.311 -0.1496 -0.3841  0.6794
  227MPD1    H6 3456   4.081   0.519   9.290 -0.3024 -0.3839  0.1924
  227MPD1    H7 3457   3.925   0.565   9.269 -0.4518 -1.2434  1.8858
  228MPD1     C 3458   3.316   0.154  12.376 -0.3085 -0.5067 -0.4566
  228MPD1    C1 3459   3.233   0.232  12.301 -0.4304  0.2825  0.7367
  228MPD1    C2 3460   3.107   0.262  12.356  0.0038 -0.1413 -0.2574
  228MPD1    C3 3461   3.068   0.210  12.474  0.0610 -0.3636 -0.0620
  228MPD1    C4 3462   3.151   0.117  12.541  0.3498 -0.1145 -0.1097
  228MPD1    C5 3463   3.281   0.096  12.494  0.3187 -0.4132 -0.5095
  228MPD1     H 3464   3.037   0.328  12.307  0.7368 -1.2751 -2.8465
  228MPD1    H1 3465   3.122   0.079  12.639 -3.0935  0.9307 -0.7114
  228MPD1    H2 3466   3.421   0.145  12.350 -0.1957 -0.3525 -0.0531
  228MPD1    H3 3467   3.359   0.037  12.542 -0.2459 -0.8839 -0.1622
  228MPD1     N 3468   2.933   0.232  12.511 -0.3447  0.0210  0.2766
  228MPD1    H5 3469   2.872   0.295  12.461  0.6495  0.9576  0.2411
  228MPD1    N1 3470   3.283   0.305  12.192 -0.2603 -0.0347  0.4001
  228MPD1    H6 3471   3.202   0.328  12.134 -0.3737  0.0027  0.5755
  228MPD1    H7 3472   3.347   0.251  12.133  1.9427  0.7643  2.0584
  229MPD1     C 3473   2.673   2.827  15.647 -0.0409  0.3533  0.1004
  229MPD1    C1 3474   2.758   2.775  15.555  0.3195 -0.2988 -0.4935
  229MPD1    C2 3475   2.710   2.720  15.443  0.4979  0.2568  0.3027
  229MPD1    C3 3476   2.574   2.728  15.415  0.1199 -0.4004 -0.1377
  229MPD1    C4 3477   2.492   2.791  15.508 -0.6301  0.1276  0.2465
  229MPD1    C5 3478   2.539   2.835  15.624 -0.1883  0.2295 -0.2240
  229MPD1     H 3479   2.776   2.669  15.374  2.0333  2.8674 -0.1622
  229MPD1    H1 3480   2.385   2.796  15.490 -0.5550 -1.4799 -0.7136
  229MPD1    H2 3481   2.710   2.865  15.742  0.6068 -1.1835  0.4577
  229MPD1    H3 3482   2.478   2.849  15.712  1.3341 -0.9251  1.0177
  229MPD1     N 3483   2.508   2.695  15.297  0.2839 -0.5808  0.6172
  229MPD1    H5 3484   2.412   2.727  15.290 -0.4010 -2.8556 -0.3100
  229MPD1    N1 3485   2.893   2.771  15.586  0.3041  0.9157  0.0651
  229MPD1    H6 3486   2.913   2.831  15.666 -1.1847  1.6717 -0.1259
  229MPD1    H7 3487   2.945   2.803  15.504 -1.4749  2.5319 -0.4405
  230MPD1     C 3488   1.757   2.272  15.024  0.0122  0.5025 -0.3276
  230MPD1    C1 3489   1.866   2.218  15.077 -0.2328  0.4770 -0.9159
  230MPD1    C2 3490   1.980   2.298  15.096  0.2836 -0.2686 -0.2248
  230MPD1    C3 3491   1.974   2.436  15.081  0.3285  0.2115  1.2401
  230MPD1    C4 3492   1.850   2.487  15.039 -0.7693 -0.4452  1.0147
  230MPD1    C5 3493   1.747   2.406  15.003  0.0263 -0.6694 -0.1474
  230MPD1     H 3494   2.073   2.247  15.118 -0.8259 -1.8770  0.7696
  230MPD1    H1 3495   1.835   2.594  15.046 -0.8089 -0.4528  1.0439
  230MPD1    H2 3496   1.676   2.210  14.986 -0.9031 -0.1127  2.6552
  230MPD1    H3 3497   1.656   2.452  14.969  0.0618  1.3018  2.4251
  230MPD1     N 3498   2.079   2.523  15.102  0.1099  0.1905 -0.6776
  230MPD1    H5 3499   2.161   2.482  15.145  1.6471  0.2070 -3.5872
  230MPD1    N1 3500   1.891   2.082  15.079  0.1178  0.9883 -0.2712
  230MPD1    H6 3501   1.814   2.023  15.110 -0.1633  1.1143 -0.7350
  230MPD1    H7 3502   1.972   2.056  15.136  1.2402  3.1242 -0.9171
  231MPD1     C 3503   0.385   0.078  15.430 -0.2704 -0.2946 -0.4179
  231MPD1    C1 3504   0.352   0.120  15.303  0.1545 -0.3840 -0.2583
  231MPD1    C2 3505   0.420   0.231  15.248 -1.1100 -0.5079  0.3290
  231MPD1    C3 3506   0.500   0.309  15.321 -0.6561  0.8984  0.3280
  231MPD1    C4 3507   0.523   0.277  15.455  0.3367 -0.3640 -0.5271
  231MPD1    C5 3508   0.468   0.160  15.507  0.7568  0.0001  0.7072
  231MPD1     H 3509   0.403   0.247  15.142 -0.7366  1.6310  0.5927
  231MPD1    H1 3510   0.566   0.346  15.527  0.1222  0.1309 -0.8761
  231MPD1    H2 3511   0.338   4.714  15.470 -1.3558 -0.1427 -1.3624
  231MPD1    H3 3512   0.496   0.125  15.606  0.6284  1.4803  1.2697
  231MPD1     N 3513   0.544   0.433  15.268  0.1860  0.2001  0.2745
  231MPD1    H5 3514   0.491   0.461  15.186  0.5921 -0.0916 -0.0857
  231MPD1    N1 3515   0.288   0.030  15.216 -0.4403 -0.4822 -0.0684
  231MPD1    H6 3516   0.208   4.703  15.252 -1.6714  0.4220 -1.4714
  231MPD1    H7 3517   0.244   0.082  15.141 -1.4010  0.0183  0.8493
  232MPD1     C 3518   2.850   2.318  17.316 -0.2851  0.2646 -0.1349
  232MPD1    C1 3519   2.810   2.345  17.449 -0.4536  0.4037 -0.4611
  232MPD1    C2 3520   2.681   2.397  17.467  0.1481 -0.1316 -0.2939
  232MPD1    C3 3521   2.592   2.394  17.357 -0.4986  0.5195  0.7113
  232MPD1    C4 3522   2.639   2.388  17.233  0.3426  0.2836  0.2565
  232MPD1    C5 3523   2.763   2.350  17.216 -0.4106 -0.6262  0.5195
  232MPD1     H 3524   2.642   2.425  17.564 -0.1707 -2.9654  0.3762
  232MPD1    H1 3525   2.570   2.398  17.150  0.1217  0.2962  0.4396
  232MPD1    H2 3526   2.942   2.268  17.288  0.0262  0.2920  0.8417
  232MPD1    H3 3527   2.783   2.327  17.112 -1.0169 -0.0029  0.2676
  232MPD1     N 3528   2.464   2.435  17.385 -0.2180 -0.0917 -0.7253
  232MPD1    H5 3529   2.437   2.414  17.481  0.2070 -0.1056 -0.6059
  232MPD1    N1 3530   2.880   2.302  17.562 -0.1045  0.0452 -0.3875
  232MPD1    H6 3531   2.858   2.365  17.639  3.5597 -0.6187  1.1870
  232MPD1    H7 3532   2.981   2.299  17.556 -0.0396  0.1488  0.6625
  233MPD1     C 3533   3.356   1.179   2.099 -0.0985  0.7113  0.7045
  233MPD1    C1 3534   3.415   1.285   2.167  0.7993 -0.3342 -0.5182
  233MPD1    C2 3535   3.514   1.350   2.103  0.4339 -0.1421  0.6736
  233MPD1    C3 3536   3.550   1.312   1.976  0.2557  0.6856 -0.7526
  233MPD1    C4 3537   3.492   1.208   1.904 -0.5110  0.1361 -0.4357
  233MPD1    C5 3538   3.388   1.143   1.969 -0.0429  0.1179  1.1987
  233MPD1     H 3539   3.559   1.438   2.148  1.1285 -0.1442 -0.0314
  233MPD1    H1 3540   3.511   1.185   1.800 -0.7856 -1.9251 -0.0400
  233MPD1    H2 3541   3.267   1.130   2.136  1.1190 -0.5098  2.0254
  233MPD1    H3 3542   3.328   1.072   1.913 -3.2349  2.9539  0.9740
  233MPD1     N 3543   3.647   1.383   1.895  0.2010  0.1295 -0.9554
  233MPD1    H5 3544   3.665   1.333   1.809 -0.5646  0.9548 -1.5926
  233MPD1    N1 3545   3.362   1.327   2.290 -0.0330  0.3347 -0.6945
  233MPD1    H6 3546   3.344   1.241   2.341 -0.8254  0.7042 -0.3546
  233MPD1    H7 3547   3.438   1.375   2.338 -0.7560  1.0114 -0.2391
  234MPD1     C 3548   0.228   3.396   9.577  0.7400  0.6139 -1.3409
  234MPD1    C1 3549   0.121   3.479   9.575  0.3985  0.4246 -0.4524
  234MPD1    C2 3550   0.139   3.611   9.607  0.3598 -0.3087  0.0840
  234MPD1    C3 3551   0.268   3.671   9.628 -0.8334 -0.4466  0.7671
  234MPD1    C4 3552   0.376   3.583   9.622 -0.1640  0.0436 -0.1088
  234MPD1    C5 3553   0.352   3.451   9.594 -0.2564 -0.0093  0.4304
  234MPD1     H 3554   0.047   3.668   9.604  1.3940  1.3203 -0.8937
  234MPD1    H1 3555   0.480   3.612   9.629  0.1285 -0.5577 -2.1084
  234MPD1    H2 3556   0.222   3.293   9.544  1.0377  0.4694 -0.9379
  234MPD1    H3 3557   0.435   3.382   9.583 -0.7077 -0.2092 -1.6297
  234MPD1     N 3558   0.277   3.808   9.657 -0.3877 -0.4372  0.4210
  234MPD1    H5 3559   0.192   3.862   9.670  0.8284  1.5195  0.3195
  234MPD1    N1 3560   4.722   3.428   9.545  0.0205 -0.2307  0.2628
  234MPD1    H6 3561   4.719   3.375   9.458 -0.9609 -0.2458  0.3096
  234MPD1    H7 3562   4.653   3.502   9.546  2.2594  1.8715  0.6680
  235MPD1     C 3563   2.971   1.621   9.679  0.8319  0.3106  1.0082
  235MPD1    C1 3564   2.863   1.704   9.648 -0.5060 -0.1914 -0.1208
  235MPD1    C2 3565   2.883   1.840   9.644 -0.5117  0.4762  0.5613
  235MPD1    C3 3566   3.009   1.894   9.664  0.3523 -0.1999  0.4059
  235MPD1    C4 3567   3.115   1.812   9.689 -0.0566  1.3903 -0.2792
  235MPD1    C5 3568   3.091   1.678   9.698 -0.3452  0.4065 -0.1892
  235MPD1     H 3569   2.802   1.907   9.617 -0.8668  1.4067  3.9391
  235MPD1    H1 3570   3.218   1.845   9.701 -0.1815  2.5956 -2.4894
  235MPD1    H2 3571   2.972   1.513   9.685 -0.3704  0.1852 -1.1472
  235MPD1    H3 3572   3.170   1.618   9.744 -1.4601 -1.7058 -1.0267
  235MPD1     N 3573   3.022   2.033   9.658  0.5632 -0.1856 -0.2925
  235MPD1    H5 3574   2.941   2.091   9.640  1.6294  1.4889  0.2420
  235MPD1    N1 3575   2.745   1.651   9.608  0.2218 -0.3224 -0.0544
  235MPD1    H6 3576   2.658   1.690   9.643  2.2854  4.0282  0.1749
  235MPD1    H7 3577   2.745   1.559   9.651 -2.1725 -0.5365 -0.5318
  236MPD1     C 3578   1.410   3.293   9.410  0.3244  0.0258  0.1532
  236MPD1    C1 3579   1.533   3.240   9.398  0.3137 -0.0122  0.2878
  236MPD1    C2 3580   1.629   3.278   9.480 -0.1732  0.5245  0.5244
  236MPD1    C3 3581   1.610   3.367   9.587  0.1799 -0.2175  0.8755
  236MPD1    C4 3582   1.483   3.420   9.602  0.3394 -0.2734 -0.0739
  236MPD1    C5 3583   1.387   3.387   9.509  0.4595  0.8484 -0.3658
  236MPD1     H 3584   1.728   3.236   9.468 -0.7308 -0.6139 -0.1142
  236MPD1    H1 3585   1.449   3.481   9.684 -0.4344 -2.3483  1.1578
  236MPD1    H2 3586   1.326   3.280   9.342  0.8509 -1.7689 -0.1439
  236MPD1    H3 3587   1.297   3.446   9.499 -0.4329 -0.6725 -1.4445
  236MPD1     N 3588   1.694   3.383   9.693 -0.2097  0.1377 -0.8720
  236MPD1    H5 3589   1.659   3.429   9.777  2.2649  0.8193 -0.2132
  236MPD1    N1 3590   1.577   3.186   9.269 -0.0854 -0.1105  0.0209
  236MPD1    H6 3591   1.641   3.109   9.289  0.3350  0.3364  0.3920
  236MPD1    H7 3592   1.499   3.132   9.231  0.2477 -0.0632 -0.7481
  237MPD1     C 3593   1.029   2.639  15.143 -0.3853  0.2617  0.3672
  237MPD1    C1 3594   1.021   2.595  15.270  0.4826  0.2387  0.1872
  237MPD1    C2 3595   0.968   2.466  15.291  0.0706  0.5834 -0.0424
  237MPD1    C3 3596   0.907   2.397  15.187 -0.2373  0.2922 -0.1650
  237MPD1    C4 3597   0.905   2.455  15.054 -0.0669  0.3597  0.7960
  237MPD1    C5 3598   0.957   2.579  15.044 -0.4638  0.4989  0.4798
  237MPD1     H 3599   0.967   2.437  15.395 -3.2636 -0.3599 -0.3530
  237MPD1    H1 3600   0.857   2.407  14.970  1.8502  0.3010 -0.2650
  237MPD1    H2 3601   1.076   2.734  15.118  0.8950 -0.4059  0.2014
  237MPD1    H3 3602   0.947   2.621  14.945  0.3465  1.6062  0.8635
  237MPD1     N 3603   0.852   2.268  15.198  0.6346 -0.2228  0.0757
  237MPD1    H5 3604   0.810   2.228  15.115  0.6582 -0.7982  0.3345
  237MPD1    N1 3605   1.072   2.676  15.374  0.3608 -0.3092  0.0194
  237MPD1    H6 3606   1.014   2.760  15.377  1.1204  0.2285 -0.2852
  237MPD1    H7 3607   1.053   2.624  15.460  0.6937  1.6647  1.3040
  238MPD1     C 3608   3.061   0.300  14.619  0.9892  0.4495 -0.6968
  238MPD1    C1 3609   2.990   0.386  14.537  1.1434  0.4477 -0.2032
  238MPD1    C2 3610   2.873   0.431  14.596 -0.3550 -0.6355 -0.2986
  238MPD1    C3 3611   2.824   0.403  14.720  0.6556  0.2833  0.1931
  238MPD1    C4 3612   2.893   0.312  14.802 -0.7544  1.1318 -0.0060
  238MPD1    C5 3613   3.007   0.268  14.743  0.0882  0.1997 -0.2516
  238MPD1     H 3614   2.829   0.518  14.549  1.1659 -0.4142 -1.3242
  238MPD1    H1 3615   2.865   0.282  14.903 -1.4253 -1.4056 -0.9437
  238MPD1    H2 3616   3.158   0.262  14.586  1.3778  0.8313  0.0092
  238MPD1    H3 3617   3.067   0.203  14.806  1.0945 -1.5902 -3.0790
  238MPD1     N 3618   2.697   0.454  14.755  0.0491 -0.4811  0.2556
  238MPD1    H5 3619   2.651   0.521  14.693  0.7218 -1.3415 -1.1607
  238MPD1    N1 3620   3.052   0.463  14.435  0.2226  0.4257 -0.1188
  238MPD1    H6 3621   2.976   0.503  14.380  1.0269  2.2006  0.0798
  238MPD1    H7 3622   3.123   0.411  14.383 -0.4325 -0.3315 -0.2687
  239MPD1     C 3623   2.895   1.256  14.758  0.8110 -0.6266  0.0779
  239MPD1    C1 3624   2.980   1.356  14.719  0.1258  0.1751 -0.3173
  239MPD1    C2 3625   2.953   1.412  14.597  0.0397 -0.4038 -0.1939
  239MPD1    C3 3626   2.867   1.349  14.509  0.0828 -0.3654 -0.2248
  239MPD1    C4 3627   2.806   1.228  14.544 -0.5561  0.1796 -0.7728
  239MPD1    C5 3628   2.815   1.185  14.675  0.0989 -0.7446  1.2120
  239MPD1     H 3629   2.997   1.509  14.575  0.5345 -0.4955  0.4008
  239MPD1    H1 3630   2.731   1.183  14.481  1.3878 -1.1130 -2.1619
  239MPD1    H2 3631   2.893   1.223  14.861  0.9742  0.6830  0.4967
  239MPD1    H3 3632   2.744   1.113  14.715 -1.0996 -0.2653 -0.0874
  239MPD1     N 3633   2.826   1.416  14.389 -0.0248 -0.2748 -0.5786
  239MPD1    H5 3634   2.746   1.379  14.338 -2.3195  3.3340  0.4643
  239MPD1    N1 3635   3.064   1.422  14.811  0.1415 -0.7946  0.0496
  239MPD1    H6 3636   3.133   1.482  14.765  1.0564 -2.3607 -0.6148
  239MPD1    H7 3637   3.110   1.349  14.865 -0.3282  0.1713  1.7584
  240MPD1     C 3638   1.917   1.019  13.585 -0.2598 -0.2497  0.5725
  240MPD1    C1 3639   1.875   0.899  13.645 -1.0847 -0.2136 -0.3516
  240MPD1    C2 3640   1.881   0.897  13.782  0.3149 -0.0967 -0.7276
  240MPD1    C3 3641   1.948   0.993  13.856  0.5625  0.1629 -0.0915
  240MPD1    C4 3642   1.995   1.107  13.782 -0.0592 -0.1570  0.1775
  240MPD1    C5 3643   1.988   1.113  13.651  0.4719 -0.1870  0.7478
  240MPD1     H 3644   1.835   0.817  13.839  3.9755 -0.5222  1.6038
  240MPD1    H1 3645   2.056   1.179  13.835  1.3282 -0.8071 -0.5326
  240MPD1    H2 3646   1.913   1.020  13.476 -1.8769  2.9967  0.6721
  240MPD1    H3 3647   2.002   1.205  13.597 -0.2111 -1.2930 -1.2983
  240MPD1     N 3648   1.949   0.975  14.002 -0.1895 -0.2820 -0.5168
  240MPD1    H5 3649   1.894   0.899  14.040  1.0988  0.6310  3.1046
  240MPD1    N1 3650   1.789   0.814  13.572 -0.5281 -0.3568  0.2676
  240MPD1    H6 3651   1.779   0.718  13.603  0.4215 -0.3765  0.5100
  240MPD1    H7 3652   1.820   0.822  13.475  3.2152 -1.0650  1.4071
  241MPD1     C 3653   2.552   1.347  14.746 -0.3546 -0.3084 -0.4080
  241MPD1    C1 3654   2.475   1.250  14.809 -0.7732 -0.4919  0.2612
  241MPD1    C2 3655   2.363   1.202  14.740 -0.8571  0.2291 -1.9816
  241MPD1    C3 3656   2.344   1.235  14.609 -0.2455  0.0352 -0.0348
  241MPD1    C4 3657   2.425   1.326  14.555  0.3446 -0.8336 -0.8747
  241MPD1    C5 3658   2.518   1.398  14.622 -0.5903  0.1054 -0.3470
  241MPD1     H 3659   2.315   1.115  14.782 -0.2104 -0.3210 -2.3735
  241MPD1    H1 3660   2.417   1.343  14.448  0.1260  2.4477 -0.3403
  241MPD1    H2 3661   2.629   1.393  14.807  0.1308  1.5381 -2.4015
  241MPD1    H3 3662   2.587   1.470  14.578  1.1630 -1.1591  0.3194
  241MPD1     N 3663   2.254   1.173  14.517  0.3815 -0.2811  0.0402
  241MPD1    H5 3664   2.236   1.217  14.428  0.5886 -0.2363  0.0194
  241MPD1    N1 3665   2.500   1.202  14.938  0.0163 -0.4300  0.1940
  241MPD1    H6 3666   2.593   1.219  14.977 -0.6033  2.2396  0.5289
  241MPD1    H7 3667   2.466   1.106  14.941 -0.3634 -0.2277  2.0974
  242MPD1     C 3668   2.212   4.093  15.613  0.3766  0.4212 -0.3486
  242MPD1    C1 3669   2.194   4.207  15.541 -0.7411  1.3130 -0.2963
  242MPD1    C2 3670   2.156   4.196  15.407 -0.2473  0.6244  0.0369
  242MPD1    C3 3671   2.149   4.068  15.350 -0.3023 -0.1852  0.4551
  242MPD1    C4 3672   2.175   3.953  15.429 -0.0296 -0.3562  0.1727
  242MPD1    C5 3673   2.193   3.969  15.562 -0.8270  0.2420 -0.3254
  242MPD1     H 3674   2.141   4.286  15.349 -3.6962 -1.1001 -1.7465
  242MPD1    H1 3675   2.155   3.858  15.381  0.4710  0.3544 -1.4441
  242MPD1    H2 3676   2.225   4.101  15.720  2.8684  0.2683 -0.6557
  242MPD1    H3 3677   2.203   3.878  15.621 -0.8548 -0.3907 -1.2934
  242MPD1     N 3678   2.115   4.041  15.216  0.3921 -0.1296  0.5654
  242MPD1    H5 3679   2.096   3.944  15.190  1.2290  0.1427 -1.0776
  242MPD1    N1 3680   2.198   4.337  15.597 -0.0955 -0.5804  0.1853
  242MPD1    H6 3681   2.208   4.410  15.527  1.4426  0.4724  1.5181
  242MPD1    H7 3682   2.278   4.332  15.659  0.3942 -1.9371 -0.5393
  243MPD1     C 3683   4.226   3.307  16.913  0.9843 -0.6628 -0.7369
  243MPD1    C1 3684   4.127   3.262  16.993  0.2380 -0.4515  0.4678
  243MPD1    C2 3685   4.045   3.155  16.943  0.4785 -0.4128 -0.2788
  243MPD1    C3 3686   4.059   3.100  16.815  0.0094 -0.0300  0.0872
  243MPD1    C4 3687   4.156   3.158  16.742 -0.1554 -0.5853 -0.6488
  243MPD1    C5 3688   4.244   3.250  16.793 -0.0095 -0.1033 -0.1648
  243MPD1     H 3689   3.965   3.115  17.004  0.3491 -0.1306 -0.2601
  243MPD1    H1 3690   4.163   3.128  16.638  0.2975 -0.8596 -0.5354
  243MPD1    H2 3691   4.308   3.363  16.958 -0.4905  0.3131  0.7259
  243MPD1    H3 3692   4.322   3.286  16.726 -1.5385  0.5013 -1.6153
  243MPD1     N 3693   3.965   2.993  16.779 -0.1854 -0.6378  0.4429
  243MPD1    H5 3694   3.884   2.981  16.839  0.7034  1.5114  2.0795
  243MPD1    N1 3695   4.125   3.302  17.125  0.1869 -0.5076 -0.0845
  243MPD1    H6 3696   4.025   3.302  17.147  0.3034 -0.2094  0.4400
  243MPD1    H7 3697   4.149   3.400  17.138 -0.7719 -0.2681 -0.0537
  244MPD1     C 3698   3.407   2.684  17.326  0.5035 -0.8106 -0.1745
  244MPD1    C1 3699   3.528   2.632  17.318  0.1368 -0.8558 -0.1276
  244MPD1    C2 3700   3.587   2.603  17.196  0.2250  0.5793 -0.4509
  244MPD1    C3 3701   3.526   2.659  17.078 -0.2703  0.2030  1.0934
  244MPD1    C4 3702   3.413   2.724  17.092  0.4400 -0.3865  0.1665
  244MPD1    C5 3703   3.352   2.733  17.213 -0.1938 -0.5592 -0.6810
  244MPD1     H 3704   3.683   2.554  17.186 -0.2956  0.0336 -2.7574
  244MPD1    H1 3705   3.354   2.763  17.010  1.3336  0.0179 -0.2791
  244MPD1    H2 3706   3.351   2.694  17.418 -0.3118  1.8781 -0.9633
  244MPD1    H3 3707   3.250   2.769  17.211  0.8468  2.4202 -0.2631
  244MPD1     N 3708   3.604   2.662  16.961  0.5445  0.5961 -0.1441
  244MPD1    H5 3709   3.701   2.635  16.976  0.3858  1.4803  2.5203
  244MPD1    N1 3710   3.594   2.595  17.443 -0.6683  0.7649  0.7166
  244MPD1    H6 3711   3.577   2.661  17.519 -0.4672 -1.5361  2.7780
  244MPD1    H7 3712   3.693   2.598  17.423 -0.8214  0.5945 -0.0738
  245MPD1     C 3713   0.591   3.654  12.832  0.2961 -0.6865  0.3288
  245MPD1    C1 3714   0.486   3.715  12.895  0.8160 -0.3182 -0.6424
  245MPD1    C2 3715   0.517   3.787  13.010  0.3314 -0.4647 -0.0073
  245MPD1    C3 3716   0.643   3.801  13.053  0.6692 -0.5757  0.2566
  245MPD1    C4 3717   0.743   3.749  12.982 -0.0903 -0.2406 -0.2974
  245MPD1    C5 3718   0.719   3.687  12.860  0.6841 -0.3615  1.1513
  245MPD1     H 3719   0.443   3.850  13.060  1.2699  2.1545 -1.8897
  245MPD1    H1 3720   0.850   3.753  13.002  0.1657 -2.0481 -1.2916
  245MPD1    H2 3721   0.569   3.597  12.742 -0.4403 -0.1665  0.1851
  245MPD1    H3 3722   0.793   3.646  12.792  0.1360 -2.4000  1.7832
  245MPD1     N 3723   0.662   3.866  13.179  0.4908 -0.0951  0.4054
  245MPD1    H5 3724   0.577   3.906  13.219  0.0205 -0.0043 -0.6755
  245MPD1    N1 3725   0.354   3.710  12.840 -0.3756  0.5081 -0.2741
  245MPD1    H6 3726   0.343   3.633  12.774 -0.0260  1.6222 -1.6470
  245MPD1    H7 3727   0.284   3.689  12.911  1.3341 -0.1172  1.1950
  246MPD1     C 3728   2.846   2.178   8.986 -0.1928  0.6254 -0.0578
  246MPD1    C1 3729   2.735   2.255   8.985  0.0855  0.1467  0.1758
  246MPD1    C2 3730   2.745   2.391   8.964 -1.0139 -0.4451 -0.2823
  246MPD1    C3 3731   2.872   2.449   8.970 -0.4683  0.0743 -0.2386
  246MPD1    C4 3732   2.980   2.368   8.984  0.0138  0.2423 -0.3371
  246MPD1    C5 3733   2.971   2.231   8.984  0.1841 -0.2975  0.2526
  246MPD1     H 3734   2.665   2.456   8.931 -0.5768 -0.8460 -2.1310
  246MPD1    H1 3735   3.075   2.412   9.010 -0.2228  0.7002 -0.2503
  246MPD1    H2 3736   2.845   2.070   8.989  2.1088  0.6402  1.8002
  246MPD1    H3 3737   3.058   2.170   8.964  0.3184  0.1711 -0.5776
  246MPD1     N 3738   2.879   2.587   8.942  0.1983  0.2126 -0.1075
  246MPD1    H5 3739   2.791   2.635   8.930 -2.0504 -3.5870  1.1289
  246MPD1    N1 3740   2.613   2.195   8.976  0.1249  0.7109  0.2672
  246MPD1    H6 3741   2.529   2.250   8.989 -0.7200  0.0959 -2.6351
  246MPD1    H7 3742   2.604   2.104   9.020 -0.0396  1.0823  1.0029
  247MPD1     C 3743   4.059   3.487  15.881 -0.2411  0.4549  0.2861
  247MPD1    C1 3744   4.143   3.448  15.984  0.0673  0.7359 -0.5501
  247MPD1    C2 3745   4.252   3.369  15.950  0.2346  0.2391 -0.4609
  247MPD1    C3 3746   4.260   3.307  15.830  0.0280 -0.3094  0.7668
  247MPD1    C4 3747   4.172   3.344  15.729 -0.5157  0.2292 -0.1960
  247MPD1    C5 3748   4.073   3.432  15.755  0.7431  0.3020 -0.7198
  247MPD1     H 3749   4.330   3.353  16.023 -1.5452 -0.6557  1.2252
  247MPD1    H1 3750   4.179   3.293  15.633  0.9440  0.0824 -0.0070
  247MPD1    H2 3751   3.978   3.556  15.902  0.4452  0.3418  3.2640
  247MPD1    H3 3752   3.997   3.454  15.681  0.7511 -0.9829 -1.1138
  247MPD1     N 3753   4.365   3.213  15.809 -0.2355 -0.2951  0.4568
  247MPD1    H5 3754   4.401   3.197  15.716  1.7679  1.6794  0.9008
  247MPD1    N1 3755   4.137   3.525  16.102 -0.0791 -0.0709  0.3860
  247MPD1    H6 3756   4.174   3.480  16.185  0.0161  2.7943  1.9054
  247MPD1    H7 3757   4.040   3.554  16.115 -0.2494 -0.0893 -0.7755
  248MPD1     C 3758   0.456   3.697  16.310  0.9535  0.0800  0.4084
  248MPD1    C1 3759   0.335   3.762  16.314 -0.1414  0.8895 -0.3222
  248MPD1    C2 3760   0.265   3.768  16.437 -0.3828  0.0679 -0.2173
  248MPD1    C3 3761   0.309   3.692  16.546  0.1850 -0.0281 -0.2312
  248MPD1    C4 3762   0.432   3.623  16.537  0.2706 -0.4155 -0.1634
  248MPD1    C5 3763   0.500   3.623  16.418 -0.5791 -0.7194 -0.0285
  248MPD1     H 3764   0.180   3.835  16.439 -2.0097 -1.9718 -0.5247
  248MPD1    H1 3765   0.461   3.559  16.620  2.7712  1.0269  0.0650
  248MPD1    H2 3766   0.521   3.702  16.224  0.8291  2.2531  0.4488
  248MPD1    H3 3767   0.594   3.569  16.407  0.0576 -0.0327  2.0451
  248MPD1     N 3768   0.240   3.694  16.675  0.4558 -0.3715  0.0137
  248MPD1    H5 3769   0.152   3.744  16.682  0.5795 -0.4220  1.7406
  248MPD1    N1 3770   0.297   3.850  16.213 -0.0666  0.5882 -0.7497
  248MPD1    H6 3771   0.197   3.868  16.211 -0.2181 -0.0816  0.7993
  248MPD1    H7 3772   0.319   3.823  16.117 -2.0605 -2.8255 -0.2758
  249MPD1     C 3773   4.011   1.756   9.578  0.1210 -0.2954 -0.7813
  249MPD1    C1 3774   3.983   1.633   9.629 -0.9243 -1.2312  0.2230
  249MPD1    C2 3775   3.863   1.611   9.686 -0.4601 -0.1169  0.2521
  249MPD1    C3 3776   3.764   1.705   9.697 -0.5048  0.0345  0.6205
  249MPD1    C4 3777   3.787   1.824   9.629 -0.3207  0.0457 -0.0954
  249MPD1    C5 3778   3.908   1.850   9.570 -0.2235 -0.5910 -0.4165
  249MPD1     H 3779   3.852   1.517   9.738  0.7444 -0.3509  0.0870
  249MPD1    H1 3780   3.706   1.892   9.602 -1.5723 -1.2906  0.3160
  249MPD1    H2 3781   4.115   1.774   9.551 -0.2717  0.2787 -1.8885
  249MPD1    H3 3782   3.933   1.948   9.531 -1.5906 -0.7925 -1.7899
  249MPD1     N 3783   3.651   1.673   9.775 -0.2521 -0.3700  0.2969
  249MPD1    H5 3784   3.640   1.580   9.814 -3.5133  0.2032  0.7831
  249MPD1    N1 3785   4.090   1.555   9.676  0.3501  0.2518  0.3921
  249MPD1    H6 3786   4.066   1.459   9.701 -1.1409  0.5945  0.3189
  249MPD1    H7 3787   4.165   1.560   9.608 -0.6607  1.6033 -0.6263
  250MPD2     C 3788   3.675   2.140  13.023 -0.2978 -0.3546 -0.7172
  250MPD2    C1 3789   3.540   2.173  13.039 -0.2448  0.4399 -0.2094
  250MPD2    C2 3790   3.446   2.068  13.075 -0.2313 -0.1752  0.1602
  250MPD2    C3 3791   3.491   1.935  13.088 -0.1445 -0.3098 -0.0949
  250MPD2    C4 3792   3.620   1.915  13.081 -0.1349 -0.3442 -0.1205
  250MPD2    C5 3793   3.714   2.011  13.037 -0.3523 -0.7866 -0.0664
  250MPD2     H 3794   3.343   2.094  13.096 -0.5817  1.0452 -2.9625
  250MPD2    H1 3795   3.658   1.817  13.106 -0.7339 -0.9681 -1.6756
  250MPD2    H2 3796   3.758   2.210  13.016 -1.1245  0.7387  0.5999
  250MPD2    H3 3797   3.821   1.996  13.038 -0.3650 -0.6022  2.3162
  250MPD2     N 3798   3.410   1.821  13.118  0.2402 -0.0495 -0.3844
  250MPD2    H5 3799   3.459   1.734  13.138 -0.5557 -1.0712 -2.8954
  250MPD2    N1 3800   3.503   2.304  13.015 -0.4213 -0.4190 -0.4299
  250MPD2    H7 3801   3.570   2.371  12.978 -0.5556 -0.7261 -1.2361
  251TMC3    C1 3802   3.385   2.493  12.985 -0.5613 -0.0203 -0.6387
  251TMC3    C2 3803   3.340   2.592  13.067 -0.1070 -0.4866  0.1862
  251TMC3    C3 3804   3.399   2.714  13.040 -0.5808 -0.1834  0.3387
  251TMC3    C4 3805   3.477   2.517  12.888  0.4313  0.0021  0.2612
  251TMC3    C5 3806   3.541   2.639  12.874  0.1780 -0.1425 -0.2752
  251TMC3    C6 3807   3.489   2.738  12.945  0.3527 -0.9623  0.5667
  251TMC3     C 3808   3.381   2.358  13.036 -0.0005 -0.6931 -0.6137
  251TMC3     O 3809   3.287   2.332  13.111  0.2536 -0.1011 -0.2368
  251TMC3     H 3810   3.272   2.569  13.149 -2.1885 -0.9662 -1.6640
  251TMC3    H1 3811   3.517   2.440  12.822  1.0041  1.0189 -0.5927
  251TMC3    H2 3812   3.534   2.837  12.944 -0.9938 -0.3581  0.3688
  251TMC3    C7 3813   3.687   2.622  12.899  0.3048 -1.3790 -0.1600
  251TMC3    C8 3814   3.319   2.822  13.095  0.0105 -0.3745 -0.1932
  251TMC3    O1 3815   3.715   2.503  12.893  0.2235 -0.7560 -0.0846
  251TMC3    O2 3816   3.239   2.800  13.187  0.0390 -0.1865  0.1166
  252TMC3    C1 3817   0.605   0.999   9.751  0.3957  0.1277 -0.5258
  252TMC3    C2 3818   0.734   1.051   9.764  0.0661 -0.0024  0.0391
  252TMC3    C3 3819   0.765   1.170   9.704 -0.3451 -0.1284  0.1011
  252TMC3    C4 3820   0.516   1.061   9.674  0.0571 -0.0014  0.4493
  252TMC3    C5 3821   0.544   1.181   9.616  0.5857  0.7788 -0.2538
  252TMC3    C6 3822   0.664   1.241   9.638  0.1414 -0.6176 -0.0698
  252TMC3     C 3823   0.549   0.889   9.842 -0.1223  0.7749 -0.5176
  252TMC3     O 3824   0.427   0.894   9.850  0.4150  0.3737  0.3266
  252TMC3     H 3825   0.813   1.013   9.828 -0.9828 -0.1595  1.2516
  252TMC3    H1 3826   0.425   1.004   9.659 -1.6475  2.1483  2.6446
  252TMC3    H2 3827   0.679   1.343   9.603 -1.3495 -1.0393 -1.8743
  252TMC3    C7 3828   0.426   1.265   9.580  0.2075 -0.3380  0.0374
  252TMC3    C8 3829   0.901   1.231   9.718 -0.1742  0.5334 -0.3140
  252TMC3    O1 3830   0.439   1.383   9.580 -0.1579 -0.4949  0.1210
  252TMC3    O2 3831   0.988   1.153   9.757 -0.0862 -0.1875  0.6603
  253MPD2     C 3832   0.463   2.267  15.257  0.6791  0.3056  0.1983
  253MPD2    C1 3833   0.371   2.170  15.246  0.5692 -0.3060 -0.0268
  253MPD2    C2 3834   0.319   2.109  15.358  0.0546  0.3755 -0.0160
  253MPD2    C3 3835   0.358   2.151  15.483  0.1171  0.0487  0.6593
  253MPD2    C4 3836   0.457   2.249  15.496 -0.1276  0.3242 -0.1385
  253MPD2    C5 3837   0.511   2.304  15.386 -0.0299  0.0203 -0.5288
  253MPD2     H 3838   0.237   2.040  15.339  1.8334 -1.3624 -1.3435
  253MPD2    H1 3839   0.490   2.282  15.594  2.4784 -1.6015 -0.3989
  253MPD2    H2 3840   0.512   2.319  15.175 -1.4346  1.7129 -0.1748
  253MPD2    H3 3841   0.588   2.380  15.396  0.9276 -0.9499 -0.5344
  253MPD2     N 3842   0.303   2.099  15.601  0.1578  0.0347 -0.0403
  253MPD2    H5 3843   0.354   2.124  15.686 -1.6796 -1.8791  1.5991
  253MPD2    N1 3844   0.309   2.123  15.130  0.2828 -0.2766 -0.3134
  253MPD2    H7 3845   0.238   2.051  15.134 -0.8768  0.7007 -3.3379
  254TMC3    C1 3846   0.150   1.977  15.745 -0.7096  0.2337  0.5302
  254TMC3    C2 3847   0.020   1.971  15.776 -0.1135 -0.0373 -0.5675
  254TMC3    C3 3848   4.715   1.931  15.899  0.2989 -0.1358  0.7229
  254TMC3    C4 3849   0.250   1.926  15.822  0.1067 -0.3202 -0.3424
  254TMC3    C5 3850   0.213   1.887  15.944 -0.4221 -0.3903  0.1726
  254TMC3    C6 3851   0.087   1.893  15.997 -0.2295 -1.1100  0.0178
  254TMC3     C 3852   0.188   2.023  15.605  0.3618 -0.3481  0.2522
  254TMC3     O 3853   0.102   2.016  15.520 -0.0116 -0.6130  0.2707
  254TMC3     H 3854   4.665   1.976  15.703 -0.3307 -1.4107 -0.4151
  254TMC3    H1 3855   0.348   1.917  15.777 -0.4877 -0.0246 -1.6881
  254TMC3    H2 3856   0.059   1.856  16.095 -1.0400  0.8319  0.5248
  254TMC3    C7 3857   0.311   1.843  16.036  0.7078 -0.1271  0.1593
  254TMC3    C8 3858   4.592   1.984  15.943  0.6109 -0.0043  0.0053
  254TMC3    O1 3859   0.270   1.793  16.138  0.2313 -0.0969 -0.5971
  254TMC3    O2 3860   4.546   1.939  16.049 -0.2218 -0.4208 -0.2430
  255MPD2     C 3861   2.546   4.497   9.920  0.2836  0.2390  0.4566
  255MPD2    C1 3862   2.643   4.597   9.943  0.1268 -0.3665  0.7888
  255MPD2    C2 3863   2.774   4.558   9.970  0.1691 -0.1947 -0.0641
  255MPD2    C3 3864   2.811   4.422   9.971 -0.1479 -0.3980 -0.2075
  255MPD2    C4 3865   2.717   4.327   9.931  0.3049 -0.2715 -0.4181
  255MPD2    C5 3866   2.586   4.369   9.917  0.8564  0.1224  0.3438
  255MPD2     H 3867   2.852   4.632   9.985  0.5178 -0.2752 -1.4869
  255MPD2    H1 3868   2.744   4.222   9.930  2.3799  0.2548  0.5648
  255MPD2    H2 3869   2.444   4.526   9.898  0.4399 -1.1599 -2.0328
  255MPD2    H3 3870   2.507   4.300   9.891  0.0766  0.8666  0.7634
  255MPD2     N 3871   2.946   4.396  10.006  0.9412 -0.3702 -0.6507
  255MPD2    H5 3872   3.000   4.473  10.047  1.7127 -1.5010  0.4577
  255MPD2    N1 3873   2.594   0.001   9.935 -0.4540 -0.8160  0.2593
  255MPD2    H7 3874   2.495   0.017   9.923 -0.4133 -0.6405  0.1619
  256TMC3    C1 3875   2.581   0.228   9.934  0.2134  0.0525 -0.0159
  256TMC3    C2 3876   2.619   0.329   9.847 -0.0972 -0.4702  0.1121
  256TMC3    C3 3877   2.521   0.370   9.765  0.7923  0.6195  0.0761
  256TMC3    C4 3878   2.456   0.192   9.954 -0.0616 -0.2327  0.4818
  256TMC3    C5 3879   2.356   0.238   9.873 -0.4728  0.1824  0.0904
  256TMC3    C6 3880   2.392   0.338   9.788 -0.0878 -0.1656 -0.5345
  256TMC3     C 3881   2.674   0.111   9.946  0.0272 -0.0052 -0.4588
  256TMC3     O 3882   2.796   0.122   9.923  0.3133  0.0141 -0.2173
  256TMC3     H 3883   2.719   0.370   9.843 -0.3818  0.3053  0.9531
  256TMC3    H1 3884   2.418   0.138  10.040  0.1905  0.6005  1.1117
  256TMC3    H2 3885   2.322   0.374   9.714 -0.9632  0.5846  0.6481
  256TMC3    C7 3886   2.258   0.140   9.823  0.0595 -0.1450  0.3013
  256TMC3    C8 3887   2.539   0.449   9.644  0.4219  0.3205 -0.3529
  256TMC3    O1 3888   2.301   0.026   9.839 -0.0463  0.3040 -0.1517
  256TMC3    O2 3889   2.443   0.510   9.600 -0.2048  0.2405  0.7720
  257MPD2     C 3890   2.319   2.051  13.165 -0.1859  0.7693 -0.2290
  257MPD2    C1 3891   2.327   1.982  13.049 -0.5339  0.2844  0.0848
  257MPD2    C2 3892   2.368   1.845  13.063  0.6700 -0.1643  0.2535
  257MPD2    C3 3893   2.393   1.783  13.186  0.1361 -1.0231  0.0649
  257MPD2    C4 3894   2.390   1.867  13.297  0.7179  0.2388 -0.1696
  257MPD2    C5 3895   2.349   1.998  13.286  0.2697  0.6709  0.0216
  257MPD2     H 3896   2.370   1.782  12.975 -0.5506  0.6610 -0.3640
  257MPD2    H1 3897   2.410   1.829  13.397  1.8244 -0.6076 -0.7235
  257MPD2    H2 3898   2.278   2.152  13.158  0.6855  1.0039 -1.9535
  257MPD2    H3 3899   2.347   2.053  13.380 -1.9705 -0.0204  0.3771
  257MPD2     N 3900   2.436   1.648  13.186 -0.2821 -0.3898 -1.0844
  257MPD2    H5 3901   2.453   1.613  13.092 -2.0237  0.7075 -1.8141
  257MPD2    N1 3902   2.286   2.039  12.926 -0.2504 -0.2751  0.2850
  257MPD2    H7 3903   2.271   2.139  12.924  1.6645  0.0282  1.3394
  258TMC3    C1 3904   2.524   1.447  13.274 -0.4484  0.2542  0.0305
  258TMC3    C2 3905   2.498   1.384  13.157  0.9005 -0.0755  0.9888
  258TMC3    C3 3906   2.554   1.266  13.134  0.6140  0.8320  0.0443
  258TMC3    C4 3907   2.583   1.385  13.382 -0.4445  0.3251 -0.5850
  258TMC3    C5 3908   2.624   1.255  13.360  1.1509  0.3080 -0.1561
  258TMC3    C6 3909   2.611   1.196  13.240  0.7030  0.0009  0.0952
  258TMC3     C 3910   2.459   1.575  13.299  0.9466  0.3680 -0.1093
  258TMC3     O 3911   2.472   1.618  13.415 -0.0956  0.2049 -0.0231
  258TMC3     H 3912   2.430   1.430  13.086  0.9029 -1.7496 -0.0992
  258TMC3    H1 3913   2.575   1.422  13.483  1.0620  1.0500 -0.7249
  258TMC3    H2 3914   2.644   1.094  13.224 -0.3633 -0.5259  1.2351
  258TMC3    C7 3915   2.632   1.164  13.470 -0.4056 -0.2902  0.5317
  258TMC3    C8 3916   2.532   1.197  13.009  0.2524  0.1527  0.2084
  258TMC3    O1 3917   2.588   1.050  13.446  0.2700 -0.5345  0.3631
  258TMC3    O2 3918   2.563   1.080  13.006 -0.2557 -0.0842 -0.1966
  259MPD2     C 3919   1.424   3.377   1.051 -0.2775  0.0161  0.2229
  259MPD2    C1 3920   1.316   3.297   1.015 -0.4747 -0.1838 -0.2544
  259MPD2    C2 3921   1.320   3.244   0.883  0.9002  0.6407  0.0525
  259MPD2    C3 3922   1.424   3.279   0.797 -0.3713 -0.2910  0.8024
  259MPD2    C4 3923   1.531   3.350   0.846  0.3443 -0.2168 -0.0516
  259MPD2    C5 3924   1.528   3.406   0.969 -0.5843  0.5392 -0.4109
  259MPD2     H 3925   1.248   3.176   0.841 -0.1765  0.3616  2.3615
  259MPD2    H1 3926   1.623   3.375   0.795 -0.8232  3.0527 -0.5329
  259MPD2    H2 3927   1.437   3.432   1.144  0.5468  1.0388 -0.4994
  259MPD2    H3 3928   1.601   3.477   1.006 -0.1303  0.5728 -1.3536
  259MPD2     N 3929   1.423   3.226   0.663 -0.3155 -0.1393 -0.7033
  259MPD2    H5 3930   1.362   3.146   0.651  0.1163 -0.4250 -0.9947
  259MPD2    N1 3931   1.217   3.253   1.110  0.4924  0.1905 -0.0947
  259MPD2    H7 3932   1.233   3.286   1.205  3.0835 -0.7311 -0.2254
  260TMC3    C1 3933   1.512   3.189   0.443 -0.0303 -0.4914  0.6376
  260TMC3    C2 3934   1.618   3.213   0.365 -0.9003 -0.0327 -0.0197
  260TMC3    C3 3935   1.639   3.142   0.250 -0.1773 -0.1701  0.0327
  260TMC3    C4 3936   1.419   3.098   0.414  0.5741 -0.4312 -0.0453
  260TMC3    C5 3937   1.449   3.024   0.300 -0.3586  0.1240  0.2372
  260TMC3    C6 3938   1.548   3.052   0.209 -0.1377  0.0915 -0.5282
  260TMC3     C 3939   1.506   3.275   0.565  0.1139 -1.3595 -0.4079
  260TMC3     O 3940   1.585   3.370   0.566 -0.0188  0.2523  0.6873
  260TMC3     H 3941   1.679   3.301   0.382 -0.8353 -0.4582  1.8991
  260TMC3    H1 3942   1.323   3.091   0.465  2.4724 -1.5158  3.3546
  260TMC3    H2 3943   1.555   2.985   0.124  1.8561 -0.4236  0.0401
  260TMC3    C7 3944   1.381   2.895   0.278  0.1851  0.1373 -0.1808
  260TMC3    C8 3945   1.764   3.159   0.170  0.9660 -1.0175  0.1790
  260TMC3    O1 3946   1.395   2.843   0.168  0.4814  0.7895 -0.5419
  260TMC3    O2 3947   1.845   3.238   0.225  0.5558 -0.2757  0.3507
  261MPD2     C 3948   2.821   1.673  12.641 -0.2301  0.0574  0.3986
  261MPD2    C1 3949   2.925   1.739  12.707  0.2755  0.4300 -0.3582
  261MPD2    C2 3950   2.978   1.853  12.648 -0.2834 -0.4271  0.0916
  261MPD2    C3 3951   2.939   1.896  12.518 -0.2336  0.7434  0.0537
  261MPD2    C4 3952   2.837   1.824  12.459  1.0343  0.2358 -0.7768
  261MPD2    C5 3953   2.783   1.712  12.520 -0.6847  0.0483 -0.0062
  261MPD2     H 3954   3.061   1.906  12.693 -0.0600 -0.1489 -0.6569
  261MPD2    H1 3955   2.798   1.855  12.363  0.2615  2.9321  0.3815
  261MPD2    H2 3956   2.765   1.591  12.686 -2.7243  1.0154 -0.9337
  261MPD2    H3 3957   2.688   1.674  12.485 -0.5865  0.6672 -0.9459
  261MPD2     N 3958   3.000   2.008  12.463 -0.5071  0.1233 -0.4038
  261MPD2    H5 3959   3.082   2.044  12.509  0.5388 -2.2568 -0.4137
  261MPD2    N1 3960   2.982   1.692  12.834  0.2210 -0.3845 -0.9583
  261MPD2    H7 3961   3.046   1.760  12.873 -1.3688  1.1997 -1.1351
  262TMC3    C1 3962   3.068   2.163  12.310 -0.4811  0.2669 -0.0360
  262TMC3    C2 3963   3.024   2.261  12.224 -0.2298 -0.3996  0.1376
  262TMC3    C3 3964   3.116   2.338  12.169  0.0512 -0.3405 -0.1465
  262TMC3    C4 3965   3.202   2.142  12.339  0.0420 -0.1341  0.9050
  262TMC3    C5 3966   3.292   2.222  12.264 -0.3496  0.1972 -0.2122
  262TMC3    C6 3967   3.247   2.326  12.192  0.7840  0.0367 -0.3225
  262TMC3     C 3968   2.966   2.068  12.346 -0.0307  0.0138  0.2838
  262TMC3     O 3969   2.891   2.040  12.254 -0.3443  0.0486  0.2702
  262TMC3     H 3970   2.919   2.276  12.202 -0.7897 -0.9476  2.4724
  262TMC3    H1 3971   3.237   2.059  12.398 -2.0759 -1.6207  0.0606
  262TMC3    H2 3972   3.314   2.405  12.160  1.4380 -0.1897  0.4837
  262TMC3    C7 3973   3.369   2.138  12.174 -0.4174 -0.0300  0.7746
  262TMC3    C8 3974   3.082   2.423  12.056  0.0530  0.4862  0.5716
  262TMC3    O1 3975   3.390   2.023  12.214 -0.5088 -0.3399 -0.2782
  262TMC3    O2 3976   3.174   2.493  12.018 -0.1416  0.3221 -0.0510
  263MPD2     C 3977   4.093   1.197  11.174 -0.4895  0.5432  1.1244
  263MPD2    C1 3978   4.209   1.269  11.200  0.0311  0.2577  0.1355
  263MPD2    C2 3979   4.271   1.339  11.091 -0.2410  0.1146 -0.2637
  263MPD2    C3 3980   4.213   1.326  10.965 -0.2139  0.6222  0.0373
  263MPD2    C4 3981   4.103   1.246  10.940 -0.6851 -0.6074  0.2827
  263MPD2    C5 3982   4.043   1.182  11.046 -0.3474 -0.1725  0.3844
  263MPD2     H 3983   4.363   1.395  11.096  0.1790 -0.5660 -0.4389
  263MPD2    H1 3984   4.059   1.225  10.843 -0.3708 -3.5883  0.7820
  263MPD2    H2 3985   4.050   1.139  11.255 -1.9639 -1.1639 -0.8829
  263MPD2    H3 3986   3.960   1.115  11.026 -1.7716  1.8869 -0.5411
  263MPD2     N 3987   4.274   1.400  10.856  0.7286 -0.0058 -0.2350
  263MPD2    H5 3988   4.351   1.460  10.885  0.2227 -0.3911  1.9029
  263MPD2    N1 3989   4.256   1.263  11.330  0.2167 -0.2905  0.0371
  263MPD2    H7 3990   4.196   1.215  11.396 -1.4172 -0.2289 -1.3787
  264TMC3    C1 3991   4.329   1.457  10.644  0.5110 -0.0256 -0.1299
  264TMC3    C2 3992   4.355   1.588  10.689 -0.0742 -0.1499  0.1135
  264TMC3    C3 3993   4.409   1.674  10.592  0.3362 -0.3395  0.4928
  264TMC3    C4 3994   4.375   1.406  10.524 -0.2455  0.0640  0.7981
  264TMC3    C5 3995   4.424   1.499  10.437 -0.3586  0.4636  0.1947
  264TMC3    C6 3996   4.438   1.629  10.460  0.6881  0.1569  0.6257
  264TMC3     C 3997   4.247   1.381  10.726 -0.2625 -0.4869  0.0534
  264TMC3     O 3998   4.194   1.286  10.669  0.1986  0.3873  0.0865
  264TMC3     H 3999   4.314   1.634  10.778  0.7365  0.6485  0.0748
  264TMC3    H1 4000   4.362   1.307  10.481  0.0687  1.1627 -1.8334
  264TMC3    H2 4001   4.479   1.703  10.393  2.1028 -1.2093 -0.0159
  264TMC3    C7 4002   4.499   1.455  10.326  0.0682  0.4160  0.3195
  264TMC3    C8 4003   4.491   1.792  10.630 -0.1438  0.0144 -0.1764
  264TMC3    O1 4004   4.561   1.348  10.336  0.1672  0.0773  0.1419
  264TMC3    O2 4005   4.574   1.836  10.552  0.0385  0.8387  0.0811
  265MPD2     C 4006   1.675   1.150  15.493  0.2536 -0.3239  0.0607
  265MPD2    C1 4007   1.716   1.275  15.458  0.2388 -0.4215  0.3684
  265MPD2    C2 4008   1.787   1.296  15.340  0.7519  0.1776 -0.1871
  265MPD2    C3 4009   1.793   1.193  15.255  0.0837 -0.2954  0.0395
  265MPD2    C4 4010   1.745   1.065  15.282 -0.2517  0.2375  0.6581
  265MPD2    C5 4011   1.701   1.044  15.407 -0.0681  0.0418 -0.1748
  265MPD2     H 4012   1.811   1.398  15.313  4.0446 -0.0812  1.6369
  265MPD2    H1 4013   1.760   0.979  15.219  1.5515  0.2335  1.0792
  265MPD2    H2 4014   1.627   1.116  15.585  0.8320 -4.7290 -1.2473
  265MPD2    H3 4015   1.666   0.944  15.431  0.7990 -0.3393 -0.4812
  265MPD2     N 4016   1.834   1.216  15.123 -0.0605 -0.6443  0.0098
  265MPD2    H5 4017   1.815   1.141  15.058  2.9512 -0.4485 -1.0822
  265MPD2    N1 4018   1.678   1.387  15.534  0.4050  0.0195  0.2328
  265MPD2    H7 4019   1.715   1.476  15.503  0.0351 -0.0023 -0.2818
  266TMC3    C1 4020   1.592   1.517  15.707  0.4537 -0.1847 -0.2487
  266TMC3    C2 4021   1.546   1.515  15.837  0.4644  0.4657 -0.6856
  266TMC3    C3 4022   1.457   1.610  15.879  0.1896  0.0149  0.3036
  266TMC3    C4 4023   1.550   1.612  15.614  0.0519 -0.4130 -0.4440
  266TMC3    C5 4024   1.464   1.705  15.664  0.0745  0.3468 -0.9465
  266TMC3    C6 4025   1.417   1.706  15.795  0.5090  0.3222 -0.1365
  266TMC3     C 4026   1.637   1.390  15.662  0.1843 -0.6895  0.6373
  266TMC3     O 4027   1.630   1.292  15.734  0.1598 -0.0973 -0.4130
  266TMC3     H 4028   1.576   1.439  15.908 -0.3312 -1.4294 -2.3838
  266TMC3    H1 4029   1.580   1.612  15.510 -1.8242 -0.1032 -0.9790
  266TMC3    H2 4030   1.348   1.781  15.831  0.6252 -0.3433  1.5074
  266TMC3    C7 4031   1.417   1.796  15.562  0.1575 -0.6246 -0.7605
  266TMC3    C8 4032   1.407   1.603  16.011  0.8402  0.1703  0.0759
  266TMC3    O1 4033   1.415   1.762  15.442  0.5113 -0.0359 -0.5039
  266TMC3    O2 4034   1.411   1.487  16.059 -0.2323  0.0171  0.0569
  267MPD2     C 4035   3.438   3.203  17.309  0.0549 -0.4829  1.2368
  267MPD2    C1 4036   3.566   3.214  17.262 -0.2373  0.6720  0.3366
  267MPD2    C2 4037   3.579   3.189  17.128 -0.2963  0.0132 -0.1455
  267MPD2    C3 4038   3.465   3.150  17.052  0.2342  0.4925 -0.7957
  267MPD2    C4 4039   3.342   3.141  17.103  0.1744  0.7684 -0.2851
  267MPD2    C5 4040   3.329   3.176  17.235  0.5209  0.1916 -0.2413
  267MPD2     H 4041   3.677   3.187  17.082 -0.6994 -0.3605 -0.9866
  267MPD2    H1 4042   3.256   3.119  17.041  0.0337 -0.1356  0.2223
  267MPD2    H2 4043   3.428   3.225  17.415 -2.7901  1.9644  0.4658
  267MPD2    H3 4044   3.234   3.161  17.284 -0.2853  0.2520 -1.8036
  267MPD2     N 4045   3.479   3.114  16.917 -0.7536  0.1596  0.0848
  267MPD2    H5 4046   3.392   3.094  16.869 -1.1615  0.8319  0.5450
  267MPD2    N1 4047   3.664   3.265  17.346  0.7219  0.9403  0.0323
  267MPD2    H7 4048   3.636   3.294  17.440 -3.8821 -0.2264 -0.9576
  268TMC3    C1 4049   3.862   3.360  17.410 -0.1694 -0.2420 -0.3355
  268TMC3    C2 4050   3.918   3.473  17.355 -0.2244 -1.1546 -0.1260
  268TMC3    C3 4051   3.941   3.577  17.441 -0.5713 -0.0866  0.2659
  268TMC3    C4 4052   3.829   3.352  17.543  0.1403  0.0174  0.3048
  268TMC3    C5 4053   3.865   3.451  17.629 -0.2294  0.5565  0.3942
  268TMC3    C6 4054   3.922   3.561  17.573  0.7428  0.1622 -0.4843
  268TMC3     C 4055   3.792   3.288  17.309  0.3072 -0.1493  0.1358
  268TMC3     O 4056   3.843   3.294  17.196 -0.1807  0.0105  0.2193
  268TMC3     H 4057   3.934   3.484  17.248  1.3930 -3.1296 -0.0853
  268TMC3    H1 4058   3.789   3.257  17.579 -1.1932  0.8022  0.9058
  268TMC3    H2 4059   3.950   3.648  17.633 -0.0399 -0.5793  0.9566
  268TMC3    C7 4060   3.863   3.432   0.069 -0.7877 -0.3264 -0.5285
  268TMC3    C8 4061   3.880   3.708  17.410  0.6058 -0.0722  0.2646
  268TMC3    O1 4062   3.861   3.317   0.108 -0.3846  0.1645  0.1836
  268TMC3    O2 4063   3.861   3.794  17.498  0.2864  0.4450  0.2177
  269MPD2     C 4064   4.236   2.269  15.453 -0.0492  0.2354 -0.0232
  269MPD2    C1 4065   4.108   2.299  15.478 -0.3507  0.6660  0.1555
  269MPD2    C2 4066   4.064   2.422  15.417  0.2112  0.4373  0.3141
  269MPD2    C3 4067   4.144   2.499  15.335  0.4339 -0.1266  0.5139
  269MPD2    C4 4068   4.271   2.464  15.326 -0.5045  0.5050 -0.3741
  269MPD2    C5 4069   4.317   2.346  15.380 -0.1085  0.5051 -0.3076
  269MPD2     H 4070   3.959   2.441  15.434  0.5053  1.6271  0.7871
  269MPD2    H1 4071   4.342   2.509  15.257 -0.0250  0.3834  0.0403
  269MPD2    H2 4072   4.282   2.185  15.503  0.5944  0.8195  0.3700
  269MPD2    H3 4073   4.424   2.329  15.377  0.0159  0.9953  1.9237
  269MPD2     N 4074   4.084   2.608  15.277 -0.4230 -0.4370 -0.6797
  269MPD2    H5 4075   3.992   2.640  15.305 -1.5212 -0.6427 -4.0383
  269MPD2    N1 4076   4.021   2.215  15.554 -0.0002 -0.4109  0.4727
  269MPD2    H7 4077   4.061   2.123  15.573 -0.9537 -0.9335 -0.0678
  270TMC3    C1 4078   3.825   2.118  15.639 -0.5537  0.4822  0.4761
  270TMC3    C2 4079   3.724   2.080  15.558 -0.0810  0.2450 -0.2306
  270TMC3    C3 4080   3.682   1.945  15.555 -0.2997 -0.1211  0.0822
  270TMC3    C4 4081   3.885   2.027  15.719 -0.5796  0.5302  0.3435
  270TMC3    C5 4082   3.827   1.898  15.729 -0.2126 -0.4383 -0.0815
  270TMC3    C6 4083   3.726   1.851  15.650  0.3884 -0.6007  0.0927
  270TMC3     C 4084   3.887   2.238  15.583 -0.2797  0.7208 -0.2326
  270TMC3     O 4085   3.819   2.340  15.576  0.1414  1.2756  0.3567
  270TMC3     H 4086   3.677   2.147  15.488  0.8541  2.2303  1.0279
  270TMC3    H1 4087   3.975   2.047  15.777  1.4987 -0.6767 -2.4699
  270TMC3    H2 4088   3.706   1.747  15.627 -0.9487 -0.3043 -0.0905
  270TMC3    C7 4089   3.915   1.800  15.776 -0.0972  0.0771 -0.2915
  270TMC3    C8 4090   3.653   1.912  15.419 -0.1132  0.2236  0.7059
  270TMC3    O1 4091   4.035   1.822  15.753 -0.3442  0.2687  0.5593
  270TMC3    O2 4092   3.651   1.999  15.330 -0.1676 -0.0474 -0.0952
  271MPD2     C 4093   3.154   1.949  13.878 -0.3962  0.2260  0.8597
  271MPD2    C1 4094   3.094   1.930  14.001 -0.6264  0.0305 -0.4304
  271MPD2    C2 4095   2.957   1.938  14.007 -0.3476 -0.2387  0.1121
  271MPD2    C3 4096   2.885   1.981  13.896  0.1743  0.3419  0.5767
  271MPD2    C4 4097   2.948   1.993  13.777 -0.3352 -0.4454  0.7076
  271MPD2    C5 4098   3.081   2.000  13.775 -0.7260  0.4151  0.2960
  271MPD2     H 4099   2.914   1.920  14.105 -1.1501 -0.1426 -0.2295
  271MPD2    H1 4100   2.887   2.007  13.689  2.7391  0.5567 -1.2913
  271MPD2    H2 4101   3.262   1.942  13.864 -0.5142 -1.6394  0.8328
  271MPD2    H3 4102   3.130   2.027  13.682 -1.2116 -0.8319 -0.3190
  271MPD2     N 4103   2.748   2.004  13.899  0.5786 -0.0089  0.1474
  271MPD2    H5 4104   2.717   2.045  13.811  1.5183 -1.3866 -0.8430
  271MPD2    N1 4105   3.165   1.872  14.108  0.0518  0.2094 -0.2538
  271MPD2    H7 4106   3.108   1.854  14.190 -0.9951  1.6597 -0.6599
  272TMC3    C1 4107   3.334   1.766  14.239 -0.1071 -0.1184 -0.3874
  272TMC3    C2 4108   3.437   1.677  14.222  0.7291  0.0518  0.0844
  272TMC3    C3 4109   3.472   1.598  14.327 -0.3053  0.2838 -0.0221
  272TMC3    C4 4110   3.261   1.770  14.348  0.4965 -0.3523  0.6953
  272TMC3    C5 4111   3.291   1.681  14.448 -0.0015  0.1184  0.0952
  272TMC3    C6 4112   3.392   1.598  14.444  0.1206 -0.3112  0.6114
  272TMC3     C 4113   3.294   1.830  14.113 -1.0901 -0.6817  0.2055
  272TMC3     O 4114   3.382   1.831  14.030 -0.2470  0.6935 -0.5472
  272TMC3     H 4115   3.502   1.674  14.136 -0.1108  0.8846 -0.5922
  272TMC3    H1 4116   3.200   1.856  14.373  0.1875  0.2877 -2.2662
  272TMC3    H2 4117   3.413   1.542  14.534  0.5076 -0.9646  0.1159
  272TMC3    C7 4118   3.265   1.710  14.586 -0.3180  0.3458  0.5304
  272TMC3    C8 4119   3.612   1.561  14.338 -0.5140 -0.1915  0.2849
  272TMC3    O1 4120   3.226   1.619  14.655 -0.3982 -0.2293  0.2392
  272TMC3    O2 4121   3.697   1.584  14.255  0.3434  0.2737  0.0733
  273MPD2     C 4122   4.387   4.528  11.612  0.5578 -0.1531  0.3688
  273MPD2    C1 4123   4.448   4.648  11.631  0.0566  0.3202 -0.4498
  273MPD2    C2 4124   4.438   0.022  11.535  0.5838  0.4794 -0.2486
  273MPD2    C3 4125   4.356   4.724  11.423  0.8472 -0.4448 -0.2259
  273MPD2    C4 4126   4.293   4.602  11.412 -0.4978  0.7049 -1.0952
  273MPD2    C5 4127   4.307   4.504  11.501  0.0152 -0.6711 -0.0679
  273MPD2     H 4128   4.500   0.111  11.539  1.5721 -0.1890 -1.0269
  273MPD2    H1 4129   4.264   4.567  11.313 -2.2041 -1.8569  0.3123
  273MPD2    H2 4130   4.403   4.452  11.688 -1.2912 -0.1155  0.7892
  273MPD2    H3 4131   4.282   4.404  11.468 -2.1278 -0.2284  0.1921
  273MPD2     N 4132   4.367   0.094  11.316 -0.1907 -0.2423  0.2363
  273MPD2    H5 4133   4.427   0.173  11.336  0.9571 -0.9780 -0.3201
  273MPD2    N1 4134   4.528   4.656  11.752 -0.1626 -0.5539 -0.1927
  273MPD2    H7 4135   4.522   4.579  11.817  1.0724  1.3309  2.1473
  274TMC3    C1 4136   4.332   0.190  11.106 -0.0401  0.0150 -0.7014
  274TMC3    C2 4137   4.227   0.227  11.023  0.5238 -0.3799  0.4517
  274TMC3    C3 4138   4.227   0.351  10.974 -0.1444  0.4142  0.3136
  274TMC3    C4 4139   4.447   0.263  11.129 -0.2977 -0.4248 -0.3932
  274TMC3    C5 4140   4.446   0.390  11.069 -0.2454  0.1753  0.8801
  274TMC3    C6 4141   4.337   0.434  10.993  0.2411 -0.0319 -0.0383
  274TMC3     C 4142   4.294   0.091  11.202 -0.4733  0.3662  1.1329
  274TMC3     O 4143   4.193   0.030  11.177 -0.2252 -0.6222 -0.2284
  274TMC3     H 4144   4.136   0.170  11.011  1.3074 -1.8123  1.1947
  274TMC3    H1 4145   4.521   0.232  11.201  0.8909 -1.1340 -1.9210
  274TMC3    H2 4146   4.318   0.541  10.983 -0.9287 -0.3392 -1.1471
  274TMC3    C7 4147   4.543   0.491  11.088  0.0142  0.3496  0.3681
  274TMC3    C8 4148   4.100   0.394  10.926 -0.6673 -0.4147  0.8283
  274TMC3    O1 4149   4.534   0.599  11.030 -0.1690 -0.1813  0.5373
  274TMC3    O2 4150   3.998   0.325  10.932  0.2212  0.0934  0.3983
  275MPD2     C 4151   4.402   3.046  13.969  0.2291 -1.3262  0.7943
  275MPD2    C1 4152   4.371   3.001  14.097  0.4287  0.3831  0.6720
  275MPD2    C2 4153   4.259   2.925  14.117 -0.0676 -0.2940 -0.8209
  275MPD2    C3 4154   4.170   2.909  14.013 -0.1385  0.3832 -0.0662
  275MPD2    C4 4155   4.202   2.943  13.885  0.2093  0.0460 -0.0590
  275MPD2    C5 4156   4.309   3.022  13.867 -0.3851 -0.3003  0.8296
  275MPD2     H 4157   4.241   2.886  14.217  0.0601  2.4116  0.2507
  275MPD2    H1 4158   4.135   2.934  13.800  1.6433  2.2964 -1.4427
  275MPD2    H2 4159   4.490   3.104  13.946  0.6819 -1.9355  0.9832
  275MPD2    H3 4160   4.343   3.048  13.768  0.5081 -2.8730  0.4656
  275MPD2     N 4161   4.039   2.866  14.045  0.0177  0.3162  0.0746
  275MPD2    H5 4162   4.015   2.854  14.143  0.4329 -1.8500 -0.0922
  275MPD2    N1 4163   4.461   3.016  14.205  0.3863 -0.0817  0.5195
  275MPD2    H7 4164   4.438   2.971  14.293  2.1142 -1.4563  0.2738
  276TMC3    C1 4165   4.665   3.029  14.296  0.1074  0.0180 -0.0674
  276TMC3    C2 4166   4.668   2.895  14.311  0.0778 -0.5441  0.3932
  276TMC3    C3 4167   0.056   2.837  14.361  0.4328  0.2766  0.2809
  276TMC3    C4 4168   0.049   3.108  14.324 -0.2891  0.5943  0.1040
  276TMC3    C5 4169   0.166   3.045  14.359 -0.2059 -0.1353 -0.6977
  276TMC3    C6 4170   0.171   2.910  14.385 -0.3687 -0.1395 -0.2384
  276TMC3     C 4171   4.578   3.086  14.198  0.2929 -0.2627 -0.0280
  276TMC3     O 4172   4.625   3.174  14.131 -0.0260 -0.0341 -0.5006
  276TMC3     H 4173   4.584   2.829  14.291  0.0574 -0.0489 -1.1488
  276TMC3    H1 4174   0.034   3.215  14.316 -0.7458  0.3408 -2.3297
  276TMC3    H2 4175   0.259   2.866  14.431  0.2125 -0.4079 -1.6154
  276TMC3    C7 4176   0.258   3.117  14.449  0.6446 -0.8403 -0.8272
  276TMC3    C8 4177   0.066   2.693  14.369  0.1334 -0.0508 -1.0435
  276TMC3    O1 4178   0.222   3.211  14.518 -0.7594 -0.3030  0.0785
  276TMC3    O2 4179   0.141   2.649  14.457  0.3647 -0.0649 -0.2829
  277MPD2     C 4180   1.395   1.968  13.202  0.3120  0.0432  0.2457
  277MPD2    C1 4181   1.287   2.038  13.237  0.5210  0.3855 -0.2092
  277MPD2    C2 4182   1.228   2.004  13.363  0.3791  0.8099  0.4140
  277MPD2    C3 4183   1.273   1.897  13.433 -0.0159  0.3023 -0.0488
  277MPD2    C4 4184   1.367   1.809  13.379  0.3737  0.4316  0.2434
  277MPD2    C5 4185   1.432   1.853  13.268 -0.3049 -0.1633  0.5249
  277MPD2     H 4186   1.160   2.077  13.406 -1.2703 -0.7577  0.4508
  277MPD2    H1 4187   1.395   1.722  13.438 -1.5528  0.0907  0.6562
  277MPD2    H2 4188   1.449   1.992  13.111 -0.6210 -0.0184 -0.3328
  277MPD2    H3 4189   1.516   1.794  13.233  1.4275  1.6165  1.6800
  277MPD2     N 4190   1.234   1.879  13.566 -0.0407  1.0575 -0.5175
  277MPD2    H5 4191   1.137   1.902  13.585 -0.2089  0.8041 -1.0711
  277MPD2    N1 4192   1.255   2.149  13.157 -0.2642  0.6329  0.0206
  277MPD2    H7 4193   1.311   2.175  13.076 -0.6076  0.7544 -0.1749
  278TMC3    C1 4194   1.260   1.779  13.784  0.5043 -0.1079 -1.0774
  278TMC3    C2 4195   1.353   1.724  13.868 -0.1267  0.3138  0.0578
  278TMC3    C3 4196   1.330   1.743  14.003 -0.1933 -0.5972  0.1652
  278TMC3    C4 4197   1.142   1.836  13.831 -0.4598  0.0597 -0.1460
  278TMC3    C5 4198   1.123   1.846  13.968  0.5162 -0.7014  0.0315
  278TMC3    C6 4199   1.223   1.810  14.055 -0.0731 -0.9098  0.5594
  278TMC3     C 4200   1.319   1.839  13.664 -0.5510 -0.0241  0.4794
  278TMC3     O 4201   1.438   1.819  13.655  0.7797  0.5194 -0.5710
  278TMC3     H 4202   1.438   1.673  13.825 -2.0929 -0.3190 -3.1498
  278TMC3    H1 4203   1.071   1.887  13.767 -1.0473  2.2290  2.2473
  278TMC3    H2 4204   1.201   1.809  14.161 -1.0889  0.9852  0.3638
  278TMC3    C7 4205   0.990   1.882  14.017  0.4498 -0.1181  0.0608
  278TMC3    C8 4206   1.388   1.643  14.092  0.7087  0.8575 -0.7056
  278TMC3    O1 4207   0.984   1.919  14.134  0.1440 -0.6560  0.4363
  278TMC3    O2 4208   1.378   1.656  14.210  0.5252  0.0833 -0.1168
  279MPD2     C 4209   4.197   1.650  17.446  0.4364 -0.2687  0.9760
  279MPD2    C1 4210   4.275   1.748  17.504 -0.4655 -0.3304 -0.0923
  279MPD2    C2 4211   4.388   1.779  17.441  0.3045 -0.3363 -0.7439
  279MPD2    C3 4212   4.433   1.715  17.331 -0.5061  0.4069 -0.8995
  279MPD2    C4 4213   4.360   1.616  17.276  0.6016  0.8350  0.0377
  279MPD2    C5 4214   4.245   1.576  17.341 -0.3421  0.2851  0.2787
  279MPD2     H 4215   4.450   1.862  17.469 -0.1396  1.0551 -3.8894
  279MPD2    H1 4216   4.393   1.561  17.189 -0.4957 -0.8266  0.6688
  279MPD2    H2 4217   4.099   1.623  17.481 -0.8579  3.3344  0.0839
  279MPD2    H3 4218   4.192   1.496  17.290  2.1209  0.0261 -1.9168
  279MPD2     N 4219   4.552   1.748  17.260  0.0682 -0.0209 -0.1184
  279MPD2    H5 4220   4.569   1.695  17.175  0.5100 -1.0448  0.6101
  279MPD2    N1 4221   4.223   1.827  17.610 -0.1210  0.2566  0.7607
  279MPD2    H7 4222   4.127   1.805  17.635  0.5084  0.6452  3.4846
  280TMC3    C1 4223   4.221   2.006   0.068  0.3831 -1.0085  0.0356
  280TMC3    C2 4224   4.088   1.995   0.088 -0.0078  0.9374 -0.0672
  280TMC3    C3 4225   4.028   2.096   0.152 -0.6394  0.2385  0.0822
  280TMC3    C4 4226   4.291   2.117   0.101 -0.1897 -0.4609 -0.3521
  280TMC3    C5 4227   4.227   2.211   0.169  0.7532 -0.3876 -0.3329
  280TMC3    C6 4228   4.095   2.202   0.189  0.9236 -0.0125 -0.0885
  280TMC3     C 4229   4.295   1.923  17.679  0.3024  0.6134 -0.6727
  280TMC3     O 4230   4.415   1.945  17.668  0.0490 -0.1334  0.6601
  280TMC3     H 4231   4.031   1.909   0.055 -0.7683  1.6242 -0.5572
  280TMC3    H1 4232   4.399   2.120   0.090 -0.0077 -0.7336  1.3255
  280TMC3    H2 4233   4.035   2.288   0.215  0.4637 -1.0959  2.4676
  280TMC3    C7 4234   4.290   2.341   0.153  0.3051  0.2920  0.2856
  280TMC3    C8 4235   3.894   2.089   0.199 -0.2787  0.3565  0.2820
  280TMC3    O1 4236   4.260   2.428   0.232 -0.0953 -0.0688 -0.0151
  280TMC3    O2 4237   3.851   2.191   0.257  0.3315  0.1157  0.0192
  281TMC3    C1 4238   4.045   2.248  13.188 -0.3864  0.4321  0.5506
  281TMC3    C2 4239   4.130   2.345  13.156 -0.1953 -0.1746  0.0556
  281TMC3    C3 4240   4.203   2.325  13.037 -0.1155  0.3576 -0.3772
  281TMC3    C4 4241   4.030   2.132  13.123 -0.1759  0.1679 -0.4316
  281TMC3    C5 4242   4.110   2.115  13.017 -0.3043 -0.4502  0.1826
  281TMC3    C6 4243   4.195   2.212  12.963 -0.1856  0.1143  0.0047
  281TMC3     C 4244   3.925   2.291  13.247  0.1553 -0.0408  0.0726
  281TMC3     O 4245   3.844   2.208  13.283 -0.7564 -0.1467 -0.2932
  281TMC3     H 4246   4.139   2.441  13.205 -0.2440 -1.2904  2.2261
  281TMC3    H1 4247   3.968   2.051  13.159 -2.3484  1.9320 -0.1755
  281TMC3    H2 4248   4.242   2.210  12.865  0.4943  0.9808  0.3161
  281TMC3    C7 4249   4.088   2.010  12.922 -0.5045  0.4289  0.4650
  281TMC3    C8 4250   4.162   2.430  12.950 -0.2872  0.1275 -0.0129
  281TMC3    O1 4251   4.109   2.038  12.802 -0.1507 -0.6822 -0.4312
  281TMC3    O2 4252   4.090   2.406  12.856  0.2390  1.1364 -0.7470
  282MPD2     C 4253   1.370   3.233  14.799  0.1832 -1.0293  0.2001
  282MPD2    C1 4254   1.284   3.321  14.863 -0.2856 -0.1326 -0.0901
  282MPD2    C2 4255   1.163   3.348  14.799 -0.0711  0.1667  0.3996
  282MPD2    C3 4256   1.128   3.279  14.683  0.0746  0.4405 -0.8793
  282MPD2    C4 4257   1.210   3.179  14.629  0.2815 -0.2818  0.0806
  282MPD2    C5 4258   1.329   3.166  14.688  0.3815 -0.4725 -0.2611
  282MPD2     H 4259   1.104   3.424  14.849  1.4831  1.8758 -0.3549
  282MPD2    H1 4260   1.189   3.135  14.533  3.2932 -1.6203  0.0228
  282MPD2    H2 4261   1.462   3.206  14.851  1.2759  2.1619 -0.1167
  282MPD2    H3 4262   1.400   3.091  14.656  1.0022  0.5032 -1.1834
  282MPD2     N 4263   1.010   3.318  14.616  0.0152  0.0119  0.7086
  282MPD2    H5 4264   0.947   3.385  14.659 -2.2053  0.0730 -2.7212
  282MPD2    N1 4265   1.305   3.388  14.989  0.1208  0.0126  0.4867
  282MPD2    H7 4266   1.225   3.438  15.027 -0.9167 -0.5668 -0.9777
  283TMC3    C1 4267   1.394   3.421  15.215  0.0398 -0.5128  0.1841
  283TMC3    C2 4268   1.506   3.446  15.287 -0.0835  0.7696  0.3041
  283TMC3    C3 4269   1.485   3.472  15.419 -0.1912  0.2005  0.1331
  283TMC3    C4 4270   1.276   3.392  15.275 -0.2429 -0.2383 -0.7084
  283TMC3    C5 4271   1.257   3.408  15.412  0.1343 -0.0823 -0.6980
  283TMC3    C6 4272   1.365   3.447  15.487  1.1979 -0.5097 -0.1388
  283TMC3     C 4273   1.413   3.369  15.077  0.4108 -0.0966  0.4135
  283TMC3     O 4274   1.514   3.303  15.067  0.6981  0.0592  0.2303
  283TMC3     H 4275   1.599   3.461  15.233  0.8064 -2.1689  1.0234
  283TMC3    H1 4276   1.198   3.354  15.210  0.9879 -0.6874 -1.9202
  283TMC3    H2 4277   1.349   3.474  15.591 -1.2449 -0.4666 -0.5309
  283TMC3    C7 4278   1.126   3.383  15.477  0.7451  0.0827  0.0258
  283TMC3    C8 4279   1.573   3.564  15.485  0.3305  0.0154 -0.3527
  283TMC3    O1 4280   1.128   3.402  15.595  0.3260  0.0766  0.4726
  283TMC3    O2 4281   1.586   3.557  15.604 -1.0987  0.2691 -0.2681
  284MPD2     C 4282   3.918   2.863  10.991 -0.1525  0.5191  0.3887
  284MPD2    C1 4283   4.036   2.869  10.923  1.3929  0.5256  0.4062
  284MPD2    C2 4284   4.152   2.810  10.980 -0.0193 -0.6923  0.8301
  284MPD2    C3 4285   4.150   2.762  11.109 -0.3885 -0.0457 -0.8592
  284MPD2    C4 4286   4.031   2.761  11.184  0.2873  0.1549  0.7161
  284MPD2    C5 4287   3.918   2.814  11.120  0.8869  0.3138 -0.1053
  284MPD2     H 4288   4.243   2.795  10.923 -1.3694  4.0599 -2.5574
  284MPD2    H1 4289   4.030   2.721  11.285 -2.1153 -1.5029  0.0545
  284MPD2    H2 4290   3.825   2.900  10.950 -0.3165 -1.0939 -0.6915
  284MPD2    H3 4291   3.823   2.816  11.171 -0.7196 -1.8482 -3.0080
  284MPD2     N 4292   4.269   2.724  11.173 -0.4710 -0.5448 -0.7905
  284MPD2    H5 4293   4.263   2.684  11.266 -2.2021  1.8232  0.1013
  284MPD2    N1 4294   4.036   2.918  10.797 -0.0334  0.2789 -0.5363
  284MPD2    H7 4295   4.123   2.902  10.748  1.7568 -0.2161  2.8026
  285TMC3    C1 4296   3.997   3.057  10.622  0.4521  0.5413  0.0655
  285TMC3    C2 4297   4.046   2.964  10.533 -0.6326 -0.2581 -0.1864
  285TMC3    C3 4298   4.088   3.015  10.416  0.0545 -0.2097 -0.8155
  285TMC3    C4 4299   4.001   3.189  10.599  0.4047  0.0485 -0.0099
  285TMC3    C5 4300   4.043   3.235  10.479  0.2913  0.1274  0.1849
  285TMC3    C6 4301   4.093   3.151  10.391 -0.2420  0.2899 -1.0426
  285TMC3     C 4302   3.956   3.010  10.750  0.5526  0.0260 -0.0796
  285TMC3     O 4303   3.869   3.079  10.806  0.5079  0.3311  0.3673
  285TMC3     H 4304   4.047   2.857  10.554 -3.5690  0.2813  2.5786
  285TMC3    H1 4305   3.971   3.262  10.674 -1.9069 -0.3200 -0.5582
  285TMC3    H2 4306   4.125   3.191  10.296  0.6510  2.3483  0.1090
  285TMC3    C7 4307   4.098   3.367  10.474  0.5000  0.4881 -0.7285
  285TMC3    C8 4308   4.188   2.933  10.350 -0.4904  0.2020  0.1312
  285TMC3    O1 4309   4.207   3.372  10.414 -0.0476 -0.0604 -0.2416
  285TMC3    O2 4310   4.211   2.824  10.403  0.0026 -0.4969  0.5079
  286MPD2     C 4311   4.326   1.893   1.543  0.3234  0.5512 -0.1584
  286MPD2    C1 4312   4.323   1.905   1.408 -0.3697  0.3567 -0.3980
  286MPD2    C2 4313   4.442   1.912   1.340  0.0958  0.5344 -0.2988
  286MPD2    C3 4314   4.562   1.926   1.404 -0.4282  0.0402 -0.0463
  286MPD2    C4 4315   4.568   1.929   1.545 -0.3070 -0.2156 -0.4538
  286MPD2    C5 4316   4.450   1.916   1.609 -0.7460 -0.0881 -0.7396
  286MPD2     H 4317   4.439   1.900   1.232 -0.0034 -0.8120 -0.1479
  286MPD2    H1 4318   4.657   1.946   1.605 -0.9906 -0.2934  0.5771
  286MPD2    H2 4319   4.244   1.895   1.614  0.0959  0.2978 -0.4161
  286MPD2    H3 4320   4.451   1.917   1.717 -0.8012 -3.8872 -0.7102
  286MPD2     N 4321   4.688   1.919   1.342  0.0969  0.2386  0.6385
  286MPD2    H5 4322   0.046   1.920   1.400  1.5180 -0.5263 -1.4325
  286MPD2    N1 4323   4.199   1.904   1.336 -0.1205 -0.1706  0.1690
  286MPD2    H7 4324   4.203   1.895   1.235 -1.5749 -0.9673  0.1832
  287TMC3    C1 4325   0.119   1.935   1.172 -0.0939 -0.1882 -0.2485
  287TMC3    C2 4326   0.152   1.889   1.053  0.4558 -0.5024 -0.1168
  287TMC3    C3 4327   0.286   1.852   1.035  0.5974 -0.0707 -0.2466
  287TMC3    C4 4328   0.212   1.962   1.269 -0.5262 -0.0028  0.0905
  287TMC3    C5 4329   0.339   1.927   1.242 -0.2291 -0.0443  0.8105
  287TMC3    C6 4330   0.388   1.871   1.128  0.2217  0.2920  0.7820
  287TMC3     C 4331   4.709   1.928   1.209  0.5470  0.1178 -0.0221
  287TMC3     O 4332   4.632   1.930   1.113 -0.0364  0.4217 -0.0668
  287TMC3     H 4333   0.072   1.876   0.980 -0.1514 -1.7387  0.7646
  287TMC3    H1 4334   0.181   2.014   1.359 -3.6319 -0.9995 -0.4070
  287TMC3    H2 4335   0.491   1.843   1.107  0.3427 -1.0536  3.1657
  287TMC3    C7 4336   0.442   1.965   1.340 -0.4976 -0.1641  0.6830
  287TMC3    C8 4337   0.311   1.764   0.923  0.3315 -0.2330  0.1200
  287TMC3    O1 4338   0.411   2.033   1.436  0.1613  0.4938  0.5180
  287TMC3    O2 4339   0.413   1.698   0.912 -0.6665  0.2229  0.3605
  288TMC3    C1 4340   1.391   1.314  14.474  0.0481 -0.2275 -0.0609
  288TMC3    C2 4341   1.404   1.232  14.581 -0.5509 -0.2200 -0.6571
  288TMC3    C3 4342   1.460   1.279  14.693 -0.8105 -0.0794 -0.5444
  288TMC3    C4 4343   1.441   1.445  14.474 -0.3003  0.4853  0.3928
  288TMC3    C5 4344   1.497   1.486  14.590 -0.2393  0.0997 -0.0143
  288TMC3    C6 4345   1.519   1.401  14.697 -0.3456  0.1469  0.2155
  288TMC3     C 4346   1.319   1.278  14.352  0.0393  0.4343  0.3267
  288TMC3     O 4347   1.241   1.361  14.309 -0.2321 -0.2884  0.2492
  288TMC3     H 4348   1.381   1.126  14.575  0.2468 -0.4978  1.1959
  288TMC3    H1 4349   1.422   1.511  14.390 -1.5770  0.2810  0.5242
  288TMC3    H2 4350   1.576   1.433  14.784 -0.5463 -0.8733  0.7216
  288TMC3    C7 4351   1.574   1.610  14.585 -0.0549 -0.0075  0.2975
  288TMC3    C8 4352   1.475   1.209  14.820 -0.1792  0.6564  0.3947
  288TMC3    O1 4353   1.658   1.633  14.675  0.4048  0.2153 -0.1161
  288TMC3    O2 4354   1.564   1.235  14.901 -0.0234 -0.2886  0.6105
  289MPD2     C 4355   1.827   0.573  14.747 -0.1126  0.0499 -0.3572
  289MPD2    C1 4356   1.781   0.613  14.620 -0.3305 -0.7818 -0.7756
  289MPD2    C2 4357   1.667   0.551  14.562 -0.4419  0.6135 -0.6395
  289MPD2    C3 4358   1.591   0.470  14.637  0.4418 -0.0793  0.4195
  289MPD2    C4 4359   1.635   0.437  14.765 -0.6026 -0.3895  0.7055
  289MPD2    C5 4360   1.748   0.488  14.820  0.4549 -0.2304  0.4754
  289MPD2     H 4361   1.652   0.572  14.456  1.4818  2.2614 -0.5685
  289MPD2    H1 4362   1.583   0.370  14.833 -0.3920  0.4635  1.7004
  289MPD2    H2 4363   1.907   0.621  14.803 -0.0195  0.8919 -1.2180
  289MPD2    H3 4364   1.784   0.443  14.912 -2.4774 -4.4292 -0.4289
  289MPD2     N 4365   1.474   0.418  14.586 -0.3306 -0.4446  0.2876
  289MPD2    H5 4366   1.419   0.353  14.642 -0.1988 -1.0909 -0.3327
  289MPD2    N1 4367   1.865   0.709  14.554 -0.1161 -0.0338 -0.5531
  289MPD2    H7 4368   1.948   0.739  14.603 -1.2666 -2.8456  3.1070
  290TMC3    C1 4369   1.269   0.434  14.474  0.1758 -0.4408 -0.7453
  290TMC3    C2 4370   1.181   0.516  14.416  0.1479 -0.4644 -0.3475
  290TMC3    C3 4371   1.048   0.490  14.443  0.0686 -0.0626 -0.2676
  290TMC3    C4 4372   1.230   0.313  14.526 -0.3065  0.3019  0.0348
  290TMC3    C5 4373   1.095   0.284  14.540  0.8224  0.0398 -0.1717
  290TMC3    C6 4374   1.001   0.384  14.513  0.4749 -0.0329  0.6657
  290TMC3     C 4375   1.406   0.468  14.474  0.1801 -0.0038 -0.4470
  290TMC3     O 4376   1.430   0.566  14.406  0.3276  0.1847 -0.1227
  290TMC3     H 4377   1.215   0.606  14.367 -2.0458  0.8516  0.5619
  290TMC3    H1 4378   1.301   0.232  14.542  3.1324  3.4777  0.9387
  290TMC3    H2 4379   0.894   0.370  14.517  0.2984  1.1899  0.0408
  290TMC3    C7 4380   1.051   0.146  14.536 -0.3042  0.1351 -0.9425
  290TMC3    C8 4381   0.954   0.598  14.415  0.6013 -0.4963  0.1274
  290TMC3    O1 4382   1.135   0.063  14.507 -0.3385 -0.1400 -0.3094
  290TMC3    O2 4383   0.849   0.559  14.362 -0.7396 -0.2146  0.1209
  291MPD2     C 4384   1.023   0.138   0.401  0.4832 -0.0116  0.0285
  291MPD2    C1 4385   0.959   0.046   0.315  0.7445  0.3597  0.8174
  291MPD2    C2 4386   1.027   0.008   0.201 -0.5237 -0.2628 -0.4350
  291MPD2    C3 4387   1.159   0.041   0.180  0.1504 -0.1341 -0.6638
  291MPD2    C4 4388   1.218   0.125   0.267 -0.2525 -0.3926 -0.0588
  291MPD2    C5 4389   1.148   0.176   0.371  0.0233 -0.1300 -0.6559
  291MPD2     H 4390   0.971   4.675   0.128  1.2837  0.9756 -2.7890
  291MPD2    H1 4391   1.321   0.159   0.259  0.2871 -1.7732  1.1088
  291MPD2    H2 4392   0.990   0.172   0.499 -0.6940 -3.5914  0.8968
  291MPD2    H3 4393   1.201   0.236   0.444 -1.1289 -0.4526  0.4569
  291MPD2     N 4394   1.237   4.723   0.062 -0.3327  1.5774  0.1295
  291MPD2    H5 4395   1.337   0.015   0.072 -0.1234 -0.0508  0.9124
  291MPD2    N1 4396   0.833   4.713   0.341 -0.2050  0.9212 -0.0381
  291MPD2    H7 4397   0.799   4.646   0.272  1.6468  0.8508 -0.8635
  292TMC3    C1 4398   0.617   4.680   0.413 -0.0600 -0.1883  0.0680
  292TMC3    C2 4399   0.502   0.019   0.459  0.4663  0.0297 -0.7943
  292TMC3    C3 4400   0.381   4.687   0.431 -0.1764  0.6383  0.0258
  292TMC3    C4 4401   0.605   4.573   0.324 -0.2698 -0.8400  0.4376
  292TMC3    C5 4402   0.482   4.527   0.288 -0.4040 -0.1869 -0.6370
  292TMC3    C6 4403   0.367   4.579   0.344 -0.0964 -0.2640 -0.2044
  292TMC3     C 4404   0.744   0.028   0.433 -0.0793 -0.1967  0.0620
  292TMC3     O 4405   0.753   0.112   0.519  0.2689  0.7602  0.1541
  292TMC3     H 4406   0.525   0.085   0.542  0.2913  1.8041 -2.1588
  292TMC3    H1 4407   0.685   4.502   0.308 -0.2974 -0.6923 -0.3483
  292TMC3    H2 4408   0.272   4.528   0.328 -0.5125  0.3518  0.2908
  292TMC3    C7 4409   0.470   4.402   0.210 -0.4870  0.2960 -0.1819
  292TMC3    C8 4410   0.276   0.023   0.510  0.5438 -0.2448  0.5740
  292TMC3    O1 4411   0.573   4.338   0.191  0.0152  0.5716 -0.5264
  292TMC3    O2 4412   0.296   0.117   0.582  0.8754 -0.2920 -0.1237
  293MPD2     C 4413   2.431   1.964  12.344 -0.3214  0.3070 -0.6696
  293MPD2    C1 4414   2.385   1.868  12.431 -0.1890  0.1383  0.7015
  293MPD2    C2 4415   2.453   1.856  12.551  0.4978  0.6784  0.1139
  293MPD2    C3 4416   2.548   1.949  12.592 -0.1243  0.0437 -0.3542
  293MPD2    C4 4417   2.577   2.057  12.508 -0.4857  0.0123 -0.6838
  293MPD2    C5 4418   2.523   2.058  12.380  0.6127 -0.3528 -0.3113
  293MPD2     H 4419   2.431   1.771  12.615  1.5670  0.7178  0.5282
  293MPD2    H1 4420   2.643   2.138  12.537  0.0142 -0.6775  0.1042
  293MPD2    H2 4421   2.381   1.981  12.250  0.7113  1.6604 -0.9718
  293MPD2    H3 4422   2.551   2.140  12.314  0.6610  1.1684  1.5871
  293MPD2     N 4423   2.594   1.931  12.725  0.4733  0.2750  0.3216
  293MPD2    H5 4424   2.565   1.847  12.774 -0.5265 -0.3513 -1.3669
  293MPD2    N1 4425   2.276   1.782  12.396 -0.3638 -0.2686 -0.1542
  293MPD2    H7 4426   2.230   1.812  12.310 -1.1931  2.7309  1.3227
  294TMC3    C1 4427   2.098   1.624  12.415  0.2529  0.3538 -0.4127
  294TMC3    C2 4428   2.044   1.509  12.472  0.6704  0.2662  0.0045
  294TMC3    C3 4429   1.912   1.484  12.493 -0.1040  0.0576  0.0119
  294TMC3    C4 4430   2.007   1.721  12.378 -0.3497 -0.2543  0.0496
  294TMC3    C5 4431   1.873   1.693  12.394 -0.2025  0.7829  0.8871
  294TMC3    C6 4432   1.826   1.581  12.455  0.5772  0.4628  0.2048
  294TMC3     C 4433   2.238   1.664  12.455  0.0349  0.1735  0.3085
  294TMC3     O 4434   2.300   1.592  12.534  0.7891  1.1717  0.1070
  294TMC3     H 4435   2.116   1.435  12.504  0.6367  0.7985  1.2893
  294TMC3    H1 4436   2.028   1.819  12.337 -0.0544  0.1345  1.1365
  294TMC3    H2 4437   1.720   1.561  12.450  0.6572  1.3626 -4.4012
  294TMC3    C7 4438   1.770   1.758  12.306 -0.0851  0.4480 -0.3580
  294TMC3    C8 4439   1.871   1.343  12.494  0.3125 -0.0428  0.2320
  294TMC3    O1 4440   1.661   1.762  12.354 -0.3297 -0.4021  0.3789
  294TMC3    O2 4441   1.963   1.257  12.492  0.1734  0.0982  0.0486
  295MPD2     C 4442   2.842   4.192   0.849 -0.2206  0.2830 -0.0667
  295MPD2    C1 4443   2.876   4.312   0.804 -0.4162 -0.7413 -1.0276
  295MPD2    C2 4444   2.858   4.418   0.892  0.3506 -0.8920  0.4146
  295MPD2    C3 4445   2.798   4.410   1.016 -0.7026  0.9689 -0.0655
  295MPD2    C4 4446   2.761   4.281   1.057 -0.1022  0.5007  0.3152
  295MPD2    C5 4447   2.794   4.184   0.976 -0.3664 -0.1509  0.2938
  295MPD2     H 4448   2.885   4.515   0.852 -0.6800 -1.2818 -1.2425
  295MPD2    H1 4449   2.710   4.259   1.150  0.3396  1.0737  0.6949
  295MPD2    H2 4450   2.855   4.099   0.795  0.2543 -0.3773  1.1822
  295MPD2    H3 4451   2.773   4.083   1.008  0.2442 -0.4760 -0.3074
  295MPD2     N 4452   2.764   4.515   1.098  0.3109  0.1355 -0.2782
  295MPD2    H5 4453   2.718   4.492   1.186  0.1514  1.1830 -0.0815
  295MPD2    N1 4454   2.932   4.339   0.677 -0.9322 -0.4025 -0.1477
  295MPD2    H7 4455   2.963   4.434   0.660 -1.8050  0.3737  2.6416
  296TMC3    C1 4456   2.680   4.719   1.158  0.1868 -0.1351 -0.0238
  296TMC3    C2 4457   2.580   0.077   1.123 -0.9862  0.4526  0.4386
  296TMC3    C3 4458   2.502   0.142   1.214 -0.7026  0.1608 -0.5228
  296TMC3    C4 4459   2.702   4.701   1.290 -0.0730 -0.3108 -0.4386
  296TMC3    C5 4460   2.631   0.052   1.382 -0.9583  0.3669 -0.3069
  296TMC3    C6 4461   2.534   0.143   1.348 -0.0203 -0.7040 -0.2229
  296TMC3     C 4462   2.742   4.645   1.054  0.4800 -0.8630 -0.2149
  296TMC3     O 4463   2.737   4.680   0.935  0.4866  0.0460  0.0934
  296TMC3     H 4464   2.553   0.075   1.018  1.0953  3.4269 -0.1372
  296TMC3    H1 4465   2.786   4.644   1.326 -1.0446 -0.7128  1.1470
  296TMC3    H2 4466   2.477   0.197   1.422 -0.3825  0.2244 -1.1781
  296TMC3    C7 4467   2.657   0.049   1.528 -0.1341  0.3714  0.9612
  296TMC3    C8 4468   2.425   0.251   1.156  0.3014  0.2466  0.1847
  296TMC3    O1 4469   2.621   0.142   1.593  0.1586 -0.0423  0.0722
  296TMC3    O2 4470   2.376   0.214   1.050 -0.1002  0.3491 -0.1743
  297MPD2     C 4471   0.212   2.255  16.006 -0.1344 -0.1787  1.2999
  297MPD2    C1 4472   0.286   2.330  15.920  0.2332 -0.5395  0.4663
  297MPD2    C2 4473   0.416   2.359  15.961 -0.7634 -0.0963 -0.6455
  297MPD2    C3 4474   0.473   2.311  16.076 -0.4433  0.5288  0.0294
  297MPD2    C4 4475   0.393   2.232  16.157  0.2860  0.0287 -0.2858
  297MPD2    C5 4476   0.265   2.210  16.121 -0.2650 -0.0425 -0.5072
  297MPD2     H 4477   0.481   2.409  15.889 -0.1129  1.1796  0.8325
  297MPD2    H1 4478   0.434   2.182  16.244 -0.1928 -0.8273 -0.5492
  297MPD2    H2 4479   0.107   2.228  16.001  0.0583 -0.9992  1.7088
  297MPD2    H3 4480   0.212   2.148  16.192  0.8224  1.1388  1.3416
  297MPD2     N 4481   0.612   2.354  16.103 -0.1236  0.5111  0.3313
  297MPD2    H5 4482   0.656   2.410  16.032 -0.1599  1.2438  0.8886
  297MPD2    N1 4483   0.232   2.391  15.807  0.0982 -0.1311 -0.1811
  297MPD2    H7 4484   0.289   2.463  15.764 -0.5541 -0.6812 -1.9614
  298TMC3    C1 4485   0.061   2.446  15.657  0.2171  0.5665 -0.5624
  298TMC3    C2 4486   0.154   2.501  15.579  0.3467 -0.1045  0.2907
  298TMC3    C3 4487   0.100   2.588  15.487 -0.1688  0.7835  0.4600
  298TMC3    C4 4488   4.654   2.475  15.657 -0.3868 -0.3257  0.2534
  298TMC3    C5 4489   4.610   2.572  15.572 -0.6053 -0.3385 -0.1243
  298TMC3    C6 4490   4.699   2.633  15.488  0.0218 -0.0161  0.6204
  298TMC3     C 4491   0.108   2.358  15.758 -0.0833 -0.6015 -0.4014
  298TMC3     O 4492   0.032   2.272  15.795  0.2776  0.5576 -0.3056
  298TMC3     H 4493   0.251   2.458  15.559  0.4217  0.4330 -0.5164
  298TMC3    H1 4494   4.581   2.420  15.716  1.1510 -2.1670  0.4558
  298TMC3    H2 4495   4.658   2.707  15.420  0.4425 -1.2420 -0.9632
  298TMC3    C7 4496   4.485   2.632  15.610 -0.6989  0.2439  0.1960
  298TMC3    C8 4497   0.171   2.622  15.363  0.2670  0.5325  0.3285
  298TMC3    O1 4498   4.453   2.622  15.725  0.3030 -0.6693 -0.2340
  298TMC3    O2 4499   0.106   2.638  15.257  0.0674  0.0879 -0.0233
  299MPD2     C 4500   1.500   1.599  10.476 -0.3456 -0.2556 -0.2088
  299MPD2    C1 4501   1.424   1.708  10.514 -0.3243 -0.0791  0.7995
  299MPD2    C2 4502   1.288   1.708  10.482  0.4855 -0.1775  0.1114
  299MPD2    C3 4503   1.228   1.593  10.431 -0.0515 -1.4429 -0.2765
  299MPD2    C4 4504   1.310   1.487  10.395 -0.1781  0.1879 -0.4909
  299MPD2    C5 4505   1.445   1.491  10.422 -0.0190  0.8591  0.0464
  299MPD2     H 4506   1.230   1.797  10.503  2.7357  1.3904 -0.3075
  299MPD2    H1 4507   1.262   1.400  10.352  0.0466 -0.8651  1.4373
  299MPD2    H2 4508   1.608   1.595  10.479 -0.3272 -0.0364 -0.5123
  299MPD2    H3 4509   1.503   1.409  10.383 -0.8824 -0.2026  1.0156
  299MPD2     N 4510   1.094   1.585  10.388 -0.3984  0.1008 -0.4867
  299MPD2    H5 4511   1.060   1.497  10.352 -1.6727  0.8458 -1.1012
  299MPD2    N1 4512   1.494   1.811  10.578 -0.7929  0.0828  0.5800
  299MPD2    H7 4513   1.594   1.801  10.590 -0.8023 -0.9518 -0.2035
  300TMC3    C1 4514   0.887   1.647  10.299  0.0058 -0.2958  0.1085
  300TMC3    C2 4515   0.929   1.573  10.190 -0.4726  0.5947 -0.2966
  300TMC3    C3 4516   0.891   1.620  10.065  0.1359 -0.2260  0.0354
  300TMC3    C4 4517   0.794   1.742  10.287  0.3205 -0.1930 -0.5470
  300TMC3    C5 4518   0.755   1.787  10.166 -0.0972 -0.5129  0.1575
  300TMC3    C6 4519   0.796   1.719  10.055 -0.0759 -0.4957  0.8586
  300TMC3     C 4520   0.995   1.682  10.393  0.4995 -0.1417 -0.4410
  300TMC3     O 4521   0.998   1.793  10.445  0.6922 -0.2226 -0.7230
  300TMC3     H 4522   0.985   1.481  10.201  0.0487  0.9034 -0.4042
  300TMC3    H1 4523   0.778   1.813  10.367  0.7584 -1.3806  0.5984
  300TMC3    H2 4524   0.760   1.743   9.956 -0.1353 -2.4462  0.4035
  300TMC3    C7 4525   0.752   1.928  10.140 -0.5500  0.1328  0.1801
  300TMC3    C8 4526   1.002   1.640   9.981  0.0224 -1.1060  0.1240
  300TMC3    O1 4527   0.822   1.969  10.046 -0.1171  0.3295  0.0022
  300TMC3    O2 4528   1.088   1.553   9.987 -0.1428 -0.0280 -0.4084
  301MPD2     C 4529   2.078   2.979   1.436 -0.4892  0.2465  0.5660
  301MPD2    C1 4530   2.073   2.950   1.299  0.8092  0.8271 -0.2006
  301MPD2    C2 4531   2.097   2.824   1.252  0.1806  0.0090  0.9270
  301MPD2    C3 4532   2.150   2.730   1.338 -0.4799 -0.3548  0.1933
  301MPD2    C4 4533   2.156   2.753   1.469  0.2673 -0.5448 -0.7621
  301MPD2    C5 4534   2.120   2.878   1.520 -0.2899  0.3558  0.0262
  301MPD2     H 4535   2.095   2.803   1.146 -1.0653  3.1194  0.3244
  301MPD2    H1 4536   2.189   2.682   1.543  0.3777 -1.0884 -1.3317
  301MPD2    H2 4537   2.076   3.080   1.476 -1.2150  0.6964 -0.6192
  301MPD2    H3 4538   2.134   2.894   1.627 -0.9942 -1.2197  0.3548
  301MPD2     N 4539   2.188   2.601   1.294  0.0843  0.1612  0.2042
  301MPD2    H5 4540   2.231   2.548   1.369 -1.1584 -1.8695 -0.5393
  301MPD2    N1 4541   2.039   3.054   1.208  0.1080  0.6917 -0.0791
  301MPD2    H7 4542   2.028   3.018   1.114  1.4930  1.0776 -0.3784
  302TMC3    C1 4543   2.253   2.426   1.147 -0.1756  0.4157  0.8619
  302TMC3    C2 4544   2.372   2.411   1.208  0.5527  0.6972  0.1583
  302TMC3    C3 4545   2.459   2.320   1.155 -0.1258 -1.0396 -0.7127
  302TMC3    C4 4546   2.226   2.354   1.036 -0.4482  0.5686  0.2787
  302TMC3    C5 4547   2.308   2.264   0.982  0.1006  0.6270  0.4393
  302TMC3    C6 4548   2.433   2.243   1.044  0.9244  0.4699  0.2506
  302TMC3     C 4549   2.172   2.543   1.169  0.1839  0.8262 -0.0007
  302TMC3     O 4550   2.097   2.580   1.077 -0.5908 -0.3446 -0.2903
  302TMC3     H 4551   2.409   2.476   1.286 -1.2343  1.0420  0.7149
  302TMC3    H1 4552   2.129   2.370   0.990 -0.7733 -1.4058  0.2708
  302TMC3    H2 4553   2.511   2.185   0.997 -2.3332 -2.2139 -1.8273
  302TMC3    C7 4554   2.286   2.193   0.860 -0.7521 -0.0990 -0.3816
  302TMC3    C8 4555   2.592   2.294   1.207  0.3902  0.5267  0.1446
  302TMC3    O1 4556   2.327   2.081   0.867  0.6280  0.0797  0.1377
  302TMC3    O2 4557   2.680   2.262   1.124 -0.3367 -0.3219  0.4105
  303MPD2     C 4558   3.581   0.370  10.223  0.3017 -0.3439  1.3110
  303MPD2    C1 4559   3.451   0.341  10.197  0.2210  0.2715  0.3582
  303MPD2    C2 4560   3.387   0.398  10.088 -0.0249  0.0585 -0.3129
  303MPD2    C3 4561   3.452   0.483  10.011  0.5841 -0.1783  0.6095
  303MPD2    C4 4562   3.590   0.495  10.030 -0.0803 -0.2707 -0.4323
  303MPD2    C5 4563   3.653   0.445  10.140  0.2283 -0.3568  0.1216
  303MPD2     H 4564   3.282   0.381  10.068 -0.1417 -0.7790  0.9801
  303MPD2    H1 4565   3.652   0.553   9.962 -0.7761  2.0061  0.8769
  303MPD2    H2 4566   3.632   0.316  10.303  1.2470 -0.7802  0.4170
  303MPD2    H3 4567   3.757   0.468  10.163  0.0269  0.7907 -0.0982
  303MPD2     N 4568   3.403   0.555   9.900  0.4862  0.0223 -0.1076
  303MPD2    H5 4569   3.470   0.600   9.838 -1.0350  1.1407 -0.9411
  303MPD2    N1 4570   3.381   0.249  10.278  0.9653 -0.7398 -0.1799
  303MPD2    H7 4571   3.413   0.231  10.373 -0.8861 -2.7876  0.0742
  304TMC3    C1 4572   3.192   0.130  10.350 -0.0475  0.6886  0.1302
  304TMC3    C2 4573   3.183   0.211  10.463 -0.0297  0.0035  0.3435
  304TMC3    C3 4574   3.088   0.174  10.557 -0.2149 -0.0033  0.0163
  304TMC3    C4 4575   3.116   0.022  10.332 -0.0218 -0.2959  0.0596
  304TMC3    C5 4576   3.035   4.710  10.431 -0.1996 -0.1767 -0.3831
  304TMC3    C6 4577   3.027   0.052  10.550  0.1144  0.4005  0.1106
  304TMC3     C 4578   3.276   0.169  10.231  0.3032 -0.3403 -0.7476
  304TMC3     O 4579   3.234   0.136  10.120  0.6442  0.1631 -0.5786
  304TMC3     H 4580   3.238   0.303  10.476  2.0061 -1.1647  0.0749
  304TMC3    H1 4581   3.126   4.678  10.249  0.7257  0.5983 -0.5822
  304TMC3    H2 4582   2.956   0.022  10.627  0.4957  0.8721  0.6429
  304TMC3    C7 4583   2.909   4.656  10.381  0.9648 -0.5736 -0.2556
  304TMC3    C8 4584   2.991   0.282  10.575 -0.2977 -0.3372 -0.0363
  304TMC3    O1 4585   2.908   4.573  10.288  0.2274 -0.3007 -0.0282
  304TMC3    O2 4586   2.873   0.241  10.576 -0.1197  0.3403  0.2096
  305MPD2     C 4587   1.034   3.916  13.778 -0.5159 -0.9634  0.7876
  305MPD2    C1 4588   1.160   3.946  13.730 -0.1743 -0.4005 -0.0267
  305MPD2    C2 4589   1.192   3.905  13.600  0.1179  0.0600  0.2529
  305MPD2    C3 4590   1.099   3.836  13.519 -0.6955  0.2202 -0.0154
  305MPD2    C4 4591   0.978   3.806  13.570 -0.3346 -0.0033  0.9282
  305MPD2    C5 4592   0.945   3.839  13.701  0.1079 -0.3704  0.0973
  305MPD2     H 4593   1.288   3.934  13.559  1.5374 -1.4411  2.5145
  305MPD2    H1 4594   0.899   3.755  13.516  0.1720 -1.5401  1.6530
  305MPD2    H2 4595   1.010   3.944  13.880 -3.2713 -0.1608 -0.1059
  305MPD2    H3 4596   0.848   3.826  13.747 -0.2644 -0.9542 -0.8520
  305MPD2     N 4597   1.115   3.810  13.379  0.0797  0.9125 -0.5176
  305MPD2    H5 4598   1.034   3.787  13.322  0.8531 -1.9076 -0.4442
  305MPD2    N1 4599   1.253   4.002  13.821 -0.3960 -0.9250 -0.5513
  305MPD2    H7 4600   1.220   4.026  13.914 -0.1214 -1.4225 -0.3232
  306TMC3    C1 4601   1.467   4.038  13.917  0.6134 -0.5785 -0.1241
  306TMC3    C2 4602   1.414   4.002  14.035  0.0742 -0.5946  0.3463
  306TMC3    C3 4603   1.476   4.038  14.150 -0.4378  0.2535 -0.4501
  306TMC3    C4 4604   1.586   4.104  13.917 -0.8734  0.3313  0.0938
  306TMC3    C5 4605   1.649   4.142  14.039  0.1243  0.5975 -0.8398
  306TMC3    C6 4606   1.586   4.119  14.157 -0.0841 -0.0232 -0.3540
  306TMC3     C 4607   1.388   4.023  13.800  0.8716 -0.3951 -0.1016
  306TMC3     O 4608   1.455   4.003  13.697 -0.2751  0.2003 -0.5647
  306TMC3     H 4609   1.334   3.928  14.033  0.7818 -1.3244 -1.3175
  306TMC3    H1 4610   1.625   4.133  13.820  1.2697  0.0332  0.8659
  306TMC3    H2 4611   1.615   4.159  14.254  0.6516  0.7170 -0.8811
  306TMC3    C7 4612   1.776   4.203  14.042  0.1669 -0.3763 -0.2971
  306TMC3    C8 4613   1.479   3.938  14.259 -1.1978 -0.3557  0.0002
  306TMC3    O1 4614   1.833   4.229  13.937 -0.3981  0.6286 -0.1037
  306TMC3    O2 4615   1.543   3.979  14.353  0.5381  0.3970 -0.3963
  307MPD2     C 4616   3.139   0.601   0.814 -0.6940 -0.2787  0.0577
  307MPD2    C1 4617   3.121   0.738   0.811 -0.3662  0.0246  0.3986
  307MPD2    C2 4618   2.999   0.785   0.857 -0.2323 -0.8194  0.1403
  307MPD2    C3 4619   2.899   0.699   0.906  0.3088  0.5214  0.1096
  307MPD2    C4 4620   2.920   0.564   0.895  0.4886  1.0464  0.6873
  307MPD2    C5 4621   3.046   0.517   0.862  0.2938  0.1590  0.1843
  307MPD2     H 4622   2.976   0.890   0.874 -2.1502 -0.7828 -2.6656
  307MPD2    H1 4623   2.839   0.502   0.931  0.5679  0.9646  0.7243
  307MPD2    H2 4624   3.232   0.557   0.777 -0.7528  0.3309 -0.8267
  307MPD2    H3 4625   3.065   0.410   0.868 -1.0486 -0.0476  0.7463
  307MPD2     N 4626   2.789   0.761   0.967  0.2949  0.1467  0.1015
  307MPD2    H5 4627   2.783   0.861   0.981 -1.9180  0.1927 -1.0648
  307MPD2    N1 4628   3.215   0.829   0.764 -0.9753 -0.0941 -0.1381
  307MPD2    H7 4629   3.192   0.927   0.776 -0.4282 -0.2107  1.8134
  308TMC3    C1 4630   2.424   0.934   0.958 -0.5191 -0.7205  0.5871
  308TMC3    C2 4631   2.447   1.042   1.033 -0.1494 -0.0149 -0.2955
  308TMC3    C3 4632   2.555   1.016   1.117  0.5515 -0.2962  0.0636
  308TMC3    C4 4633   2.494   0.818   0.953  0.1295 -0.1643  0.2402
  308TMC3    C5 4634   2.582   0.800   1.051 -0.6607 -0.3407  0.4857
  308TMC3    C6 4635   2.628   0.900   1.132 -0.3504  0.0886  0.3432
  308TMC3     C 4636   2.295   0.934   0.884 -0.6188 -0.0922  0.0708
  308TMC3     O 4637   2.255   0.827   0.838 -0.1754  0.1194 -0.3712
  308TMC3     H 4638   2.393   1.136   1.028 -0.3693 -0.1947 -1.2504
  308TMC3    H1 4639   2.467   0.723   0.908 -2.3345  0.6622 -0.0290
  308TMC3    H2 4640   2.714   0.900   1.198 -1.3916 -0.3231  1.6887
  308TMC3    C7 4641   2.683   0.697   1.015  0.9056  0.0128  0.4712
  308TMC3    C8 4642   2.621   1.134   1.174  0.8589 -0.0133 -0.7077
  308TMC3    O1 4643   2.650   0.578   1.015  0.7859  0.4101 -0.1762
  308TMC3    O2 4644   2.685   1.115   1.275 -0.1128  0.8148 -0.0181
  309MPD2     C 4645   3.038   1.975  17.103 -0.0236  0.5438  1.0251
  309MPD2    C1 4646   2.981   2.039  17.003 -0.6200 -0.6159 -0.0023
  309MPD2    C2 4647   2.849   2.071  17.007 -0.5010 -0.3548  0.2582
  309MPD2    C3 4648   2.771   2.019  17.114 -0.0297  0.8209  0.8835
  309MPD2    C4 4649   2.829   1.962  17.218  0.1105 -0.7209 -0.2004
  309MPD2    C5 4650   2.963   1.940  17.215  0.1222  0.3226 -0.3575
  309MPD2     H 4651   2.804   2.112  16.918  0.1463 -1.2948 -0.5003
  309MPD2    H1 4652   2.769   1.919  17.298 -0.2715  0.4657  0.1548
  309MPD2    H2 4653   3.143   1.949  17.099 -0.7894 -2.4765  0.8000
  309MPD2    H3 4654   3.011   1.891  17.299 -1.5957 -1.2550 -0.3057
  309MPD2     N 4655   2.630   2.031  17.127  0.2114 -0.3985 -0.5615
  309MPD2    H5 4656   2.591   1.985  17.209 -0.4076  0.6121 -0.2917
  309MPD2    N1 4657   3.037   2.072  16.880 -0.5403 -0.1427  0.0682
  309MPD2    H7 4658   2.975   2.114  16.811  0.0382  2.1606  0.9484
  310TMC3    C1 4659   3.208   2.066  16.706  0.2275  0.6466  0.6565
  310TMC3    C2 4660   3.104   2.062  16.614 -0.1292 -0.0441  0.0571
  310TMC3    C3 4661   3.123   1.999  16.497 -0.2918  0.2283  0.2891
  310TMC3    C4 4662   3.332   2.015  16.681 -0.2481 -0.0831 -0.4799
  310TMC3    C5 4663   3.348   1.956  16.558 -0.3931 -0.0256 -0.0254
  310TMC3    C6 4664   3.244   1.945  16.470  0.3317  0.5198 -0.1000
  310TMC3     C 4665   3.171   2.072  16.851 -0.1604 -0.6727  0.6635
  310TMC3     O 4666   3.262   2.057  16.930 -0.3719 -0.2222 -0.3696
  310TMC3     H 4667   3.007   2.102  16.640  0.7146  1.4109  0.9678
  310TMC3    H1 4668   3.412   2.023  16.753  0.2020  2.8124 -1.2763
  310TMC3    H2 4669   3.261   1.894  16.376 -1.6787  0.5574 -0.4861
  310TMC3    C7 4670   3.447   1.854  16.548  0.2485  0.3852 -0.4361
  310TMC3    C8 4671   3.030   2.022  16.389 -0.1254 -0.2900 -0.1686
  310TMC3    O1 4672   3.470   1.799  16.655 -0.6892  0.6217 -0.2189
  310TMC3    O2 4673   2.978   2.130  16.373  0.4420 -0.4939  0.0269
  311MPD2     C 4674   0.372   3.640  12.334  0.8799 -0.3491  0.6301
  311MPD2    C1 4675   0.385   3.707  12.452  0.0216  0.4569 -0.3316
  311MPD2    C2 4676   0.268   3.758  12.512  0.0557 -0.2188  0.7778
  311MPD2    C3 4677   0.147   3.755  12.445  0.5680  0.2707  0.3914
  311MPD2    C4 4678   0.141   3.689  12.321  0.4437  0.0358 -0.2193
  311MPD2    C5 4679   0.258   3.637  12.263  0.3578  0.9258  0.3934
  311MPD2     H 4680   0.277   3.809  12.607  1.7783  1.3572 -0.2326
  311MPD2    H1 4681   0.051   3.676  12.262 -0.4774  0.1218  1.1693
  311MPD2    H2 4682   0.453   3.591  12.282  1.2250  2.0827 -1.1156
  311MPD2    H3 4683   0.250   3.575  12.175  2.4018  2.7978 -1.1166
  311MPD2     N 4684   0.034   3.821  12.503  0.4668 -0.0096 -0.0912
  311MPD2    H5 4685   0.050   3.858  12.596 -0.3753  0.2784 -0.0605
  311MPD2    N1 4686   0.515   3.739  12.506  0.1267  0.2433 -0.0074
  311MPD2    H7 4687   0.519   3.811  12.578 -2.0130  0.7469 -0.3813
  312TMC3    C1 4688   4.527   3.842  12.525  0.3023 -0.6753 -0.4380
  312TMC3    C2 4689   4.409   3.840  12.453  0.1647  0.2201  0.0914
  312TMC3    C3 4690   4.297   3.894  12.513  0.0056  0.0816 -0.0979
  312TMC3    C4 4691   4.544   3.886  12.653 -0.4396  0.4790  0.0004
  312TMC3    C5 4692   4.422   3.934  12.713  0.2139  0.9319  0.3094
  312TMC3    C6 4693   4.306   3.934  12.644  0.2141  0.1728  0.6487
  312TMC3     C 4694   4.639   3.823  12.438  0.3022  1.0617 -0.0461
  312TMC3     O 4695   4.622   3.823  12.316  0.2130 -0.2201 -0.3659
  312TMC3     H 4696   4.404   3.788  12.359  1.5907 -0.7008  0.5274
  312TMC3    H1 4697   4.643   3.880  12.695 -0.4930  4.4694  0.7102
  312TMC3    H2 4698   4.226   3.992  12.689 -1.8176 -3.7742  2.0324
  312TMC3    C7 4699   4.414   3.966  12.855  0.3186 -0.0379  0.5068
  312TMC3    C8 4700   4.164   3.862  12.451  0.1819 -0.3024  0.3860
  312TMC3    O1 4701   4.302   3.994  12.898 -0.0129 -0.6732  0.1261
  312TMC3    O2 4702   4.145   3.761  12.385  0.4062  0.4116  0.1523
  313MPD2     C 4703   4.530   2.134  10.257 -0.1506 -0.3371  0.9698
  313MPD2    C1 4704   4.508   2.155  10.123 -0.5181 -0.1898  0.0964
  313MPD2    C2 4705   4.441   2.063  10.043 -0.1579  0.1599  0.0851
  313MPD2    C3 4706   4.369   1.970  10.114 -0.2607  0.3050 -0.0023
  313MPD2    C4 4707   4.382   1.945  10.250 -0.8292  0.3335 -0.0427
  313MPD2    C5 4708   4.461   2.036  10.317 -0.3781  0.0687 -0.1388
  313MPD2     H 4709   4.440   2.073   9.935 -0.3605 -0.2755  0.0457
  313MPD2    H1 4710   4.330   1.866  10.302 -1.5618  0.7036 -0.2162
  313MPD2    H2 4711   4.599   2.192  10.317 -0.6175  0.7041  0.4873
  313MPD2    H3 4712   4.468   2.031  10.425  0.6446  4.2023 -0.0181
  313MPD2     N 4713   4.292   1.893  10.025 -0.4439  0.9932  0.3273
  313MPD2    H5 4714   4.265   1.932   9.935 -0.5669 -0.7689 -0.3965
  313MPD2    N1 4715   4.582   2.261  10.058 -0.2090 -0.3574  0.3696
  313MPD2    H7 4716   4.578   2.268   9.957  0.6165  0.3765  0.3843
  314TMC3    C1 4717   0.039   2.413  10.009 -0.1475  0.1455 -0.0251
  314TMC3    C2 4718   0.103   2.524  10.055 -0.0067 -0.3078  0.5413
  314TMC3    C3 4719   0.203   2.580   9.985  0.2410  0.1383  1.1066
  314TMC3    C4 4720   0.078   2.353   9.898 -0.3178 -0.0817  0.3414
  314TMC3    C5 4721   0.187   2.404   9.834  0.1769 -0.4342 -0.7235
  314TMC3    C6 4722   0.252   2.514   9.867 -0.3351 -0.6597 -0.6039
  314TMC3     C 4723   4.679   2.347  10.109  0.2990  0.2670  0.2614
  314TMC3     O 4724   4.713   2.362  10.229  0.0974  0.7335 -0.3564
  314TMC3     H 4725   0.060   2.583  10.136 -0.0641  0.8483 -0.3292
  314TMC3    H1 4726   0.036   2.260   9.863 -2.3503 -0.0482  2.7440
  314TMC3    H2 4727   0.329   2.561   9.806  0.0182 -2.3456 -1.4528
  314TMC3    C7 4728   0.217   2.333   9.705 -0.1362  0.0132  0.8190
  314TMC3    C8 4729   0.241   2.717  10.020  0.0108 -0.5625  0.4520
  314TMC3    O1 4730   0.121   2.279   9.647  0.0688 -0.1953  0.0600
  314TMC3    O2 4731   0.218   2.765  10.132  0.4062 -1.1189 -0.6418
  315MPD2     C 4732   3.686   2.932  17.408  0.3610  0.5710  0.9739
  315MPD2    C1 4733   3.807   2.945  17.473 -0.4235 -0.4714 -0.3034
  315MPD2    C2 4734   3.930   2.950  17.404 -0.2857  0.9508  0.5159
  315MPD2    C3 4735   3.926   2.936  17.271  0.3624 -0.4754 -0.0671
  315MPD2    C4 4736   3.811   2.892  17.209  0.1705  0.3230  0.7314
  315MPD2    C5 4737   3.693   2.902  17.281 -0.1138 -0.3577  0.7008
  315MPD2     H 4738   4.023   2.963  17.458 -1.0675  1.0406  1.8336
  315MPD2    H1 4739   3.802   2.876  17.103  1.2523  0.5231  0.6081
  315MPD2    H2 4740   3.590   2.928  17.457  0.7728 -2.2956  1.5711
  315MPD2    H3 4741   3.607   2.897  17.214 -0.3473  2.2892  0.8143
  315MPD2     N 4742   4.052   2.919  17.205 -0.7061 -0.3207  0.7145
  315MPD2    H5 4743   4.129   2.958  17.258  0.6687  1.6846 -2.7282
  315MPD2    N1 4744   3.811   2.933  17.615  0.0129  0.2392  0.0553
  315MPD2    H7 4745   3.900   2.955  17.658 -0.4952 -0.0329  1.2403
  316TMC3    C1 4746   4.210   2.818  17.076  0.3506  0.0688 -0.6099
  316TMC3    C2 4747   4.270   2.791  17.194 -0.5192 -1.0472 -0.1825
  316TMC3    C3 4748   4.410   2.794  17.186  0.2423 -0.0509  0.5971
  316TMC3    C4 4749   4.264   2.851  16.953  0.0535  0.7480  0.6899
  316TMC3    C5 4750   4.401   2.848  16.950 -0.2902 -0.5068  0.3799
  316TMC3    C6 4751   4.472   2.831  17.068  0.3361  0.0141  0.0126
  316TMC3     C 4752   4.066   2.839  17.092 -0.0316 -0.3580 -0.0119
  316TMC3     O 4753   3.998   2.794  17.004 -0.2349  0.2216  0.9722
  316TMC3     H 4754   4.219   2.768  17.287 -2.6014  1.5137 -0.6674
  316TMC3    H1 4755   4.206   2.867  16.863  0.2654 -1.1737  0.2260
  316TMC3    H2 4756   4.580   2.818  17.070 -0.0961 -3.5806  0.2426
  316TMC3    C7 4757   4.479   2.874  16.827 -1.2137 -0.0383 -0.5238
  316TMC3    C8 4758   4.493   2.741  17.295  0.5456 -0.2884 -1.0640
  316TMC3    O1 4759   4.601   2.881  16.842 -0.6163 -0.7107 -0.0762
  316TMC3    O2 4760   4.616   2.762  17.307 -0.0896  0.1655 -0.3118
  317MPD2     C 4761   1.708   0.695  12.465 -0.3613  0.4978 -0.2731
  317MPD2    C1 4762   1.748   0.567  12.458  0.5703 -0.1619 -0.0914
  317MPD2    C2 4763   1.815   0.517  12.570  0.7583  0.5672 -0.5906
  317MPD2    C3 4764   1.844   0.586  12.680  0.0979  0.0481 -0.4316
  317MPD2    C4 4765   1.798   0.715  12.685 -0.1224 -0.4465 -0.6818
  317MPD2    C5 4766   1.722   0.762  12.577  0.4551  0.0956  0.1347
  317MPD2     H 4767   1.846   0.413  12.573  0.7098  0.5656 -0.1358
  317MPD2    H1 4768   1.811   0.780  12.771 -2.6593 -1.8718  0.7852
  317MPD2    H2 4769   1.634   0.730  12.393  0.2811 -1.6238 -1.9635
  317MPD2    H3 4770   1.658   0.848  12.593 -2.0575 -1.6434 -0.4371
  317MPD2     N 4771   1.911   0.516  12.784  0.4530 -0.3354 -0.6524
  317MPD2    H5 4772   1.931   0.418  12.772  0.6734 -0.3111 -0.4665
  317MPD2    N1 4773   1.734   0.481  12.347  0.2179 -0.1387  0.1702
  317MPD2    H7 4774   1.755   0.383  12.367  1.4722 -0.0411 -0.6382
  318TMC3    C1 4775   2.067   0.486  12.947 -0.5952  0.3098  0.6794
  318TMC3    C2 4776   2.011   0.366  12.988  0.8654  0.3274  0.3731
  318TMC3    C3 4777   2.092   0.286  13.059  0.3255  0.9137 -0.2522
  318TMC3    C4 4778   2.200   0.524  12.970  0.3723 -0.4746 -0.1667
  318TMC3    C5 4779   2.279   0.431  13.023 -0.1759 -0.5318  0.1072
  318TMC3    C6 4780   2.229   0.318  13.080 -0.0149  0.0139  1.1023
  318TMC3     C 4781   1.987   0.582  12.877  0.1438 -0.4667 -0.6167
  318TMC3     O 4782   1.994   0.698  12.906  0.2963 -0.0660 -0.3372
  318TMC3     H 4783   1.909   0.347  12.957  2.0746  0.3079 -3.6297
  318TMC3    H1 4784   2.233   0.619  12.929 -2.7261  1.1577  1.1713
  318TMC3    H2 4785   2.301   0.248  13.122  0.0818  0.9434  2.4802
  318TMC3    C7 4786   2.421   0.454  12.999  0.5647 -0.4467 -0.2252
  318TMC3    C8 4787   2.044   0.150  13.095 -0.5095  0.2311  0.1389
  318TMC3    O1 4788   2.458   0.533  12.911  0.8094 -0.1579  0.6373
  318TMC3    O2 4789   2.129   0.071  13.143 -0.4651  0.3498 -0.5246
  319MPD2     C 4790   2.582   1.749  16.969  0.3104  0.2530 -0.3054
  319MPD2    C1 4791   2.505   1.635  16.980  0.5054 -0.0216 -0.2852
  319MPD2    C2 4792   2.415   1.605  16.883  0.1956  1.0097  0.2175
  319MPD2    C3 4793   2.415   1.673  16.760 -0.7644 -0.1081 -0.3574
  319MPD2    C4 4794   2.502   1.777  16.742  0.3107 -0.5242 -0.7625
  319MPD2    C5 4795   2.580   1.814  16.851  0.0795  0.1161 -1.1583
  319MPD2     H 4796   2.354   1.516  16.896  0.2133  0.8837 -0.5319
  319MPD2    H1 4797   2.505   1.834  16.650  0.1143  2.6739  1.1975
  319MPD2    H2 4798   2.633   1.791  17.055 -1.7930 -2.3987  2.2380
  319MPD2    H3 4799   2.637   1.904  16.832  1.6036 -0.6242 -0.0678
  319MPD2     N 4800   2.320   1.644  16.659 -0.0928 -0.2553 -0.2765
  319MPD2    H5 4801   2.326   1.689  16.569  2.5153  2.2747  1.1789
  319MPD2    N1 4802   2.497   1.559  17.099  0.4513 -0.0075 -0.1714
  319MPD2    H7 4803   2.439   1.476  17.095  0.3247 -0.0458  2.3205
  320TMC3    C1 4804   2.123   1.569  16.558  0.7264 -0.1278  0.4957
  320TMC3    C2 4805   2.152   1.662  16.464  0.4361 -0.6993  0.9851
  320TMC3    C3 4806   2.126   1.638  16.336 -0.2974  0.7684  0.3495
  320TMC3    C4 4807   2.081   1.444  16.507 -0.0626  0.0798  0.1204
  320TMC3    C5 4808   2.056   1.414  16.380  0.2479 -0.5952  0.4344
  320TMC3    C6 4809   2.084   1.514  16.294 -0.0568  0.4482  0.1594
  320TMC3     C 4810   2.205   1.570  16.680  0.1129  0.0039 -0.2632
  320TMC3     O 4811   2.161   1.499  16.771  0.2926 -0.3868 -0.2836
  320TMC3     H 4812   2.182   1.761  16.495  0.7731 -0.3152 -0.5964
  320TMC3    H1 4813   2.075   1.363  16.579 -1.2391 -0.3817 -0.4943
  320TMC3    H2 4814   2.061   1.510  16.188  1.4504  0.4764 -0.1704
  320TMC3    C7 4815   1.997   1.285  16.335 -0.1085  0.6688 -0.3153
  320TMC3    C8 4816   2.138   1.753  16.241  0.2078 -0.0425  1.1801
  320TMC3    O1 4817   1.996   1.264  16.217  0.0501  0.2525 -0.2164
  320TMC3    O2 4818   2.124   1.865  16.290  0.1796 -0.2114 -0.3575
  321TMC3    C1 4819   2.514   1.535  17.335 -0.4000 -0.1201  0.6499
  321TMC3    C2 4820   2.393   1.469  17.333  0.4156  0.2255 -0.3436
  321TMC3    C3 4821   2.324   1.449  17.452 -0.6263 -0.5606  0.3705
  321TMC3    C4 4822   2.571   1.571  17.451 -0.0846 -0.6110  0.3286
  321TMC3    C5 4823   2.502   1.551  17.572 -0.3803 -0.2972 -0.2987
  321TMC3    C6 4824   2.373   1.495  17.571  0.4089  0.6868  0.3292
  321TMC3     C 4825   2.570   1.587  17.215  0.4759  0.0679 -0.6244
  321TMC3     O 4826   2.673   1.650  17.223 -0.2701  0.0497 -0.1737
  321TMC3     H 4827   2.358   1.411  17.248  0.8384  1.4102 -1.3175
  321TMC3    H1 4828   2.665   1.625  17.456 -1.0696  1.1393 -0.0717
  321TMC3    H2 4829   2.319   1.486  17.665  0.9061  1.3214  0.6753
  321TMC3    C7 4830   2.590   1.474  17.661  0.1203 -0.0176  0.3752
  321TMC3    C8 4831   2.270   1.315  17.464 -0.6227 -1.2738  0.3192
  321TMC3    O1 4832   2.524   1.382   0.017 -0.0473 -0.4427 -0.3570
  321TMC3    O2 4833   2.169   1.278  17.405 -0.1939  0.0193 -0.0060
  322MPD2     C 4834   1.292   2.982  13.446 -0.1767 -0.1712  0.0840
  322MPD2    C1 4835   1.242   2.915  13.552  0.5832  0.0620 -0.4606
  322MPD2    C2 4836   1.230   2.772  13.535 -0.0108 -0.0963  0.6900
  322MPD2    C3 4837   1.287   2.710  13.429 -1.3846 -0.7149 -0.0226
  322MPD2    C4 4838   1.335   2.783  13.323  0.2916 -0.5109  0.3774
  322MPD2    C5 4839   1.335   2.919  13.332 -0.4486  0.6114  0.4890
  322MPD2     H 4840   1.192   2.703  13.610 -0.8642  1.3673  1.6102
  322MPD2    H1 4841   1.352   2.743  13.224 -2.8437 -0.3925 -0.2186
  322MPD2    H2 4842   1.308   3.090  13.449  0.4302 -0.1795 -3.9783
  322MPD2    H3 4843   1.383   2.980  13.256  2.3297 -3.0676 -0.6808
  322MPD2     N 4844   1.292   2.570  13.439 -0.4187 -0.2284 -0.8006
  322MPD2    H5 4845   1.257   2.530  13.526  0.3179 -1.3139 -1.0156
  322MPD2    N1 4846   1.203   2.989  13.669 -0.2124 -0.0373 -0.3254
  322MPD2    H7 4847   1.221   3.089  13.664  0.7536 -0.1569  0.9487
  323TMC3    C1 4848   1.140   3.016  13.890  0.1146  0.2497  0.4385
  323TMC3    C2 4849   1.144   3.154  13.864  0.2011  0.9098 -0.1709
  323TMC3    C3 4850   1.178   3.227  13.977 -0.3105  0.1602 -0.5678
  323TMC3    C4 4851   1.150   2.962  14.016 -0.0416 -0.0249 -0.2770
  323TMC3    C5 4852   1.174   3.043  14.116 -0.1308 -0.9017  0.3260
  323TMC3    C6 4853   1.193   3.179  14.104 -0.2981 -0.1203  0.3702
  323TMC3     C 4854   1.160   2.920  13.785  0.4526 -0.1571  0.3088
  323TMC3     O 4855   1.152   2.803  13.815  0.2353 -0.6341 -0.1141
  323TMC3     H 4856   1.120   3.208  13.773  3.3709  0.5313 -1.2259
  323TMC3    H1 4857   1.148   2.856  14.038 -0.7116  0.1164  0.3588
  323TMC3    H2 4858   1.203   3.250  14.185  1.2799 -1.6639  1.5439
  323TMC3    C7 4859   1.237   2.976  14.227 -0.1153 -0.4951 -0.2254
  323TMC3    C8 4860   1.238   3.355  13.943 -0.1120 -0.1416 -0.1889
  323TMC3    O1 4861   1.179   2.885  14.282 -0.7055  0.2068  0.2260
  323TMC3    O2 4862   1.203   3.405  13.838 -0.0059  0.2268  0.0030
  324MPD2     C 4863   3.172   4.592  14.543  0.2253  0.6114  0.2322
  324MPD2    C1 4864   3.211   4.681  14.445 -0.5006 -0.2329  0.5346
  324MPD2    C2 4865   3.114   0.031  14.375 -0.2095 -0.5471  0.2573
  324MPD2    C3 4866   2.982   0.019  14.416 -0.7018  0.8903 -0.2376
  324MPD2    C4 4867   2.949   4.656  14.515  0.4545  0.4835  0.3871
  324MPD2    C5 4868   3.043   4.576  14.573  0.0345 -0.0865 -0.5461
  324MPD2     H 4869   3.138   0.098  14.293  1.0547 -1.3128  0.0060
  324MPD2    H1 4870   2.844   4.649  14.542  0.0952 -0.0797 -1.1314
  324MPD2    H2 4871   3.244   4.529  14.594 -1.4938 -1.3373  0.2283
  324MPD2    H3 4872   3.005   4.515  14.654 -0.3305  1.6179  0.5748
  324MPD2     N 4873   2.876   0.097  14.357  0.0747 -0.5392 -0.4999
  324MPD2    H5 4874   2.787   0.073  14.399 -0.4885 -0.2246 -1.5182
  324MPD2    N1 4875   3.344   4.680  14.395 -0.2829  0.7725 -0.5274
  324MPD2    H7 4876   3.365   0.020  14.319 -0.1571  0.4678 -0.7511
  325TMC3    C1 4877   2.749   0.222  14.218  0.2311  0.3451  0.4410
  325TMC3    C2 4878   2.694   0.171  14.102  0.5334  0.5784  0.2286
  325TMC3    C3 4879   2.557   0.150  14.106  0.2284  0.0928  0.9195
  325TMC3    C4 4880   2.686   0.242  14.341  0.1440 -0.1393 -0.2212
  325TMC3    C5 4881   2.550   0.225  14.335 -0.1696 -0.1927  0.5950
  325TMC3    C6 4882   2.488   0.168  14.226 -0.3363  0.0808 -0.2437
  325TMC3     C 4883   2.878   0.172  14.239 -0.9650 -0.5825  0.3818
  325TMC3     O 4884   2.971   0.182  14.161 -0.6253 -0.3998 -0.1450
  325TMC3     H 4885   2.751   0.129  14.020 -1.3676  0.5616 -1.0803
  325TMC3    H1 4886   2.736   0.286  14.426 -2.1283  1.6675  0.1867
  325TMC3    H2 4887   2.383   0.144  14.217  0.3645 -3.0025 -0.5074
  325TMC3    C7 4888   2.470   0.278  14.449 -0.0482 -0.2724  0.1830
  325TMC3    C8 4889   2.500   0.061  14.011  0.2523 -0.1796  0.2546
  325TMC3    O1 4890   2.528   0.357  14.524 -0.0876 -0.0089 -0.2983
  325TMC3    O2 4891   2.572   4.695  13.975  0.4903 -0.3828 -0.2493
  326MPD2     C 4892   3.987   0.724  11.241 -0.5937 -0.2919  0.1764
  326MPD2    C1 4893   3.953   0.782  11.126 -0.5520 -0.3395 -0.6221
  326MPD2    C2 4894   4.055   0.842  11.053  0.7076 -0.0534 -0.6141
  326MPD2    C3 4895   4.193   0.844  11.098  0.0046  0.3980 -0.5232
  326MPD2    C4 4896   4.216   0.788  11.221 -0.9974 -0.2682  0.2372
  326MPD2    C5 4897   4.114   0.730  11.295 -0.4827 -0.0202 -0.0330
  326MPD2     H 4898   4.032   0.893  10.960 -1.9411  1.4830  0.8627
  326MPD2    H1 4899   4.315   0.784  11.266 -1.8846  1.7532  2.3883
  326MPD2    H2 4900   3.903   0.688  11.298  0.6043 -1.2294  1.3479
  326MPD2    H3 4901   4.125   0.704  11.399 -1.9436  1.2958  0.4380
  326MPD2     N 4902   4.293   0.894  11.015 -0.1872 -0.1802 -0.1566
  326MPD2    H5 4903   4.261   0.919  10.922 -0.3672 -1.0462 -0.3301
  326MPD2    N1 4904   3.817   0.812  11.095 -0.1499  0.0327  0.4123
  326MPD2    H7 4905   3.794   0.893  11.037 -2.0761 -0.3050  0.7086
  327TMC3    C1 4906   3.578   0.782  11.067  0.1922  0.2168 -0.1238
  327TMC3    C2 4907   3.547   0.910  11.037  0.2359  0.1226 -0.3935
  327TMC3    C3 4908   3.458   0.931  10.927 -0.2580 -0.0646 -0.3855
  327TMC3    C4 4909   3.531   0.678  10.994  0.3698  0.2097  0.1635
  327TMC3    C5 4910   3.460   0.696  10.876 -0.0231 -0.4387 -0.0132
  327TMC3    C6 4911   3.410   0.826  10.859  0.1389  0.1379  1.2903
  327TMC3     C 4912   3.707   0.737  11.137  0.3863 -0.8571  0.3618
  327TMC3     O 4913   3.718   0.624  11.186 -0.0374 -0.2794 -0.2744
  327TMC3     H 4914   3.602   0.986  11.091  0.6100  2.2439 -3.7902
  327TMC3    H1 4915   3.569   0.580  11.021 -0.5364 -0.0536  0.4674
  327TMC3    H2 4916   3.364   0.848  10.764 -0.2992 -0.3746  1.3869
  327TMC3    C7 4917   3.538   0.660  10.753 -0.6541 -1.0061  0.1404
  327TMC3    C8 4918   3.461   1.056  10.846 -0.0375 -0.2384 -0.2138
  327TMC3    O1 4919   3.526   0.727  10.649  0.0627 -0.1912  0.2667
  327TMC3    O2 4920   3.449   1.033  10.727 -0.0232 -0.3569 -0.3718
  328MPD2     C 4921   2.105   4.376  16.896 -0.0497 -0.7880  0.0872
  328MPD2    C1 4922   1.999   4.327  16.821  0.5087 -0.1989  0.0034
  328MPD2    C2 4923   1.895   4.412  16.787  0.0962 -0.2805 -0.2995
  328MPD2    C3 4924   1.906   4.545  16.818  0.3866 -1.0034  0.1491
  328MPD2    C4 4925   2.012   4.592  16.887 -0.5881 -0.6640  0.6532
  328MPD2    C5 4926   2.106   4.506  16.936 -0.0500 -0.3082 -0.4509
  328MPD2     H 4927   1.805   4.375  16.739 -2.1023  0.0248  3.6023
  328MPD2    H1 4928   2.015   4.696  16.919 -3.4105 -0.5741  0.5901
  328MPD2    H2 4929   2.189   4.313  16.922  0.9312 -1.0771 -3.8265
  328MPD2    H3 4930   2.182   4.541  17.005 -2.7907 -0.3231  2.5370
  328MPD2     N 4931   1.803   4.643  16.789  0.8278 -0.1117 -0.3375
  328MPD2    H5 4932   1.822   0.017  16.794  0.8089 -0.1295  0.1074
  328MPD2    N1 4933   1.985   4.187  16.798  0.3615  0.2278  0.4128
  328MPD2    H7 4934   2.042   4.125  16.854 -0.1316 -0.1465  0.4930
  329TMC3    C1 4935   1.893   3.993  16.737 -0.1626 -0.2033  0.7123
  329TMC3    C2 4936   1.763   3.956  16.739  0.5884 -0.4240  0.4026
  329TMC3    C3 4937   1.743   3.839  16.807  0.1203 -0.5890 -0.7272
  329TMC3    C4 4938   1.997   3.923  16.793  0.4909  0.4886 -0.0717
  329TMC3    C5 4939   1.971   3.808  16.859  0.5450  0.1892  0.1515
  329TMC3    C6 4940   1.841   3.761  16.867 -0.1197  0.2146 -0.1638
  329TMC3     C 4941   1.898   4.134  16.709  1.0426 -0.4307 -0.4168
  329TMC3     O 4942   1.825   4.183  16.623 -0.3292 -0.5033 -0.1756
  329TMC3     H 4943   1.679   4.004  16.691  0.0468 -0.6368  1.1400
  329TMC3    H1 4944   2.098   3.946  16.762  0.5682 -0.1256 -0.2696
  329TMC3    H2 4945   1.807   3.682  16.931 -1.3585  1.3202  0.5507
  329TMC3    C7 4946   2.051   3.804  16.974 -0.6050 -0.1056  0.2560
  329TMC3    C8 4947   1.623   3.844  16.883 -0.6328 -0.2690  0.4041
  329TMC3    O1 4948   2.132   3.896  16.989  0.1869 -0.3782 -0.1605
  329TMC3    O2 4949   1.591   3.732  16.924 -0.0494 -0.0635  0.4979
  330TMC3    C1 4950   4.297   4.383   9.758  0.1857  0.0496  0.1530
  330TMC3    C2 4951   4.222   4.295   9.674  0.3718 -0.0541  0.6932
  330TMC3    C3 4952   4.260   4.160   9.662 -0.1071 -0.0608  0.2303
  330TMC3    C4 4953   4.399   4.333   9.830 -0.3473 -0.1701 -0.1390
  330TMC3    C5 4954   4.440   4.201   9.807 -0.1588  0.2300  0.1871
  330TMC3    C6 4955   4.373   4.111   9.734  0.1649 -0.1034 -0.8380
  330TMC3     C 4956   4.231   4.497   9.816  0.4317  0.3880  0.7366
  330TMC3     O 4957   4.270   4.549   9.918  0.1409 -0.3089 -0.1860
  330TMC3     H 4958   4.135   4.339   9.626  1.2124  0.6731 -0.1539
  330TMC3    H1 4959   4.452   4.402   9.895 -0.2331 -0.0562 -0.3511
  330TMC3    H2 4960   4.394   4.005   9.737 -1.3907 -0.4208 -1.3560
  330TMC3    C7 4961   4.539   4.137   9.894 -0.0764  0.0237  0.8921
  330TMC3    C8 4962   4.181   4.077   9.575 -0.3354 -0.6038  0.7983
  330TMC3    O1 4963   4.537   4.019   9.903 -0.4186  0.3487 -0.2403
  330TMC3    O2 4964   4.083   4.133   9.530 -0.0539 -0.7134  0.4235
  331MPD2     C 4965   2.057   3.333  11.942  0.2785  0.4801  0.0234
  331MPD2    C1 4966   2.155   3.364  11.847  0.5864  0.8538 -0.5935
  331MPD2    C2 4967   2.258   3.277  11.824  0.1131 -0.3440 -0.1294
  331MPD2    C3 4968   2.277   3.166  11.903 -0.2846 -1.2377 -0.5173
  331MPD2    C4 4969   2.179   3.133  11.997 -0.2142  0.0650 -0.2511
  331MPD2    C5 4970   2.076   3.219  12.020 -0.3243  0.1854  0.8710
  331MPD2     H 4971   2.332   3.309  11.752 -1.8025 -1.1829 -2.4634
  331MPD2    H1 4972   2.189   3.041  12.054  0.8277  0.2466 -0.1455
  331MPD2    H2 4973   1.974   3.398  11.965 -0.7041 -0.9199  0.4708
  331MPD2    H3 4974   1.997   3.191  12.089 -0.5548  0.6119  0.7829
  331MPD2     N 4975   2.385   3.084  11.885 -0.2836  0.2123  0.4090
  331MPD2    H5 4976   2.447   3.113  11.810 -0.0809  0.6293  0.7352
  331MPD2    N1 4977   2.160   3.493  11.794  0.1191  0.3859 -0.4402
  331MPD2    H7 4978   2.244   3.515  11.741  0.5082 -0.7977 -0.3028
  332TMC3    C1 4979   2.553   2.922  11.925 -0.0234  0.5413  0.3981
  332TMC3    C2 4980   2.589   2.941  11.792  0.4866 -0.8220  0.2051
  332TMC3    C3 4981   2.723   2.960  11.765  0.2556  0.0378  0.5607
  332TMC3    C4 4982   2.648   2.882  12.021 -0.1744 -0.2271 -0.4507
  332TMC3    C5 4983   2.779   2.887  11.988 -0.1875 -0.7196 -0.0620
  332TMC3    C6 4984   2.820   2.932  11.863  0.9040  0.0539 -0.5887
  332TMC3     C 4985   2.430   2.980  11.965 -0.3538 -0.1838  0.0384
  332TMC3     O 4986   2.374   2.917  12.058 -0.1250  0.4869  0.0471
  332TMC3     H 4987   2.518   2.953  11.711  2.4996  0.5067 -1.3552
  332TMC3    H1 4988   2.613   2.870  12.123  1.0054 -0.3728 -0.0709
  332TMC3    H2 4989   2.919   2.919  11.822  0.7642  0.3403 -1.0164
  332TMC3    C7 4990   2.873   2.897  12.096 -0.0397 -0.6017  0.2696
  332TMC3    C8 4991   2.762   3.065  11.670  0.4600  0.1031  0.1870
  332TMC3    O1 4992   2.823   2.865  12.205  0.5400  0.6738  0.1339
  332TMC3    O2 4993   2.880   3.094  11.695 -0.4681  0.1704  0.0994
  333MPD2     C 4994   2.988   3.144  10.843  0.7994  0.4712  0.8706
  333MPD2    C1 4995   3.012   3.044  10.754 -0.0311  0.3723 -0.4937
  333MPD2    C2 4996   2.968   2.916  10.784  0.4342  0.7399  0.1563
  333MPD2    C3 4997   2.909   2.894  10.916 -0.8180 -0.0856  0.2894
  333MPD2    C4 4998   2.895   3.001  11.001 -0.5187 -0.3873 -0.5643
  333MPD2    C5 4999   2.942   3.119  10.964 -0.0891  0.5323 -0.0398
  333MPD2     H 5000   2.975   2.841  10.706  1.8316  1.1477 -0.1180
  333MPD2    H1 5001   2.858   2.998  11.103  0.2817 -0.4221 -0.2707
  333MPD2    H2 5002   3.010   3.245  10.811  0.4118 -0.1619 -1.4005
  333MPD2    H3 5003   2.927   3.197  11.037  0.5215  1.2494 -0.6841
  333MPD2     N 5004   2.860   2.768  10.955 -0.0251  0.0033  0.3712
  333MPD2    H5 5005   2.883   2.689  10.896 -0.9102  0.2556 -0.3038
  333MPD2    N1 5006   3.064   3.077  10.631  0.4486  0.6398  0.0799
  333MPD2    H7 5007   3.069   3.178  10.617 -0.9410  1.0274  2.3268
  334TMC3    C1 5008   3.174   3.064  10.425  0.1603  0.1257 -0.6090
  334TMC3    C2 5009   3.259   2.999  10.343 -0.5471  0.6000  0.0401
  334TMC3    C3 5010   3.313   3.061  10.234 -0.0352 -0.7868 -0.1401
  334TMC3    C4 5011   3.129   3.183  10.383 -0.2387  0.5830 -0.1168
  334TMC3    C5 5012   3.169   3.239  10.265  1.1548  0.1163  0.2178
  334TMC3    C6 5013   3.275   3.186  10.194 -0.9134  0.2391 -0.5218
  334TMC3     C 5014   3.129   2.999  10.545 -0.0946 -0.0706  0.2353
  334TMC3     O 5015   3.142   2.878  10.554  0.1604 -0.0218 -0.7616
  334TMC3     H 5016   3.281   2.897  10.371 -2.3832  0.3146  0.4301
  334TMC3    H1 5017   3.045   3.228  10.434  0.4636  0.6821  0.9557
  334TMC3    H2 5018   3.323   3.231  10.108  1.4230 -1.1856  0.0210
  334TMC3    C7 5019   3.167   3.382  10.258  1.2067  0.0597 -0.0875
  334TMC3    C8 5020   3.440   3.012  10.183  0.5436  0.5313 -0.3219
  334TMC3    O1 5021   3.145   3.430  10.368 -0.1404 -0.0025  0.0148
  334TMC3    O2 5022   3.451   2.891  10.203  0.4082 -0.8354  0.2498
  335TMC3    C1 5023   2.394   0.404  16.938  0.0636 -0.0803  0.4480
  335TMC3    C2 5024   2.319   0.321  16.853  0.0772  0.7474 -0.1101
  335TMC3    C3 5025   2.385   0.218  16.793  0.0676 -0.6031  0.2265
  335TMC3    C4 5026   2.524   0.383  16.971 -0.6582  0.1943 -0.3612
  335TMC3    C5 5027   2.576   0.263  16.916  0.0182  0.3242  0.4010
  335TMC3    C6 5028   2.515   0.194  16.819 -0.1615 -0.3157 -0.2425
  335TMC3     C 5029   2.336   0.534  16.976  0.5626 -0.0417  0.0074
  335TMC3     O 5030   2.211   0.552  16.969 -0.0845 -0.3397  0.5189
  335TMC3     H 5031   2.214   0.336  16.832 -0.1945  1.0888  1.4429
  335TMC3    H1 5032   2.599   0.454  17.005 -1.6585  1.0568  0.0235
  335TMC3    H2 5033   2.568   0.118  16.763  0.1328  0.8570 -1.5887
  335TMC3    C7 5034   2.704   0.211  16.951 -0.3148 -0.3669 -0.2004
  335TMC3    C8 5035   2.314   0.124  16.707  0.0047  0.1234  0.3156
  335TMC3    O1 5036   2.775   0.180  16.856  0.4048  0.2658 -0.6046
  335TMC3    O2 5037   2.219   0.160  16.636 -0.1241 -0.0506 -0.3809
  336MPD2     C 5038   2.231   3.074  16.358  0.7993  0.5760 -0.6180
  336MPD2    C1 5039   2.174   3.009  16.252 -0.0691  0.2513 -0.0667
  336MPD2    C2 5040   2.183   2.873  16.245  0.0206 -0.2505 -0.4323
  336MPD2    C3 5041   2.244   2.799  16.347 -0.3359 -0.8615  0.2969
  336MPD2    C4 5042   2.287   2.864  16.462  1.2051 -0.3734  0.4319
  336MPD2    C5 5043   2.286   3.003  16.462  0.7777 -0.4163  0.0142
  336MPD2     H 5044   2.140   2.824  16.158 -0.0574 -2.0005  0.6017
  336MPD2    H1 5045   2.322   2.802  16.544 -0.1314  0.6225  1.7668
  336MPD2    H2 5046   2.237   3.182  16.368 -2.6611  0.8186 -1.0210
  336MPD2    H3 5047   2.325   3.049  16.552  2.3758  2.0912 -1.9301
  336MPD2     N 5048   2.258   2.661  16.351 -0.0613  0.9239  0.7048
  336MPD2    H5 5049   2.287   2.617  16.437 -0.8928 -2.3444 -0.6832
  336MPD2    N1 5050   2.115   3.079  16.141  0.6432 -0.0408  0.6998
  336MPD2    H7 5051   2.084   3.023  16.062  0.7512  1.1846 -0.2019
  337TMC3    C1 5052   2.060   3.241  15.987  0.3191 -0.0371  0.4444
  337TMC3    C2 5053   1.939   3.190  15.944  0.0903 -0.4241  0.3837
  337TMC3    C3 5054   1.881   3.238  15.829 -0.1463 -0.4686  0.4046
  337TMC3    C4 5055   2.114   3.344  15.918  1.0009 -0.2255  0.0760
  337TMC3    C5 5056   2.052   3.379  15.802 -0.4401 -0.4428 -0.5494
  337TMC3    C6 5057   1.942   3.324  15.736 -0.1037 -0.3683  0.3417
  337TMC3     C 5058   2.114   3.215  16.115  0.1625 -0.1967 -0.0183
  337TMC3     O 5059   2.162   3.309  16.184 -0.7007 -0.2991  0.4561
  337TMC3     H 5060   1.889   3.122  16.012 -1.1843 -0.3104 -0.4381
  337TMC3    H1 5061   2.213   3.375  15.948  0.7211  2.2734 -1.5467
  337TMC3    H2 5062   1.900   3.359  15.643 -2.8042  1.3746  2.2198
  337TMC3    C7 5063   2.106   3.486  15.725 -0.3686 -0.4927  0.4409
  337TMC3    C8 5064   1.743   3.190  15.809 -1.3446 -0.5481 -0.0931
  337TMC3    O1 5065   2.086   3.480  15.604 -0.1333  0.3876 -0.1315
  337TMC3    O2 5066   1.689   3.151  15.910 -0.7351 -0.0082  0.5152
  338MPD2     C 5067   1.872   2.081   0.822  0.9160 -0.1994  1.0790
  338MPD2    C1 5068   1.864   2.095   0.684 -0.7712 -0.0738  0.0973
  338MPD2    C2 5069   1.794   2.202   0.631 -0.8116 -0.1674  0.2129
  338MPD2    C3 5070   1.744   2.299   0.722  1.3304  0.4501  0.1135
  338MPD2    C4 5071   1.761   2.288   0.856 -0.1179 -0.0854 -0.3265
  338MPD2    C5 5072   1.816   2.178   0.906  0.2279  0.1805  0.2979
  338MPD2     H 5073   1.774   2.205   0.524  2.7476  3.5386 -0.3586
  338MPD2    H1 5074   1.732   2.364   0.927 -0.7697 -1.2628  0.6539
  338MPD2    H2 5075   1.917   1.995   0.869  2.5873  1.5761  2.6906
  338MPD2    H3 5076   1.821   2.171   1.014 -1.7493 -1.2451  0.2851
  338MPD2     N 5077   1.682   2.409   0.662 -0.3341 -0.1263  0.2997
  338MPD2    H5 5078   1.700   2.425   0.563  0.8836 -0.6551  0.4301
  338MPD2    N1 5079   1.911   1.995   0.598 -0.2039 -0.3169  0.0559
  338MPD2    H7 5080   1.881   1.996   0.501  0.0091 -0.8853 -0.0138
  339TMC3    C1 5081   1.474   2.504   0.617 -0.3614 -0.3618 -0.0808
  339TMC3    C2 5082   1.356   2.437   0.645 -0.3480  0.0456 -0.0391
  339TMC3    C3 5083   1.307   2.345   0.555  0.5194 -0.4871  0.5955
  339TMC3    C4 5084   1.519   2.508   0.488 -0.0310  0.1173  0.2456
  339TMC3    C5 5085   1.465   2.417   0.403 -0.2936 -0.4152 -0.3342
  339TMC3    C6 5086   1.356   2.338   0.427  0.9050  0.0902 -0.3361
  339TMC3     C 5087   1.573   2.479   0.719  0.0656 -0.5132  0.4186
  339TMC3     O 5088   1.524   2.480   0.835 -0.0629 -0.3834 -0.1133
  339TMC3     H 5089   1.307   2.440   0.742 -1.6870  0.1185 -0.7155
  339TMC3    H1 5090   1.602   2.569   0.452 -0.4461  0.4693 -0.1107
  339TMC3    H2 5091   1.313   2.266   0.357  0.4770  1.3017 -1.3248
  339TMC3    C7 5092   1.561   2.383   0.297  0.6082 -0.1208 -1.2359
  339TMC3    C8 5093   1.294   2.218   0.619 -0.0439 -0.7689  0.6235
  339TMC3    O1 5094   1.656   2.464   0.281 -0.0625  0.5981  0.1730
  339TMC3    O2 5095   1.283   2.120   0.545  0.1978  0.4879  0.3511
  340MPD2     C 5096   2.064   0.050   9.364  0.4189 -0.0349  0.5510
  340MPD2    C1 5097   2.165   4.715   9.436 -0.3702  0.0693  0.0735
  340MPD2    C2 5098   2.191   0.040   9.566  0.7815  0.2639  0.2301
  340MPD2    C3 5099   2.126   0.143   9.623 -0.0786 -0.5269 -0.0871
  340MPD2    C4 5100   2.037   0.212   9.543  0.4306  0.0060 -0.2731
  340MPD2    C5 5101   2.016   0.175   9.412  0.3069 -1.0274  0.4892
  340MPD2     H 5102   2.277   4.715   9.609  1.7278  0.9173 -0.9240
  340MPD2    H1 5103   1.992   0.305   9.576 -0.2109  0.5304 -2.6034
  340MPD2    H2 5104   2.034   0.035   9.261  0.6831  3.4609 -0.0494
  340MPD2    H3 5105   1.948   0.241   9.360 -0.4450 -0.6859  1.9104
  340MPD2     N 5106   2.154   0.190   9.755  0.0334  0.0349 -0.0275
  340MPD2    H5 5107   2.115   0.279   9.784  1.0569 -0.1061  1.8406
  340MPD2    N1 5108   2.237   4.617   9.368  0.1865  0.8352 -0.6856
  340MPD2    H7 5109   2.215   4.602   9.271  0.4985 -1.7187 -0.3806
  341TMC3    C1 5110   2.393   4.437   9.330  0.6311  0.3197  0.1268
  341TMC3    C2 5111   2.426   4.316   9.376  0.0004  0.4462  0.0025
  341TMC3    C3 5112   2.488   4.230   9.290  0.3485 -0.6354 -0.4310
  341TMC3    C4 5113   2.404   4.475   9.196  0.4815 -0.3745 -1.0235
  341TMC3    C5 5114   2.467   4.387   9.115 -0.1873  0.2142  0.2422
  341TMC3    C6 5115   2.509   4.261   9.156 -0.2192  0.2982 -0.5242
  341TMC3     C 5116   2.333   4.529   9.424 -0.2432  0.3256  0.2691
  341TMC3     O 5117   2.366   4.507   9.543 -0.0238  0.4467 -0.5632
  341TMC3     H 5118   2.400   4.281   9.475 -0.3572 -1.9149 -0.9139
  341TMC3    H1 5119   2.378   4.574   9.160 -1.4172 -0.7226 -0.6077
  341TMC3    H2 5120   2.560   4.194   9.088  1.7210  1.7491 -0.5073
  341TMC3    C7 5121   2.574   4.446   9.038 -0.4835  0.1610  0.0526
  341TMC3    C8 5122   2.567   4.116   9.340  0.8124 -0.0011  0.2825
  341TMC3    O1 5123   2.664   4.373   9.002 -0.3808 -0.3046 -0.3000
  341TMC3    O2 5124   2.592   4.031   9.254 -0.2050 -0.2673 -0.2641
  342MPD2     C 5125   0.156   2.941  17.572  0.3001  0.1773 -1.1282
  342MPD2    C1 5126   0.285   2.964  17.523  0.2440  0.1194 -0.2501
  342MPD2    C2 5127   0.340   3.088  17.525 -0.4463  0.0968  0.8090
  342MPD2    C3 5128   0.272   3.192  17.583  1.1719  0.0438 -0.1393
  342MPD2    C4 5129   0.147   3.166  17.640  0.3698  0.1450 -0.2712
  342MPD2    C5 5130   0.083   3.043  17.623  0.3765  0.3304  0.9250
  342MPD2     H 5131   0.437   3.097  17.478 -0.4138 -1.8943  0.4805
  342MPD2    H1 5132   0.099   3.247  17.694 -1.2796 -2.5165  2.3145
  342MPD2    H2 5133   0.102   2.848  17.582 -2.5151  1.9898  0.4802
  342MPD2    H3 5134   4.712   3.008  17.659  1.3597 -3.4405 -0.1148
  342MPD2     N 5135   0.323   3.327  17.580 -0.0160 -0.8257  0.3602
  342MPD2    H5 5136   0.268   3.402  17.622  2.7544  0.7154  1.2036
  342MPD2    N1 5137   0.355   2.868  17.444 -0.2633  0.1766 -0.0134
  342MPD2    H7 5138   0.441   2.906  17.406 -0.8369  1.1068 -0.3665
  343TMC3    C1 5139   0.388   2.677  17.315  0.6335  0.1238 -0.3282
  343TMC3    C2 5140   0.521   2.686  17.347  0.2833  0.3145  0.6710
  343TMC3    C3 5141   0.610   2.596  17.294  0.0323  0.0023 -0.5074
  343TMC3    C4 5142   0.346   2.581  17.231 -0.7408  0.1998  0.5962
  343TMC3    C5 5143   0.441   2.504  17.169 -0.6718  0.1548  0.6259
  343TMC3    C6 5144   0.573   2.513  17.196 -0.2881  0.2652  0.9662
  343TMC3     C 5145   0.302   2.747  17.409 -0.0926 -0.0604 -0.3439
  343TMC3     O 5146   0.198   2.689  17.436  0.2301  0.7013  0.1970
  343TMC3     H 5147   0.560   2.767  17.407 -0.6148 -0.6505  2.5751
  343TMC3    H1 5148   0.240   2.581  17.207 -0.6592 -3.7497  0.2902
  343TMC3    H2 5149   0.645   2.446  17.151 -1.7413 -0.2430 -0.6174
  343TMC3    C7 5150   0.393   2.414  17.063  0.4732  0.5084  0.3746
  343TMC3    C8 5151   0.747   2.609  17.340  0.0016 -0.6975  0.2207
  343TMC3    O1 5152   0.469   2.386  16.976  0.5033 -0.4112 -0.2231
  343TMC3    O2 5153   0.779   2.693  17.423 -0.0859  0.2206 -0.1714
  344MPD2     C 5154   2.106   2.311  10.606  0.3077  1.3196  0.5289
  344MPD2    C1 5155   1.996   2.373  10.658 -0.1466  0.0696 -0.4881
  344MPD2    C2 5156   2.009   2.506  10.673 -0.2476  0.5197 -0.5597
  344MPD2    C3 5157   2.127   2.575  10.640 -0.3332 -0.2635 -0.5325
  344MPD2    C4 5158   2.239   2.508  10.582  0.4502  0.1616 -0.1799
  344MPD2    C5 5159   2.219   2.375  10.560  0.1521  0.1649 -0.3661
  344MPD2     H 5160   1.929   2.553  10.729 -0.6845  0.2056 -0.9140
  344MPD2    H1 5161   2.331   2.557  10.551  0.9717  0.7251  2.2809
  344MPD2    H2 5162   2.100   2.208  10.575 -0.3322  1.2791  0.7854
  344MPD2    H3 5163   2.290   2.320  10.500 -0.6276  1.3509 -2.3983
  344MPD2     N 5164   2.142   2.711  10.671  0.1514  0.1544 -0.3907
  344MPD2    H5 5165   2.240   2.737  10.667  0.4832 -0.9100  0.6674
  344MPD2    N1 5166   1.882   2.307  10.712 -0.7423  0.1611  0.4914
  344MPD2    H7 5167   1.825   2.362  10.776 -0.6048 -0.9611  1.5796
  345TMC3    C1 5168   2.102   2.940  10.702 -0.0989  0.1504  0.0298
  345TMC3    C2 5169   2.042   3.033  10.782 -0.2632  0.4615 -0.4343
  345TMC3    C3 5170   2.090   3.166  10.762 -0.1543 -0.1725 -0.2478
  345TMC3    C4 5171   2.205   2.962  10.618  0.3441  0.3304  0.5806
  345TMC3    C5 5172   2.260   3.086  10.617  0.6421 -0.3112 -0.1750
  345TMC3    C6 5173   2.203   3.190  10.693 -0.0335  0.1863 -0.0635
  345TMC3     C 5174   2.049   2.807  10.703  0.6447  0.0028 -0.0306
  345TMC3     O 5175   1.930   2.797  10.732  0.4781  0.3313  0.1150
  345TMC3     H 5176   1.955   3.002  10.839  0.3150 -0.6353 -0.1466
  345TMC3    H1 5177   2.259   2.888  10.558  1.3777  0.9687  0.7232
  345TMC3    H2 5178   2.242   3.291  10.687  0.4126 -0.0142 -0.4887
  345TMC3    C7 5179   2.354   3.146  10.518  0.1691 -0.1298  0.1000
  345TMC3    C8 5180   2.024   3.276  10.818  0.5654  0.3253 -0.4430
  345TMC3    O1 5181   2.394   3.264  10.541  0.0927  0.5939  0.1568
  345TMC3    O2 5182   2.034   3.379  10.755 -0.5411  0.0173 -0.2023
  346MPD2     C 5183   1.573   4.472  13.817 -0.3141 -0.1038 -0.2816
  346MPD2    C1 5184   1.633   4.591  13.811  0.2059 -1.2033 -0.3570
  346MPD2    C2 5185   1.620   4.671  13.927  0.4403 -0.3565 -0.0370
  346MPD2    C3 5186   1.532   4.637  14.030  0.1701 -0.1127 -0.0514
  346MPD2    C4 5187   1.455   4.525  14.022 -0.3594  0.5491 -0.2550
  346MPD2    C5 5188   1.491   4.440  13.921  0.0725  0.1868 -0.2918
  346MPD2     H 5189   1.676   0.038  13.936 -0.2029  0.0678 -0.3355
  346MPD2    H1 5190   1.374   4.490  14.084  1.0783 -3.1253 -0.4174
  346MPD2    H2 5191   1.578   4.401  13.735  1.0366 -2.3294  1.7387
  346MPD2    H3 5192   1.443   4.343  13.908  1.5476 -0.4596 -0.8696
  346MPD2     N 5193   1.530   0.005  14.144 -0.0758  0.2251  0.3908
  346MPD2    H5 5194   1.590   0.087  14.146  0.6260 -0.3140  1.9157
  346MPD2    N1 5195   1.719   4.636  13.704  0.2856 -0.0755 -0.2519
  346MPD2    H7 5196   1.759   0.004  13.714 -0.0129  0.1480 -1.1433
  347TMC3    C1 5197   1.503   0.054  14.369 -0.8348 -0.0306  0.5469
  347TMC3    C2 5198   1.616   0.131  14.364  0.9737  0.1920 -0.2608
  347TMC3    C3 5199   1.681   0.160  14.484 -0.3300 -0.0756  0.0097
  347TMC3    C4 5200   1.450   0.014  14.490  0.5733  0.5178 -0.5762
  347TMC3    C5 5201   1.520   0.050  14.606  0.2580  0.3098  0.2020
  347TMC3    C6 5202   1.644   0.111  14.600 -0.1637 -1.6139 -0.1513
  347TMC3     C 5203   1.465   4.699  14.258  0.6626  0.5625 -0.2108
  347TMC3     O 5204   1.376   4.622  14.272 -0.2125  0.2747  0.4549
  347TMC3     H 5205   1.649   0.186  14.277  2.4022  0.3935  0.4124
  347TMC3    H1 5206   1.355   4.689  14.500  0.9096  0.6750  3.3949
  347TMC3    H2 5207   1.692   0.141  14.693 -2.1082 -0.6553  0.5343
  347TMC3    C7 5208   1.475   4.700  14.729  0.3504 -0.7103  0.0181
  347TMC3    C8 5209   1.815   0.217  14.470 -0.0966 -0.2178 -0.7687
  347TMC3    O1 5210   1.367   4.646  14.719 -0.2549  0.6831 -0.6486
  347TMC3    O2 5211   1.862   0.196  14.362  0.2875 -0.2478  0.3276
  348MPD2     C 5212   0.432   4.157  11.852  0.4654  0.5015  0.5054
  348MPD2    C1 5213   0.415   4.128  11.713  0.3521  0.1839 -0.4337
  348MPD2    C2 5214   0.343   4.214  11.637  0.9628  0.9925  0.1107
  348MPD2    C3 5215   0.275   4.325  11.688 -0.2468  0.0918 -0.9166
  348MPD2    C4 5216   0.293   4.353  11.825  0.0957  0.1177  0.2370
  348MPD2    C5 5217   0.367   4.266  11.901 -0.2181 -0.2077  0.3230
  348MPD2     H 5218   0.329   4.186  11.533 -3.3330 -4.1519  2.0517
  348MPD2    H1 5219   0.247   4.435  11.878  1.0004  0.8138 -0.0454
  348MPD2    H2 5220   0.501   4.095  11.908 -1.9672 -0.2295  2.7108
  348MPD2    H3 5221   0.385   4.295  12.003 -0.1574  0.8167  0.0178
  348MPD2     N 5222   0.209   4.415  11.594  0.1487 -0.2071 -0.3271
  348MPD2    H5 5223   0.198   4.382  11.499  0.3824  0.5434 -0.6137
  348MPD2    N1 5224   0.460   4.005  11.664 -0.0032  0.0612  0.5541
  348MPD2    H7 5225   0.450   3.989  11.564 -0.9967  2.0080  0.3517
  349TMC3    C1 5226   0.547   3.782  11.665 -0.7092  0.1888  0.5657
  349TMC3    C2 5227   0.569   3.664  11.732 -0.2899  0.6249 -0.3497
  349TMC3    C3 5228   0.612   3.558  11.659  0.0517  0.1664 -0.4241
  349TMC3    C4 5229   0.540   3.781  11.529  0.1275 -0.1322  0.0062
  349TMC3    C5 5230   0.564   3.661  11.462 -0.5172 -0.0423 -0.0974
  349TMC3    C6 5231   0.606   3.549  11.522  0.0410  0.2649 -0.7558
  349TMC3     C 5232   0.494   3.888  11.739  0.2040  0.6070 -0.2876
  349TMC3     O 5233   0.496   3.876  11.859  0.2777  0.1408 -0.3075
  349TMC3     H 5234   0.603   3.675  11.834 -1.4590 -3.1715  0.4570
  349TMC3    H1 5235   0.514   3.874  11.478  2.3592 -0.2249 -1.2938
  349TMC3    H2 5236   0.612   3.453  11.473 -0.2518 -0.5624  0.8236
  349TMC3    C7 5237   0.514   3.654  11.322  0.3354  0.5045  0.0137
  349TMC3    C8 5238   0.627   3.430  11.737  0.7948  0.3457  0.2442
  349TMC3    O1 5239   0.485   3.762  11.270 -0.6796  0.0705 -0.5529
  349TMC3    O2 5240   0.671   3.329  11.681  0.2560  0.6907 -0.4865
  350MPD2     C 5241   3.810   1.000   9.877 -0.0453  0.2255 -0.0993
  350MPD2    C1 5242   3.923   1.007   9.953  0.8299  0.1474  0.5458
  350MPD2    C2 5243   3.959   1.129  10.002  0.2406 -0.4575 -0.3139
  350MPD2    C3 5244   3.887   1.241   9.988 -0.0609  0.1096  0.1974
  350MPD2    C4 5245   3.772   1.227   9.915 -0.1084  0.5070  0.7895
  350MPD2    C5 5246   3.736   1.114   9.864  0.4261 -0.6712  0.8917
  350MPD2     H 5247   4.052   1.133  10.057 -1.6597 -0.6595  2.8878
  350MPD2    H1 5248   3.698   1.304   9.893  0.1725  1.2141  2.3618
  350MPD2    H2 5249   3.778   0.905   9.836 -0.1730  1.3399 -2.5912
  350MPD2    H3 5250   3.650   1.118   9.798  0.1135 -2.1901  1.2100
  350MPD2     N 5251   3.931   1.374  10.023  0.1841  0.1358  0.5039
  350MPD2    H5 5252   4.025   1.388  10.059 -0.3824  1.8517  1.3115
  350MPD2    N1 5253   4.010   0.898   9.980 -0.0084 -0.8379 -0.1796
  350MPD2    H7 5254   4.084   0.916  10.047 -0.9363 -1.4114  0.9927
  351TMC3    C1 5255   4.093   0.672   9.979 -0.4443 -0.0231 -0.8433
  351TMC3    C2 5256   4.216   0.723   9.993  0.5636  0.5877 -0.1299
  351TMC3    C3 5257   4.314   0.644  10.049 -0.6994 -0.0169  0.5159
  351TMC3    C4 5258   4.058   0.547  10.020 -0.1548  0.1081 -0.9385
  351TMC3    C5 5259   4.161   0.473  10.081 -0.9902  0.0100  0.7151
  351TMC3    C6 5260   4.292   0.518  10.098  0.3814  0.1975  0.4629
  351TMC3     C 5261   3.981   0.765   9.948  0.1865 -0.4682 -0.3950
  351TMC3     O 5262   3.879   0.712   9.900  0.0865 -0.7756  0.2662
  351TMC3     H 5263   4.237   0.810   9.932 -1.0655  0.1680 -1.2908
  351TMC3    H1 5264   3.951   0.529  10.032  0.0224  1.5674  2.8771
  351TMC3    H2 5265   4.361   0.466  10.163  0.1945 -1.5327 -0.7021
  351TMC3    C7 5266   4.114   0.349  10.133  0.1673 -0.3322  0.3962
  351TMC3    C8 5267   4.452   0.679  10.037 -0.0068 -0.6829 -0.0968
  351TMC3    O1 5268   3.993   0.332  10.122 -0.3121 -0.4288  0.4472
  351TMC3    O2 5269   4.528   0.586  10.059 -0.2011  0.2605 -0.0246
  352MPD2     C 5270   2.489   3.767   0.587  0.4986 -0.6298 -0.4218
  352MPD2    C1 5271   2.433   3.816   0.706 -0.1143  0.4595  0.1213
  352MPD2    C2 5272   2.365   3.728   0.792  0.4811 -0.8326 -0.5607
  352MPD2    C3 5273   2.338   3.597   0.754 -0.6955 -0.2867 -0.3134
  352MPD2    C4 5274   2.403   3.556   0.643  0.3197  0.0284 -0.2784
  352MPD2    C5 5275   2.474   3.635   0.558 -0.5810  0.6556  0.0291
  352MPD2     H 5276   2.320   3.775   0.879 -1.0106  0.8864 -2.2697
  352MPD2    H1 5277   2.383   3.453   0.615 -1.1776  0.1955  0.1660
  352MPD2    H2 5278   2.543   3.827   0.515 -1.7494 -0.0353 -1.6199
  352MPD2    H3 5279   2.522   3.582   0.476 -1.3751  0.9165 -0.6190
  352MPD2     N 5280   2.265   3.502   0.832  0.4575 -0.0441  0.2849
  352MPD2    H5 5281   2.223   3.428   0.777  0.7761  0.3952 -0.5457
  352MPD2    N1 5282   2.455   3.952   0.733 -0.1555  0.6552 -0.4358
  352MPD2    H7 5283   2.500   4.013   0.666  1.8439 -0.4372 -0.0994
  353TMC3    C1 5284   2.097   3.442   0.980 -0.0606 -0.8685  0.3094
  353TMC3    C2 5285   2.097   3.378   1.100  0.0907 -0.4497  0.0915
  353TMC3    C3 5286   2.017   3.266   1.119 -0.0004 -0.5849  0.4625
  353TMC3    C4 5287   2.038   3.387   0.872  1.1456 -0.0194 -0.0655
  353TMC3    C5 5288   1.964   3.281   0.893 -0.7616  0.1732 -0.0574
  353TMC3    C6 5289   1.954   3.217   1.013 -0.0239  0.2869  0.2931
  353TMC3     C 5290   2.211   3.523   0.954 -0.6908 -0.1131  0.3582
  353TMC3     O 5291   2.239   3.615   1.030  0.0128 -0.5154 -0.1152
  353TMC3     H 5292   2.155   3.421   1.180  1.9169 -0.7974 -1.0501
  353TMC3    H1 5293   2.052   3.431   0.774  0.5231 -1.1910 -0.6748
  353TMC3    H2 5294   1.885   3.134   1.029 -1.3389  1.7538  2.1177
  353TMC3    C7 5295   1.920   3.219   0.763 -0.0844 -0.5629 -0.7748
  353TMC3    C8 5296   2.039   3.188   1.237  0.0630  0.1120  0.2136
  353TMC3    O1 5297   1.974   3.254   0.655 -0.2994  0.3960  0.4232
  353TMC3    O2 5298   2.089   3.251   1.327 -0.5844 -0.0021 -0.3671
  354TMC3    C1 5299   4.453   1.165  13.468 -0.1710  0.4124  0.3413
  354TMC3    C2 5300   4.433   1.289  13.408  0.3958  0.0829  1.0310
  354TMC3    C3 5301   4.360   1.279  13.289 -0.2598  0.9155 -0.6304
  354TMC3    C4 5302   4.414   1.049  13.421  0.6735  0.4392 -0.4236
  354TMC3    C5 5303   4.359   1.040  13.296  0.9599 -0.1202 -0.3268
  354TMC3    C6 5304   4.328   1.157  13.236  0.7570  0.6533 -0.4823
  354TMC3     C 5305   4.481   1.167  13.608 -0.6897 -0.9418 -0.5040
  354TMC3     O 5306   4.522   1.062  13.659 -0.1785 -0.3016 -0.0447
  354TMC3     H 5307   4.463   1.379  13.461  1.3552  0.0673  0.5056
  354TMC3    H1 5308   4.462   0.958  13.457 -2.4604 -1.3605 -0.7781
  354TMC3    H2 5309   4.264   1.152  13.149  0.4117 -0.0996 -0.1829
  354TMC3    C7 5310   4.438   0.956  13.205 -0.8649  0.6270 -0.1992
  354TMC3    C8 5311   4.385   1.382  13.194 -0.0126 -0.0298 -0.6339
  354TMC3    O1 5312   4.465   0.842  13.234  0.1637 -0.3958  0.0595
  354TMC3    O2 5313   4.422   1.351  13.083  0.1218 -0.2211 -0.3620
  355MPD2     C 5314   4.284   2.123  11.483 -0.5370 -0.1962 -0.8158
  355MPD2    C1 5315   4.383   2.037  11.445 -0.1420  0.3306  0.2129
  355MPD2    C2 5316   4.394   1.916  11.502  0.1499 -0.4761  0.3069
  355MPD2    C3 5317   4.305   1.885  11.611  0.0872 -0.3636 -0.2469
  355MPD2    C4 5318   4.231   1.979  11.671 -0.8848  0.1974 -0.2805
  355MPD2    C5 5319   4.218   2.095  11.602 -0.3560  0.1394 -0.3541
  355MPD2     H 5320   4.458   1.834  11.470 -0.5037  0.2953 -2.8715
  355MPD2    H1 5321   4.166   1.963  11.756 -0.1597  2.3431  0.6869
  355MPD2    H2 5322   4.278   2.223  11.442 -0.4815 -0.9172 -2.5527
  355MPD2    H3 5323   4.160   2.174  11.650 -0.8206  0.9349 -2.2187
  355MPD2     N 5324   4.328   1.763  11.682  0.1249 -0.4771  0.2813
  355MPD2    H5 5325   4.290   1.757  11.776 -0.7126 -0.4375 -0.0515
  355MPD2    N1 5326   4.466   2.077  11.334 -0.4791 -0.0106  0.2208
  355MPD2    H7 5327   4.455   2.166  11.286 -0.8299 -0.3272 -0.2941
  356TMC3    C1 5328   4.551   1.673  11.689 -0.4115 -0.1457 -0.2226
  356TMC3    C2 5329   4.648   1.705  11.601 -0.4372 -0.0088  0.5316
  356TMC3    C3 5330   0.024   1.795  11.637 -0.6221  0.0586  0.0309
  356TMC3    C4 5331   4.561   1.715  11.817 -0.3085 -0.9719  0.4261
  356TMC3    C5 5332   4.671   1.786  11.848 -0.4714  0.1584 -0.5785
  356TMC3    C6 5333   0.041   1.832  11.761  0.6726  0.0293  0.1291
  356TMC3     C 5334   4.419   1.665  11.628  0.1461 -0.3867  0.0118
  356TMC3     O 5335   4.413   1.613  11.515 -0.6513  0.1864 -0.0768
  356TMC3     H 5336   4.648   1.671  11.498  2.1431  3.4764 -0.5899
  356TMC3    H1 5337   4.486   1.681  11.888  0.1017 -0.7072  0.9830
  356TMC3    H2 5338   0.122   1.900  11.784 -1.0717  1.5696  1.7027
  356TMC3    C7 5339   4.694   1.809  11.993 -0.5511  0.5528  0.0812
  356TMC3    C8 5340   0.119   1.830  11.533  0.6155  0.1945  0.1923
  356TMC3    O1 5341   4.609   1.767  12.074  0.1319  0.1989  0.4546
  356TMC3    O2 5342   0.147   1.743  11.455 -0.0818  0.5676 -0.0689
  357MPD2     C 5343   4.008   0.999   1.242  0.3725  0.0598  0.0937
  357MPD2    C1 5344   4.082   1.116   1.248  0.4047  0.0784 -0.1679
  357MPD2    C2 5345   4.033   1.223   1.329  0.2465  0.6905 -0.4124
  357MPD2    C3 5346   3.910   1.221   1.398  0.8307 -0.2933 -0.0749
  357MPD2    C4 5347   3.849   1.100   1.386  0.4488  0.2976  0.3871
  357MPD2    C5 5348   3.888   1.003   1.297  0.1446  0.5669 -0.4770
  357MPD2     H 5349   4.088   1.316   1.338  1.0267  0.2512 -0.7114
  357MPD2    H1 5350   3.756   1.086   1.439 -1.7948  1.3717 -3.3262
  357MPD2    H2 5351   4.040   0.916   1.179 -0.2700 -0.5256  0.5469
  357MPD2    H3 5352   3.821   0.920   1.280  1.3067 -0.6779  1.0309
  357MPD2     N 5353   3.860   1.320   1.488  0.2810  0.2747 -0.2954
  357MPD2    H5 5354   3.790   1.290   1.555 -0.0682  0.8968 -0.3897
  357MPD2    N1 5355   4.206   1.129   1.163  0.2425 -0.3868  0.7973
  357MPD2    H7 5356   4.227   1.040   1.118  1.0773  0.3615 -0.2949
  358TMC3    C1 5357   4.417   1.203   1.097 -0.0896 -0.2344 -0.3668
  358TMC3    C2 5358   4.403   1.173   0.967 -0.0916  0.4664 -0.6306
  358TMC3    C3 5359   4.524   1.186   0.894 -0.2024  0.8996  0.0662
  358TMC3    C4 5360   4.533   1.261   1.148 -0.0783  0.3193 -0.2423
  358TMC3    C5 5361   4.634   1.295   1.061 -0.4277  0.1020  0.1074
  358TMC3    C6 5362   4.626   1.269   0.929  0.2265 -0.5659 -1.2037
  358TMC3     C 5363   4.296   1.231   1.173  0.3236 -0.0843  0.1691
  358TMC3     O 5364   4.290   1.330   1.246 -0.4785  0.5544 -1.1159
  358TMC3     H 5365   4.315   1.122   0.928  0.0347 -0.5595  0.4765
  358TMC3    H1 5366   4.538   1.287   1.254  1.1784  1.5678 -0.6126
  358TMC3    H2 5367   4.718   1.264   0.872  1.1949  0.7112  0.2502
  358TMC3    C7 5368   0.031   1.352   1.110  0.0042 -0.5860 -0.5034
  358TMC3    C8 5369   4.523   1.150   0.751 -0.8590 -0.6725  0.3252
  358TMC3    O1 5370   0.139   1.317   1.058  0.0113  0.4160 -0.0428
  358TMC3    O2 5371   4.427   1.085   0.719  0.4244 -0.3774 -0.2600
  359MPD2     C 5372   4.340   4.588  12.444  0.7595  0.2744  0.7829
  359MPD2    C1 5373   4.332   4.668  12.329 -0.0401 -0.0173  0.7571
  359MPD2    C2 5374   4.220   0.029  12.314 -0.8483  0.5199 -0.3678
  359MPD2    C3 5375   4.116   0.019  12.408  0.4266 -0.0905 -0.2071
  359MPD2    C4 5376   4.131   4.665  12.520 -0.9120 -0.2857  0.3114
  359MPD2    C5 5377   4.236   4.583  12.534 -0.0259  0.5476  0.0792
  359MPD2     H 5378   4.209   0.092  12.228 -0.1641  0.2964 -0.6164
  359MPD2    H1 5379   4.053   4.651  12.595  0.1626  1.0758  1.6923
  359MPD2    H2 5380   4.425   4.522  12.450 -0.1569 -0.8069  1.8353
  359MPD2    H3 5381   4.250   4.522  12.623 -0.3518  1.6255  0.8756
  359MPD2     N 5382   4.002   0.099  12.393  0.5088  0.3222 -0.2060
  359MPD2    H5 5383   3.943   0.088  12.474 -0.9420 -0.4689 -1.3711
  359MPD2    N1 5384   4.442   4.685  12.237  0.4173 -0.2628  0.3491
  359MPD2    H7 5385   4.421   0.006  12.149 -1.0289  0.0645  0.8576
  360TMC3    C1 5386   4.656   4.687  12.136 -0.6719 -0.5148 -0.5996
  360TMC3    C2 5387   0.062   4.716  12.147 -0.4092  0.6852 -0.7691
  360TMC3    C3 5388   0.132   0.033  12.034  0.7918 -0.4271 -0.0766
  360TMC3    C4 5389   4.588   4.706  12.017  0.2063  0.5779  0.2970
  360TMC3    C5 5390   4.661   0.030  11.915 -0.7472 -0.5351  0.7404
  360TMC3    C6 5391   0.067   0.072  11.918  0.3752  0.5318 -0.0813
  360TMC3     C 5392   4.576   4.659  12.260  0.5028  0.2077  0.3525
  360TMC3     O 5393   4.628   4.617  12.363 -0.0322 -0.4193 -0.0866
  360TMC3     H 5394   0.108   4.670  12.233 -2.1622 -0.6521 -0.5541
  360TMC3    H1 5395   4.488   4.669  11.998  0.2328  0.4258  0.4450
  360TMC3    H2 5396   0.123   0.102  11.830  1.4032  1.9643  1.0468
  360TMC3    C7 5397   4.607   0.038  11.790 -0.0855  0.8272  0.3586
  360TMC3    C8 5398   0.277   0.023  12.047 -0.0705 -0.1157 -0.1421
  360TMC3    O1 5399   4.636   0.142  11.733  0.0335  0.1867  0.6160
  360TMC3    O2 5400   0.331   0.030  12.155 -0.3156 -0.7415  0.1321
  361MPD2     C 5401   1.499   3.144  16.954 -0.2847  0.1014 -1.5166
  361MPD2    C1 5402   1.541   3.265  16.987 -0.0565 -0.2529 -0.4560
  361MPD2    C2 5403   1.669   3.308  16.962  0.4265  0.6263  0.3191
  361MPD2    C3 5404   1.753   3.221  16.886 -0.2893  0.3239 -0.0163
  361MPD2    C4 5405   1.701   3.107  16.835 -0.6126  0.3800  0.4871
  361MPD2    C5 5406   1.582   3.065  16.873  1.2282  0.1025  1.4450
  361MPD2     H 5407   1.707   3.401  17.004 -1.2985  1.2729  0.4827
  361MPD2    H1 5408   1.755   3.046  16.763  0.8186 -0.6093  2.4140
  361MPD2    H2 5409   1.403   3.104  16.985  0.1397  0.3576  0.1328
  361MPD2    H3 5410   1.542   2.970  16.839  2.5662  0.0324  0.0650
  361MPD2     N 5411   1.881   3.258  16.840  0.0152  0.0815 -0.0612
  361MPD2    H5 5412   1.930   3.185  16.789 -0.9537  0.6168 -1.7426
  361MPD2    N1 5413   1.457   3.354  17.059 -0.8623 -0.0712 -0.1320
  361MPD2    H7 5414   1.488   3.448  17.081 -2.8122  0.1019  1.8210
  362TMC3    C1 5415   1.244   3.465  17.078 -0.7053 -0.9256 -0.0756
  362TMC3    C2 5416   1.115   3.454  17.124  0.3132 -0.2469 -0.4975
  362TMC3    C3 5417   1.026   3.545  17.072  0.2800 -0.5042 -0.0721
  362TMC3    C4 5418   1.277   3.548  16.976  0.0208 -0.1837 -0.5180
  362TMC3    C5 5419   1.178   3.628  16.919 -0.3150  0.7161 -0.1246
  362TMC3    C6 5420   1.053   3.631  16.973  0.7017 -0.1130 -0.3008
  362TMC3     C 5421   1.322   3.340  17.086 -0.0278 -0.4360  0.5717
  362TMC3     O 5422   1.249   3.246  17.061  0.0510 -0.4782  0.1622
  362TMC3     H 5423   1.087   3.378  17.195  1.0698 -1.2415 -1.2583
  362TMC3    H1 5424   1.375   3.547  16.930 -0.3799  0.6445 -1.3946
  362TMC3    H2 5425   0.972   3.688  16.928 -0.4927 -1.4221  0.1768
  362TMC3    C7 5426   1.204   3.705  16.788 -0.2115  0.4943  0.6037
  362TMC3    C8 5427   0.888   3.527  17.110  0.0185  0.5085  0.0199
  362TMC3    O1 5428   1.124   3.795  16.768  0.5350  0.5277  0.1761
  362TMC3    O2 5429   0.862   3.410  17.125 -0.4305 -0.5829  0.7202
  363TMC3    C1 5430   1.158   1.328   9.311  0.3753 -0.4762 -0.4121
  363TMC3    C2 5431   1.224   1.218   9.360  0.2360  0.4914 -0.1196
  363TMC3    C3 5432   1.147   1.112   9.404 -0.7068  0.4485  0.3476
  363TMC3    C4 5433   1.021   1.324   9.301  0.1324 -0.2001  0.1911
  363TMC3    C5 5434   0.946   1.215   9.345 -0.1400 -0.0306 -0.1570
  363TMC3    C6 5435   1.005   1.101   9.388  0.6030  0.1517  0.0149
  363TMC3     C 5436   1.218   1.449   9.264 -0.3106  0.0668  0.4374
  363TMC3     O 5437   1.148   1.534   9.213 -0.9048 -0.2225  0.7208
  363TMC3     H 5438   1.333   1.213   9.367  0.0979 -0.5241  1.2547
  363TMC3    H1 5439   0.980   1.402   9.237 -0.9757 -1.6280 -0.8282
  363TMC3    H2 5440   0.935   1.025   9.422  1.6464 -0.0285  1.7834
  363TMC3    C7 5441   0.802   1.209   9.315  0.6283 -0.6220 -0.1363
  363TMC3    C8 5442   1.231   0.997   9.429  0.0414  0.5537  0.0443
  363TMC3    O1 5443   0.746   1.098   9.317 -0.4375  0.2892 -0.4880
  363TMC3    O2 5444   1.346   1.013   9.469 -0.1872  0.4358 -0.5264
  364MPD2     C 5445   3.540   1.561  10.793  0.3118  0.0222  0.3723
  364MPD2    C1 5446   3.558   1.455  10.706 -0.0401  0.1930 -0.6243
  364MPD2    C2 5447   3.538   1.323  10.746 -0.9689  0.2474  0.1192
  364MPD2    C3 5448   3.502   1.293  10.879 -0.3705 -0.0375 -0.5661
  364MPD2    C4 5449   3.487   1.401  10.964 -0.9025 -0.1642  0.5281
  364MPD2    C5 5450   3.501   1.530  10.921  0.2145  1.0301  0.2066
  364MPD2     H 5451   3.541   1.239  10.678 -1.2129 -0.3239  0.8125
  364MPD2    H1 5452   3.456   1.378  11.065  1.0257 -1.6209  0.7819
  364MPD2    H2 5453   3.560   1.664  10.767 -0.1798 -0.7646 -3.1635
  364MPD2    H3 5454   3.492   1.611  10.993 -0.1437  2.1782 -1.1199
  364MPD2     N 5455   3.474   1.166  10.925 -0.4126 -0.1578 -0.1879
  364MPD2    H5 5456   3.465   1.146  11.024 -0.1851  1.6122  0.1836
  364MPD2    N1 5457   3.620   1.492  10.584  0.1141  0.2617  0.2971
  364MPD2    H7 5458   3.625   1.591  10.561 -2.0671  0.4718  0.6800
  365TMC3    C1 5459   3.779   1.444  10.411  0.3993 -0.6928  0.5549
  365TMC3    C2 5460   3.871   1.345  10.377  0.6353 -0.8636  0.1299
  365TMC3    C3 5461   4.003   1.388  10.356 -0.5445  0.5516 -0.3402
  365TMC3    C4 5462   3.817   1.574  10.417 -0.0036  1.1165  0.3045
  365TMC3    C5 5463   3.949   1.608  10.387 -0.0942 -0.2024 -0.2368
  365TMC3    C6 5464   4.043   1.517  10.355  0.4047  0.5228  0.0554
  365TMC3     C 5465   3.669   1.396  10.494  0.3057  0.3423  0.3855
  365TMC3     O 5466   3.665   1.277  10.498  0.0485 -0.0432  0.5581
  365TMC3     H 5467   3.844   1.240  10.383 -0.7553 -0.5655 -0.8826
  365TMC3    H1 5468   3.744   1.652  10.437 -2.6545 -1.4474  0.5333
  365TMC3    H2 5469   4.145   1.550  10.339  0.8163  0.3085  2.1787
  365TMC3    C7 5470   3.998   1.695  10.493  0.2956 -0.1798  0.8596
  365TMC3    C8 5471   4.111   1.284  10.333  0.0268 -0.2806 -0.5641
  365TMC3    O1 5472   4.110   1.745  10.475  0.0329  0.5941 -0.1412
  365TMC3    O2 5473   4.208   1.327  10.269  0.1557 -0.5838 -0.0929
  366MPD2     C 5474   1.882   1.744  15.147  0.3206 -0.0080  0.0763
  366MPD2    C1 5475   1.924   1.814  15.257 -0.2280  0.5253  0.1162
  366MPD2    C2 5476   2.063   1.835  15.279 -0.0636 -0.2002  0.4136
  366MPD2    C3 5477   2.150   1.799  15.180 -0.0870  0.0459 -0.1210
  366MPD2    C4 5478   2.106   1.733  15.064  0.5542 -0.0097  0.4628
  366MPD2    C5 5479   1.975   1.705  15.054 -0.0272 -0.5772 -0.5495
  366MPD2     H 5480   2.093   1.891  15.366  0.9994 -2.3625  1.4380
  366MPD2    H1 5481   2.172   1.693  14.988  0.6343  1.8650 -0.4528
  366MPD2    H2 5482   1.778   1.721  15.130  0.2686  0.6487 -0.4755
  366MPD2    H3 5483   1.928   1.656  14.970 -0.3403 -0.1464 -0.6273
  366MPD2     N 5484   2.284   1.836  15.206 -0.0975 -0.0640  0.6495
  366MPD2    H5 5485   2.302   1.882  15.294  1.0670  0.5061  0.1106
  366MPD2    N1 5486   1.838   1.868  15.353 -0.0393 -0.5195 -0.2945
  366MPD2    H7 5487   1.890   1.921  15.422 -1.4547  1.2674 -0.5692
  367TMC3    C1 5488   1.671   2.014  15.402 -0.3443  0.3555 -0.6360
  367TMC3    C2 5489   1.776   2.075  15.465 -0.0112 -0.0282 -0.3524
  367TMC3    C3 5490   1.807   2.205  15.427 -0.1579 -0.0137 -0.0530
  367TMC3    C4 5491   1.584   2.094  15.326  0.3293  0.0992  0.5183
  367TMC3    C5 5492   1.610   2.230  15.304 -0.2838 -0.1417  0.3446
  367TMC3    C6 5493   1.731   2.283  15.348  0.1438 -0.2761 -0.3236
  367TMC3     C 5494   1.706   1.897  15.331  0.2684  0.0290 -0.3061
  367TMC3     O 5495   1.637   1.869  15.235  0.6901  0.2544  0.3388
  367TMC3     H 5496   1.841   2.037  15.544 -0.4512  0.3335  0.1896
  367TMC3    H1 5497   1.498   2.052  15.275 -1.5725  1.9194  2.2108
  367TMC3    H2 5498   1.759   2.384  15.320 -0.2334 -0.1493 -0.2413
  367TMC3    C7 5499   1.519   2.324  15.239 -0.0646 -0.4644 -0.2729
  367TMC3    C8 5500   1.932   2.264  15.479  0.3365  0.1313  0.0441
  367TMC3    O1 5501   1.541   2.438  15.274 -0.3798  0.3660  0.3258
  367TMC3    O2 5502   2.017   2.175  15.499 -0.1595  0.0287 -0.0565
  368MPD2     C 5503   3.599   4.123  13.497 -0.3080  0.7392  0.3618
  368MPD2    C1 5504   3.595   4.114  13.358 -0.5659 -0.5430  0.4360
  368MPD2    C2 5505   3.707   4.119  13.281  0.2421 -0.0577  0.2427
  368MPD2    C3 5506   3.827   4.140  13.340 -0.1984 -0.6382 -0.3441
  368MPD2    C4 5507   3.837   4.149  13.476  0.2423  0.1739 -0.2785
  368MPD2    C5 5508   3.726   4.137  13.549 -0.4567 -0.5067 -0.4616
  368MPD2     H 5509   3.701   4.113  13.172  3.1317  0.9606  0.0361
  368MPD2    H1 5510   3.930   4.151  13.531  0.1337  0.8261 -0.1226
  368MPD2    H2 5511   3.515   4.120  13.566 -0.2461  0.7804  0.4383
  368MPD2    H3 5512   3.746   4.143  13.656 -0.7990  1.2578 -0.5038
  368MPD2     N 5513   3.948   4.160  13.269  0.1780  0.0525 -0.8196
  368MPD2    H5 5514   4.031   4.178  13.326  0.5851 -2.8530 -0.5147
  368MPD2    N1 5515   3.471   4.109  13.295  0.3358  0.2320  0.0808
  368MPD2    H7 5516   3.394   4.074  13.352 -0.0410 -0.1785 -0.6780
  369TMC3    C1 5517   3.316   4.130  13.118 -0.6897 -0.5777  0.1166
  369TMC3    C2 5518   3.296   4.188  12.989 -0.1000  0.1969  0.0192
  369TMC3    C3 5519   3.170   4.204  12.948 -0.1156  0.5504 -0.3515
  369TMC3    C4 5520   3.215   4.076  13.182 -0.7538 -0.1422  0.3078
  369TMC3    C5 5521   3.086   4.083  13.124  0.1102  0.1062  0.3769
  369TMC3    C6 5522   3.059   4.146  13.006  0.1317  0.2826 -0.6685
  369TMC3     C 5523   3.450   4.139  13.171 -0.5506  0.3117  0.2014
  369TMC3     O 5524   3.515   4.216  13.105 -0.3006  0.3982 -0.1061
  369TMC3     H 5525   3.378   4.247  12.949  0.9430 -0.0983  1.6888
  369TMC3    H1 5526   3.221   4.045  13.286 -0.1162 -1.7528 -0.2112
  369TMC3    H2 5527   2.970   4.169  12.948  1.0843  0.2441 -2.1483
  369TMC3    C7 5528   2.981   4.027  13.205  0.0346  0.7933  0.6530
  369TMC3    C8 5529   3.157   4.243  12.811 -0.0862 -0.3828  0.2276
  369TMC3    O1 5530   3.002   3.980  13.317  0.2072 -0.1337 -0.2756
  369TMC3    O2 5531   3.056   4.304  12.781 -0.5587 -0.0311 -0.1927
  370TMC3    C1 5532   2.701   4.549  15.955  0.5404 -0.2277 -0.0927
  370TMC3    C2 5533   2.626   4.483  16.045  0.2417  0.0339  0.0204
  370TMC3    C3 5534   2.608   4.347  16.041  0.4699 -1.0959 -0.0294
  370TMC3    C4 5535   2.767   4.473  15.854 -0.1303 -0.0430  0.1267
  370TMC3    C5 5536   2.745   4.333  15.857  0.0240  0.0461 -0.4237
  370TMC3    C6 5537   2.659   4.272  15.945  0.3666 -0.6776  0.1370
  370TMC3     C 5538   2.667   4.689  15.921 -0.3384  0.2611 -0.8482
  370TMC3     O 5539   2.564   0.006  15.966  0.0408  0.0495 -0.5695
  370TMC3     H 5540   2.561   4.542  16.109 -0.8417 -0.5680 -0.5291
  370TMC3    H1 5541   2.811   4.521  15.768  1.4403  2.2485  2.2162
  370TMC3    H2 5542   2.652   4.164  15.935  2.5286 -0.9529  1.5738
  370TMC3    C7 5543   2.785   4.256  15.738  0.3243 -0.5800  0.7482
  370TMC3    C8 5544   2.567   4.278  16.162  0.4753 -0.4529 -0.5930
  370TMC3    O1 5545   2.901   4.267  15.702 -0.2673  0.1338 -0.6178
  370TMC3    O2 5546   2.526   4.163  16.147  0.1557  0.1664 -0.3105
  371TMC3    C1 5547   4.059   2.801  15.162 -0.4921  0.7261  0.0834
  371TMC3    C2 5548   3.921   2.813  15.180 -0.3199 -0.3391  0.8113
  371TMC3    C3 5549   3.856   2.935  15.161 -0.3288 -0.0633  0.1213
  371TMC3    C4 5550   4.132   2.906  15.113 -0.2408  0.4782 -0.3039
  371TMC3    C5 5551   4.065   3.022  15.092  0.3283  0.0126 -0.8180
  371TMC3    C6 5552   3.930   3.041  15.118 -0.1132 -0.1126  0.7669
  371TMC3     C 5553   4.140   2.686  15.184  0.3039 -0.1312 -0.2967
  371TMC3     O 5554   4.250   2.679  15.132 -0.3198  0.5642 -0.0626
  371TMC3     H 5555   3.862   2.726  15.207 -0.9208  0.6292  2.6080
  371TMC3    H1 5556   4.240   2.909  15.107 -0.1768  0.7414  1.1316
  371TMC3    H2 5557   3.882   3.136  15.097  1.2364  0.2030 -0.9395
  371TMC3    C7 5558   4.132   3.121  15.023 -0.7695 -0.7020  0.0933
  371TMC3    C8 5559   3.708   2.936  15.147 -0.1343  0.1597  0.4227
  371TMC3    O1 5560   4.101   3.240  15.041 -0.4401 -0.0101  0.2149
  371TMC3    O2 5561   3.655   2.831  15.112  0.7433 -0.0586 -0.1752
  372MPD2     C 5562   3.038   4.432  13.273  0.7932  0.0712 -0.4139
  372MPD2    C1 5563   3.142   4.393  13.349 -0.8515  0.3512  0.5549
  372MPD2    C2 5564   3.123   4.308  13.455  0.4172 -0.9995 -0.2661
  372MPD2    C3 5565   2.999   4.256  13.492 -1.0011  0.0038 -0.1458
  372MPD2    C4 5566   2.896   4.299  13.420 -0.0232  0.6627  0.5427
  372MPD2    C5 5567   2.914   4.384  13.311 -0.3779  0.0109 -0.2428
  372MPD2     H 5568   3.214   4.267  13.497  0.2700 -3.5157 -2.3683
  372MPD2    H1 5569   2.790   4.281  13.433 -0.0478  1.6576  1.7149
  372MPD2    H2 5570   3.040   4.501  13.188  2.0426  0.6312  0.0609
  372MPD2    H3 5571   2.825   4.434  13.275 -0.1124  1.7240  1.4281
  372MPD2     N 5572   2.992   4.161  13.592  0.2418  0.2268 -0.3921
  372MPD2    H5 5573   3.081   4.133  13.632 -0.3638 -2.4822 -0.9709
  372MPD2    N1 5574   3.280   4.431  13.327 -0.6059  0.2065  0.5644
  372MPD2    H7 5575   3.348   4.405  13.398  0.3513  2.2463  0.4064
  373TMC3    C1 5576   2.900   3.988  13.716 -0.2474 -0.0202 -0.1481
  373TMC3    C2 5577   2.857   3.995  13.847  0.2890 -0.4041 -0.6259
  373TMC3    C3 5578   2.917   3.921  13.943  1.0557 -0.4032  0.1463
  373TMC3    C4 5579   3.000   3.901  13.676 -0.8630  0.9564 -0.4441
  373TMC3    C5 5580   3.060   3.829  13.777 -0.0817  0.1337  0.3989
  373TMC3    C6 5581   3.013   3.834  13.905 -0.9792  0.6298 -0.3132
  373TMC3     C 5582   2.870   4.104  13.635  0.2026  0.2986 -0.1551
  373TMC3     O 5583   2.760   4.152  13.621 -0.2276  0.1138  0.5679
  373TMC3     H 5584   2.795   4.078  13.881 -0.2442 -0.7777 -0.6905
  373TMC3    H1 5585   3.032   3.907  13.572  2.5080 -0.8470  0.4969
  373TMC3    H2 5586   3.054   3.767  13.980 -1.2418 -1.5549 -2.1339
  373TMC3    C7 5587   3.189   3.769  13.739  0.0782 -0.1680 -0.1875
  373TMC3    C8 5588   2.912   3.985  14.072 -0.2680  0.1601  1.3698
  373TMC3    O1 5589   3.203   3.740  13.621 -0.3414  0.3927 -0.1018
  373TMC3    O2 5590   2.813   4.054  14.100  0.3265 -0.5861  1.0780
  374TMC3    C1 5591   4.071   3.565   9.709 -0.0458  0.4364 -0.2592
  374TMC3    C2 5592   4.063   3.686   9.770  0.2615 -0.7214  0.1035
  374TMC3    C3 5593   3.950   3.763   9.745  0.1738  0.2289 -0.5188
  374TMC3    C4 5594   3.974   3.507   9.638  0.0415 -0.2784 -0.3231
  374TMC3    C5 5595   3.865   3.588   9.608 -0.1202  0.9324 -0.3478
  374TMC3    C6 5596   3.854   3.718   9.657  0.1255  0.0309 -0.0166
  374TMC3     C 5597   4.197   3.491   9.727 -0.0610  1.2146  0.0718
  374TMC3     O 5598   4.303   3.557   9.743  0.3765  0.3704 -0.3085
  374TMC3     H 5599   4.152   3.723   9.819 -0.3548 -2.0545  2.2199
  374TMC3    H1 5600   3.980   3.415   9.582  0.4392 -1.0713  1.0473
  374TMC3    H2 5601   3.769   3.783   9.638  0.9299  0.5283 -1.9114
  374TMC3    C7 5602   3.800   3.560   9.487 -0.0754 -0.0083  0.2380
  374TMC3    C8 5603   3.935   3.899   9.790 -0.2823  0.4853 -0.9606
  374TMC3    O1 5604   3.826   3.462   9.426 -0.6015  0.7335  0.3441
  374TMC3    O2 5605   3.838   3.962   9.752 -0.5889  0.4252  1.1532
  375MPD2     C 5606   3.745   4.186  16.742 -0.6034 -0.1592  0.3569
  375MPD2    C1 5607   3.735   4.306  16.675  0.5361 -0.8663 -0.0003
  375MPD2    C2 5608   3.807   4.326  16.565 -0.6282  0.0959 -0.0705
  375MPD2    C3 5609   3.892   4.229  16.513 -0.4286  0.4950  1.0606
  375MPD2    C4 5610   3.923   4.118  16.591 -0.2707 -0.5569  0.1792
  375MPD2    C5 5611   3.840   4.095  16.693 -0.8922 -0.0589  0.2459
  375MPD2     H 5612   3.791   4.419  16.511  0.2572  1.1567  1.5041
  375MPD2    H1 5613   3.998   4.042  16.574 -1.3519 -1.5361 -0.2655
  375MPD2    H2 5614   3.691   4.155  16.830 -0.5314  1.4095  0.9428
  375MPD2    H3 5615   3.865   4.003  16.744 -0.9522 -0.3464 -0.2432
  375MPD2     N 5616   3.971   4.254  16.399  0.1855  0.0110 -0.4633
  375MPD2    H5 5617   4.035   4.182  16.368  0.5049 -1.4152  3.4618
  375MPD2    N1 5618   3.643   4.405  16.714 -0.1474 -0.5627 -0.0178
  375MPD2    H7 5619   3.662   4.487  16.657  0.0939 -1.1896 -0.8337
  376TMC3    C1 5620   4.056   4.350  16.207  0.1308  0.2926 -0.3643
  376TMC3    C2 5621   4.187   4.347  16.243  0.0179 -0.0878 -0.2830
  376TMC3    C3 5622   4.283   4.392  16.162 -0.6059  0.4147 -0.3207
  376TMC3    C4 5623   4.018   4.402  16.087  0.3867 -0.5003  0.0571
  376TMC3    C5 5624   4.117   4.434  16.002 -0.4281  0.3637  0.3444
  376TMC3    C6 5625   4.250   4.442  16.038 -0.3637 -0.4845  1.1658
  376TMC3     C 5626   3.951   4.355  16.308  0.4107  0.4025  1.0073
  376TMC3     O 5627   3.859   4.428  16.288  0.0581 -0.6224  0.6150
  376TMC3     H 5628   4.224   4.323  16.342  0.8294  0.3302 -0.4830
  376TMC3    H1 5629   3.918   4.433  16.060  0.9471  0.8590 -0.4377
  376TMC3    H2 5630   4.331   4.486  15.981 -2.0251  3.1276  1.6038
  376TMC3    C7 5631   4.089   4.492  15.878  0.5755  0.1536 -0.7398
  376TMC3    C8 5632   4.422   4.407  16.186 -0.5941  0.3460  0.9129
  376TMC3    O1 5633   4.017   4.591  15.871  0.2804  0.1465 -0.4057
  376TMC3    O2 5634   4.474   4.509  16.142  0.0980 -0.3936 -0.0651
  377MPD2     C 5635   2.567   4.344  12.926  0.0163 -0.5612 -0.2021
  377MPD2    C1 5636   2.509   4.399  12.811 -0.7239 -0.0706  0.6266
  377MPD2    C2 5637   2.370   4.419  12.807  1.2548  0.4350  0.3362
  377MPD2    C3 5638   2.295   4.391  12.920 -0.5433  0.2130  0.0094
  377MPD2    C4 5639   2.349   4.319  13.022  0.5962 -0.7072 -0.0983
  377MPD2    C5 5640   2.484   4.301  13.034  0.1443 -0.6457  0.2665
  377MPD2     H 5641   2.316   4.460  12.722  0.5828 -1.2905 -0.0707
  377MPD2    H1 5642   2.282   4.292  13.102 -0.5011 -2.1661 -1.5168
  377MPD2    H2 5643   2.673   4.319  12.925 -0.7476 -3.7329 -0.2951
  377MPD2    H3 5644   2.530   4.247  13.115 -1.6346  1.0955  2.4246
  377MPD2     N 5645   2.155   4.411  12.931 -0.1554 -1.0686 -0.1583
  377MPD2    H5 5646   2.098   4.371  13.005  1.9938 -0.5387  1.7782
  377MPD2    N1 5647   2.595   4.418  12.702  0.0641 -0.2080 -0.3961
  377MPD2    H7 5648   2.696   4.416  12.713  0.1377 -2.2815 -1.5297
  378TMC3    C1 5649   2.646   4.463  12.230 -0.6102 -0.2503  0.3039
  378TMC3    C2 5650   2.609   4.521  12.348 -0.3646  0.0272  0.3204
  378TMC3    C3 5651   2.641   4.458  12.469 -0.5956 -0.1078  0.8299
  378TMC3    C4 5652   2.724   4.350  12.224  0.1488 -0.3937  0.2185
  378TMC3    C5 5653   2.763   4.297  12.340  0.4549  0.6017 -0.1356
  378TMC3    C6 5654   2.726   4.351  12.456  0.1720 -0.7020  0.0353
  378TMC3     C 5655   2.533   4.456  12.136 -0.8013  0.6960 -0.0440
  378TMC3     O 5656   2.495   4.351  12.081  0.4440  0.3593 -0.1073
  378TMC3     H 5657   2.546   4.609  12.341  0.2834  0.2945 -2.2251
  378TMC3    H1 5658   2.747   4.296  12.133  0.4580 -0.1958  0.1791
  378TMC3    H2 5659   2.756   4.298  12.546 -1.0954 -0.7596  0.4312
  378TMC3    C7 5660   2.893   4.233  12.344 -0.6846 -0.2144 -0.2191
  378TMC3    C8 5661   2.549   4.470  12.582 -0.3380  0.4154  0.0782
  378TMC3    O1 5662   2.932   4.178  12.445 -0.1648  0.3014  0.1966
  378TMC3    O2 5663   2.441   4.517  12.556 -0.1215 -0.0279  0.2434
  379MPD2     C 5664   2.861   1.811  15.961  0.0180 -0.2103  0.3434
  379MPD2    C1 5665   2.856   1.948  16.000  0.1127 -0.0156 -0.2105
  379MPD2    C2 5666   2.911   1.981  16.115 -0.5397 -0.0904 -0.4948
  379MPD2    C3 5667   2.974   1.885  16.194 -0.6425 -0.5650  0.1832
  379MPD2    C4 5668   2.991   1.757  16.148 -1.2102 -1.0083 -0.5506
  379MPD2    C5 5669   2.938   1.721  16.033 -0.0213 -0.5208 -0.1602
  379MPD2     H 5670   2.906   2.083  16.152 -2.1918 -0.3033 -0.1219
  379MPD2    H1 5671   3.034   1.676  16.206  0.7741  1.0067  0.7741
  379MPD2    H2 5672   2.822   1.781  15.864  0.7960 -0.9917  0.2687
  379MPD2    H3 5673   2.946   1.620  15.995 -2.1092 -0.3474 -1.1026
  379MPD2     N 5674   3.038   1.910  16.312 -0.5253  0.2001  0.0516
  379MPD2    H5 5675   3.081   1.830  16.356  1.5525  0.9392 -0.6794
  379MPD2    N1 5676   2.802   2.039  15.906  0.0479  0.5688  0.3559
  379MPD2    H7 5677   2.788   2.011  15.809 -3.7735  0.7476  0.8666
  380TMC3    C1 5678   2.730   2.240  15.809  0.4963  0.9238 -0.7861
  380TMC3    C2 5679   2.779   2.199  15.684  0.5139 -0.2911 -0.4818
  380TMC3    C3 5680   2.738   2.262  15.572  0.0465  0.6148  0.2562
  380TMC3    C4 5681   2.647   2.352  15.815 -0.1391 -0.0235  0.4203
  380TMC3    C5 5682   2.616   2.418  15.702  0.7820 -0.4585  0.2863
  380TMC3    C6 5683   2.651   2.369  15.575  0.8864  0.0842  0.0547
  380TMC3     C 5684   2.770   2.170  15.931  0.0691 -0.1877  0.0699
  380TMC3     O 5685   2.757   2.221  16.045 -0.1084 -0.3162  0.2501
  380TMC3     H 5686   2.863   2.132  15.673  2.0094  1.3109  1.1116
  380TMC3    H1 5687   2.615   2.394  15.910  0.5869  1.3729  0.0517
  380TMC3    H2 5688   2.635   2.428  15.485  0.4204  0.6792  0.5313
  380TMC3    C7 5689   2.496   2.499  15.716  0.2798 -0.1847 -0.3016
  380TMC3    C8 5690   2.784   2.220  15.446 -0.2562  0.1523 -0.3551
  380TMC3    O1 5691   2.486   2.582  15.806  0.3855 -0.1643 -0.0565
  380TMC3    O2 5692   2.766   2.295  15.350 -1.0464  0.3639 -0.2712
  381TMC3    C1 5693   2.525   3.381  15.783 -1.5681  0.3938  0.0154
  381TMC3    C2 5694   2.610   3.485  15.767 -1.0813  0.8775  0.2324
  381TMC3    C3 5695   2.665   3.537  15.884 -0.2948 -0.4979 -0.7740
  381TMC3    C4 5696   2.499   3.328  15.904  0.0165 -0.3042  0.0339
  381TMC3    C5 5697   2.552   3.384  16.021  0.1638 -0.0541  0.3532
  381TMC3    C6 5698   2.632   3.497  16.011  0.2531  0.3672  0.5860
  381TMC3     C 5699   2.480   3.309  15.667 -0.0826 -0.8373  0.3325
  381TMC3     O 5700   2.390   3.228  15.685  0.3087  0.1295 -0.7508
  381TMC3     H 5701   2.639   3.524  15.670 -1.6738  1.8296  0.4378
  381TMC3    H1 5702   2.446   3.234  15.903  1.1271 -0.9384  0.4548
  381TMC3    H2 5703   2.673   3.548  16.098 -0.6041 -0.9374  1.7561
  381TMC3    C7 5704   2.533   3.326  16.155  0.0129  0.3720 -0.2016
  381TMC3    C8 5705   2.754   3.654  15.858  0.3232 -0.4508 -0.0228
  381TMC3    O1 5706   2.501   3.208  16.157 -0.1482  0.1298 -0.5355
  381TMC3    O2 5707   2.786   3.666  15.740 -0.0233 -0.6818  0.0952
  382MPD2     C 5708   1.899   1.044  16.807  0.5458 -0.2478  0.4338
  382MPD2    C1 5709   1.830   1.043  16.922  0.0542 -0.3523 -0.5342
  382MPD2    C2 5710   1.827   0.919  16.991 -0.0841 -0.1507  0.3495
  382MPD2    C3 5711   1.899   0.806  16.952  0.1836  0.2599 -0.4170
  382MPD2    C4 5712   1.973   0.816  16.843 -0.3401  0.3337 -0.2698
  382MPD2    C5 5713   1.972   0.928  16.771  0.3819  0.2820  0.3008
  382MPD2     H 5714   1.770   0.909  17.083 -3.7878  2.0881 -1.7085
  382MPD2    H1 5715   2.035   0.739  16.798 -0.5162  0.3197 -0.4874
  382MPD2    H2 5716   1.930   1.126  16.743 -1.5703  2.6926  3.1467
  382MPD2    H3 5717   2.047   0.926  16.693 -2.6588  0.5038 -2.6367
  382MPD2     N 5718   1.891   0.681  17.017  0.4759 -0.2350  0.1649
  382MPD2    H5 5719   1.939   0.604  16.970  0.1219 -1.0255  1.0914
  382MPD2    N1 5720   1.775   1.166  16.983  0.4282 -0.3334 -0.0296
  382MPD2    H7 5721   1.723   1.150  17.069  1.3384 -1.5212  0.2979
  383TMC3    C1 5722   1.845   0.511  17.167  0.3562  0.1255 -0.2928
  383TMC3    C2 5723   1.725   0.444  17.189 -0.1427  0.5129  0.1726
  383TMC3    C3 5724   1.736   0.310  17.160 -0.4304 -0.4784  0.1265
  383TMC3    C4 5725   1.961   0.458  17.131 -0.4603  0.5834  0.0477
  383TMC3    C5 5726   1.963   0.321  17.118  0.1739 -0.2779  0.8993
  383TMC3    C6 5727   1.851   0.245  17.121  0.1461  0.2561 -0.1225
  383TMC3     C 5728   1.826   0.646  17.129  0.1137  0.1257  0.1941
  383TMC3     O 5729   1.741   0.707  17.191  0.0273 -0.2548 -0.5442
  383TMC3     H 5730   1.632   0.492  17.218 -0.4907  0.7771 -1.3445
  383TMC3    H1 5731   2.052   0.516  17.118  1.1666 -1.7343  1.1838
  383TMC3    H2 5732   1.870   0.140  17.107  1.4591  0.6127 -0.9784
  383TMC3    C7 5733   2.094   0.265  17.114 -0.1530  0.0914 -0.6701
  383TMC3    C8 5734   1.603   0.249  17.148  0.5677 -0.2722  0.5476
  383TMC3    O1 5735   2.108   0.153  17.064  0.1749 -0.1105  0.0602
  383TMC3    O2 5736   1.505   0.313  17.172  0.0402  0.1685  0.2190
  384MPD2     C 5737   3.482   2.635  12.007  0.0065  0.8608  0.5721
  384MPD2    C1 5738   3.483   2.596  12.142  0.1196 -0.5676 -0.0459
  384MPD2    C2 5739   3.564   2.495  12.183 -0.4199  0.5464  0.3316
  384MPD2    C3 5740   3.638   2.423  12.092 -0.1431 -0.0964 -0.2843
  384MPD2    C4 5741   3.636   2.464  11.962 -0.1755  0.3170  0.6323
  384MPD2    C5 5742   3.560   2.574  11.921 -0.2605 -0.0665 -0.1492
  384MPD2     H 5743   3.561   2.457  12.285  1.6161  0.5980  0.4030
  384MPD2    H1 5744   3.699   2.416  11.887 -0.8662  1.1704 -0.5046
  384MPD2    H2 5745   3.413   2.707  11.964  0.7805 -0.5058 -2.9720
  384MPD2    H3 5746   3.560   2.594  11.815 -0.2301 -0.3588 -0.2021
  384MPD2     N 5747   3.702   2.307  12.141 -0.4425 -0.4690  0.0446
  384MPD2    H5 5748   3.696   2.291  12.241  0.4667 -1.0858 -0.0005
  384MPD2    N1 5749   3.396   2.644  12.239 -0.2614  0.0703  0.3348
  384MPD2    H7 5750   3.400   2.600  12.330 -1.8850 -0.2697  0.2323
  385TMC3    C1 5751   3.801   2.100  12.157 -0.3145 -0.2066 -0.2485
  385TMC3    C2 5752   3.738   1.987  12.119  0.6326  0.3257 -0.0755
  385TMC3    C3 5753   3.689   1.903  12.207 -0.2886  0.1271 -0.1058
  385TMC3    C4 5754   3.823   2.132  12.288  0.2394 -0.0612 -0.3902
  385TMC3    C5 5755   3.754   2.053  12.379  0.1918  0.3709  0.7592
  385TMC3    C6 5756   3.696   1.933  12.338 -0.1384 -0.0959  1.0252
  385TMC3     C 5757   3.769   2.212  12.069 -0.0079  0.1864  0.5976
  385TMC3     O 5758   3.762   2.187  11.950 -0.1013  0.1442  0.5767
  385TMC3     H 5759   3.724   1.980  12.011  0.4048 -1.2076  0.0591
  385TMC3    H1 5760   3.858   2.231  12.315  3.6874 -1.4094 -0.0342
  385TMC3    H2 5761   3.639   1.870  12.406  0.9964 -2.5447 -0.3013
  385TMC3    C7 5762   3.666   2.124  12.454 -0.6876 -0.3570  0.2103
  385TMC3    C8 5763   3.611   1.791  12.166 -0.4696  0.4759  0.4345
  385TMC3    O1 5764   3.652   2.239  12.418  0.3794  0.2049 -0.0854
  385TMC3    O2 5765   3.530   1.745  12.244 -0.4712 -0.0263 -0.1515
  386TMC3    C1 5766   3.897   4.479  11.512  0.4254  0.4189 -0.0054
  386TMC3    C2 5767   3.879   4.429  11.386 -0.2563 -1.3468 -0.0029
  386TMC3    C3 5768   3.775   4.473  11.311  0.5280  0.0260 -0.1358
  386TMC3    C4 5769   3.812   4.570  11.572 -0.3300 -0.0267  0.1825
  386TMC3    C5 5770   3.713   4.616  11.490  0.1358  0.6183 -1.0318
  386TMC3    C6 5771   3.693   4.570  11.361  0.2398 -0.2706 -1.2251
  386TMC3     C 5772   4.007   4.434  11.596  0.3002 -0.1416  0.9557
  386TMC3     O 5773   4.032   4.502  11.695 -0.3456  0.0788  0.3556
  386TMC3     H 5774   3.960   4.367  11.348  0.5786 -0.1199 -0.2268
  386TMC3    H1 5775   3.816   4.587  11.679 -1.0765 -0.1627  0.2321
  386TMC3    H2 5776   3.613   4.611  11.301 -2.2989  0.5979  2.7761
  386TMC3    C7 5777   3.598   4.673  11.558 -0.2249 -0.3304 -0.0044
  386TMC3    C8 5778   3.728   4.394  11.201  0.1782  0.2909 -0.4463
  386TMC3    O1 5779   3.577   4.621  11.669 -0.2903  0.0245  0.0875
  386TMC3    O2 5780   3.617   4.413  11.152 -0.1556  0.2356  0.0154
  387MPD2     C 5781   1.595   4.177   9.721  0.6955 -0.3578 -0.1848
  387MPD2    C1 5782   1.691   4.230   9.801  0.4364  0.1143 -0.0905
  387MPD2    C2 5783   1.808   4.166   9.821 -0.1057 -0.0714 -0.3174
  387MPD2    C3 5784   1.838   4.053   9.751 -0.2047 -0.4966  0.6494
  387MPD2    C4 5785   1.748   4.000   9.663 -0.1431 -0.0380 -0.2054
  387MPD2    C5 5786   1.624   4.061   9.651 -0.2051  0.2104 -0.5132
  387MPD2     H 5787   1.879   4.197   9.897 -0.6720  0.0284  0.1736
  387MPD2    H1 5788   1.783   3.920   9.599  1.4257 -0.6397  1.3871
  387MPD2    H2 5789   1.498   4.223   9.714 -1.0961 -4.2273 -0.7585
  387MPD2    H3 5790   1.553   4.033   9.573 -0.9620 -2.3459  1.0756
  387MPD2     N 5791   1.943   3.972   9.808 -0.4129  0.3216 -0.2833
  387MPD2    H5 5792   2.003   4.019   9.876 -0.2127 -2.2114  1.2795
  387MPD2    N1 5793   1.671   4.347   9.877  0.6769 -1.0887  0.0373
  387MPD2    H7 5794   1.743   4.375   9.943  1.5483 -0.9621 -0.9612
  388TMC3    C1 5795   1.581   4.511  10.002 -0.2014  0.3175  0.5415
  388TMC3    C2 5796   1.556   4.644  10.011  0.0446 -0.1774  0.6722
  388TMC3    C3 5797   1.584   4.706  10.131 -0.3116 -0.5180 -0.6797
  388TMC3    C4 5798   1.630   4.448  10.113 -0.1708  0.1761 -0.4322
  388TMC3    C5 5799   1.664   4.510  10.232  0.4337 -0.6198  0.2170
  388TMC3    C6 5800   1.624   4.639  10.245 -0.3890  0.0707  0.1265
  388TMC3     C 5801   1.572   4.437   9.876  0.1394  0.2135  0.0115
  388TMC3     O 5802   1.485   4.459   9.789 -0.1131  0.1271 -0.0057
  388TMC3     H 5803   1.527   4.690   9.917  2.0212  2.8044  1.5000
  388TMC3    H1 5804   1.663   4.345  10.103 -1.9696 -0.4962  0.5379
  388TMC3    H2 5805   1.644   4.696  10.335  2.0425  0.5863 -0.7542
  388TMC3    C7 5806   1.741   4.448  10.336 -0.0926 -0.4095  0.0856
  388TMC3    C8 5807   1.553   0.128  10.129  0.3909 -0.1662 -0.0462
  388TMC3    O1 5808   1.741   4.483  10.458 -0.3722  0.0034  0.3440
  388TMC3    O2 5809   1.515   0.161  10.017  0.3734  0.1887  0.2481
  389MPD2     C 5810   1.429   2.763  10.567 -0.3173  0.3297  0.4414
  389MPD2    C1 5811   1.353   2.667  10.505 -0.8695  0.6037 -0.0440
  389MPD2    C2 5812   1.221   2.649  10.545 -0.0304  0.0260  0.1181
  389MPD2    C3 5813   1.162   2.730  10.641 -0.2388 -0.0396 -0.4709
  389MPD2    C4 5814   1.235   2.827  10.704 -0.9404 -0.1064 -0.0032
  389MPD2    C5 5815   1.369   2.841  10.672 -0.4016  0.0528  0.2387
  389MPD2     H 5816   1.157   2.572  10.504  0.8085  0.4160 -1.9337
  389MPD2    H1 5817   1.195   2.901  10.772 -0.2363 -0.9058  1.2732
  389MPD2    H2 5818   1.531   2.782  10.537 -1.3148  1.7794 -1.9865
  389MPD2    H3 5819   1.430   2.914  10.724  0.5493 -2.2936  2.4646
  389MPD2     N 5820   1.026   2.733  10.677  0.0316 -0.6280 -0.2399
  389MPD2    H5 5821   0.995   2.806  10.740  2.0977  0.4662 -0.5155
  389MPD2    N1 5822   1.420   2.593  10.412 -1.0300 -0.0849 -0.0866
  389MPD2    H7 5823   1.521   2.593  10.411 -1.0223  1.9251  0.1638
  390TMC3    C1 5824   0.791   2.716  10.681 -0.1128  0.1054  0.4102
  390TMC3    C2 5825   0.685   2.694  10.602  0.1892 -0.4770 -0.0654
  390TMC3    C3 5826   0.572   2.766  10.620  0.2381  0.4924 -0.0894
  390TMC3    C4 5827   0.795   2.813  10.779 -0.0831 -0.4523  0.5580
  390TMC3    C5 5828   0.678   2.883  10.801 -0.0927  1.0240  0.0563
  390TMC3    C6 5829   0.568   2.865  10.717 -0.0523 -0.3345  0.0816
  390TMC3     C 5830   0.919   2.660  10.626  0.5995  0.3109  0.7757
  390TMC3     O 5831   0.918   2.599  10.523  0.3207  0.4978  0.9971
  390TMC3     H 5832   0.689   2.616  10.526  1.3823 -2.0584  1.6321
  390TMC3    H1 5833   0.879   2.823  10.846 -0.1718 -1.3209  0.7993
  390TMC3    H2 5834   0.494   2.943  10.708 -1.1773 -1.4770 -0.6200
  390TMC3    C7 5835   0.664   2.948  10.931 -0.6735  0.1229  0.0591
  390TMC3    C8 5836   0.468   2.671  10.651 -0.1184  0.0225 -0.1761
  390TMC3    O1 5837   0.752   2.950  11.012  0.5913  0.3261 -0.0170
  390TMC3    O2 5838   0.503   2.559  10.685  0.0919  0.0701  0.3594
  391MPD2     C 5839   4.357   4.206  11.222  0.1213 -0.0536 -0.0314
  391MPD2    C1 5840   4.472   4.271  11.176 -0.2439 -0.6234 -0.7958
  391MPD2    C2 5841   4.500   4.258  11.042 -0.4255 -0.1902  0.1852
  391MPD2    C3 5842   4.412   4.197  10.952 -0.4532  0.3650 -0.0660
  391MPD2    C4 5843   4.297   4.136  11.000  0.0610  0.7160  0.9483
  391MPD2    C5 5844   4.280   4.138  11.134 -0.0701  0.6677  0.2678
  391MPD2     H 5845   4.599   4.282  11.003 -1.6476  1.9840 -1.5451
  391MPD2    H1 5846   4.220   4.081  10.947  0.9536  3.2436 -2.9572
  391MPD2    H2 5847   4.321   4.219  11.324  2.6168  1.9416  0.5973
  391MPD2    H3 5848   4.196   4.085  11.177  0.4099  0.0156  0.3882
  391MPD2     N 5849   4.440   4.199  10.814 -0.2584 -0.1913 -0.5388
  391MPD2    H5 5850   4.534   4.223  10.786 -0.9336  2.1075 -0.8322
  391MPD2    N1 5851   4.549   4.350  11.262  0.2112 -0.3001 -0.3531
  391MPD2    H7 5852   4.537   4.342  11.362  0.1921 -2.2634 -0.5021
  392TMC3    C1 5853   4.437   4.173  10.591 -0.2380 -0.0707  0.9603
  392TMC3    C2 5854   4.384   4.105  10.490 -0.1858  0.4966  0.1818
  392TMC3    C3 5855   4.400   4.159  10.362  0.4102  0.8259  0.5584
  392TMC3    C4 5856   4.494   4.293  10.574 -0.3521  0.3438  0.3269
  392TMC3    C5 5857   4.517   4.337  10.444 -0.9701  0.0289  0.4616
  392TMC3    C6 5858   4.475   4.268  10.333 -0.8450 -0.1476 -0.3806
  392TMC3     C 5859   4.361   4.151  10.709 -0.5794  0.5829  0.3415
  392TMC3     O 5860   4.245   4.116  10.708  0.0723  0.1031 -0.9145
  392TMC3     H 5861   4.306   4.030  10.501  0.0311  0.2205 -0.1468
  392TMC3    H1 5862   4.536   4.355  10.652  0.9966  1.7570 -1.4956
  392TMC3    H2 5863   4.494   4.292  10.229  1.4006 -2.3700 -0.4744
  392TMC3    C7 5864   4.627   4.422  10.420  0.0052  0.0420  0.1839
  392TMC3    C8 5865   4.309   4.113  10.258 -0.3265 -1.0506 -0.4501
  392TMC3    O1 5866   4.712   4.423  10.508 -0.1446 -0.1549 -0.4082
  392TMC3    O2 5867   4.299   3.993  10.248 -0.8646  0.0613  0.0843
  393TMC3    C1 5868   3.354   2.484  10.494 -0.0341 -1.1099 -0.3213
  393TMC3    C2 5869   3.272   2.452  10.597 -0.2566  0.1509 -0.4577
  393TMC3    C3 5870   3.333   2.380  10.692  0.0565  0.2275 -0.6790
  393TMC3    C4 5871   3.485   2.455  10.486  0.3346  0.5619  0.2629
  393TMC3    C5 5872   3.537   2.384  10.590 -1.0593  0.2425 -1.0557
  393TMC3    C6 5873   3.469   2.357  10.699  0.1505 -1.0950 -0.1543
  393TMC3     C 5874   3.294   2.552  10.380 -0.2092 -1.1334  0.2004
  393TMC3     O 5875   3.377   2.557  10.293  0.2732 -0.2922  0.2285
  393TMC3     H 5876   3.165   2.468  10.599 -0.1124  1.0846 -0.0056
  393TMC3    H1 5877   3.554   2.493  10.411  1.1674  0.1305  0.8074
  393TMC3    H2 5878   3.510   2.300  10.782  2.9239  1.3554  0.1609
  393TMC3    C7 5879   3.665   2.317  10.583  0.4171 -0.0337  0.8059
  393TMC3    C8 5880   3.250   2.334  10.807  0.4350  0.5080 -0.2917
  393TMC3    O1 5881   3.710   2.281  10.694  0.5283  0.0936 -0.3059
  393TMC3    O2 5882   3.258   2.218  10.826 -0.1802  0.4587  0.0285
  394TMC3    C1 5883   1.441   2.448  10.221 -0.2653 -0.0784 -0.9886
  394TMC3    C2 5884   1.369   2.373  10.120 -0.4289  0.2315  0.1658
  394TMC3    C3 5885   1.415   2.364   9.991 -0.4924  0.0383  0.5613
  394TMC3    C4 5886   1.559   2.511  10.194 -0.3184  0.3104 -0.3373
  394TMC3    C5 5887   1.592   2.499  10.063  0.1641 -0.6137  0.5800
  394TMC3    C6 5888   1.520   2.441   9.962  0.2144  0.4918 -0.1419
  394TMC3     C 5889   1.355   2.503  10.323 -0.3972 -0.7533  0.4571
  394TMC3     O 5890   1.236   2.483  10.302  0.7183 -0.5307  0.1642
  394TMC3     H 5891   1.270   2.336  10.145 -0.9711  0.1899 -2.0936
  394TMC3    H1 5892   1.594   2.591  10.257 -0.5609 -0.1198  0.3520
  394TMC3    H2 5893   1.552   2.432   9.859 -0.8532 -0.7712 -0.3521
  394TMC3    C7 5894   1.709   2.583  10.032  0.8475  0.4988  0.1020
  394TMC3    C8 5895   1.403   2.245   9.915 -0.4133 -0.1405 -0.6948
  394TMC3    O1 5896   1.720   2.625   9.917  0.6598 -0.2060 -0.6625
  394TMC3    O2 5897   1.496   2.221   9.841  0.4385 -0.3720 -0.0443
  395TMC3    C1 5898   0.119   0.329  14.212  0.2076  0.1750 -0.6190
  395TMC3    C2 5899   4.713   0.323  14.225 -0.3047 -0.0999  0.4101
  395TMC3    C3 5900   4.652   0.380  14.333 -0.3298 -0.2507  0.6317
  395TMC3    C4 5901   0.202   0.387  14.302  0.3559 -0.1992 -0.2430
  395TMC3    C5 5902   0.143   0.460  14.400  0.2486  0.1218  0.1703
  395TMC3    C6 5903   0.003   0.448  14.421 -0.4689 -0.3742 -0.4528
  395TMC3     C 5904   0.173   0.272  14.092  0.2166 -0.9294  0.2538
  395TMC3     O 5905   0.243   0.349  14.034 -0.1798 -0.2861 -0.4424
  395TMC3     H 5906   4.654   0.261  14.159  2.3585 -0.5303 -1.5794
  395TMC3    H1 5907   0.306   0.407  14.278  0.6913  2.6657  3.5446
  395TMC3    H2 5908   4.687   0.496  14.509 -0.7239  0.3518 -0.9633
  395TMC3    C7 5909   0.227   0.523  14.502 -0.8374  0.1445  0.3102
  395TMC3    C8 5910   4.536   0.315  14.389 -1.2282 -0.1220 -0.5299
  395TMC3    O1 5911   0.339   0.481  14.530 -0.0654 -0.1397  0.8024
  395TMC3    O2 5912   4.468   0.366  14.475  0.2506  0.1845 -0.2570
  396MPD2     C 5913   0.682   0.649  16.729  0.6678  0.0493  0.7618
  396MPD2    C1 5914   0.663   0.729  16.837  0.6644 -0.3969 -0.7416
  396MPD2    C2 5915   0.673   0.864  16.821  0.0807  0.3037  0.4040
  396MPD2    C3 5916   0.677   0.921  16.692  0.8681  0.1613  0.1823
  396MPD2    C4 5917   0.678   0.837  16.578 -0.0561  0.0396 -0.3727
  396MPD2    C5 5918   0.688   0.701  16.607 -0.0937 -0.0315  0.0450
  396MPD2     H 5919   0.674   0.926  16.910  0.0223  1.4938 -0.4220
  396MPD2    H1 5920   0.667   0.864  16.474 -1.6150 -1.6572 -0.6401
  396MPD2    H2 5921   0.701   0.543  16.726  0.7251  0.1244 -1.8513
  396MPD2    H3 5922   0.694   0.630  16.526  0.0856 -1.5669  1.4148
  396MPD2     N 5923   0.678   1.064  16.686  0.2847 -0.2547  0.1443
  396MPD2    H5 5924   0.658   1.117  16.770  2.5841  2.2012 -0.8598
  396MPD2    N1 5925   0.633   0.663  16.962 -0.8872  0.2994  0.1090
  396MPD2    H7 5926   0.643   0.562  16.961  2.8333  0.6381  0.7494
  397TMC3    C1 5927   0.587   0.619  17.177 -0.0570  0.0955  0.3117
  397TMC3    C2 5928   0.608   0.496  17.122 -0.4908  0.1821  0.8772
  397TMC3    C3 5929   0.526   0.390  17.151  0.2143 -0.0537  0.6595
  397TMC3    C4 5930   0.484   0.640  17.264  0.2183  0.0605 -0.0238
  397TMC3    C5 5931   0.408   0.534  17.300 -0.3559  0.0640 -0.4344
  397TMC3    C6 5932   0.426   0.409  17.248 -0.2147  0.4967 -0.5835
  397TMC3     C 5933   0.596   0.723  17.082  0.1109  0.2298 -0.9790
  397TMC3     O 5934   0.559   0.833  17.111 -0.0200  0.4158 -0.8047
  397TMC3     H 5935   0.707   0.464  17.091  0.5110  2.4413  1.7656
  397TMC3    H1 5936   0.470   0.737  17.308  0.8431  0.4842 -0.7532
  397TMC3    H2 5937   0.341   0.342  17.247 -1.1000  1.6263 -0.7097
  397TMC3    C7 5938   0.292   0.548  17.388 -0.4605  0.6927 -0.1248
  397TMC3    C8 5939   0.480   0.339  17.024  0.1331 -0.1360 -0.1946
  397TMC3    O1 5940   0.201   0.467  17.380  0.6133  0.1594 -0.1925
  397TMC3    O2 5941   0.530   0.398  16.928  0.2892  0.2963 -0.0252
  398MPD2     C 5942   2.272   1.676   0.130  0.2887  0.0450  0.5611
  398MPD2    C1 5943   2.312   1.595   0.232 -0.1863 -0.2013  0.8063
  398MPD2    C2 5944   2.399   1.652   0.325  0.5675 -0.0913  0.2695
  398MPD2    C3 5945   2.451   1.778   0.309  0.3424 -0.2490 -0.2711
  398MPD2    C4 5946   2.393   1.863   0.217 -0.6958  0.3178  0.4399
  398MPD2    C5 5947   2.306   1.806   0.127 -0.1796 -0.5003 -0.2212
  398MPD2     H 5948   2.444   1.586   0.398 -2.5570 -1.5800  0.8781
  398MPD2    H1 5949   2.420   1.968   0.208 -2.5771  0.8048  0.5510
  398MPD2    H2 5950   2.211   1.640   0.048  1.2656 -1.6842  0.5935
  398MPD2    H3 5951   2.278   1.863   0.040 -1.1272  0.7599  0.9073
  398MPD2     N 5952   2.544   1.816   0.407  0.6676  0.6050 -0.3626
  398MPD2    H5 5953   2.568   1.744   0.474  0.9258 -0.1078 -1.2269
  398MPD2    N1 5954   2.278   1.459   0.242  0.4329  0.5535 -0.3582
  398MPD2    H7 5955   2.322   1.399   0.311  0.9953  0.1117 -1.1166
  399TMC3    C1 5956   2.190   1.254   0.205  0.3561 -0.5156 -0.6324
  399TMC3    C2 5957   2.289   1.209   0.285 -1.0824 -1.0163 -0.0881
  399TMC3    C3 5958   2.295   1.081   0.319  0.6340 -0.1857 -0.1871
  399TMC3    C4 5959   2.086   1.169   0.166  0.1476  0.5063  0.5007
  399TMC3    C5 5960   2.093   1.039   0.202  0.7489 -0.3696 -0.6434
  399TMC3    C6 5961   2.195   0.993   0.286  0.0550  0.9935  0.5425
  399TMC3     C 5962   2.185   1.393   0.169 -0.5941  0.5542  0.4345
  399TMC3     O 5963   2.114   1.416   0.071  0.0859  0.4754 -0.4095
  399TMC3     H 5964   2.381   1.262   0.311 -2.1072 -0.8652  3.2763
  399TMC3    H1 5965   1.997   1.197   0.109 -0.0777  0.2148  0.7088
  399TMC3    H2 5966   2.214   0.887   0.298 -1.1248  0.5218 -1.7423
  399TMC3    C7 5967   1.970   0.963   0.200  0.5521  0.6519 -0.1874
  399TMC3    C8 5968   2.404   1.034   0.408 -0.3391  0.6090 -0.7529
  399TMC3    O1 5969   1.881   1.012   0.137 -0.2203 -0.9018  0.0674
  399TMC3    O2 5970   2.492   1.116   0.434 -0.9039  0.4381  0.2117
  400TMC3    C1 5971   1.584   4.723  16.711  0.3532 -0.3275  0.4356
  400TMC3    C2 5972   1.456   4.686  16.670  0.0803 -0.3214 -0.0474
  400TMC3    C3 5973   1.363   0.063  16.661  0.5640 -0.1540  0.1467
  400TMC3    C4 5974   1.629   0.122  16.738 -0.5191  0.3074  0.5762
  400TMC3    C5 5975   1.528   0.213  16.730  0.3828 -0.1850 -0.1062
  400TMC3    C6 5976   1.398   0.193  16.696  0.3855  0.5969 -0.0888
  400TMC3     C 5977   1.685   4.610  16.731  0.1018 -0.3638  0.3754
  400TMC3     O 5978   1.633   4.498  16.700 -0.5107  0.2445  0.3479
  400TMC3     H 5979   1.425   4.585  16.645  0.0457 -0.2311 -0.3687
  400TMC3    H1 5980   1.725   0.146  16.781  0.5363 -0.7042 -1.1969
  400TMC3    H2 5981   1.324   0.271  16.686  1.1304  1.4774  1.2549
  400TMC3    C7 5982   1.569   0.333  16.795  0.1202 -0.1186 -0.7840
  400TMC3    C8 5983   1.231   0.055  16.589 -0.1146  0.4185  0.3963
  400TMC3    O1 5984   1.678   0.375  16.754 -0.1377  0.2374  0.3168
  400TMC3    O2 5985   1.163   0.157  16.579 -0.5838  0.9641 -0.6951
  401MPD2     C 5986   4.063   4.120   0.378  0.3042  0.1248 -0.8830
  401MPD2    C1 5987   4.156   4.058   0.462  0.2492 -0.4799 -0.0535
  401MPD2    C2 5988   4.217   3.938   0.420 -0.1377  0.3780 -0.0538
  401MPD2    C3 5989   4.201   3.895   0.292  0.7523  0.3355 -0.4581
  401MPD2    C4 5990   4.117   3.967   0.204  0.0318  0.1098  0.4779
  401MPD2    C5 5991   4.042   4.078   0.252  0.2767  0.0909 -0.3990
  401MPD2     H 5992   4.275   3.877   0.488 -3.4341 -2.3299  0.3259
  401MPD2    H1 5993   4.110   3.945   0.098 -2.3270  0.5889  0.5412
  401MPD2    H2 5994   4.006   4.204   0.416 -2.4376 -1.6253 -1.1407
  401MPD2    H3 5995   3.972   4.136   0.192 -0.1580 -0.1420 -0.1197
  401MPD2     N 5996   4.241   3.765   0.257  1.1267 -0.0088 -0.0364
  401MPD2    H5 5997   4.301   3.725   0.329  2.0163  0.5110 -0.4862
  401MPD2    N1 5998   4.176   4.101   0.596 -0.4638 -0.0608 -0.0755
  401MPD2    H7 5999   4.235   4.036   0.647  0.9480  0.7497 -0.6814
  402TMC3    C1 6000   4.204   3.543   0.193  0.2080 -1.0423 -0.6960
  402TMC3    C2 6001   4.193   3.518   0.324  0.4420  0.5231 -0.0892
  402TMC3    C3 6002   4.225   3.393   0.361 -0.4933  0.3825  0.1840
  402TMC3    C4 6003   4.249   3.455   0.095 -0.1606 -0.9178  0.2567
  402TMC3    C5 6004   4.303   3.341   0.148 -0.0241 -0.0378 -0.6508
  402TMC3    C6 6005   4.283   3.301   0.270 -0.4376 -0.0743 -0.3640
  402TMC3     C 6006   4.194   3.687   0.152  0.5851 -0.4800 -0.3897
  402TMC3     O 6007   4.164   3.720   0.041 -0.0303  0.3250 -0.0166
  402TMC3     H 6008   4.154   3.592   0.394 -1.1449  1.3383 -1.8335
  402TMC3    H1 6009   4.246   3.482  17.692 -1.4242  2.3224  1.1375
  402TMC3    H2 6010   4.328   3.206   0.297 -2.9822 -1.5836 -1.4225
  402TMC3    C7 6011   4.384   3.257   0.062 -0.2921  0.7908  0.5541
  402TMC3    C8 6012   4.253   3.374   0.505 -0.5155  0.1760 -0.6172
  402TMC3    O1 6013   4.382   3.136   0.085  0.0433 -0.3375 -0.6552
  402TMC3    O2 6014   4.333   3.282   0.524 -0.0975  0.2774  0.5406
  403MPD2     C 6015   2.610   2.595  13.166 -1.3255 -0.0455 -0.3685
  403MPD2    C1 6016   2.690   2.499  13.209  0.0249  0.6734  0.1944
  403MPD2    C2 6017   2.783   2.531  13.311 -0.1118  0.5846 -0.1943
  403MPD2    C3 6018   2.793   2.652  13.373  0.3059  0.2710  0.5429
  403MPD2    C4 6019   2.712   2.750  13.323  0.2775  0.0274 -0.2699
  403MPD2    C5 6020   2.617   2.716  13.226 -0.1164 -0.2758 -0.0129
  403MPD2     H 6021   2.856   2.454  13.334 -0.6838  0.8132  2.3598
  403MPD2    H1 6022   2.717   2.849  13.366  0.7092 -0.2906  0.4153
  403MPD2    H2 6023   2.519   2.584  13.108 -2.0302  2.0554  0.3284
  403MPD2    H3 6024   2.555   2.796  13.188 -3.9512 -2.7435  1.0124
  403MPD2     N 6025   2.891   2.681  13.472  0.1717  0.2496  0.1679
  403MPD2    H5 6026   2.970   2.617  13.469  0.8464  1.2277 -2.6000
  403MPD2    N1 6027   2.673   2.366  13.154  0.2209  0.0285 -0.2408
  403MPD2    H7 6028   2.600   2.345  13.087  0.2595 -0.1949 -0.2119
  404TMC3    C1 6029   2.693   2.139  13.132 -0.0207 -1.0806 -0.6770
  404TMC3    C2 6030   2.694   2.023  13.201  0.0516 -0.6576 -0.5231
  404TMC3    C3 6031   2.696   1.906  13.130  0.4237  0.4092  0.1032
  404TMC3    C4 6032   2.682   2.139  12.996 -0.7729 -0.2574  0.6444
  404TMC3    C5 6033   2.681   2.023  12.929 -0.2053 -1.0385 -0.4454
  404TMC3    C6 6034   2.695   1.904  12.992 -0.5188  0.0341  0.4149
  404TMC3     C 6035   2.738   2.252  13.200 -0.5128 -0.4070  0.2537
  404TMC3     O 6036   2.813   2.242  13.296 -0.2224  0.0038  0.4530
  404TMC3     H 6037   2.733   2.030  13.303 -0.8160  2.1330 -0.3796
  404TMC3    H1 6038   2.691   2.234  12.945  1.8179 -1.3794 -0.9668
  404TMC3    H2 6039   2.705   1.812  12.935 -0.2780  0.8785 -0.9072
  404TMC3    C7 6040   2.665   2.030  12.786 -0.4185  0.4231 -0.1118
  404TMC3    C8 6041   2.754   1.790  13.195 -0.2914 -0.3930 -0.6738
  404TMC3    O1 6042   2.701   2.139  12.745  0.9366 -0.4775 -0.3918
  404TMC3    O2 6043   2.790   1.701  13.126 -0.2523  0.3703  0.1076
  405MPD2     C 6044   3.269   2.630  14.279  0.4363 -0.2967  0.1357
  405MPD2    C1 6045   3.169   2.623  14.189  0.2161 -0.4562  0.3889
  405MPD2    C2 6046   3.095   2.735  14.159 -0.2627 -0.5842 -0.1358
  405MPD2    C3 6047   3.126   2.851  14.222  0.3882 -0.5323  0.3757
  405MPD2    C4 6048   3.229   2.860  14.311 -0.9192 -0.2263  0.1349
  405MPD2    C5 6049   3.303   2.749  14.344  0.7039 -0.4040 -0.2865
  405MPD2     H 6050   3.011   2.729  14.091  0.0389  1.2698 -0.6652
  405MPD2    H1 6051   3.252   2.952  14.363 -1.1451 -0.2079  0.2048
  405MPD2    H2 6052   3.318   2.536  14.302 -0.3482 -0.5462  0.7828
  405MPD2    H3 6053   3.387   2.759  14.411  0.4582 -0.4946  0.0337
  405MPD2     N 6054   3.060   2.965  14.174  0.5536 -0.0615 -0.0169
  405MPD2    H5 6055   3.000   2.944  14.096  0.2584 -2.9242  0.9897
  405MPD2    N1 6056   3.142   2.492  14.147  0.2473  0.3663  0.3752
  405MPD2    H7 6057   3.198   2.418  14.188  2.4693  1.3260 -0.9232
  406TMC3    C1 6058   2.791   3.289  14.170  0.8628 -0.7754  0.1057
  406TMC3    C2 6059   2.722   3.207  14.085  0.3679  0.4176 -0.4391
  406TMC3    C3 6060   2.804   3.120  14.009 -0.7923  0.2341  0.2645
  406TMC3    C4 6061   2.928   3.274  14.203 -0.4841 -0.6234 -0.5057
  406TMC3    C5 6062   2.999   3.190  14.134  0.4972  0.5978  0.3617
  406TMC3    C6 6063   2.939   3.118  14.032 -0.0903 -0.5395  0.2837
  406TMC3     C 6064   2.715   3.391  14.238  0.8635  0.3856 -0.4522
  406TMC3     O 6065   2.773   3.496  14.265  0.4751 -0.1926  0.1039
  406TMC3     H 6066   2.616   3.220  14.066  0.2307  1.6112  1.2138
  406TMC3    H1 6067   2.963   3.329  14.290 -1.6992 -1.3040  0.4199
  406TMC3    H2 6068   3.004   3.066  13.963 -1.3990 -1.0552 -0.5669
  406TMC3    C7 6069   3.079   3.098  14.216 -0.4815 -0.1798 -0.7427
  406TMC3    C8 6070   2.765   2.983  13.991  0.3080 -0.3646  0.2689
  406TMC3    O1 6071   3.157   3.143  14.296  0.0271 -0.3735 -0.0344
  406TMC3    O2 6072   2.854   2.907  13.957 -0.7557 -0.3414 -0.2710
  407MPD2     C 6073   1.624   3.671   9.298 -0.1444 -0.1836  0.2895
  407MPD2    C1 6074   1.701   3.652   9.412 -0.4601 -0.6958 -0.4570
  407MPD2    C2 6075   1.642   3.687   9.531 -0.4218 -0.1063  0.2943
  407MPD2    C3 6076   1.511   3.736   9.541 -0.5995  0.0047  0.2387
  407MPD2    C4 6077   1.445   3.767   9.419  0.4975  0.4095 -0.5461
  407MPD2    C5 6078   1.498   3.730   9.301  0.4023 -0.2764  0.3810
  407MPD2     H 6079   1.702   3.666   9.619 -2.1979 -1.3146  1.2099
  407MPD2    H1 6080   1.352   3.822   9.415 -0.0683 -0.4040  1.5715
  407MPD2    H2 6081   1.663   3.644   9.200  3.3037  1.3528  1.2539
  407MPD2    H3 6082   1.444   3.755   9.210 -1.9261 -2.5476  1.1296
  407MPD2     N 6083   1.446   3.768   9.661 -0.6716  0.0077 -0.3515
  407MPD2    H5 6084   1.347   3.788   9.655 -0.4568  0.6856 -1.5396
  407MPD2    N1 6085   1.832   3.605   9.413  0.0796 -0.0367  0.2643
  407MPD2    H7 6086   1.875   3.601   9.505  0.9101 -2.0012 -0.1950
  408TMC3    C1 6087   2.044   3.564   9.317 -0.2344 -0.8962 -0.2205
  408TMC3    C2 6088   2.099   3.634   9.419  0.5114  0.5670  0.4227
  408TMC3    C3 6089   2.234   3.629   9.427 -0.0067 -0.4229  0.2791
  408TMC3    C4 6090   2.119   3.482   9.231 -0.3524  0.1257 -0.6114
  408TMC3    C5 6091   2.255   3.486   9.236 -0.4580 -0.2493  0.0308
  408TMC3    C6 6092   2.313   3.559   9.336 -0.2953  0.1397 -0.8381
  408TMC3     C 6093   1.897   3.569   9.299  0.5356 -0.2138 -0.5839
  408TMC3     O 6094   1.858   3.564   9.183  0.0085 -0.4695 -0.7340
  408TMC3     H 6095   2.030   3.660   9.498 -0.7931 -1.1440 -0.1351
  408TMC3    H1 6096   2.069   3.412   9.165 -1.9022  1.0954 -0.4617
  408TMC3    H2 6097   2.420   3.557   9.350 -0.2328  0.1054 -1.3243
  408TMC3    C7 6098   2.337   3.376   9.178 -0.7055 -0.4244  1.0074
  408TMC3    C8 6099   2.301   3.734   9.503 -0.0399 -0.4327 -0.3635
  408TMC3    O1 6100   2.457   3.392   9.171  0.3324  0.2520  0.6922
  408TMC3    O2 6101   2.399   3.700   9.569  0.1951  0.0760 -0.1072
  409MPD2     C 6102   0.284   4.444  16.779  0.4526  0.0867  0.4878
  409MPD2    C1 6103   0.337   4.490  16.894 -0.3641  0.3178 -0.1627
  409MPD2    C2 6104   0.433   4.584  16.895 -0.1294  0.0448 -0.7748
  409MPD2    C3 6105   0.471   4.650  16.784  0.0173 -0.0673 -1.1044
  409MPD2    C4 6106   0.406   4.614  16.669 -0.2540 -0.6558 -0.7971
  409MPD2    C5 6107   0.322   4.511  16.672 -0.1292  0.2673  0.3956
  409MPD2     H 6108   0.475   4.618  16.988  1.3551  1.3380 -1.9165
  409MPD2    H1 6109   0.430   4.670  16.579 -0.3245 -2.2555 -1.8159
  409MPD2    H2 6110   0.205   4.370  16.779  0.2376  0.3136 -0.4332
  409MPD2    H3 6111   0.280   4.478  16.578  0.5018 -0.6079  0.4114
  409MPD2     N 6112   0.568   0.028  16.781 -0.1759 -0.0375 -0.5901
  409MPD2    H5 6113   0.568   0.074  16.691 -0.6156  0.3966 -0.3711
  409MPD2    N1 6114   0.311   4.444  17.022 -0.2422 -0.8431 -0.9955
  409MPD2    H7 6115   0.364   4.481  17.100 -2.3418  0.4427 -0.1541
  410TMC3    C1 6116   0.747   0.157  16.840 -0.3407 -0.3995  0.3802
  410TMC3    C2 6117   0.866   0.171  16.914  0.3176 -0.5201 -0.0058
  410TMC3    C3 6118   0.969   0.243  16.877  0.8720  0.0175 -0.0989
  410TMC3    C4 6119   0.734   0.223  16.719 -0.5053 -0.5067  0.3188
  410TMC3    C5 6120   0.843   0.304  16.693  0.1529 -0.8290 -0.6821
  410TMC3    C6 6121   0.962   0.322  16.760 -0.7022  0.0752  0.3531
  410TMC3     C 6122   0.652   0.067  16.885 -0.4778 -0.3314 -0.3521
  410TMC3     O 6123   0.666   0.017  16.996 -0.4130 -0.3280  0.1498
  410TMC3     H 6124   0.874   0.114  17.006  1.4461 -2.3148 -1.1979
  410TMC3    H1 6125   0.642   0.230  16.663 -0.4572  1.8245  0.5235
  410TMC3    H2 6126   1.056   0.351  16.713 -1.1287 -2.9250 -2.4156
  410TMC3    C7 6127   0.846   0.319  16.547  0.4685  0.0828  0.1306
  410TMC3    C8 6128   1.104   0.211  16.914  0.1971 -0.4892  0.3297
  410TMC3    O1 6129   0.792   0.233  16.474  0.2927 -0.6486  0.3058
  410TMC3    O2 6130   1.185   0.299  16.913 -0.4662  0.3941  0.3654
  411MPD2     C 6131   0.874   0.908  14.776 -0.1302  0.1850  0.2577
  411MPD2    C1 6132   0.767   0.986  14.741 -0.1537 -0.1768  0.2775
  411MPD2    C2 6133   0.666   0.935  14.663  0.2623  0.3510 -0.1586
  411MPD2    C3 6134   0.678   0.814  14.609 -0.7848  0.4675  0.4911
  411MPD2    C4 6135   0.766   0.725  14.668  0.3287  0.0095  0.0374
  411MPD2    C5 6136   0.870   0.778  14.739  0.0192  0.3545  0.1544
  411MPD2     H 6137   0.581   0.998  14.641  0.3004  0.5010  0.1202
  411MPD2    H1 6138   0.787   0.628  14.625  0.4387  0.6534 -1.3361
  411MPD2    H2 6139   0.960   0.949  14.827 -0.5405  0.8771  0.4029
  411MPD2    H3 6140   0.956   0.717  14.766  0.9884  1.5686 -0.2029
  411MPD2     N 6141   0.589   0.764  14.510 -0.3165  0.4460  0.1539
  411MPD2    H5 6142   0.595   0.664  14.494 -2.4648  0.1700  1.0165
  411MPD2    N1 6143   0.756   1.117  14.793  0.3595  0.5135  0.1462
  411MPD2    H7 6144   0.674   1.165  14.756 -0.5054 -1.7457 -0.8766
  412TMC3    C1 6145   0.453   0.784  14.309 -0.8018  0.3500 -0.0911
  412TMC3    C2 6146   0.362   0.858  14.240 -0.0201  0.2514 -0.2594
  412TMC3    C3 6147   0.318   0.796  14.126 -0.4698  0.0172  0.0464
  412TMC3    C4 6148   0.511   0.668  14.274  0.1008  0.2123 -0.3353
  412TMC3    C5 6149   0.473   0.616  14.153 -0.9676 -0.4690 -0.6063
  412TMC3    C6 6150   0.366   0.675  14.091  0.4421 -0.6118  0.0314
  412TMC3     C 6151   0.504   0.846  14.432  0.0848 -0.8271  0.4928
  412TMC3     O 6152   0.500   0.967  14.436 -0.4618 -0.2518  0.2113
  412TMC3     H 6153   0.327   0.957  14.266 -0.0174 -0.2474  1.6625
  412TMC3    H1 6154   0.595   0.613  14.316  1.2153  2.4311  0.2926
  412TMC3    H2 6155   0.344   0.635  13.992  1.8076 -2.6897  0.5503
  412TMC3    C7 6156   0.576   0.593  14.056 -0.3589 -0.0188  0.3330
  412TMC3    C8 6157   0.316   0.893  14.014 -0.1506 -0.3508  0.0586
  412TMC3    O1 6158   0.556   0.517  13.965  0.5402 -0.1713 -0.3569
  412TMC3    O2 6159   0.373   1.001  14.032 -0.6428  0.1310  0.3939
  413MPD2     C 6160   2.210   3.515  14.891 -0.2004  0.9336 -0.0344
  413MPD2    C1 6161   2.289   3.616  14.843  0.0318  0.3660  0.2080
  413MPD2    C2 6162   2.402   3.576  14.776 -0.7579  0.0303  0.3324
  413MPD2    C3 6163   2.439   3.443  14.751 -1.4628 -0.2662  0.2988
  413MPD2    C4 6164   2.350   3.343  14.796 -0.1027 -0.9578 -0.3246
  413MPD2    C5 6165   2.241   3.382  14.868  0.2143  0.0805  0.5968
  413MPD2     H 6166   2.465   3.653  14.735  0.5448 -0.2177  1.8739
  413MPD2    H1 6167   2.364   3.236  14.785 -1.4217 -1.2393  0.6725
  413MPD2    H2 6168   2.114   3.532  14.939  0.3435 -3.3480  2.5705
  413MPD2    H3 6169   2.162   3.317  14.903  0.3081 -0.6630 -0.5775
  413MPD2     N 6170   2.566   3.423  14.687 -0.0184  0.7294 -0.2309
  413MPD2    H5 6171   2.617   3.509  14.669 -2.1456  1.6899 -1.7303
  413MPD2    N1 6172   2.252   3.749  14.858  0.1323  0.5218 -0.4803
  413MPD2    H7 6173   2.162   3.778  14.894  0.9694 -0.1487  2.1641
  414TMC3    C1 6174   2.745   3.312  14.614 -0.4824  0.1540 -0.0788
  414TMC3    C2 6175   2.813   3.195  14.590 -0.1610  0.6160  0.8442
  414TMC3    C3 6176   2.946   3.196  14.570  0.1903  0.0580 -0.5281
  414TMC3    C4 6177   2.811   3.443  14.609 -0.2744 -0.0058  0.7171
  414TMC3    C5 6178   2.946   3.433  14.592 -0.2117 -0.2033 -0.2822
  414TMC3    C6 6179   3.016   3.314  14.569 -0.4374 -0.1177 -0.5655
  414TMC3     C 6180   2.610   3.298  14.660  0.2014  0.3313 -0.1171
  414TMC3     O 6181   2.553   3.187  14.655  0.5023  0.1415 -0.6792
  414TMC3     H 6182   2.770   3.098  14.613  0.2696  0.1052 -0.5079
  414TMC3    H1 6183   2.768   3.542  14.620  1.3832  0.7477  0.4269
  414TMC3    H2 6184   3.119   3.314  14.535  0.7638  0.2206  3.0388
  414TMC3    C7 6185   3.021   3.523  14.686  0.3525 -0.2300  0.2633
  414TMC3    C8 6186   3.015   3.073  14.607  0.4413 -0.2183  0.0631
  414TMC3    O1 6187   2.949   3.602  14.743  0.6429 -0.0386 -0.0101
  414TMC3    O2 6188   2.942   2.973  14.618  0.0300  0.1379 -0.0859
  415TMC3    C1 6189   3.236   0.656   9.754 -0.2014  0.4582 -0.9097
  415TMC3    C2 6190   3.330   0.747   9.713  0.7269 -0.0300 -0.1719
  415TMC3    C3 6191   3.283   0.844   9.625  0.5212  0.1525 -0.4314
  415TMC3    C4 6192   3.105   0.659   9.732  0.2210 -0.2039  0.1759
  415TMC3    C5 6193   3.063   0.756   9.643 -0.1368 -0.6597  0.4405
  415TMC3    C6 6194   3.150   0.846   9.580 -0.2299  0.2985  0.2136
  415TMC3     C 6195   3.270   0.562   9.862 -0.4788  0.6835 -1.0085
  415TMC3     O 6196   3.177   0.501   9.913  0.1325  0.3968 -0.4294
  415TMC3     H 6197   3.436   0.739   9.734  1.0707  0.0082 -1.9470
  415TMC3    H1 6198   3.047   0.573   9.762  3.2528 -0.7457  4.5903
  415TMC3    H2 6199   3.114   0.915   9.504 -3.7714  0.3156  1.9341
  415TMC3    C7 6200   2.919   0.794   9.636 -0.2210  0.0547  0.0176
  415TMC3    C8 6201   3.371   0.940   9.559 -0.6664  0.2842  0.0718
  415TMC3    O1 6202   2.893   0.879   9.558  0.0022 -0.0957 -0.0695
  415TMC3    O2 6203   3.325   1.014   9.475  0.0656  0.4073  0.3796
  416MPD2     C 6204   0.122   0.722  11.442  0.2311  0.9860  0.2818
  416MPD2    C1 6205   0.002   0.768  11.386  0.4961 -0.6527  0.6609
  416MPD2    C2 6206   4.667   0.682  11.289 -0.4808  0.3570 -0.3859
  416MPD2    C3 6207   4.714   0.551  11.255 -0.3250 -0.1568 -0.3298
  416MPD2    C4 6208   0.108   0.517  11.313 -0.1367 -0.4892 -0.4150
  416MPD2    C5 6209   0.164   0.600  11.408  0.0318 -0.9398 -0.8962
  416MPD2     H 6210   4.576   0.711  11.238 -0.9458  1.4773  1.0837
  416MPD2    H1 6211   0.147   0.416  11.304 -0.0524 -0.5570  0.6752
  416MPD2    H2 6212   0.183   0.774  11.514  2.3203 -1.3903  0.2260
  416MPD2    H3 6213   0.256   0.565  11.456  0.1339  0.0919 -0.3477
  416MPD2     N 6214   4.644   0.458  11.172  0.0091 -0.1635  0.0005
  416MPD2    H5 6215   4.665   0.359  11.180 -0.6659 -0.4524 -1.6963
  416MPD2    N1 6216   4.669   0.887  11.425  0.3325 -0.2196  0.1834
  416MPD2    H7 6217   4.582   0.909  11.378  1.4553  0.6566 -1.4844
  417TMC3    C1 6218   4.626   1.087  11.533  0.7200  0.3447  0.7569
  417TMC3    C2 6219   4.648   1.170  11.641  0.6536  0.3146  0.6179
  417TMC3    C3 6220   4.562   1.275  11.664  0.3773 -0.2283 -0.0746
  417TMC3    C4 6221   4.518   1.116  11.453  0.8235 -0.8360 -0.3149
  417TMC3    C5 6222   4.424   1.214  11.479  0.0535  1.3154 -0.0164
  417TMC3    C6 6223   4.452   1.300  11.583 -0.2426 -0.0922 -0.0926
  417TMC3     C 6224   4.711   0.977  11.521 -0.1124 -0.1960 -1.1348
  417TMC3     O 6225   0.092   0.986  11.575 -0.2918  1.0912 -0.3314
  417TMC3     H 6226   0.008   1.163  11.708  2.3500 -0.7869 -1.6626
  417TMC3    H1 6227   4.505   1.066  11.358  1.0388 -0.9866 -0.2644
  417TMC3    H2 6228   4.386   1.386  11.591  0.5276  0.2130  2.8125
  417TMC3    C7 6229   4.391   1.284  11.361 -0.6046  0.3114 -0.4295
  417TMC3    C8 6230   4.558   1.351  11.788 -0.4633  0.4945 -0.0033
  417TMC3    O1 6231   4.483   1.328  11.298  0.3146  0.0160 -0.7115
  417TMC3    O2 6232   4.448   1.393  11.821 -0.0270  0.0288  0.0149
  418TMC3    C1 6233   2.908   1.831   0.536 -0.4058  0.1976  0.0096
  418TMC3    C2 6234   2.825   1.927   0.485  0.2545 -0.0305  0.2557
  418TMC3    C3 6235   2.696   1.926   0.539 -0.0584 -0.2506  0.4906
  418TMC3    C4 6236   2.880   1.755   0.648 -0.1221  1.0004 -0.0847
  418TMC3    C5 6237   2.750   1.757   0.694  0.6573  0.4741 -0.0942
  418TMC3    C6 6238   2.658   1.840   0.639  0.6292 -0.3520  0.0582
  418TMC3     C 6239   3.026   1.811   0.459 -0.2431 -0.3999 -0.0667
  418TMC3     O 6240   3.049   1.883   0.361 -0.2374  0.1475 -0.5609
  418TMC3     H 6241   2.855   1.985   0.399 -0.9658 -2.0248 -1.5076
  418TMC3    H1 6242   2.945   1.674   0.681 -0.0674  0.8589 -0.5462
  418TMC3    H2 6243   2.554   1.835   0.667  0.7941 -0.9205  0.5725
  418TMC3    C7 6244   2.708   1.651   0.781  0.6211 -0.3562  0.3431
  418TMC3    C8 6245   2.596   1.941   0.434 -0.1844  0.3314 -0.2047
  418TMC3    O1 6246   2.598   1.601   0.754  0.0558  0.0978 -1.1677
  418TMC3    O2 6247   2.602   2.050   0.377  0.4073  0.4240  0.1477
  419MPD2     C 6248   2.244   0.735  12.590  0.3120 -0.0855 -0.0102
  419MPD2    C1 6249   2.148   0.802  12.526  0.1041 -0.4508  0.0491
  419MPD2    C2 6250   2.109   0.922  12.576  0.3610 -0.4854 -0.1678
  419MPD2    C3 6251   2.152   0.972  12.694 -0.0994  0.0745 -0.0707
  419MPD2    C4 6252   2.249   0.902  12.761 -0.4393 -0.2777 -1.0829
  419MPD2    C5 6253   2.288   0.782  12.705  0.5747 -0.6250 -0.5764
  419MPD2     H 6254   2.042   0.981  12.515 -0.1472 -0.0522  0.8057
  419MPD2    H1 6255   2.294   0.937  12.854  1.6906 -0.9027 -1.8793
  419MPD2    H2 6256   2.279   0.636  12.562 -0.7593 -0.1711 -1.0192
  419MPD2    H3 6257   2.365   0.724  12.755 -0.2863 -2.0844 -0.9553
  419MPD2     N 6258   2.105   1.103  12.719 -0.1656  0.3608  0.9781
  419MPD2    H5 6259   2.049   1.143  12.645  0.2169 -0.6307  0.1561
  419MPD2    N1 6260   2.103   0.763  12.399  0.2497 -0.1844  0.0997
  419MPD2    H7 6261   2.053   0.832  12.344  1.8774  2.1822  1.5619
  420TMC3    C1 6262   2.078   1.293  12.858 -0.4270 -0.4689  0.3032
  420TMC3    C2 6263   1.954   1.313  12.806 -0.2228 -0.6849 -0.5968
  420TMC3    C3 6264   1.880   1.419  12.855  0.2001 -0.2310  0.0162
  420TMC3    C4 6265   2.130   1.371  12.955  0.3063 -0.3524  0.9123
  420TMC3    C5 6266   2.057   1.478  12.993  0.0435  0.1650  0.0536
  420TMC3    C6 6267   1.931   1.501  12.949  0.8055  0.9381  0.9979
  420TMC3     C 6268   2.142   1.165  12.839  0.1593 -0.0097 -0.6344
  420TMC3     O 6269   2.224   1.136  12.925 -0.5512  0.0925 -0.1420
  420TMC3     H 6270   1.908   1.239  12.742 -1.8377  0.2150 -0.4571
  420TMC3    H1 6271   2.237   1.372  12.968  0.6717  1.2174 -2.0747
  420TMC3    H2 6272   1.868   1.576  12.996  0.4911  1.5971 -0.4480
  420TMC3    C7 6273   2.086   1.528  13.128 -0.1775  0.0656 -0.8875
  420TMC3    C8 6274   1.737   1.420  12.839 -0.2206  0.0599  0.0550
  420TMC3    O1 6275   2.071   1.648  13.149 -0.0070 -0.5733 -0.0483
  420TMC3    O2 6276   1.675   1.523  12.858  0.3742  0.0656 -0.0898
  421TMC3    C1 6277   2.992   2.750  13.660  0.0267 -0.2241  0.2100
  421TMC3    C2 6278   3.060   2.849  13.729  0.1932 -0.1554 -0.0593
  421TMC3    C3 6279   3.168   2.816  13.801  0.2021  0.2520 -0.0922
  421TMC3    C4 6280   3.031   2.615  13.678  0.0037 -0.2374 -0.5309
  421TMC3    C5 6281   3.141   2.595  13.755 -0.3488  0.0358 -0.1778
  421TMC3    C6 6282   3.215   2.690  13.810 -0.1179  0.3078 -0.1669
  421TMC3     C 6283   2.894   2.780  13.563  0.3941  0.2851  0.6125
  421TMC3     O 6284   2.816   2.874  13.583 -0.5089  0.0219 -0.0378
  421TMC3     H 6285   3.034   2.954  13.714  0.4919  0.4925  4.1107
  421TMC3    H1 6286   2.971   2.534  13.639 -1.6272 -0.3116  2.1076
  421TMC3    H2 6287   3.298   2.662  13.875 -0.9145 -0.1364  0.6522
  421TMC3    C7 6288   3.205   2.467  13.743  0.1418  0.3098 -0.6805
  421TMC3    C8 6289   3.256   2.926  13.833 -0.2414 -1.0193  0.3693
  421TMC3    O1 6290   3.265   2.429  13.847  0.1838  0.2146 -0.3791
  421TMC3    O2 6291   3.226   3.037  13.866  0.1710  0.1495  0.3469
  422TMC3    C1 6292   0.917   3.930  12.386  0.4164 -0.5564  0.1404
  422TMC3    C2 6293   0.905   4.019  12.488  0.9021  0.1377  0.0036
  422TMC3    C3 6294   0.828   3.986  12.596  0.5167 -0.1518 -0.0781
  422TMC3    C4 6295   0.831   3.824  12.379 -0.3553  0.1618 -0.2713
  422TMC3    C5 6296   0.746   3.804  12.477  0.1167 -0.2647  0.3501
  422TMC3    C6 6297   0.748   3.878  12.592  0.3132  0.2728 -0.4323
  422TMC3     C 6298   0.953   3.994  12.258 -1.0972  0.3017  0.0168
  422TMC3     O 6299   1.008   3.924  12.174 -0.0541 -0.2139 -0.2607
  422TMC3     H 6300   0.969   4.106  12.489  0.4328  0.5091 -2.9094
  422TMC3    H1 6301   0.841   3.761  12.292  1.2391 -1.5098  1.1113
  422TMC3    H2 6302   0.690   3.856  12.681 -2.5184  2.5790 -1.7112
  422TMC3    C7 6303   0.638   3.709  12.446  0.0177 -0.8684  0.5913
  422TMC3    C8 6304   0.860   4.042  12.721 -0.6306  0.6309 -0.9013
  422TMC3    O1 6305   0.660   3.621  12.369 -0.0293  0.1028  0.1835
  422TMC3    O2 6306   0.975   4.086  12.731  0.2813  0.1661  0.1777
  423MPD2     C 6307   2.630   4.523   0.346  0.0414 -0.2165  0.5204
  423MPD2    C1 6308   2.632   4.387   0.375  0.5489  0.1284 -0.1884
  423MPD2    C2 6309   2.685   4.300   0.280  0.5767 -0.3103  0.8042
  423MPD2    C3 6310   2.725   4.344   0.155 -0.2548 -0.3979  0.1645
  423MPD2    C4 6311   2.717   4.482   0.128  0.1639  0.6452 -0.0872
  423MPD2    C5 6312   2.679   4.569   0.227 -0.0989 -0.4563  0.3108
  423MPD2     H 6313   2.701   4.200   0.320 -1.0281 -0.0562  2.0789
  423MPD2    H1 6314   2.752   4.511   0.030 -4.4210 -0.0721 -1.9696
  423MPD2    H2 6315   2.597   4.599   0.416 -1.2692 -0.6580  0.3820
  423MPD2    H3 6316   2.685   4.673   0.199  2.4042 -0.4603  0.8796
  423MPD2     N 6317   2.775   4.265   0.054  1.1086  0.9979  0.5179
  423MPD2    H5 6318   2.814   4.318  17.679 -0.7241  2.2011  0.4141
  423MPD2    N1 6319   2.579   4.339   0.493  0.5538 -0.3112 -0.0163
  423MPD2    H7 6320   2.584   4.240   0.518 -0.2091  0.5095  3.4369
  424TMC3    C1 6321   2.488   4.355   0.715 -0.4461  0.0383 -0.1478
  424TMC3    C2 6322   2.476   4.220   0.721  0.1005 -1.0197 -0.2981
  424TMC3    C3 6323   2.450   4.162   0.843  0.3757 -0.2023  0.6423
  424TMC3    C4 6324   2.466   4.430   0.828  0.3828 -0.5026  0.2714
  424TMC3    C5 6325   2.438   4.367   0.949  0.0867 -0.0735 -0.4807
  424TMC3    C6 6326   2.421   4.230   0.959 -0.2290 -0.4989 -0.2988
  424TMC3     C 6327   2.548   4.418   0.599  0.1359  0.0981 -0.6083
  424TMC3     O 6328   2.560   4.539   0.615  0.4381 -0.4408 -0.0769
  424TMC3     H 6329   2.474   4.169   0.625 -1.4786 -0.8404 -0.3569
  424TMC3    H1 6330   2.464   4.539   0.828 -0.4001 -0.5231 -0.5242
  424TMC3    H2 6331   2.396   4.173   1.048 -0.5069  1.5271  0.9193
  424TMC3    C7 6332   2.365   4.454   1.034 -0.3961  0.0453 -0.6063
  424TMC3    C8 6333   2.419   4.018   0.851  0.1803  0.0900 -0.2471
  424TMC3    O1 6334   2.290   4.528   0.980  0.0054  0.7434 -0.0267
  424TMC3    O2 6335   2.378   3.973   0.960  0.7026 -0.0045  0.3540
  425MPD2     C 6336   1.278   3.547  17.397 -0.0295 -0.1433 -0.5762
  425MPD2    C1 6337   1.197   3.442  17.435 -0.0376 -0.5721  0.0586
  425MPD2    C2 6338   1.065   3.456  17.471  0.1748  0.0984 -0.3386
  425MPD2    C3 6339   1.007   3.584  17.472 -0.0777  0.1679 -0.2206
  425MPD2    C4 6340   1.089   3.689  17.435  0.0509  0.0650 -0.6914
  425MPD2    C5 6341   1.221   3.673  17.395 -0.1598 -0.2924 -0.0455
  425MPD2     H 6342   1.019   3.368  17.514 -0.6553  0.2595 -0.8909
  425MPD2    H1 6343   1.047   3.789  17.434  2.4459  1.0944 -0.6804
  425MPD2    H2 6344   1.381   3.540  17.364  1.3828 -1.3086  4.0287
  425MPD2    H3 6345   1.276   3.753  17.347  2.1085 -1.7634  0.0895
  425MPD2     N 6346   0.876   3.592  17.519 -0.9596  0.9600  0.2755
  425MPD2    H5 6347   0.837   3.501  17.542  1.1034 -0.2380 -0.9069
  425MPD2    N1 6348   1.239   3.308  17.441 -0.1398  0.4270  0.9483
  425MPD2    H7 6349   1.167   3.237  17.455 -0.2285  0.5942  1.3388
  426TMC3    C1 6350   1.350   3.112  17.416  0.9485  0.6190 -0.4850
  426TMC3    C2 6351   1.309   3.047  17.303 -0.5396  1.1508 -0.0850
  426TMC3    C3 6352   1.213   2.951  17.298  0.3924  0.2790 -0.6076
  426TMC3    C4 6353   1.289   3.072  17.533 -0.5261  0.4723 -0.1134
  426TMC3    C5 6354   1.184   2.988  17.530  0.2602 -0.6232  0.9274
  426TMC3    C6 6355   1.147   2.926  17.414 -0.4978  0.3431 -0.2500
  426TMC3     C 6356   1.367   3.253  17.413 -0.6170 -0.7425 -0.4858
  426TMC3     O 6357   1.474   3.302  17.381 -0.3116 -0.0524  0.0979
  426TMC3     H 6358   1.353   3.078  17.209  1.8006  0.9357  0.9479
  426TMC3    H1 6359   1.330   3.102  17.628 -0.8219  0.7433 -0.0721
  426TMC3    H2 6360   1.071   2.848  17.410 -0.3714  0.1318  1.6973
  426TMC3    C7 6361   1.113   2.945  17.644 -0.0989 -0.0378 -0.2877
  426TMC3    C8 6362   1.197   2.873  17.181  0.0336  0.5751 -0.6516
  426TMC3    O1 6363   1.030   2.857  17.633  0.1047  0.4968  0.5879
  426TMC3    O2 6364   1.298   2.865  17.108 -0.2558 -0.7431 -0.5552
  427MPD2     C 6365   0.001   1.321  14.963 -0.2136 -0.0808  0.4882
  427MPD2    C1 6366   4.676   1.215  15.039 -0.3540  0.4310  0.3384
  427MPD2    C2 6367   4.547   1.226  15.077  0.1569 -0.1229  0.5118
  427MPD2    C3 6368   4.469   1.331  15.043 -0.0347 -0.0914  0.1484
  427MPD2    C4 6369   4.517   1.431  14.959  0.0799 -0.6776 -0.4706
  427MPD2    C5 6370   4.649   1.424  14.918 -0.1754  0.3300  0.0665
  427MPD2     H 6371   4.503   1.140  15.126  2.3393 -1.0549  0.8367
  427MPD2    H1 6372   4.459   1.517  14.928 -0.4137 -0.5121  0.9056
  427MPD2    H2 6373   0.105   1.325  14.932 -0.2652  0.5464  0.3991
  427MPD2    H3 6374   4.694   1.507  14.865  1.1602  0.5079  1.4785
  427MPD2     N 6375   4.333   1.330  15.063 -0.3764 -0.1722 -0.4054
  427MPD2    H5 6376   4.277   1.403  15.019 -0.9084 -0.3927 -0.1030
  427MPD2    N1 6377   0.024   1.103  15.081  0.1055 -0.0848  0.0623
  427MPD2    H7 6378   4.697   1.027  15.125  1.7801 -0.8701  0.7000
  428TMC3    C1 6379   0.205   0.981  15.159 -0.2538 -0.1381  0.0768
  428TMC3    C2 6380   0.152   0.863  15.114  0.2664  0.5782  0.4470
  428TMC3    C3 6381   0.215   0.748  15.168 -0.2974 -1.2693  0.4124
  428TMC3    C4 6382   0.306   0.995  15.248 -0.5135 -0.6778  0.6519
  428TMC3    C5 6383   0.346   0.880  15.306 -0.2202  0.6172 -0.1081
  428TMC3    C6 6384   0.316   0.753  15.263 -0.3619  0.0204  0.3719
  428TMC3     C 6385   0.160   1.099  15.084 -0.0152  0.1690 -0.0080
  428TMC3     O 6386   0.246   1.185  15.064 -0.0688  0.0474 -0.4383
  428TMC3     H 6387   0.073   0.859  15.039  0.7513  0.4234 -0.0507
  428TMC3    H1 6388   0.334   1.091  15.290  1.7061 -1.1214  0.2265
  428TMC3    H2 6389   0.361   0.667  15.311 -0.2829 -0.5060 -0.6369
  428TMC3    C7 6390   0.474   0.888  15.374  0.6527 -0.0880  0.1675
  428TMC3    C8 6391   0.195   0.618  15.113 -0.3675 -0.3386  0.8134
  428TMC3    O1 6392   0.506   0.793  15.444 -0.3204  0.3101 -0.3135
  428TMC3    O2 6393   0.264   0.528  15.159  0.3287 -0.0459  0.5354
  429MPD2     C 6394   0.771   0.866   0.177  0.4111 -0.1480  0.9561
  429MPD2    C1 6395   0.747   0.762   0.089 -0.6009  0.3788  0.3895
  429MPD2    C2 6396   0.803   0.762  17.665  0.2576 -0.2333 -0.0988
  429MPD2    C3 6397   0.869   0.874  17.614  0.3487  0.2825 -0.6642
  429MPD2    C4 6398   0.870   0.985   0.002 -0.5712 -0.8084 -0.1414
  429MPD2    C5 6399   0.829   0.979   0.132 -0.1605 -0.1898  0.3214
  429MPD2     H 6400   0.797   0.683  17.592  3.5533 -1.4377  0.9515
  429MPD2    H1 6401   0.930   1.072  17.682  1.6894 -1.8160  2.0409
  429MPD2    H2 6402   0.737   0.872   0.280  0.3531  1.3981  0.8461
  429MPD2    H3 6403   0.838   1.066   0.196 -1.0450 -0.2824  0.5788
  429MPD2     N 6404   0.909   0.871  17.481 -0.0693 -0.1641  0.4081
  429MPD2    H5 6405   0.894   0.781  17.436 -2.0154  0.4170 -0.1038
  429MPD2    N1 6406   0.685   0.643   0.126 -0.2471 -0.2495 -0.3385
  429MPD2    H7 6407   0.664   0.575   0.054  0.0361  1.3283 -1.8951
  430TMC3    C1 6408   0.957   0.951  17.261 -0.0474 -0.2525 -1.2705
  430TMC3    C2 6409   0.966   1.059  17.172 -0.0960 -0.2970  0.2013
  430TMC3    C3 6410   0.990   1.027  17.037  0.0031 -0.2626 -0.3747
  430TMC3    C4 6411   0.986   0.819  17.221  0.4601  0.4469 -0.3657
  430TMC3    C5 6412   1.012   0.799  17.087  0.6213  0.0406  0.1097
  430TMC3    C6 6413   1.008   0.898  16.995 -0.0835 -0.4420  0.4641
  430TMC3     C 6414   0.944   0.980  17.404 -0.2299  0.0799 -0.7888
  430TMC3     O 6415   0.936   1.098  17.435 -0.4542 -0.2483  0.1237
  430TMC3     H 6416   0.934   1.159  17.202 -2.0367  0.1890 -3.4796
  430TMC3    H1 6417   1.000   0.729  17.280  0.1532  1.2730  0.9732
  430TMC3    H2 6418   1.054   0.886  16.898 -2.3491  1.3418 -0.8423
  430TMC3    C7 6419   1.123   0.708  17.064 -0.7204 -0.1501  0.2348
  430TMC3    C8 6420   0.977   1.121  16.931  0.6087  0.5072  0.6782
  430TMC3    O1 6421   1.122   0.603  17.125 -0.4260 -0.4568 -0.7788
  430TMC3    O2 6422   0.925   1.078  16.831 -0.1906  1.0781  0.2211
  431MPD2     C 6423   1.549   1.188  12.462  0.7982  0.4921  0.0134
  431MPD2    C1 6424   1.675   1.218  12.425 -0.7429 -0.5210 -0.8222
  431MPD2    C2 6425   1.742   1.133  12.333 -0.5414  0.1618 -0.1067
  431MPD2    C3 6426   1.688   1.018  12.291 -0.0001  0.4496 -0.4505
  431MPD2    C4 6427   1.560   0.989  12.325  0.2989  0.2168 -0.4258
  431MPD2    C5 6428   1.493   1.079  12.406 -0.7578  0.1608 -0.1972
  431MPD2     H 6429   1.846   1.157  12.314 -0.2323 -0.9911  0.1330
  431MPD2    H1 6430   1.505   0.898  12.305  0.3979  0.4620 -1.7994
  431MPD2    H2 6431   1.485   1.249  12.524 -1.4451 -0.4766 -1.3130
  431MPD2    H3 6432   1.392   1.061  12.440  0.3982 -0.7469  2.8015
  431MPD2     N 6433   1.754   0.915  12.219  0.6266  0.7342 -0.0652
  431MPD2    H5 6434   1.721   0.819  12.208  0.4212  0.8545 -0.5213
  431MPD2    N1 6435   1.735   1.322  12.494  0.5763  0.2194 -0.1659
  431MPD2    H7 6436   1.672   1.392  12.531 -0.2015 -0.5719 -0.0055
  432TMC3    C1 6437   1.921   0.809  12.106  0.1042 -0.4593 -0.7776
  432TMC3    C2 6438   2.003   0.813  11.998 -0.6114  0.6590  1.3962
  432TMC3    C3 6439   2.113   0.736  11.993 -0.4750  0.5124  0.1182
  432TMC3    C4 6440   1.955   0.732  12.214  0.3177  0.4226 -0.6079
  432TMC3    C5 6441   2.067   0.658  12.205  1.0547 -0.3516  0.2131
  432TMC3    C6 6442   2.156   0.665  12.100 -0.8415 -0.4236 -0.8502
  432TMC3     C 6443   1.866   0.935  12.152 -0.4489 -0.1135 -0.3667
  432TMC3     O 6444   1.937   1.035  12.142 -0.1128 -0.0835 -0.1061
  432TMC3     H 6445   1.964   0.860  11.908  0.9276  0.1721  0.4775
  432TMC3    H1 6446   1.885   0.719  12.296  0.6732  0.4308 -0.3038
  432TMC3    H2 6447   2.244   0.603  12.096 -0.8824 -0.6253  1.3345
  432TMC3    C7 6448   2.127   0.644  12.332 -0.5212 -0.5368  0.8437
  432TMC3    C8 6449   2.195   0.758  11.872  0.1200  0.3175 -0.4372
  432TMC3    O1 6450   2.212   0.560  12.349  0.1763  0.0499  0.0404
  432TMC3    O2 6451   2.136   0.814  11.778 -0.7060  1.0100 -0.4186
  433MPD2     C 6452   0.774   4.263  10.584  0.0288  0.4775 -0.4526
  433MPD2    C1 6453   0.796   4.146  10.660  0.3811 -0.1422  0.6636
  433MPD2    C2 6454   0.766   4.169  10.793  0.2898 -0.6941  0.6236
  433MPD2    C3 6455   0.712   4.286  10.850 -0.1010 -0.8187  0.0121
  433MPD2    C4 6456   0.681   4.386  10.766  0.2774  0.1386  0.1965
  433MPD2    C5 6457   0.721   4.380  10.636  0.3432  0.0313  0.2434
  433MPD2     H 6458   0.806   4.094  10.860  0.2302 -0.7965  0.5435
  433MPD2    H1 6459   0.646   4.482  10.802 -0.7825 -0.2060  0.0812
  433MPD2    H2 6460   0.818   4.262  10.485  0.4174  1.6900 -0.2851
  433MPD2    H3 6461   0.717   4.466  10.570  1.2181  1.0157  1.4840
  433MPD2     N 6462   0.710   4.290  10.991  0.5724 -0.1760  0.2476
  433MPD2    H5 6463   0.725   4.202  11.040  1.3693 -1.3507 -2.0984
  433MPD2    N1 6464   0.850   4.019  10.613 -0.4222  0.2708  0.2199
  433MPD2    H7 6465   0.862   3.953  10.689  0.2921 -2.0458 -1.9143
  434TMC3    C1 6466   0.938   3.861  10.457  0.8118  0.4863  0.7973
  434TMC3    C2 6467   0.985   3.793  10.568  0.8168  0.8185 -0.0780
  434TMC3    C3 6468   1.043   3.668  10.546 -0.1821 -0.2832  0.3246
  434TMC3    C4 6469   0.951   3.814  10.327 -0.0105  0.0758 -0.0134
  434TMC3    C5 6470   1.018   3.698  10.313 -0.1038 -0.1966 -0.2483
  434TMC3    C6 6471   1.065   3.620  10.418  0.1168 -0.0328  0.2568
  434TMC3     C 6472   0.879   3.987  10.478 -0.2233 -0.2980 -0.2755
  434TMC3     O 6473   0.862   4.063  10.384 -0.2149  0.5645 -0.1381
  434TMC3     H 6474   0.986   3.831  10.670  0.8555  1.6492 -0.3933
  434TMC3    H1 6475   0.920   3.865  10.237 -3.3463 -0.7941  0.6269
  434TMC3    H2 6476   1.109   3.523  10.402 -1.7917 -0.9274  0.4732
  434TMC3    C7 6477   1.052   3.668  10.169  0.1622  0.4448  0.4408
  434TMC3    C8 6478   1.079   3.599  10.671  0.7859 -0.7894 -0.2318
  434TMC3    O1 6479   1.000   3.738  10.084 -0.3107 -0.1708  0.3029
  434TMC3    O2 6480   1.033   3.645  10.775  0.3982 -0.2332 -0.2111
  435MPD2     C 6481   2.800   4.246  15.158 -0.3331  0.6596 -0.1391
  435MPD2    C1 6482   2.806   4.315  15.282  0.0799 -0.0716 -0.0281
  435MPD2    C2 6483   2.926   4.295  15.348 -0.2025  0.2553  0.3352
  435MPD2    C3 6484   3.031   4.213  15.306 -0.1100 -0.0763 -0.4507
  435MPD2    C4 6485   3.019   4.145  15.190  0.2246 -0.2564  0.5118
  435MPD2    C5 6486   2.897   4.158  15.121  0.3682 -0.4405  0.0449
  435MPD2     H 6487   2.939   4.346  15.443 -1.5105 -1.8822  1.6531
  435MPD2    H1 6488   3.101   4.087  15.150  1.8846  1.0068  2.0600
  435MPD2    H2 6489   2.713   4.253  15.095 -0.7289  0.7872  0.4187
  435MPD2    H3 6490   2.883   4.110  15.025  1.3108 -0.8236  0.0956
  435MPD2     N 6491   3.145   4.205  15.391  0.6528 -0.3910  0.0970
  435MPD2    H5 6492   3.151   4.272  15.467 -1.8355  2.2807 -2.0633
  435MPD2    N1 6493   2.725   4.418  15.333  0.2010 -0.1142  0.1573
  435MPD2    H7 6494   2.753   4.459  15.422  0.8355  0.8125 -0.4724
  436TMC3    C1 6495   2.484   4.573  15.589 -0.0788  0.9725  0.3480
  436TMC3    C2 6496   2.517   4.489  15.489  0.3651 -0.3142 -0.1421
  436TMC3    C3 6497   2.523   4.541  15.362 -0.1797  0.2566 -0.1633
  436TMC3    C4 6498   2.469   4.710  15.570  0.1482 -0.2826  0.4944
  436TMC3    C5 6499   2.476   0.031  15.443 -0.5335  0.0968  0.4697
  436TMC3    C6 6500   2.508   4.675  15.336 -0.2910  0.1269  0.3570
  436TMC3     C 6501   2.427   4.507  15.708 -0.1694 -0.0373 -0.2920
  436TMC3     O 6502   2.442   4.388  15.716 -0.2892 -0.1871  0.8623
  436TMC3     H 6503   2.546   4.385  15.498  1.7377  0.2495  1.8097
  436TMC3    H1 6504   2.455   0.049  15.655 -2.5190  1.9230 -1.6156
  436TMC3    H2 6505   2.537   4.712  15.238 -0.1864  1.1368  0.7701
  436TMC3    C7 6506   2.479   0.176  15.409  0.0098 -0.2074  0.0681
  436TMC3    C8 6507   2.612   4.470  15.268 -0.7876 -0.3345 -0.8542
  436TMC3    O1 6508   2.521   0.212  15.299  0.4034  0.2260 -0.5748
  436TMC3    O2 6509   2.571   4.436  15.162  0.0518 -0.2856 -0.1189
  437TMC3    C1 6510   1.136   2.236  12.554 -0.7108  0.2345  0.0486
  437TMC3    C2 6511   1.048   2.345  12.541  0.3522  0.5811 -0.4571
  437TMC3    C3 6512   1.073   2.427  12.435  0.3364  0.4412 -0.7741
  437TMC3    C4 6513   1.240   2.210  12.460  0.4653 -0.1773 -0.3734
  437TMC3    C5 6514   1.237   2.289  12.346 -1.2361 -0.3539 -0.4026
  437TMC3    C6 6515   1.157   2.400  12.330 -0.1005 -0.0821 -0.4870
  437TMC3     C 6516   1.127   2.149  12.665  0.1400 -0.5892  0.0522
  437TMC3     O 6517   1.224   2.086  12.699  0.0047  0.1039 -0.3618
  437TMC3     H 6518   0.995   2.369  12.633 -0.1477  1.8744 -1.0860
  437TMC3    H1 6519   1.308   2.126  12.471  0.0994 -0.3590  0.4678
  437TMC3    H2 6520   1.158   2.460  12.240 -0.0461  1.3056  0.4499
  437TMC3    C7 6521   1.347   2.280  12.249  0.0290 -0.4344  0.0456
  437TMC3    C8 6522   1.001   2.553  12.432 -0.2110  0.3003  0.4517
  437TMC3    O1 6523   1.332   2.313  12.135 -0.3712  0.0872  0.1598
  437TMC3    O2 6524   1.036   2.628  12.345 -0.1692  0.8659  0.2355
  438MPD2     C 6525   3.456   2.324  16.432  0.2529 -0.6240 -0.0638
  438MPD2    C1 6526   3.545   2.264  16.522  0.4243  0.3030  0.2775
  438MPD2    C2 6527   3.525   2.291  16.652  0.4874 -0.1497 -0.3214
  438MPD2    C3 6528   3.413   2.358  16.695  0.0287  1.0278  0.1200
  438MPD2    C4 6529   3.326   2.415  16.607 -0.2032 -0.3149 -0.5450
  438MPD2    C5 6530   3.346   2.395  16.473  0.4187  0.3508  0.6757
  438MPD2     H 6531   3.600   2.256  16.722 -0.9034 -1.1384  0.6892
  438MPD2    H1 6532   3.244   2.472  16.648 -0.6080  0.7274 -2.8258
  438MPD2    H2 6533   3.470   2.318  16.325 -0.0036  1.5232 -0.2105
  438MPD2    H3 6534   3.280   2.442  16.402  0.7679  0.4681  0.4269
  438MPD2     N 6535   3.378   2.380  16.831  0.8443  0.4737 -0.0347
  438MPD2    H5 6536   3.281   2.409  16.835  0.6534 -0.2312  0.5581
  438MPD2    N1 6537   3.659   2.191  16.482 -0.1202  0.2919 -0.5377
  438MPD2    H7 6538   3.719   2.165  16.560 -0.7882  1.5781  0.4026
  439TMC3    C1 6539   3.805   2.062  16.359 -0.1129 -0.8380 -0.7700
  439TMC3    C2 6540   3.882   2.068  16.246 -0.0267 -0.6412 -0.3110
  439TMC3    C3 6541   3.992   1.987  16.243 -0.0124  0.0743 -0.1640
  439TMC3    C4 6542   3.822   1.966  16.459 -0.6390  1.5759  0.2685
  439TMC3    C5 6543   3.936   1.893  16.451  0.5105  0.1804 -0.2277
  439TMC3    C6 6544   4.024   1.901  16.346 -0.0798 -0.6105  0.5593
  439TMC3     C 6545   3.680   2.133  16.359 -0.3858  0.0718  0.7839
  439TMC3     O 6546   3.621   2.140  16.254  0.5432  0.1106  0.1544
  439TMC3     H 6547   3.862   2.145  16.173 -1.3841 -0.7625 -0.0627
  439TMC3    H1 6548   3.746   1.962  16.537  0.3108  0.2906  1.1311
  439TMC3    H2 6549   4.112   1.838  16.350  0.9252  0.8190  1.0327
  439TMC3    C7 6550   3.980   1.815  16.568 -0.7479  0.4623  0.4764
  439TMC3    C8 6551   4.104   2.001  16.147  0.0279  1.1578  0.6335
  439TMC3    O1 6552   4.103   1.821  16.586 -0.2366 -0.4584  0.2003
  439TMC3    O2 6553   4.180   1.903  16.142  0.0733  0.0689 -0.5882
  440MPD2     C 6554   2.631   2.652  14.456  0.7078 -0.5665  0.0173
  440MPD2    C1 6555   2.638   2.574  14.571 -0.9311  0.0222  0.7672
  440MPD2    C2 6556   2.740   2.484  14.580  0.8048 -0.7163 -0.7257
  440MPD2    C3 6557   2.832   2.476  14.474 -0.2538 -0.1710  0.2347
  440MPD2    C4 6558   2.821   2.554  14.363 -0.8990 -0.1697 -0.5949
  440MPD2    C5 6559   2.717   2.647  14.355  0.0374  0.2957  0.0965
  440MPD2     H 6560   2.760   2.442  14.678 -2.1705 -1.0486 -0.2746
  440MPD2    H1 6561   2.885   2.532  14.279  0.3267 -0.8700  0.5084
  440MPD2    H2 6562   2.547   2.720  14.441  1.6639  0.9010  1.3691
  440MPD2    H3 6563   2.722   2.702  14.261 -4.0958  0.3360 -0.1269
  440MPD2     N 6564   2.940   2.391  14.486  0.2612  0.2092  0.7328
  440MPD2    H5 6565   3.026   2.428  14.447 -1.1885  0.4157 -2.2638
  440MPD2    N1 6566   2.559   2.586  14.692 -0.8308 -0.2667  0.2130
  440MPD2    H7 6567   2.573   2.518  14.765  1.2321  0.2223  0.2793
  441TMC3    C1 6568   3.075   2.292  14.660 -0.2629  0.3182 -0.0405
  441TMC3    C2 6569   3.174   2.390  14.655  0.6394 -0.3336 -0.5386
  441TMC3    C3 6570   3.249   2.403  14.766 -0.5104 -0.3955 -0.1408
  441TMC3    C4 6571   3.059   2.209  14.768  0.6363 -1.0407  0.2062
  441TMC3    C5 6572   3.133   2.231  14.881 -0.9262  0.4289  0.0205
  441TMC3    C6 6573   3.226   2.330  14.886 -0.3343 -0.0773  0.3589
  441TMC3     C 6574   2.946   2.292  14.585  0.3802  0.4339  0.7175
  441TMC3     O 6575   2.856   2.223  14.622 -0.3076  0.1505 -0.1593
  441TMC3     H 6576   3.189   2.453  14.567  0.0795  0.3549 -0.1429
  441TMC3    H1 6577   2.986   2.129  14.758 -0.2541 -0.0065 -1.5462
  441TMC3    H2 6578   3.282   2.360  14.974  0.2950 -1.2603  0.3645
  441TMC3    C7 6579   3.085   2.185  15.007 -0.1179 -0.1437  0.3962
  441TMC3    C8 6580   3.333   2.529  14.780 -0.0121  0.3709 -0.0511
  441TMC3    O1 6581   3.110   2.248  15.110  0.2569  0.3260  0.1624
  441TMC3    O2 6582   3.431   2.526  14.853  0.1360  0.2511 -0.1317
  442MPD2     C 6583   1.403   2.760  16.525  0.7691 -0.2686 -0.6456
  442MPD2    C1 6584   1.275   2.749  16.568 -0.5125  0.0776 -0.4207
  442MPD2    C2 6585   1.203   2.641  16.523 -0.1662 -0.9467  0.6468
  442MPD2    C3 6586   1.256   2.550  16.440 -0.2273  0.0908 -0.8735
  442MPD2    C4 6587   1.371   2.587  16.370 -0.0515  0.1944 -0.2296
  442MPD2    C5 6588   1.446   2.687  16.422  0.0074 -0.2576 -0.3919
  442MPD2     H 6589   1.096   2.646  16.544 -0.4597 -1.4812 -0.7882
  442MPD2    H1 6590   1.412   2.529  16.288 -1.0087  0.2764 -0.7606
  442MPD2    H2 6591   1.472   2.832  16.568  0.2472  0.6082 -1.2823
  442MPD2    H3 6592   1.537   2.718  16.373  1.1456 -1.8659  0.7232
  442MPD2     N 6593   1.182   2.437  16.393  0.0492 -0.1144  0.3031
  442MPD2    H5 6594   1.221   2.396  16.309  2.1408 -1.0112  1.6996
  442MPD2    N1 6595   1.212   2.843  16.652 -0.3380  0.1667 -0.0553
  442MPD2    H7 6596   1.119   2.820  16.683 -0.8146 -0.7010 -2.1507
  443TMC3    C1 6597   1.182   3.049  16.781  0.2718 -1.1714  0.3676
  443TMC3    C2 6598   1.201   3.182  16.765  0.1794 -1.0589 -0.0169
  443TMC3    C3 6599   1.099   3.264  16.798  0.1504  0.5220 -0.6471
  443TMC3    C4 6600   1.068   2.994  16.831  0.2026 -0.1673 -0.1876
  443TMC3    C5 6601   0.982   3.082  16.877 -0.2336  0.3808  0.0079
  443TMC3    C6 6602   0.981   3.216  16.858 -0.8182 -0.2362 -1.1909
  443TMC3     C 6603   1.266   2.966  16.690 -0.7861  0.8379  0.1879
  443TMC3     O 6604   1.367   3.018  16.644 -0.4988 -0.2842 -0.0330
  443TMC3     H 6605   1.297   3.216  16.728 -0.0921 -0.3593 -0.0785
  443TMC3    H1 6606   1.040   2.891  16.846  0.4254 -0.5001 -1.9852
  443TMC3    H2 6607   0.899   3.279  16.891 -0.4300 -0.1203 -0.4173
  443TMC3    C7 6608   0.857   3.018  16.901 -0.4483  0.2314  0.6195
  443TMC3    C8 6609   1.065   3.368  16.700  0.5390 -0.2040 -0.1700
  443TMC3    O1 6610   0.823   2.929  16.825 -0.3590  0.0532 -0.3679
  443TMC3    O2 6611   0.952   3.411  16.699  0.6829  0.1603  0.3823
  444MPD2     C 6612   1.034   2.559  17.396 -0.6891  0.0444 -0.1189
  444MPD2    C1 6613   0.964   2.497  17.295 -0.2170  0.1426 -0.1387
  444MPD2    C2 6614   1.026   2.408  17.205  0.4662 -0.4275  0.1604
  444MPD2    C3 6615   1.164   2.399  17.204  0.1351  0.1626  0.3259
  444MPD2    C4 6616   1.227   2.471  17.304  0.2807 -0.3417  0.5951
  444MPD2    C5 6617   1.166   2.552  17.392 -0.8854  0.2337 -1.3072
  444MPD2     H 6618   0.971   2.358  17.126 -1.2948 -1.0404  1.7490
  444MPD2    H1 6619   1.335   2.465  17.314  0.3885  0.0593 -0.3300
  444MPD2    H2 6620   0.982   2.623  17.467 -1.0868  1.3894 -1.6172
  444MPD2    H3 6621   1.227   2.584  17.476 -1.0151  1.7967 -1.8025
  444MPD2     N 6622   1.219   2.305  17.111 -0.3837 -0.1166 -0.0159
  444MPD2    H5 6623   1.151   2.245  17.065 -0.1294 -0.6223  0.2614
  444MPD2    N1 6624   0.818   2.503  17.295 -0.1944 -0.2331 -0.4949
  444MPD2    H7 6625   0.776   2.439  17.229 -0.3600 -0.2860 -0.3393
  445TMC3    C1 6626   1.394   2.177  17.018  0.6721  0.3024 -0.0963
  445TMC3    C2 6627   1.346   2.054  17.050 -0.1338 -0.1623  0.0242
  445TMC3    C3 6628   1.425   1.945  17.015 -0.1201 -0.5364 -1.1087
  445TMC3    C4 6629   1.517   2.192  16.960 -0.4405  0.0780  0.4548
  445TMC3    C5 6630   1.590   2.084  16.921  0.0753  0.4394 -0.0745
  445TMC3    C6 6631   1.548   1.957  16.955  0.6766  0.5300 -0.4058
  445TMC3     C 6632   1.351   2.290  17.093 -1.0021  0.2847  0.1901
  445TMC3     O 6633   1.436   2.369  17.123 -0.1460  0.4480 -0.3491
  445TMC3     H 6634   1.251   2.053  17.102 -0.2355  0.9362 -0.1500
  445TMC3    H1 6635   1.557   2.292  16.958  0.0120 -0.1547 -1.6383
  445TMC3    H2 6636   1.604   1.867  16.932 -0.7594 -0.0782 -1.5156
  445TMC3    C7 6637   1.713   2.113  16.849  0.8560  0.2727  0.6975
  445TMC3    C8 6638   1.378   1.810  17.046 -0.2622  0.0613 -0.0614
  445TMC3    O1 6639   1.726   2.225  16.801  0.2549 -0.3885 -0.5053
  445TMC3    O2 6640   1.418   1.719  16.978  0.1595  0.6370 -0.3497
  446MPD2     C 6641   0.699   3.320  10.980 -0.4661 -0.1400  0.4874
  446MPD2    C1 6642   0.711   3.411  10.880 -0.0546  0.3167  0.2689
  446MPD2    C2 6643   0.784   3.528  10.907 -0.4607  0.6096 -0.1606
  446MPD2    C3 6644   0.838   3.546  11.033 -0.3258  0.4533 -0.0636
  446MPD2    C4 6645   0.807   3.458  11.138  0.5885 -0.5049  0.1484
  446MPD2    C5 6646   0.750   3.337  11.105 -0.1768  0.1946 -0.3109
  446MPD2     H 6647   0.814   3.594  10.826  0.1339 -1.3009 -1.4837
  446MPD2    H1 6648   0.833   3.478  11.241  1.2355  3.6263 -0.8340
  446MPD2    H2 6649   0.636   3.232  10.967  0.4286 -0.8361  0.8869
  446MPD2    H3 6650   0.733   3.272  11.191  1.9118 -0.0475 -0.0649
  446MPD2     N 6651   0.907   3.665  11.053 -0.5683  0.2291 -0.3432
  446MPD2    H5 6652   0.919   3.722  10.970  0.6755 -0.4108 -0.5886
  446MPD2    N1 6653   0.647   3.399  10.760  0.2109  0.6888  0.6324
  446MPD2    H7 6654   0.657   3.471  10.689  2.2184 -1.9915 -1.7945
  447TMC3    C1 6655   1.033   3.837  11.150  0.1333  0.9136  0.5253
  447TMC3    C2 6656   1.031   3.897  11.028  0.3139 -0.3509  0.0725
  447TMC3    C3 6657   1.144   3.967  10.996  0.1387  0.5552 -0.0878
  447TMC3    C4 6658   1.136   3.853  11.243 -0.5312  0.8566 -0.5103
  447TMC3    C5 6659   1.244   3.927  11.203 -0.0875  0.9757 -0.4867
  447TMC3    C6 6660   1.250   3.977  11.075 -0.0061  0.6417  0.2666
  447TMC3     C 6661   0.948   3.720  11.169 -0.6339 -0.0253 -0.3702
  447TMC3     O 6662   0.930   3.684  11.281 -0.0208  0.1958 -0.1387
  447TMC3     H 6663   0.952   3.875  10.956  2.1765 -3.6398 -0.9648
  447TMC3    H1 6664   1.145   3.789  11.331 -2.4177  1.6767  0.2819
  447TMC3    H2 6665   1.344   4.006  11.029 -0.2451  1.8022  0.5370
  447TMC3    C7 6666   1.371   3.866  11.238  0.1688 -0.5859 -0.1471
  447TMC3    C8 6667   1.187   3.955  10.855  0.0432  0.3433  0.3082
  447TMC3    O1 6668   1.436   3.833  11.141 -0.2107 -0.0778  0.3527
  447TMC3    O2 6669   1.131   4.008  10.760 -0.0317 -0.1429  0.0357
  448TMC3    C1 6670   3.425   4.118  16.542 -0.0523 -0.1055  0.4106
  448TMC3    C2 6671   3.501   4.045  16.459  0.7271 -0.6254 -0.2705
  448TMC3    C3 6672   3.561   3.928  16.505  0.3953 -0.0773  0.2822
  448TMC3    C4 6673   3.411   4.083  16.673 -0.1420 -0.4043 -0.3440
  448TMC3    C5 6674   3.470   3.973  16.722  0.6239  0.3231  0.8042
  448TMC3    C6 6675   3.554   3.896  16.640 -0.0622 -0.1019  0.3130
  448TMC3     C 6676   3.367   4.246  16.507 -0.4718  0.1121  0.0516
  448TMC3     O 6677   3.283   4.285  16.585  0.1836 -0.2276  0.3848
  448TMC3     H 6678   3.510   4.071  16.354 -1.9317  0.2432 -0.2925
  448TMC3    H1 6679   3.348   4.141  16.739 -1.0749  0.8212 -2.2924
  448TMC3    H2 6680   3.605   3.810  16.680  1.0345  0.2585 -0.3011
  448TMC3    C7 6681   3.459   3.979  16.870 -0.5191  0.0643 -0.1358
  448TMC3    C8 6682   3.602   3.821  16.420 -0.3927  0.3954  0.1813
  448TMC3    O1 6683   3.361   4.035  16.921  0.9635 -0.1409  0.0622
  448TMC3    O2 6684   3.633   3.716  16.476  0.0610 -0.3097 -0.3253
  449MPD2     C 6685   0.781   2.829  14.141 -0.7645 -0.4995 -0.0431
  449MPD2    C1 6686   0.703   2.828  14.029  0.4505 -0.1589 -0.3838
  449MPD2    C2 6687   0.658   2.708  13.981  0.2827  0.2195  0.5772
  449MPD2    C3 6688   0.690   2.590  14.034  0.6420  0.0549  0.0328
  449MPD2    C4 6689   0.762   2.594  14.150 -0.7066  0.8462  0.0980
  449MPD2    C5 6690   0.812   2.707  14.198  0.0517  0.3756  0.6169
  449MPD2     H 6691   0.602   2.712  13.888  0.3380  1.0132  0.5823
  449MPD2    H1 6692   0.802   2.503  14.194 -1.1859  1.1166  1.0865
  449MPD2    H2 6693   0.815   2.922  14.186 -1.4745  0.3518 -1.2857
  449MPD2    H3 6694   0.869   2.710  14.290  0.1480 -0.6136  0.5890
  449MPD2     N 6695   0.661   2.471  13.966 -0.4710  0.0114 -0.0826
  449MPD2    H5 6696   0.613   2.478  13.877 -2.0911 -0.4112  0.7509
  449MPD2    N1 6697   0.674   2.942  13.945  0.0508  0.0264  0.3784
  449MPD2    H7 6698   0.615   2.928  13.863 -0.1325 -0.1669  0.5455
  450TMC3    C1 6699   0.684   3.146  13.850 -0.5270 -0.5802  0.1074
  450TMC3    C2 6700   0.790   3.180  13.769  0.2167 -0.4782 -0.3821
  450TMC3    C3 6701   0.788   3.146  13.637 -0.3664 -0.0970 -0.3216
  450TMC3    C4 6702   0.574   3.084  13.793  0.7078  0.2027 -0.6094
  450TMC3    C5 6703   0.573   3.062  13.654 -0.0715  0.3895 -0.2836
  450TMC3    C6 6704   0.677   3.091  13.573 -1.0554 -0.1215 -0.8740
  450TMC3     C 6705   0.725   3.072  13.965  0.2113  0.3547  0.5119
  450TMC3     O 6706   0.824   3.101  14.033  0.0663 -0.4327 -0.0878
  450TMC3     H 6707   0.876   3.232  13.811 -0.5084 -1.1838  1.9797
  450TMC3    H1 6708   0.493   3.050  13.856 -0.4788  0.1933 -2.1471
  450TMC3    H2 6709   0.681   3.051  13.472  0.4761 -1.7986 -0.1426
  450TMC3    C7 6710   0.520   2.929  13.630 -0.1901 -0.4577  0.0808
  450TMC3    C8 6711   0.911   3.162  13.557 -0.3846  0.1219  0.4044
  450TMC3    O1 6712   0.533   2.862  13.728  0.4607  0.0938 -0.2037
  450TMC3    O2 6713   0.983   3.261  13.579  0.1038 -0.1534 -0.5637
  451MPD2     C 6714   1.665   1.686   1.934  0.1295  0.0771  0.0863
  451MPD2    C1 6715   1.680   1.630   1.809  0.4019 -0.1864  0.0955
  451MPD2    C2 6716   1.727   1.503   1.794  0.6238 -0.1567 -0.3596
  451MPD2    C3 6717   1.757   1.425   1.909  0.1957  0.4625  0.2681
  451MPD2    C4 6718   1.755   1.485   2.035 -0.1248  0.0003  0.5265
  451MPD2    C5 6719   1.699   1.610   2.046  0.0695  0.9406 -0.1591
  451MPD2     H 6720   1.731   1.450   1.699 -0.5465  2.1802 -1.7009
  451MPD2    H1 6721   1.783   1.432   2.126  1.2663 -2.1488 -1.1498
  451MPD2    H2 6722   1.635   1.790   1.942  0.8078  0.2237  0.7322
  451MPD2    H3 6723   1.695   1.651   2.146  0.2110  1.0540 -0.2000
  451MPD2     N 6724   1.805   1.290   1.902  0.1458 -0.0060 -0.2040
  451MPD2    H5 6725   1.810   1.238   1.990  1.0422  0.3673 -0.0398
  451MPD2    N1 6726   1.629   1.699   1.697 -0.2377  0.2179 -0.1838
  451MPD2    H7 6727   1.571   1.782   1.710  1.2891  1.5269 -1.7840
  452TMC3    C1 6728   1.931   1.094   1.832 -0.3892  0.2480  0.2368
  452TMC3    C2 6729   2.015   1.098   1.937  0.2964 -0.2077 -0.3386
  452TMC3    C3 6730   2.088   0.982   1.950 -0.2640  0.2265 -0.1576
  452TMC3    C4 6731   1.944   1.011   1.724 -0.8942  0.4279  0.8541
  452TMC3    C5 6732   2.023   0.901   1.739 -0.0706  0.6688 -0.1091
  452TMC3    C6 6733   2.097   0.887   1.851 -0.1066  0.3595 -0.6058
  452TMC3     C 6734   1.869   1.230   1.797 -1.1455 -0.1138 -0.6181
  452TMC3     O 6735   1.880   1.263   1.682  0.4553 -0.5453  0.2322
  452TMC3     H 6736   1.996   1.174   2.012 -1.9216 -0.3904 -0.7231
  452TMC3    H1 6737   1.896   1.035   1.629 -0.3630 -0.9170  0.2485
  452TMC3    H2 6738   2.172   0.809   1.860  1.3904  1.9476  0.6729
  452TMC3    C7 6739   2.006   0.799   1.634 -0.7284  0.6217 -0.0203
  452TMC3    C8 6740   2.185   0.977   2.056 -0.0655  0.3827 -0.1207
  452TMC3    O1 6741   1.917   0.824   1.552 -0.0511 -0.0827  0.4523
  452TMC3    O2 6742   2.208   0.867   2.105 -0.1395 -0.7247 -0.1945
  453TMC3    C1 6743   3.186   3.068  11.474  0.4251 -0.1790 -0.0087
  453TMC3    C2 6744   3.134   2.957  11.535 -0.3550  0.1466 -0.0490
  453TMC3    C3 6745   3.085   2.857  11.454  0.3917 -0.0975 -0.3500
  453TMC3    C4 6746   3.201   3.078  11.342  0.3204  0.5996 -0.2098
  453TMC3    C5 6747   3.162   2.968  11.273 -0.5578  0.1570 -0.0361
  453TMC3    C6 6748   3.098   2.861  11.321 -0.8584 -0.6419 -0.0479
  453TMC3     C 6749   3.213   3.188  11.549 -0.0760  0.4552 -0.4477
  453TMC3     O 6750   3.316   3.245  11.517  0.1246 -0.1122 -0.2822
  453TMC3     H 6751   3.129   2.950  11.643  0.7712 -0.1323 -0.0133
  453TMC3    H1 6752   3.260   3.164  11.313 -0.8364  0.9172 -1.5687
  453TMC3    H2 6753   3.042   2.784  11.269 -2.2540  0.1478  0.2948
  453TMC3    C7 6754   3.214   2.949  11.143  0.2921 -0.7842 -0.2046
  453TMC3    C8 6755   2.993   2.761  11.510  0.3641  0.5976 -0.2033
  453TMC3    O1 6756   3.225   2.832  11.100  0.2512 -0.1060  0.0969
  453TMC3    O2 6757   2.897   2.723  11.444  0.0627 -0.0559  0.0330
  454MPD2     C 6758   1.865   2.798  16.274 -0.1718  0.0479  0.4218
  454MPD2    C1 6759   1.852   2.667  16.239  0.0968 -0.8245 -0.1380
  454MPD2    C2 6760   1.801   2.577  16.332 -0.2511  0.1531  0.4036
  454MPD2    C3 6761   1.766   2.609  16.460 -0.5202 -0.3438  0.5789
  454MPD2    C4 6762   1.792   2.741  16.497  0.2596  0.5097 -0.6672
  454MPD2    C5 6763   1.843   2.833  16.406  0.9977  0.4883  1.3274
  454MPD2     H 6764   1.789   2.476  16.293 -0.7656  0.7225 -0.9143
  454MPD2    H1 6765   1.770   2.775  16.598  0.8006  0.9761 -0.7064
  454MPD2    H2 6766   1.920   2.865  16.209  0.7659  1.0690  2.2855
  454MPD2    H3 6767   1.876   2.928  16.449  1.0897  1.0225  0.0737
  454MPD2     N 6768   1.689   2.527  16.542  0.1331  0.2134  0.2555
  454MPD2    H5 6769   1.658   2.559  16.633  0.0153  2.4490 -0.5691
  454MPD2    N1 6770   1.870   2.608  16.112 -0.6017  0.2940  0.2397
  454MPD2    H7 6771   1.857   2.507  16.112  0.6981  0.1233 -0.5536
  455TMC3    C1 6772   1.531   2.359  16.586 -0.3697 -0.1626 -0.6510
  455TMC3    C2 6773   1.459   2.445  16.668 -0.0772  0.1415  0.3644
  455TMC3    C3 6774   1.350   2.395  16.730 -0.0039  0.5344  0.3394
  455TMC3    C4 6775   1.482   2.233  16.565 -0.2920 -0.5944 -0.1331
  455TMC3    C5 6776   1.357   2.194  16.621  0.2431 -0.2910  0.3728
  455TMC3    C6 6777   1.287   2.275  16.706 -0.1012  0.5504  0.5369
  455TMC3     C 6778   1.641   2.402  16.507 -0.2625 -0.2678  1.0616
  455TMC3     O 6779   1.674   2.322  16.418 -0.0301  0.1951  0.0548
  455TMC3     H 6780   1.475   2.552  16.680  1.7693 -0.2052  0.9987
  455TMC3    H1 6781   1.527   2.158  16.500  0.4894 -0.5480  0.3608
  455TMC3    H2 6782   1.188   2.255  16.745 -0.8666 -0.0194 -1.7340
  455TMC3    C7 6783   1.302   2.061  16.585 -0.5833 -0.6498 -0.6210
  455TMC3    C8 6784   1.289   2.501  16.811  0.9453 -0.2026 -0.2607
  455TMC3    O1 6785   1.224   2.015  16.665  0.2499 -0.0686  0.2585
  455TMC3    O2 6786   1.360   2.582  16.873  0.1212 -0.5872  0.7944
  456MPD2     C 6787   4.285   2.877  15.430 -0.0394 -0.7154  0.0490
  456MPD2    C1 6788   4.341   2.814  15.540 -0.4700 -0.4463  0.1892
  456MPD2    C2 6789   4.299   2.857  15.666 -0.1992 -1.0409  0.3745
  456MPD2    C3 6790   4.189   2.947  15.683 -0.9034  0.4016  0.2544
  456MPD2    C4 6791   4.132   2.998  15.568 -0.5341  0.2912  0.0567
  456MPD2    C5 6792   4.182   2.962  15.444 -0.5104  0.0106  0.0117
  456MPD2     H 6793   4.334   2.813  15.759 -1.5525 -2.2342  0.3261
  456MPD2    H1 6794   4.050   3.068  15.582 -0.1815  0.9461 -1.2261
  456MPD2    H2 6795   4.324   2.863  15.330 -1.8038  2.3776 -1.0709
  456MPD2    H3 6796   4.135   3.015  15.362  1.3732  3.6236  1.2764
  456MPD2     N 6797   4.146   2.981  15.817  0.4076 -0.1918 -0.5188
  456MPD2    H5 6798   4.194   2.940  15.897  0.0635  0.0749 -0.1781
  456MPD2    N1 6799   4.434   2.715  15.515 -0.0244 -0.0407 -0.5537
  456MPD2    H7 6800   4.457   2.705  15.417 -1.9963 -1.1138 -0.8895
  457TMC3    C1 6801   4.024   3.115  15.988 -0.2691 -0.5119  0.6365
  457TMC3    C2 6802   3.910   3.199  16.017  0.9265 -0.1768  0.3550
  457TMC3    C3 6803   3.905   3.260  16.144  0.1002  0.3066 -0.2384
  457TMC3    C4 6804   4.119   3.092  16.079  0.1534 -0.3501  0.2436
  457TMC3    C5 6805   4.109   3.145  16.200 -0.0628 -0.3360  0.3554
  457TMC3    C6 6806   4.003   3.229  16.236 -0.3887 -0.0343  0.7119
  457TMC3     C 6807   4.038   3.067  15.851 -0.2110  0.1197  0.3984
  457TMC3     O 6808   3.948   3.092  15.774 -0.1973 -0.1287 -0.3597
  457TMC3     H 6809   3.845   3.222  15.934 -0.5436  0.7301  1.7640
  457TMC3    H1 6810   4.204   3.027  16.061 -1.2104 -1.4255 -2.3427
  457TMC3    H2 6811   4.007   3.279  16.332 -1.4928  0.1285  0.6699
  457TMC3    C7 6812   4.206   3.122  16.301 -0.4172 -0.4552 -0.9498
  457TMC3    C8 6813   3.817   3.378  16.175  0.4267 -0.3436 -0.8343
  457TMC3    O1 6814   4.178   3.158  16.416 -0.3347  0.2187 -0.1338
  457TMC3    O2 6815   3.816   3.412  16.291 -0.0221  0.1091 -0.2202
  458MPD2     C 6816   1.849   2.246  12.128  0.4582 -0.5097 -0.3803
  458MPD2    C1 6817   1.833   2.199  12.251 -0.4242 -0.2323  0.8731
  458MPD2    C2 6818   1.707   2.208  12.308  0.4978 -0.2359  0.4454
  458MPD2    C3 6819   1.593   2.248  12.243 -0.2803 -0.2538  0.0017
  458MPD2    C4 6820   1.622   2.308  12.117 -0.4090 -0.1046  0.3664
  458MPD2    C5 6821   1.744   2.301  12.059  0.3930  0.2587  0.5989
  458MPD2     H 6822   1.705   2.172  12.411  3.4485 -0.3290  0.4753
  458MPD2    H1 6823   1.548   2.365  12.062 -2.1514 -1.9363  0.8366
  458MPD2    H2 6824   1.945   2.240  12.077  0.3656  0.2542 -0.6434
  458MPD2    H3 6825   1.778   2.344  11.966 -0.2693 -1.1595 -0.3051
  458MPD2     N 6826   1.470   2.252  12.314 -0.2253  0.2607 -0.6110
  458MPD2    H5 6827   1.469   2.227  12.412 -1.5809 -0.7843 -0.8999
  458MPD2    N1 6828   1.951   2.166  12.321 -0.4112 -0.1278  0.0246
  458MPD2    H7 6829   2.040   2.196  12.281 -0.2032  0.7859  1.1462
  459TMC3    C1 6830   2.085   2.123  12.525 -0.2218  0.0349 -0.0998
  459TMC3    C2 6831   2.166   2.231  12.503  0.2755 -0.0912  0.3160
  459TMC3    C3 6832   2.276   2.256  12.581  1.0923  0.4292 -0.6210
  459TMC3    C4 6833   2.108   2.041  12.631  0.7045  0.6137  0.3156
  459TMC3    C5 6834   2.220   2.055  12.702 -0.0065  0.3809  0.0436
  459TMC3    C6 6835   2.303   2.165  12.683  0.4390  0.3079  0.4157
  459TMC3     C 6836   1.957   2.117  12.453  0.0559  0.2858  0.1482
  459TMC3     O 6837   1.866   2.065  12.515 -0.1118  0.3593  0.3383
  459TMC3     H 6838   2.141   2.305  12.428 -1.1395  0.1430  1.0274
  459TMC3    H1 6839   2.040   1.959  12.655  2.0840 -0.5999  0.1020
  459TMC3    H2 6840   2.384   2.189  12.752 -1.2955  0.1234  2.5212
  459TMC3    C7 6841   2.243   1.966  12.816 -0.5124  0.3878 -0.7411
  459TMC3    C8 6842   2.381   2.347  12.533  0.1948 -0.0721  0.5969
  459TMC3    O1 6843   2.178   1.863  12.828 -0.0123 -0.1986  0.4778
  459TMC3    O2 6844   2.476   2.362  12.610  0.5790  0.3098  0.1871
  460MPD2     C 6845   1.424   3.683  10.762  0.6647 -0.1107 -0.3803
  460MPD2    C1 6846   1.345   3.791  10.738 -0.1667  0.5710 -0.5890
  460MPD2    C2 6847   1.337   3.832  10.604  0.5270  0.1687  0.5103
  460MPD2    C3 6848   1.395   3.766  10.497  0.0400 -0.8958 -0.4028
  460MPD2    C4 6849   1.483   3.662  10.532  0.6087 -0.6172 -0.5800
  460MPD2    C5 6850   1.498   3.628  10.660 -0.2814  0.2140  0.4804
  460MPD2     H 6851   1.263   3.905  10.572 -0.6814 -1.2003  0.2123
  460MPD2    H1 6852   1.535   3.590  10.470 -0.2142 -2.3214  0.7064
  460MPD2    H2 6853   1.445   3.651  10.863  1.9328 -1.2215 -0.9894
  460MPD2    H3 6854   1.570   3.556  10.697 -1.7086 -1.6978 -0.4905
  460MPD2     N 6855   1.363   3.805  10.362  0.1465 -0.5691  0.1633
  460MPD2    H5 6856   1.332   3.900  10.345 -0.1361 -0.8990 -1.1536
  460MPD2    N1 6857   1.286   3.857  10.852  0.4875 -0.6213  0.5534
  460MPD2    H7 6858   1.306   3.816  10.943  0.2105 -0.9045  0.4874
  461TMC3    C1 6859   1.369   3.808  10.126 -0.0545 -0.3987 -0.1784
  461TMC3    C2 6860   1.420   3.747  10.015  0.3814 -0.4480  0.3582
  461TMC3    C3 6861   1.413   3.800   9.889  0.2322 -0.0916  0.0999
  461TMC3    C4 6862   1.298   3.930  10.106  0.6011  0.4007  0.0185
  461TMC3    C5 6863   1.294   3.982   9.980 -0.8502 -0.1508 -0.0953
  461TMC3    C6 6864   1.351   3.923   9.876  0.7691  0.1610 -0.0273
  461TMC3     C 6865   1.393   3.732  10.250 -0.5750  0.5412  0.3900
  461TMC3     O 6866   1.444   3.622  10.245  0.0107 -0.0424 -0.0484
  461TMC3     H 6867   1.489   3.665  10.030  1.4043  0.5152  0.9151
  461TMC3    H1 6868   1.245   3.984  10.185 -0.0047  0.1977 -0.2485
  461TMC3    H2 6869   1.358   3.973   9.780  1.4120 -0.4168 -0.2806
  461TMC3    C7 6870   1.245   4.115   9.957  0.3345 -0.6805  0.5089
  461TMC3    C8 6871   1.505   3.747   9.784 -0.5052  0.5151 -0.5110
  461TMC3    O1 6872   1.235   4.152   9.840 -0.0874 -0.2796  0.6704
  461TMC3    O2 6873   1.607   3.684   9.812  0.1841 -0.1152  0.0389
  462TMC3    C1 6874   1.493   4.601  17.465  0.7015 -0.1716  0.0045
  462TMC3    C2 6875   1.462   4.489  17.388 -0.1131  0.5309 -0.2867
  462TMC3    C3 6876   1.335   4.444  17.399 -0.2783 -0.8084 -0.8261
  462TMC3    C4 6877   1.404   4.653  17.550  0.8439 -0.6849 -0.5544
  462TMC3    C5 6878   1.280   4.596  17.558 -1.2507  0.3218  0.1007
  462TMC3    C6 6879   1.240   4.499  17.470  0.7797  0.0597  0.5202
  462TMC3     C 6880   1.626   4.651  17.455  0.5992  0.8662  0.0276
  462TMC3     O 6881   1.707   4.577  17.404  0.0744  0.1239 -0.2965
  462TMC3     H 6882   1.534   4.443  17.322 -0.7663  0.7743 -1.1769
  462TMC3    H1 6883   1.439   0.010  17.612 -0.5414 -0.5922  0.1133
  462TMC3    H2 6884   1.152   4.442  17.495 -0.3795  0.8946 -1.6118
  462TMC3    C7 6885   1.198   4.625  17.672 -0.0542 -0.7345  0.2919
  462TMC3    C8 6886   1.298   4.319  17.334  0.9100  0.7534 -0.5733
  462TMC3    O1 6887   1.102   4.544  17.683  0.0663 -0.0500  0.6714
  462TMC3    O2 6888   1.190   4.263  17.359  0.0823  0.3806 -0.2992
  463MPD2     C 6889   2.119   3.664   2.394  0.6254  0.0884  0.4850
  463MPD2    C1 6890   2.143   3.627   2.263  0.1954 -0.0231 -0.3281
  463MPD2    C2 6891   2.255   3.672   2.196 -0.3374 -0.1265 -0.0172
  463MPD2    C3 6892   2.341   3.759   2.265  0.0390 -0.0518 -0.4965
  463MPD2    C4 6893   2.310   3.800   2.394 -1.2766  0.4893  0.2488
  463MPD2    C5 6894   2.196   3.754   2.462  0.1062 -0.4104  0.1051
  463MPD2     H 6895   2.288   3.636   2.099  1.3677 -0.8275  0.8314
  463MPD2    H1 6896   2.375   3.864   2.453 -2.7313  0.1761  2.1990
  463MPD2    H2 6897   2.032   3.630   2.447  0.9146 -0.2708  0.7290
  463MPD2    H3 6898   2.168   3.783   2.563 -0.0547 -1.1397  0.2732
  463MPD2     N 6899   2.455   3.814   2.206 -0.2827 -0.0629 -0.0593
  463MPD2    H5 6900   2.506   3.881   2.263  0.0872 -1.5785  1.3773
  463MPD2    N1 6901   2.062   3.542   2.196  0.5454 -0.3846  0.4565
  463MPD2    H7 6902   2.103   3.504   2.111 -0.5763  1.3655 -0.8591
  464TMC3    C1 6903   1.875   3.416   2.138  0.2163 -0.5660  0.1784
  464TMC3    C2 6904   1.925   3.404   2.012 -0.4197 -0.0650  0.1274
  464TMC3    C3 6905   1.845   3.357   1.919 -0.4771  0.1964  0.0414
  464TMC3    C4 6906   1.742   3.382   2.162  0.1810  0.2862 -0.5641
  464TMC3    C5 6907   1.666   3.325   2.059  0.1223  0.1507  0.4517
  464TMC3    C6 6908   1.718   3.313   1.935 -0.3016  0.4814 -1.0610
  464TMC3     C 6909   1.931   3.513   2.232  0.0538 -0.4911 -0.1197
  464TMC3     O 6910   1.858   3.563   2.316  0.2365  0.5457 -0.1108
  464TMC3     H 6911   2.028   3.428   1.986  0.0681  0.0041  2.1104
  464TMC3    H1 6912   1.694   3.401   2.257  0.7129 -0.0448 -0.2289
  464TMC3    H2 6913   1.668   3.254   1.859 -1.2593 -0.6629  0.4607
  464TMC3    C7 6914   1.521   3.318   2.081 -0.4041  0.2534  0.8288
  464TMC3    C8 6915   1.872   3.405   1.786 -0.0859  0.4410  0.0232
  464TMC3    O1 6916   1.481   3.285   2.189 -0.2605 -0.1245 -0.5452
  464TMC3    O2 6917   1.929   3.510   1.780 -0.2041 -0.2577 -0.9924
  465MPD2     C 6918   3.613   2.468  16.159 -0.1713  0.1356  0.0121
  465MPD2    C1 6919   3.557   2.572  16.216  0.2562  0.0886  0.3689
  465MPD2    C2 6920   3.426   2.610  16.186 -0.1140  0.0994 -0.2710
  465MPD2    C3 6921   3.354   2.527  16.099  0.3287  0.6880 -0.1947
  465MPD2    C4 6922   3.416   2.419  16.044 -0.1242 -0.2409 -0.2369
  465MPD2    C5 6923   3.542   2.386  16.076  0.7350  0.4347  0.2624
  465MPD2     H 6924   3.390   2.707  16.217  2.5309  1.5071 -1.5526
  465MPD2    H1 6925   3.372   2.363  15.962 -1.0681 -0.8511  0.6824
  465MPD2    H2 6926   3.717   2.441  16.178 -1.0673 -2.4145  1.2278
  465MPD2    H3 6927   3.587   2.303  16.023 -1.2743 -0.1647 -0.4824
  465MPD2     N 6928   3.226   2.574  16.069  0.6048  0.3118 -0.3979
  465MPD2    H5 6929   3.198   2.668  16.094 -1.4857  0.0805 -1.9520
  465MPD2    N1 6930   3.608   2.633  16.333  0.0916  0.5043  0.4033
  465MPD2    H7 6931   3.539   2.699  16.368 -0.6771 -0.9951  1.7065
  466TMC3    C1 6932   2.793   2.575  16.103 -0.4995 -0.2546 -0.2460
  466TMC3    C2 6933   2.788   2.707  16.055  0.1050 -0.7971  0.0576
  466TMC3    C3 6934   2.900   2.754  15.987  1.1578  0.4092  0.0697
  466TMC3    C4 6935   2.902   2.490  16.083  0.0234  0.3089 -0.1553
  466TMC3    C5 6936   3.007   2.550  16.011 -0.0095  0.0372  0.3462
  466TMC3    C6 6937   3.003   2.674  15.961 -0.2993 -0.3779  0.0057
  466TMC3     C 6938   2.714   2.544  16.218  0.2517 -0.7324  0.0495
  466TMC3     O 6939   2.663   2.640  16.278 -0.5695 -0.3474  0.0302
  466TMC3     H 6940   2.696   2.761  16.076 -1.0042 -2.1736 -1.2586
  466TMC3    H1 6941   2.910   2.383  16.101 -0.2028  0.3705  0.3155
  466TMC3    H2 6942   3.092   2.715  15.915 -0.2921 -1.4688 -0.9491
  466TMC3    C7 6943   3.134   2.487  16.035 -0.0254  0.0516 -0.3052
  466TMC3    C8 6944   2.904   2.886  15.941 -0.8440 -0.0365  0.4042
  466TMC3    O1 6945   3.136   2.364  16.031  0.4403 -0.1483  0.2619
  466TMC3    O2 6946   2.969   2.905  15.842  0.4152 -0.0477  0.1068
  467TMC3    C1 6947   3.957   1.519  13.455 -0.0463  0.0656 -0.7558
  467TMC3    C2 6948   3.985   1.468  13.332  0.2597 -0.3370 -0.4510
  467TMC3    C3 6949   3.893   1.480  13.228  0.0707 -0.1341  0.5209
  467TMC3    C4 6950   3.833   1.569  13.484 -0.1592 -0.1261  0.6042
  467TMC3    C5 6951   3.743   1.568  13.380  0.0969 -0.4119 -0.3513
  467TMC3    C6 6952   3.768   1.527  13.249 -0.3885  0.2383  0.1681
  467TMC3     C 6953   4.078   1.555  13.534 -0.0507  0.2724 -0.6565
  467TMC3     O 6954   4.190   1.523  13.485  0.5195 -0.1332  0.0828
  467TMC3     H 6955   4.081   1.420  13.314  0.0615 -1.0407  0.3674
  467TMC3    H1 6956   3.817   1.623  13.576 -1.5582 -1.6171  1.2444
  467TMC3    H2 6957   3.687   1.520  13.177  0.4175  1.7959 -0.8732
  467TMC3    C7 6958   3.617   1.624  13.412  0.3756 -0.3244 -0.6304
  467TMC3    C8 6959   3.924   1.401  13.111  0.5582  0.5264 -0.7553
  467TMC3    O1 6960   3.565   1.690  13.326 -0.1310 -0.4697  0.0419
  467TMC3    O2 6961   3.962   1.290  13.139  0.6727  0.3679  0.3981
  468MPD2     C 6962   3.364   3.830  10.108  0.3318  0.4226  0.8886
  468MPD2    C1 6963   3.299   3.801  10.228  0.0304 -0.5782 -0.2149
  468MPD2    C2 6964   3.248   3.677  10.241 -0.3983 -0.2125 -0.5405
  468MPD2    C3 6965   3.256   3.583  10.143  0.1407 -0.1200 -0.4558
  468MPD2    C4 6966   3.320   3.617  10.021  0.2387  1.3123 -0.3238
  468MPD2    C5 6967   3.372   3.742  10.005  0.4278  0.2305  0.1623
  468MPD2     H 6968   3.196   3.651  10.333  2.1356 -0.6400  0.7580
  468MPD2    H1 6969   3.325   3.548   9.937  0.4320  0.6383  0.2441
  468MPD2    H2 6970   3.412   3.926  10.095  0.6055  0.2187  0.4041
  468MPD2    H3 6971   3.422   3.768   9.912  3.7612  2.4046  2.5618
  468MPD2     N 6972   3.213   3.447  10.146 -0.1201  0.2367  0.3145
  468MPD2    H5 6973   3.227   3.391  10.063 -0.3211 -0.0244  0.4575
  468MPD2    N1 6974   3.292   3.890  10.342 -0.4166 -0.5571 -0.4629
  468MPD2    H7 6975   3.216   3.867  10.406 -0.8513 -0.5949 -0.9916
  469TMC3    C1 6976   3.360   4.067  10.492 -0.0768  0.1505 -0.0564
  469TMC3    C2 6977   3.462   4.151  10.523  0.2380  0.2608 -0.6980
  469TMC3    C3 6978   3.438   4.256  10.612  0.0291 -0.0994  0.6353
  469TMC3    C4 6979   3.231   4.105  10.521 -0.1473  0.0616 -0.2352
  469TMC3    C5 6980   3.210   4.209  10.608  0.9975  0.0680  0.5084
  469TMC3    C6 6981   3.311   4.285  10.659 -0.1173  0.1023 -0.4629
  469TMC3     C 6982   3.385   3.986  10.371  0.3768 -0.7070 -0.3628
  469TMC3     O 6983   3.496   3.989  10.321 -0.6682  0.3581 -0.0229
  469TMC3     H 6984   3.560   4.140  10.478  0.0273  1.0580 -1.3459
  469TMC3    H1 6985   3.142   4.061  10.478  0.1948  0.4583 -1.3411
  469TMC3    H2 6986   3.306   4.349  10.747 -0.0338  0.1303 -0.4792
  469TMC3    C7 6987   3.069   4.264  10.615  0.6513  0.0389  0.2534
  469TMC3    C8 6988   3.539   4.278  10.711 -0.2276  0.5127 -0.8301
  469TMC3    O1 6989   2.996   4.208  10.534 -0.0142  0.1844 -0.4305
  469TMC3    O2 6990   3.528   4.380  10.773  0.0403 -0.2842  0.1611
  470TMC3    C1 6991   0.483   1.627   0.231 -0.1693 -0.3473  0.4303
  470TMC3    C2 6992   0.456   1.733   0.318  0.5558  0.2816 -0.1525
  470TMC3    C3 6993   0.551   1.760   0.415  0.0939 -0.4044 -0.2557
  470TMC3    C4 6994   0.583   1.540   0.249 -0.2339 -0.2667 -0.1684
  470TMC3    C5 6995   0.667   1.568   0.351 -0.2911  0.0204  0.5032
  470TMC3    C6 6996   0.660   1.680   0.434 -0.3055 -0.0213  0.3862
  470TMC3     C 6997   0.393   1.615   0.112  0.7658 -0.6243 -0.3371
  470TMC3     O 6998   0.314   1.707   0.093 -0.1676 -0.3801  0.3097
  470TMC3     H 6999   0.366   1.791   0.301  1.0884  1.7794  1.9738
  470TMC3    H1 7000   0.600   1.459   0.179 -2.6928  0.5152 -1.6556
  470TMC3    H2 7001   0.732   1.707   0.510 -0.9923 -0.2986  1.1325
  470TMC3    C7 7002   0.773   1.475   0.370 -0.4305  0.3085  0.0233
  470TMC3    C8 7003   0.527   1.860   0.517  0.2621  0.5062  0.1561
  470TMC3    O1 7004   0.796   1.394   0.284 -0.0642  0.1729 -0.2486
  470TMC3    O2 7005   0.609   1.863   0.605 -0.0605 -0.4210 -0.0475
  471MPD2     C 7006   1.067   1.518  16.648  0.0615 -0.3261  0.4798
  471MPD2    C1 7007   1.061   1.383  16.612  0.0683  0.0286  0.2496
  471MPD2    C2 7008   1.062   1.287  16.712  0.6942 -0.5835  0.0984
  471MPD2    C3 7009   1.057   1.333  16.846  0.2221  1.4006  0.1569
  471MPD2    C4 7010   1.086   1.470  16.877  0.2467  0.1872  0.4599
  471MPD2    C5 7011   1.080   1.555  16.777 -0.2514  0.0082  0.3077
  471MPD2     H 7012   1.040   1.183  16.691  0.4902 -0.2348 -1.3982
  471MPD2    H1 7013   1.065   1.495  16.980 -1.2170 -3.2363  0.9929
  471MPD2    H2 7014   1.054   1.596  16.574  0.2311 -1.5158 -0.8037
  471MPD2    H3 7015   1.074   1.662  16.794 -0.0805 -0.1094  1.0888
  471MPD2     N 7016   1.024   1.247  16.954 -0.0853 -0.3830  0.1193
  471MPD2    H5 7017   1.057   1.278  17.046  0.9254 -0.5063 -0.2001
  471MPD2    N1 7018   1.038   1.325  16.485 -0.2970 -0.0262  0.4085
  471MPD2    H7 7019   1.044   1.223  16.485  3.1848  0.1885 -3.3332
  472TMC3    C1 7020   0.989   1.292  16.269 -0.5385 -0.4356 -0.2872
  472TMC3    C2 7021   0.888   1.324  16.182  0.0155  0.4050  0.2894
  472TMC3    C3 7022   0.820   1.220  16.128  0.2679 -0.0774 -0.7852
  472TMC3    C4 7023   1.018   1.161  16.297  0.3434 -0.2585  0.9259
  472TMC3    C5 7024   0.955   1.060  16.227  0.0437  0.3671  0.1906
  472TMC3    C6 7025   0.846   1.086  16.148  0.0831 -0.1937  0.2175
  472TMC3     C 7026   1.020   1.395  16.367  0.1396 -0.1969 -0.1226
  472TMC3     O 7027   1.010   1.518  16.352  0.4042 -0.1933 -0.2481
  472TMC3     H 7028   0.857   1.428  16.173  1.7624  0.7693 -1.6725
  472TMC3    H1 7029   1.105   1.132  16.356  0.9944 -0.3004 -0.0609
  472TMC3    H2 7030   0.793   1.005  16.101 -0.9005  1.6851 -1.8718
  472TMC3    C7 7031   0.961   0.925  16.286  0.0343 -0.5726  0.0164
  472TMC3    C8 7032   0.691   1.249  16.069 -1.1830 -0.1000 -0.8728
  472TMC3    O1 7033   1.005   0.909  16.399 -0.0744  0.5997  0.0828
  472TMC3    O2 7034   0.667   1.352  16.017 -0.3365  0.5421 -0.1242
  473MPD2     C 7035   0.508   3.875  13.906  0.3230  0.2802  0.0208
  473MPD2    C1 7036   0.620   3.952  13.886 -0.2346  0.2154  0.1499
  473MPD2    C2 7037   0.703   3.990  13.990  0.8031 -0.7178 -0.0028
  473MPD2    C3 7038   0.686   3.930  14.110 -0.5759 -0.2235  0.0655
  473MPD2    C4 7039   0.574   3.854  14.134 -0.5673 -0.0074  0.5315
  473MPD2    C5 7040   0.494   3.822  14.033  0.2260 -0.5754 -0.2841
  473MPD2     H 7041   0.783   4.060  13.968  0.0824 -0.5170 -2.0184
  473MPD2    H1 7042   0.553   3.818  14.234  1.0578  0.4535  1.0491
  473MPD2    H2 7043   0.435   3.844  13.833  1.9536  1.8247 -2.2720
  473MPD2    H3 7044   0.413   3.751  14.042 -0.6397  0.4056 -0.3543
  473MPD2     N 7045   0.768   3.949  14.220  0.2706 -0.1235 -0.7323
  473MPD2    H5 7046   0.740   3.916  14.312 -0.1619 -1.5468 -1.3664
  473MPD2    N1 7047   0.647   4.014  13.764  0.4823  0.2765 -0.1284
  473MPD2    H7 7048   0.730   4.073  13.761 -0.0260  0.9531 -0.7969
  474TMC3    C1 7049   0.955   4.035  14.330  0.8008 -0.4085 -0.1372
  474TMC3    C2 7050   0.875   4.054  14.442 -0.1339  0.1575  0.1233
  474TMC3    C3 7051   0.921   4.137  14.545  0.5462  0.0356  0.4205
  474TMC3    C4 7052   1.081   4.079  14.308 -0.7561 -0.0650 -0.4902
  474TMC3    C5 7053   1.133   4.137  14.424 -0.2426 -0.2808  0.0485
  474TMC3    C6 7054   1.055   4.166  14.537 -0.0065 -0.1541  0.4074
  474TMC3     C 7055   0.891   4.007  14.201 -0.1500  0.1084  0.3299
  474TMC3     O 7056   0.958   4.045  14.103 -0.7777 -0.0115  0.1556
  474TMC3     H 7057   0.768   4.038  14.437  0.0174 -1.3265  1.6765
  474TMC3    H1 7058   1.138   4.044  14.223 -0.9632 -0.7926 -0.3270
  474TMC3    H2 7059   1.105   4.222  14.615  1.6765 -0.2817 -0.5713
  474TMC3    C7 7060   1.248   4.213  14.398  0.1564 -0.2270 -0.2514
  474TMC3    C8 7061   0.824   4.241  14.572  0.7867 -0.5052  0.3553
  474TMC3    O1 7062   1.265   4.219  14.276  0.3571 -0.8100  0.2644
  474TMC3    O2 7063   0.707   4.208  14.586 -0.0972 -0.2229 -0.0428
  475MPD2     C 7064   4.061   2.088  10.372  0.0352  0.2623  0.5219
  475MPD2    C1 7065   3.947   2.062  10.291  0.1081 -0.2104  0.8311
  475MPD2    C2 7066   3.831   2.130  10.313  0.0988  1.0129  0.1769
  475MPD2    C3 7067   3.816   2.196  10.431 -0.1942 -0.8083  0.4516
  475MPD2    C4 7068   3.919   2.196  10.528  0.6577  0.9620  0.8275
  475MPD2    C5 7069   4.041   2.153  10.493 -1.0035 -0.2353  0.0271
  475MPD2     H 7070   3.750   2.130  10.241 -0.9372  1.8592  1.3479
  475MPD2    H1 7071   3.907   2.261  10.614  0.9207 -1.4915  2.7170
  475MPD2    H2 7072   4.160   2.055  10.344 -1.1186 -0.5571 -2.6165
  475MPD2    H3 7073   4.117   2.178  10.566 -1.5255 -0.0160  0.5039
  475MPD2     N 7074   3.694   2.263  10.459  0.4420 -0.6201 -0.1160
  475MPD2    H5 7075   3.641   2.281  10.374 -1.6669 -0.4779  1.2294
  475MPD2    N1 7076   3.963   1.988  10.174  0.2351 -0.4239 -0.0851
  475MPD2    H7 7077   4.058   1.957  10.160  0.1758 -0.4711 -0.3862
  476TMC3    C1 7078   3.908   1.850  10.006 -0.3268 -0.0523  0.1029
  476TMC3    C2 7079   3.851   1.732  10.035  0.4432 -0.3671  0.0129
  476TMC3    C3 7080   3.924   1.619  10.035  0.2189  0.5469 -0.2036
  476TMC3    C4 7081   4.039   1.862   9.975 -0.6256 -0.4939  0.3154
  476TMC3    C5 7082   4.119   1.747   9.977  0.1777 -0.2196 -0.3187
  476TMC3    C6 7083   4.053   1.624   9.999  0.0819 -0.6582  0.0216
  476TMC3     C 7084   3.862   1.946  10.097 -0.0641  0.1584  0.6064
  476TMC3     O 7085   3.742   1.957  10.100 -0.0875  0.3040  0.2706
  476TMC3     H 7086   3.746   1.722  10.060 -0.3085  1.7841 -2.2300
  476TMC3    H1 7087   4.087   1.956   9.948  0.8400 -1.9147 -1.9857
  476TMC3    H2 7088   4.115   1.536  10.003  0.9282 -0.0007  1.7042
  476TMC3    C7 7089   4.230   1.773  10.059 -0.4479 -0.8115 -0.1770
  476TMC3    C8 7090   3.857   1.491  10.022 -0.3809  0.7124  0.2007
  476TMC3    O1 7091   4.254   1.694  10.149 -0.1817 -0.0651  0.6562
  476TMC3    O2 7092   3.739   1.507  10.015 -0.3290 -0.6776  0.2679
  477MPD2     C 7093   1.814   3.349  11.467  0.6880  0.0124 -0.1780
  477MPD2    C1 7094   1.717   3.300  11.555 -0.0486 -0.5086  0.4388
  477MPD2    C2 7095   1.753   3.201  11.642  0.0260 -0.4885 -0.6315
  477MPD2    C3 7096   1.879   3.141  11.644  0.6680  0.5425 -0.2354
  477MPD2    C4 7097   1.978   3.197  11.566  0.1698 -0.3434 -0.7507
  477MPD2    C5 7098   1.948   3.304  11.482 -0.2357  0.3959  0.1682
  477MPD2     H 7099   1.675   3.159  11.705 -1.0501  0.1363 -1.5413
  477MPD2    H1 7100   2.079   3.159  11.573  0.2582 -0.1053 -0.7221
  477MPD2    H2 7101   1.787   3.434  11.405 -0.5390  1.2939  2.1498
  477MPD2    H3 7102   2.017   3.337  11.405 -1.1098 -0.7818 -1.1254
  477MPD2     N 7103   1.896   3.023  11.717  0.2766  0.0661 -0.2334
  477MPD2    H5 7104   1.822   2.989  11.777  2.2581  1.4495  3.0148
  477MPD2    N1 7105   1.590   3.358  11.522  0.0556  0.8153 -0.2885
  477MPD2    H7 7106   1.588   3.435  11.456  2.0431  2.0049  1.0551
  478TMC3    C1 7107   1.360   3.381  11.518  0.2674  0.0978 -0.0288
  478TMC3    C2 7108   1.247   3.415  11.589  0.4133 -0.8977 -0.4428
  478TMC3    C3 7109   1.129   3.451  11.528 -0.1900 -0.0480  0.3918
  478TMC3    C4 7110   1.362   3.407  11.375 -0.0481 -0.5480  0.5059
  478TMC3    C5 7111   1.243   3.444  11.319 -0.9345 -0.0149  0.4137
  478TMC3    C6 7112   1.133   3.471  11.394 -0.0039 -0.8526  0.2517
  478TMC3     C 7113   1.474   3.322  11.586 -0.6018 -0.0714  0.2929
  478TMC3     O 7114   1.464   3.273  11.699 -0.4467  0.3926 -0.7356
  478TMC3     H 7115   1.251   3.395  11.695  0.3434 -0.4470 -0.3540
  478TMC3    H1 7116   1.448   3.374  11.317 -0.0661 -0.8010  0.6214
  478TMC3    H2 7117   1.040   3.485  11.341  0.0473 -4.8925 -0.9314
  478TMC3    C7 7118   1.242   3.465  11.173  0.3852  0.4717 -0.4491
  478TMC3    C8 7119   1.043   3.530  11.621  0.1124  0.1966  0.2173
  478TMC3    O1 7120   1.214   3.574  11.130  0.0123 -0.0557 -0.8123
  478TMC3    O2 7121   1.070   3.518  11.739  0.1956  0.4720  0.2347
  479MPD2     C 7122   0.736   1.131  15.300  0.1550  0.3817 -0.3977
  479MPD2    C1 7123   0.675   1.026  15.372  0.2571  0.4856  0.4169
  479MPD2    C2 7124   0.734   0.980  15.486  0.1204  0.5922  0.2255
  479MPD2    C3 7125   0.844   1.038  15.542  0.1286 -0.4996 -0.2185
  479MPD2    C4 7126   0.915   1.129  15.463 -0.1435 -0.0040  0.6502
  479MPD2    C5 7127   0.861   1.171  15.342 -0.1271  0.2665 -0.3839
  479MPD2     H 7128   0.685   0.902  15.542  0.0175 -0.0120 -0.7149
  479MPD2    H1 7129   1.012   1.170  15.492 -1.2110  2.1388  1.1521
  479MPD2    H2 7130   0.694   1.179  15.212  2.2199  3.0664  0.0989
  479MPD2    H3 7131   0.930   1.239  15.293  0.7511 -0.2094  0.1697
  479MPD2     N 7132   0.897   1.009  15.666  0.4090  0.2063  0.1788
  479MPD2    H5 7133   0.997   1.024  15.670  0.3132  1.2159 -1.3322
  479MPD2    N1 7134   0.548   0.992  15.324 -0.1429 -0.1591 -0.4528
  479MPD2    H7 7135   0.514   1.039  15.241  0.5155  1.2464  0.0768
  480TMC3    C1 7136   0.493   0.893  15.887  0.0396  1.0064 -0.2535
  480TMC3    C2 7137   0.422   1.010  15.845 -0.2301  0.4727  0.1656
  480TMC3    C3 7138   0.492   1.108  15.773  0.1889 -0.4785  0.2899
  480TMC3    C4 7139   0.626   0.881  15.862 -0.1207 -0.1079 -0.3557
  480TMC3    C5 7140   0.688   0.974  15.786 -0.3088  0.1334  0.2367
  480TMC3    C6 7141   0.629   1.092  15.746  0.7536 -0.3081  0.0513
  480TMC3     C 7142   0.436   0.786  15.971 -0.2780 -0.5295  0.0243
  480TMC3     O 7143   0.523   0.723  16.024  0.7142 -0.4890 -0.0919
  480TMC3     H 7144   0.316   1.020  15.865 -0.6733 -1.0342 -1.3682
  480TMC3    H1 7145   0.680   0.787  15.860  0.3702  0.1256  2.8600
  480TMC3    H2 7146   0.692   1.176  15.718 -1.4316  0.5821 -2.2271
  480TMC3    C7 7147   0.833   0.940  15.772 -0.4108  0.3896 -0.0003
  480TMC3    C8 7148   0.417   1.189  15.680  0.4106 -0.1496  0.5415
  480TMC3    O1 7149   0.890   0.893  15.868  0.0918 -0.3351 -0.3560
  480TMC3    O2 7150   0.298   1.163  15.678 -0.0028 -0.4898  0.5586
  481MPD2     C 7151   2.138   0.599  14.224 -0.7160 -0.0689 -0.2497
  481MPD2    C1 7152   2.236   0.695  14.213  0.1603 -0.2198 -0.1814
  481MPD2    C2 7153   2.302   0.730  14.333 -0.7109  0.3990  0.5035
  481MPD2    C3 7154   2.264   0.671  14.454 -1.1374 -0.6746 -0.3292
  481MPD2    C4 7155   2.158   0.581  14.459  0.3907  0.3087 -0.5799
  481MPD2    C5 7156   2.099   0.550  14.344 -0.3173 -0.4867  0.3496
  481MPD2     H 7157   2.389   0.795  14.336 -0.4076  0.0565 -0.9568
  481MPD2    H1 7158   2.125   0.526  14.547  0.9751  1.7433  0.5483
  481MPD2    H2 7159   2.089   0.568  14.133 -2.9924  3.8414 -0.3652
  481MPD2    H3 7160   2.019   0.478  14.357 -1.4207  1.1219  2.3744
  481MPD2     N 7161   2.328   0.702  14.571  0.0854 -0.2302 -0.2587
  481MPD2    H5 7162   2.424   0.736  14.565  0.1590 -1.0623 -3.7919
  481MPD2    N1 7163   2.250   0.756  14.092 -0.7975 -0.1462  0.2889
  481MPD2    H7 7164   2.194   0.725  14.014 -1.1018  1.9359 -0.3241
  482TMC3    C1 7165   2.352   0.887  13.921 -0.1527 -0.4905 -0.1012
  482TMC3    C2 7166   2.334   0.790  13.834 -0.1341  0.2942  0.3366
  482TMC3    C3 7167   2.338   0.823  13.702 -0.2632 -0.8087  0.5268
  482TMC3    C4 7168   2.375   1.014  13.883  0.4732  0.6403 -0.1096
  482TMC3    C5 7169   2.380   1.044  13.751  0.1697 -0.3523 -0.1816
  482TMC3    C6 7170   2.361   0.950  13.657 -0.3595 -0.0494 -0.3061
  482TMC3     C 7171   2.339   0.861  14.064  0.1875  0.3333 -0.2035
  482TMC3     O 7172   2.400   0.934  14.143  0.4010 -0.0394  1.2199
  482TMC3     H 7173   2.310   0.690  13.867 -1.1408  0.7642  1.0290
  482TMC3    H1 7174   2.399   1.088  13.958 -2.4050  1.1176  0.3450
  482TMC3    H2 7175   2.369   0.975  13.551  0.0751 -0.9521 -0.4813
  482TMC3    C7 7176   2.362   1.182  13.715 -0.1039 -0.3584  0.0623
  482TMC3    C8 7177   2.323   0.710  13.612  0.1679 -0.9432 -0.0838
  482TMC3    O1 7178   2.386   1.269  13.798  0.0325  0.4618  0.0105
  482TMC3    O2 7179   2.359   0.601  13.658 -0.0452  0.0520  0.7995
  483TMC3    C1 7180   4.200   4.240   0.779  0.2292 -0.7331 -0.0347
  483TMC3    C2 7181   4.295   4.337   0.773 -0.3474  0.6146  0.5248
  483TMC3    C3 7182   4.426   4.301   0.811 -0.3336  0.6728 -0.1006
  483TMC3    C4 7183   4.237   4.119   0.839  0.0971 -0.2791  0.0755
  483TMC3    C5 7184   4.368   4.086   0.874 -0.3093  0.6375  0.2634
  483TMC3    C6 7185   4.463   4.179   0.855 -0.2217  0.7707 -0.2481
  483TMC3     C 7186   4.137   4.219   0.650 -0.2603  0.0999  0.1903
  483TMC3     O 7187   4.099   4.321   0.590  0.3426  0.4078 -0.2274
  483TMC3     H 7188   4.271   4.428   0.720 -0.2293  2.0981  3.0396
  483TMC3    H1 7189   4.165   4.044   0.871 -1.9356  0.0666 -3.6844
  483TMC3    H2 7190   4.568   4.155   0.861  0.2656  2.8103 -0.7368
  483TMC3    C7 7191   4.400   3.948   0.834  0.2913  0.3673 -0.0682
  483TMC3    C8 7192   4.536   4.378   0.756 -0.3633  0.3921 -0.5490
  483TMC3    O1 7193   4.324   3.908   0.748  0.0207  0.1442 -0.3497
  483TMC3    O2 7194   4.649   4.336   0.741 -0.0948 -0.4825  0.4905
  484MPD2     C 7195   2.420   2.490  12.186 -0.6218 -0.1218 -0.1770
  484MPD2    C1 7196   2.457   2.453  12.314 -0.1662 -0.1073  0.3752
  484MPD2    C2 7197   2.593   2.467  12.349 -0.2728  0.4168  0.1666
  484MPD2    C3 7198   2.677   2.542  12.265 -0.1094  0.0469  0.3591
  484MPD2    C4 7199   2.629   2.569  12.141  0.0722 -0.3265  0.6477
  484MPD2    C5 7200   2.507   2.548  12.104  0.1863 -0.5202  0.6821
  484MPD2     H 7201   2.617   2.448  12.453  1.0820  0.1087 -0.2040
  484MPD2    H1 7202   2.694   2.617  12.069 -0.5927  0.4676  0.5759
  484MPD2    H2 7203   2.319   2.477  12.151 -0.8317 -0.5840  0.5803
  484MPD2    H3 7204   2.489   2.574  12.000  0.8602  0.0568  0.7146
  484MPD2     N 7205   2.804   2.589  12.295 -1.0855 -0.1578  0.5458
  484MPD2    H5 7206   2.848   2.658  12.235  0.9343  0.2969  2.5562
  484MPD2    N1 7207   2.361   2.384  12.400 -0.1866  0.0381  0.1841
  484MPD2    H7 7208   2.270   2.367  12.358 -0.6353  0.5984  0.9175
  485TMC3    C1 7209   3.015   2.599  12.407  0.2030  0.2427  0.2696
  485TMC3    C2 7210   3.075   2.563  12.529 -0.8634  0.0352 -0.4987
  485TMC3    C3 7211   3.208   2.602  12.554  0.0027  0.5841 -0.1859
  485TMC3    C4 7212   3.081   2.673  12.309 -0.7559 -0.1064  0.4879
  485TMC3    C5 7213   3.209   2.708  12.331  0.3188  0.1758 -0.1830
  485TMC3    C6 7214   3.265   2.681  12.453 -0.3653 -0.9138 -0.3030
  485TMC3     C 7215   2.886   2.551  12.395  0.4621  0.4439 -0.2316
  485TMC3     O 7216   2.851   2.464  12.471  0.7620  0.0495  0.4422
  485TMC3     H 7217   3.029   2.507  12.610 -0.3608  0.1956 -0.0945
  485TMC3    H1 7218   3.035   2.691  12.212  0.2864 -3.2624 -0.5797
  485TMC3    H2 7219   3.369   2.711  12.466 -0.6390 -0.1598  0.1348
  485TMC3    C7 7220   3.292   2.722  12.216  0.8923 -0.7820  0.0949
  485TMC3    C8 7221   3.287   2.482  12.550  0.2208 -0.4530  0.1288
  485TMC3    O1 7222   3.251   2.776  12.115 -0.7010  0.4167 -0.3327
  485TMC3    O2 7223   3.356   2.462  12.450 -0.1423 -1.0199 -0.1830
  486MPD2     C 7224   0.009   1.853  12.908  0.2861  0.1865  0.0301
  486MPD2    C1 7225   4.718   1.812  12.774  0.1778  0.1784  1.0271
  486MPD2    C2 7226   4.646   1.884  12.685 -0.1534  0.0398 -0.6731
  486MPD2    C3 7227   4.582   1.998  12.732  0.3491 -0.3430  0.2458
  486MPD2    C4 7228   4.596   2.038  12.866  0.3490 -0.0585  0.7365
  486MPD2    C5 7229   4.673   1.966  12.949  0.6834 -0.0314 -0.7225
  486MPD2     H 7230   4.648   1.860  12.579  0.1709  1.4862 -0.9933
  486MPD2    H1 7231   4.550   2.127  12.907 -0.7383  0.9960 -2.7698
  486MPD2    H2 7232   0.068   1.794  12.977  1.4595 -0.8743 -1.8625
  486MPD2    H3 7233   4.678   1.999  13.053  0.1484  1.9500 -1.3286
  486MPD2     N 7234   4.523   2.078  12.625 -0.1454  0.3031 -0.2023
  486MPD2    H5 7235   4.531   2.047  12.529 -0.0874 -1.4651  0.3736
  486MPD2    N1 7236   0.068   1.699  12.737 -0.2653 -0.3211 -0.1284
  486MPD2    H7 7237   0.136   1.660  12.802  0.6130  1.6215  0.0961
  487TMC3    C1 7238   0.136   1.512  12.618 -0.2119 -0.0652 -0.5914
  487TMC3    C2 7239   0.070   1.405  12.586 -0.3485  0.0305  0.5613
  487TMC3    C3 7240   0.135   1.284  12.566  0.6338  0.3026 -0.3777
  487TMC3    C4 7241   0.267   1.502  12.656  0.6249 -0.7214  0.6856
  487TMC3    C5 7242   0.328   1.382  12.656  0.8139 -0.2871  0.2660
  487TMC3    C6 7243   0.270   1.274  12.595  0.0987 -0.1764  0.2052
  487TMC3     C 7244   0.059   1.628  12.620  0.5729 -0.4264 -0.7428
  487TMC3     O 7245   4.697   1.638  12.533 -0.2548  0.6035  0.2673
  487TMC3     H 7246   4.692   1.416  12.554 -0.1244 -0.1048 -0.2004
  487TMC3    H1 7247   0.306   1.592  12.703  0.3356  0.7872 -2.0108
  487TMC3    H2 7248   0.301   1.172  12.615 -1.3006 -0.1968  2.3575
  487TMC3    C7 7249   0.442   1.366  12.746  0.6639 -0.4139 -0.0499
  487TMC3    C8 7250   0.056   1.164  12.584  0.1761 -0.1624 -0.6523
  487TMC3    O1 7251   0.457   1.458  12.829  0.2189 -0.2955  0.4395
  487TMC3    O2 7252   0.084   1.066  12.517 -0.1581  1.2145  0.6581
  488MPD2     C 7253   0.328   2.785  16.080  0.4676  1.1155 -0.6250
  488MPD2    C1 7254   0.337   2.881  16.181  0.0613  0.0197  0.3751
  488MPD2    C2 7255   0.296   2.845  16.308  0.0007  0.2433  0.1543
  488MPD2    C3 7256   0.245   2.715  16.331  0.5456 -0.0744  0.5969
  488MPD2    C4 7257   0.254   2.617  16.232  0.1162 -0.4075 -0.5891
  488MPD2    C5 7258   0.301   2.657  16.107  0.2497  0.4403  0.5108
  488MPD2     H 7259   0.305   2.917  16.389 -0.6323  1.2433 -0.6833
  488MPD2    H1 7260   0.231   2.512  16.244 -0.1890 -0.0082  2.3716
  488MPD2    H2 7261   0.346   2.814  15.977  0.0837 -1.8558 -1.5281
  488MPD2    H3 7262   0.313   2.586  16.026  3.2911  1.8839 -0.2977
  488MPD2     N 7263   0.219   2.687  16.463  0.3019 -0.3877 -0.3757
  488MPD2    H5 7264   0.228   2.762  16.530  1.5025 -0.3561 -0.5684
  488MPD2    N1 7265   0.396   3.011  16.167 -0.1767 -0.5032  0.3516
  488MPD2    H7 7266   0.402   3.070  16.250  1.8574  0.7101 -0.6478
  489TMC3    C1 7267   0.160   2.552  16.640 -0.0121  0.0857 -0.8857
  489TMC3    C2 7268   0.272   2.605  16.698 -0.6196  0.4319 -0.1424
  489TMC3    C3 7269   0.269   2.637  16.832 -0.2344 -0.4963 -0.4168
  489TMC3    C4 7270   0.041   2.530  16.708  0.0269  0.4507 -0.0834
  489TMC3    C5 7271   0.049   2.569  16.845 -0.4246 -0.0500  0.3424
  489TMC3    C6 7272   0.153   2.628  16.907 -0.0010 -0.2889 -0.6321
  489TMC3     C 7273   0.139   2.577  16.503 -0.1115  0.8381 -0.1790
  489TMC3     O 7274   0.064   2.499  16.441 -0.1084 -0.3052  0.0029
  489TMC3     H 7275   0.363   2.615  16.640  0.2371  1.5585  1.4018
  489TMC3    H1 7276   4.682   2.480  16.662 -1.2046  1.7153  0.7915
  489TMC3    H2 7277   0.133   2.658  17.009  0.0159 -2.7856  0.0947
  489TMC3    C7 7278   4.650   2.557  16.922 -0.4560  0.1321  0.5521
  489TMC3    C8 7279   0.385   2.714  16.889 -0.0168 -0.0178  0.0652
  489TMC3    O1 7280   4.664   2.577  17.042  0.1712 -0.2265 -0.2538
  489TMC3    O2 7281   0.498   2.686  16.852 -0.1699 -0.3410  0.2497
  490MPD2     C 7282   0.371   2.333  17.491 -0.0159  1.0294  0.0421
  490MPD2    C1 7283   0.435   2.217  17.442 -0.1843 -0.2731 -0.2815
  490MPD2    C2 7284   0.566   2.203  17.460 -0.4134 -0.5456  0.8304
  490MPD2    C3 7285   0.638   2.296  17.536  0.6641 -0.1794 -0.4330
  490MPD2    C4 7286   0.576   2.416  17.571  0.6823 -0.7632 -0.1701
  490MPD2    C5 7287   0.442   2.433  17.556 -0.3958 -0.0212  0.3427
  490MPD2     H 7288   0.616   2.109  17.442  0.2104  0.1175 -0.8847
  490MPD2    H1 7289   0.628   2.485  17.636 -0.1040 -2.0505  1.8019
  490MPD2    H2 7290   0.267   2.362  17.479 -0.6512 -1.1030  0.3361
  490MPD2    H3 7291   0.380   2.507  17.606 -0.9556  0.6163 -1.2783
  490MPD2     N 7292   0.783   2.300  17.554  0.3180 -0.1393 -0.1347
  490MPD2    H5 7293   0.824   2.386  17.590 -3.3603  1.3092  0.5174
  490MPD2    N1 7294   0.365   2.111  17.374 -0.6269 -0.3821  0.4460
  490MPD2    H7 7295   0.418   2.043  17.320 -1.3053 -1.0637  0.6402
  491TMC3    C1 7296   0.215   1.993  17.267 -0.0068 -1.1035  0.0911
  491TMC3    C2 7297   0.086   1.989  17.227  0.6249  0.0071  0.2319
  491TMC3    C3 7298   0.028   1.864  17.197 -0.9852 -0.8618  0.2290
  491TMC3    C4 7299   0.293   1.885  17.268  0.1602 -0.0208 -0.4803
  491TMC3    C5 7300   0.232   1.771  17.218  0.7991 -0.3999 -0.0086
  491TMC3    C6 7301   0.100   1.753  17.188  0.5521 -0.4717 -0.5389
  491TMC3     C 7302   0.237   2.104  17.346  0.0956  0.1301  0.0853
  491TMC3     O 7303   0.146   2.174  17.381  0.1352  0.3269  0.2607
  491TMC3     H 7304   0.024   2.077  17.234  1.3257  0.6798 -1.9506
  491TMC3    H1 7305   0.392   1.874  17.310 -1.1867 -0.7449  2.4588
  491TMC3    H2 7306   0.070   1.655  17.153  0.4298 -0.1819 -1.2413
  491TMC3    C7 7307   0.321   1.663  17.179 -0.2664  0.6648 -0.0772
  491TMC3    C8 7308   4.633   1.859  17.283  0.2138 -0.1404  0.5214
  491TMC3    O1 7309   0.297   1.614  17.067 -0.2911  0.9101 -0.4336
  491TMC3    O2 7310   4.621   1.939  17.375 -0.5514  0.2086  0.3863
  492MPD2     C 7311   1.593   2.478  11.219 -0.6416  0.3226 -0.1798
  492MPD2    C1 7312   1.506   2.384  11.168  0.1042  0.3448  0.4652
  492MPD2    C2 7313   1.374   2.380  11.219  0.2752 -0.0885  0.5488
  492MPD2    C3 7314   1.328   2.465  11.314 -0.3216 -0.3852 -0.1138
  492MPD2    C4 7315   1.417   2.552  11.371  0.0453 -0.0391  0.6640
  492MPD2    C5 7316   1.546   2.561  11.321 -0.4981 -0.4561  0.1395
  492MPD2     H 7317   1.316   2.310  11.160 -2.3695  1.8967  0.8186
  492MPD2    H1 7318   1.393   2.628  11.444  1.9926 -0.0268  1.2773
  492MPD2    H2 7319   1.694   2.497  11.184 -1.0473  0.9571 -0.9977
  492MPD2    H3 7320   1.609   2.639  11.361 -0.9322  1.1548 -2.3191
  492MPD2     N 7321   1.196   2.461  11.362 -0.1942  0.2213 -0.1821
  492MPD2    H5 7322   1.164   2.535  11.423  0.2869  0.4864 -0.2477
  492MPD2    N1 7323   1.546   2.309  11.061  0.3944  0.7323  0.7503
  492MPD2    H7 7324   1.629   2.344  11.013 -0.8988  0.4883 -1.6574
  493TMC3    C1 7325   1.544   2.146  10.889 -0.0910  0.3563 -0.0159
  493TMC3    C2 7326   1.670   2.185  10.854  0.5615 -0.1406 -1.1174
  493TMC3    C3 7327   1.721   2.126  10.736 -0.3029 -0.7629  0.4373
  493TMC3    C4 7328   1.461   2.060  10.819  0.0703  0.5105  0.2308
  493TMC3    C5 7329   1.515   2.012  10.706  0.0808 -0.1521  0.3966
  493TMC3    C6 7330   1.645   2.036  10.662 -0.2907 -0.1432 -0.3374
  493TMC3     C 7331   1.485   2.201  11.005 -0.0416 -0.3663 -0.2504
  493TMC3     O 7332   1.376   2.152  11.033 -0.2180  0.6428 -0.3974
  493TMC3     H 7333   1.731   2.249  10.917  0.7071  1.6002 -3.0172
  493TMC3    H1 7334   1.360   2.030  10.845  0.0005  0.1305 -0.4803
  493TMC3    H2 7335   1.674   2.011  10.560  1.4551  1.3615 -0.2107
  493TMC3    C7 7336   1.428   1.923  10.635 -0.2706 -0.3483 -0.2329
  493TMC3    C8 7337   1.849   2.175  10.674  0.0407  0.1559 -0.3064
  493TMC3    O1 7338   1.303   1.937  10.645  0.2072 -0.4483 -0.6592
  493TMC3    O2 7339   1.897   2.116  10.584 -0.6814  0.0879 -0.3724
  494TMC3    C1 7340   2.244   3.850   0.263 -0.3765 -0.1496  0.2640
  494TMC3    C2 7341   2.249   3.720   0.278  0.1463 -0.6842 -0.4558
  494TMC3    C3 7342   2.336   3.651   0.196  0.3464  0.2403  0.3511
  494TMC3    C4 7343   2.319   3.917   0.174  0.1941 -0.9845  0.0009
  494TMC3    C5 7344   2.394   3.852   0.086  0.1337 -0.0249 -0.2548
  494TMC3    C6 7345   2.406   3.717   0.098 -0.2202  0.4087  0.3654
  494TMC3     C 7346   2.169   3.923   0.365  0.1276  0.2834 -0.6061
  494TMC3     O 7347   2.097   3.852   0.433  0.4054  0.5213 -0.4517
  494TMC3     H 7348   2.218   3.671   0.370 -0.8717  0.6537 -0.0833
  494TMC3    H1 7349   2.290   4.017   0.142 -0.3168 -0.6312  1.5879
  494TMC3    H2 7350   2.442   3.651   0.020  0.6922 -0.4436  1.4909
  494TMC3    C7 7351   2.416   3.902  17.652  0.2191  0.0807  0.7002
  494TMC3    C8 7352   2.312   3.505   0.188 -0.7334  0.2575 -0.4393
  494TMC3    O1 7353   2.428   3.818  17.565  0.0747  0.5260  0.2336
  494TMC3    O2 7354   2.196   3.473   0.199 -0.0344  0.3869 -0.7003
  495TMC3    C1 7355   0.820   1.329  14.888 -0.4186 -0.6396  0.2575
  495TMC3    C2 7356   0.759   1.384  14.782 -0.3465 -0.3275  0.1752
  495TMC3    C3 7357   0.686   1.497  14.818 -0.1154 -0.0420 -0.6694
  495TMC3    C4 7358   0.824   1.378  15.009 -0.0008  0.5607  0.3909
  495TMC3    C5 7359   0.762   1.490  15.037  0.5155  0.6582  1.0749
  495TMC3    C6 7360   0.677   1.545  14.943 -0.8377 -0.4286  0.2829
  495TMC3     C 7361   0.838   1.183  14.880 -0.7631 -0.7010  0.3849
  495TMC3     O 7362   0.915   1.134  14.958  0.6390 -0.6495  1.0315
  495TMC3     H 7363   0.768   1.337  14.685  1.1375  0.9739 -0.3113
  495TMC3    H1 7364   0.881   1.320  15.080  0.4434  0.7630  0.2038
  495TMC3    H2 7365   0.616   1.633  14.958 -2.1123 -1.3722  0.6390
  495TMC3    C7 7366   0.702   1.492  15.164 -0.7963  1.1038 -0.1826
  495TMC3    C8 7367   0.555   1.509  14.751  0.4921 -0.4336 -0.6642
  495TMC3    O1 7368   0.778   1.475  15.258  0.0560 -0.1050 -0.8971
  495TMC3    O2 7369   0.451   1.528  14.818 -0.0026  0.2735 -0.2982
  496MPD2     C 7370   2.408   0.909  15.094  0.5091  0.1043 -0.3063
  496MPD2    C1 7371   2.490   0.911  15.201  0.0920  0.0376  0.7289
  496MPD2    C2 7372   2.447   0.965  15.322 -0.3383 -0.1337  0.0784
  496MPD2    C3 7373   2.321   1.020  15.333 -0.6789  0.3344  0.0436
  496MPD2    C4 7374   2.237   1.007  15.230 -0.0925 -0.0915  0.3300
  496MPD2    C5 7375   2.280   0.955  15.112  0.1896  0.3739  0.5175
  496MPD2     H 7376   2.513   0.954  15.408  0.2113 -1.8718 -0.5655
  496MPD2    H1 7377   2.139   1.053  15.226 -1.0474 -2.2760 -1.4004
  496MPD2    H2 7378   2.424   0.857  15.000 -2.1628  0.1623 -0.7783
  496MPD2    H3 7379   2.204   0.946  15.035 -0.8413 -2.1759  1.8387
  496MPD2     N 7380   2.274   1.068  15.455 -0.0462 -0.6927  0.6773
  496MPD2    H5 7381   2.175   1.089  15.462  0.1126 -0.0228  0.8360
  496MPD2    N1 7382   2.622   0.862  15.175 -0.0534 -0.5087  0.3855
  496MPD2    H7 7383   2.655   0.840  15.082 -2.6815 -0.5042 -0.5338
  497TMC3    C1 7384   2.264   1.117  15.685 -0.4535  0.6632 -0.6172
  497TMC3    C2 7385   2.170   1.212  15.669  0.8667 -0.5046 -0.6340
  497TMC3    C3 7386   2.128   1.285  15.779  0.3237  0.7058 -0.6608
  497TMC3    C4 7387   2.315   1.085  15.802  0.3026 -0.0246 -0.5211
  497TMC3    C5 7388   2.268   1.156  15.912 -0.0329  0.1662 -0.1293
  497TMC3    C6 7389   2.179   1.259  15.901  0.0583  0.6839 -0.0007
  497TMC3     C 7390   2.349   1.086  15.573  0.1379 -0.5943 -0.5396
  497TMC3     O 7391   2.465   1.063  15.598 -0.2206  0.2579 -0.1733
  497TMC3     H 7392   2.121   1.228  15.573  0.5762  0.4453 -0.3262
  497TMC3    H1 7393   2.387   1.005  15.813  0.5265  0.0553 -1.3991
  497TMC3    H2 7394   2.149   1.295  15.999 -3.6560  1.8628 -1.5634
  497TMC3    C7 7395   2.288   1.096  16.038  0.1605  0.3441  0.2030
  497TMC3    C8 7396   2.028   1.387  15.767 -0.4524  0.6995  0.0780
  497TMC3    O1 7397   2.278   0.974  16.046  0.2347 -0.1501  0.1335
  497TMC3    O2 7398   2.011   1.433  15.656 -0.2399 -0.0825  0.1233
  498MPD2     C 7399   3.845   1.136   9.466 -0.4056  0.3034  0.2333
  498MPD2    C1 7400   3.858   1.008   9.518 -0.4187 -0.1310  0.1041
  498MPD2    C2 7401   3.749   0.933   9.541 -0.2429 -0.0561 -0.0858
  498MPD2    C3 7402   3.625   0.987   9.527  0.2339 -0.2880 -0.1327
  498MPD2    C4 7403   3.606   1.115   9.480 -0.3938  0.0413 -0.1854
  498MPD2    C5 7404   3.720   1.192   9.455 -0.0959  0.2574 -0.3091
  498MPD2     H 7405   3.762   0.827   9.561  0.3635 -0.5273 -2.9802
  498MPD2    H1 7406   3.513   1.169   9.470 -1.5132 -1.7861  0.4391
  498MPD2    H2 7407   3.931   1.202   9.456  0.0234 -0.4037 -0.7775
  498MPD2    H3 7408   3.709   1.298   9.435  1.8841  0.4597 -0.3677
  498MPD2     N 7409   3.512   0.908   9.571 -0.0945  0.0623 -0.7178
  498MPD2    H5 7410   3.539   0.826   9.625  0.1854  0.0659 -0.8553
  498MPD2    N1 7411   3.989   0.953   9.548 -0.0528 -0.1760  0.3547
  498MPD2    H7 7412   3.999   0.852   9.558  1.5233 -0.0753 -0.2561
  499TMC3    C1 7413   4.215   0.930   9.539  0.5610  0.2599 -0.2070
  499TMC3    C2 7414   4.203   0.806   9.596 -0.4455 -0.6023  0.3047
  499TMC3    C3 7415   4.319   0.734   9.622 -0.3391  0.6028  0.5864
  499TMC3    C4 7416   4.336   0.976   9.502 -0.3476  0.1803 -0.2738
  499TMC3    C5 7417   4.444   0.903   9.538  0.2921 -0.4078 -0.3268
  499TMC3    C6 7418   4.443   0.781   9.600 -0.3952 -0.3533  0.3073
  499TMC3     C 7419   4.102   1.026   9.539 -0.5246 -0.2287  0.8373
  499TMC3     O 7420   4.124   1.144   9.527  0.0087 -0.5326  0.0964
  499TMC3     H 7421   4.108   0.770   9.633 -0.7743  1.0061  1.0342
  499TMC3    H1 7422   4.347   1.063   9.438  0.6369  0.9720  0.9815
  499TMC3    H2 7423   4.537   0.729   9.611 -1.1821 -1.6204  1.0528
  499TMC3    C7 7424   4.570   0.958   9.528  0.1245  0.6969  0.6295
  499TMC3    C8 7425   4.297   0.591   9.669 -0.0135 -0.1245 -0.2342
  499TMC3    O1 7426   4.661   0.881   9.501  0.1214  0.3004 -0.2339
  499TMC3    O2 7427   4.181   0.549   9.671 -0.0063 -0.3607  0.0054
  500MPD2     C 7428   1.085   2.669  10.019  0.6008 -0.3525 -0.5177
  500MPD2    C1 7429   1.196   2.669   9.930 -0.0379 -0.3240  0.1965
  500MPD2    C2 7430   1.193   2.579   9.824 -0.3156  0.2375  0.8107
  500MPD2    C3 7431   1.091   2.482   9.812 -0.1584  0.0552 -0.6935
  500MPD2    C4 7432   0.985   2.492   9.897 -0.6795  0.3602 -0.6389
  500MPD2    C5 7433   0.990   2.575  10.008  0.2092 -0.0629  0.1133
  500MPD2     H 7434   1.282   2.565   9.765  0.9310 -1.2152  3.0496
  500MPD2    H1 7435   0.897   2.430   9.880 -1.1733  0.8509  0.1620
  500MPD2    H2 7436   1.073   2.741  10.099 -0.4525  0.9101 -1.8283
  500MPD2    H3 7437   0.908   2.581  10.077 -0.2130 -1.8416 -0.2370
  500MPD2     N 7438   1.085   2.379   9.711  0.2755 -0.3767  0.6269
  500MPD2    H5 7439   1.003   2.319   9.715 -0.9185  1.2755  0.8773
  500MPD2    N1 7440   1.316   2.739   9.952 -0.5323  0.2220 -0.4836
  500MPD2    H7 7441   1.392   2.738   9.884  0.0406 -1.5755  0.1932
  501TMC3    C1 7442   1.473   2.877  10.074 -0.3722  0.6884 -0.5208
  501TMC3    C2 7443   1.480   2.982   9.985 -0.2442 -0.4211 -0.0631
  501TMC3    C3 7444   1.556   3.090  10.027  0.1420  0.4359  0.1672
  501TMC3    C4 7445   1.536   2.884  10.194 -0.1063  0.4128 -0.4220
  501TMC3    C5 7446   1.631   2.980  10.211 -0.1572  0.6800 -0.3514
  501TMC3    C6 7447   1.636   3.092  10.142  0.0449  0.6023  0.6364
  501TMC3     C 7448   1.344   2.804  10.073  0.5355 -0.2256 -0.1667
  501TMC3     O 7449   1.302   2.789  10.188 -0.3637 -0.3344 -0.1694
  501TMC3     H 7450   1.426   2.982   9.891 -0.9258  0.5183  0.3172
  501TMC3    H1 7451   1.509   2.809  10.268 -1.3937  0.6504 -0.6504
  501TMC3    H2 7452   1.714   3.166  10.156  2.4244 -1.3865 -2.0742
  501TMC3    C7 7453   1.686   2.973  10.348  0.1008  0.2342 -0.0233
  501TMC3    C8 7454   1.508   3.229   9.998  0.2579  0.8847  0.6675
  501TMC3    O1 7455   1.690   2.860  10.400 -0.0665  0.2137  0.0368
  501TMC3    O2 7456   1.552   3.318  10.070 -0.1565 -0.2297  0.5051
  502TMC3    C1 7457   0.276   2.091  14.893 -0.5009  0.4615  0.5910
  502TMC3    C2 7458   0.271   2.151  14.774 -0.1650 -0.0505  0.0071
  502TMC3    C3 7459   0.167   2.133  14.689 -0.1010  0.2119 -0.0597
  502TMC3    C4 7460   0.179   2.000  14.923 -0.1173  0.7959  0.4769
  502TMC3    C5 7461   0.073   1.983  14.836  0.3862 -0.9920  0.1556
  502TMC3    C6 7462   0.061   2.052  14.715  0.5162 -0.6473  0.2840
  502TMC3     C 7463   0.344   2.165  15.002  0.1191  0.3525 -0.3995
  502TMC3     O 7464   0.401   2.267  14.972 -0.1614  0.0024  0.0113
  502TMC3     H 7465   0.349   2.223  14.753 -1.3949  1.8144  1.8651
  502TMC3    H1 7466   0.192   1.942  15.014  0.5995  1.4777  0.8115
  502TMC3    H2 7467   4.719   2.023  14.635 -0.5098  0.0076  0.8935
  502TMC3    C7 7468   4.679   1.921  14.899  0.2226 -0.2090  0.1247
  502TMC3    C8 7469   0.154   2.223  14.575 -0.2374  1.0718 -0.5705
  502TMC3    O1 7470   4.704   1.844  14.991  0.2888  0.0580 -0.3734
  502TMC3    O2 7471   0.239   2.310  14.573  0.3476 -0.1447  0.1501
  503MPD2     C 7472   2.060   2.711  16.727  0.2457 -0.3932 -0.4198
  503MPD2    C1 7473   2.138   2.758  16.825 -0.0260 -0.1759  0.3697
  503MPD2    C2 7474   2.183   2.665  16.917 -0.8935 -0.4686 -0.2169
  503MPD2    C3 7475   2.137   2.537  16.923 -0.0828 -0.3503 -0.0465
  503MPD2    C4 7476   2.060   2.493  16.821  0.5439 -0.2812 -0.4472
  503MPD2    C5 7477   2.026   2.578  16.717  0.8660 -0.6306  0.7814
  503MPD2     H 7478   2.250   2.695  16.997 -1.1055  0.3189 -0.3385
  503MPD2    H1 7479   2.033   2.390  16.806  1.1759 -0.7802  1.8044
  503MPD2    H2 7480   2.025   2.777  16.649  1.7912  1.2466  0.2731
  503MPD2    H3 7481   1.970   2.534  16.635 -1.8581 -0.8473  2.7412
  503MPD2     N 7482   2.195   2.450  17.016 -0.6483  0.2636 -0.1682
  503MPD2    H5 7483   2.280   2.473  17.067 -0.2336  0.1940 -0.8154
  503MPD2    N1 7484   2.176   2.899  16.834  0.5630 -0.4137 -0.9171
  503MPD2    H7 7485   2.244   2.931  16.902 -0.9922 -1.5648  1.1868
  504TMC3    C1 7486   2.217   2.239  17.126  0.3726 -0.3384 -1.0386
  504TMC3    C2 7487   2.156   2.142  17.195  0.5535  0.4211  0.3544
  504TMC3    C3 7488   2.233   2.034  17.224 -0.8515  0.1580 -0.4034
  504TMC3    C4 7489   2.347   2.237  17.088  0.3542 -0.0533  0.5624
  504TMC3    C5 7490   2.419   2.124  17.119 -0.6321  0.4064 -0.3303
  504TMC3    C6 7491   2.363   2.021  17.192  0.2697  0.6846 -0.1534
  504TMC3     C 7492   2.132   2.331  17.044  0.1776  1.1964  0.3590
  504TMC3     O 7493   2.013   2.306  17.051 -0.2831  0.0652  0.0163
  504TMC3     H 7494   2.058   2.161  17.238  0.5141  0.9432  0.0385
  504TMC3    H1 7495   2.397   2.313  17.027 -0.5044 -0.9147 -1.2243
  504TMC3    H2 7496   2.406   1.921  17.192  0.5029  0.7870 -1.2063
  504TMC3    C7 7497   2.541   2.103  17.047  0.2587  0.0172 -0.0637
  504TMC3    C8 7498   2.164   1.907  17.237  0.2383 -0.0644  0.0040
  504TMC3    O1 7499   2.559   2.169  16.947  0.3954 -0.3762 -0.1257
  504TMC3    O2 7500   2.189   1.817  17.157 -0.9698  0.1468  0.7716
  505MPD2     C 7501   2.822   0.764  10.564 -0.1610 -0.4886  0.4817
  505MPD2    C1 7502   2.750   0.650  10.550 -0.3961  0.0212  0.3184
  505MPD2    C2 7503   2.823   0.531  10.567 -0.8514  0.5272 -0.2063
  505MPD2    C3 7504   2.963   0.532  10.596  0.6855  0.9576  0.3075
  505MPD2    C4 7505   3.029   0.649  10.611 -0.0108 -0.5349  0.0527
  505MPD2    C5 7506   2.959   0.767  10.600 -0.6222  0.1659  0.3075
  505MPD2     H 7507   2.767   0.439  10.554 -0.6106  0.3546 -0.0322
  505MPD2    H1 7508   3.136   0.661  10.623 -0.2769  3.0673 -1.2813
  505MPD2    H2 7509   2.779   0.854  10.523  2.3504 -0.1084 -1.3027
  505MPD2    H3 7510   3.018   0.857  10.611  0.7965 -0.5230 -1.4735
  505MPD2     N 7511   3.043   0.406  10.599 -0.5106 -0.1373 -0.4197
  505MPD2    H5 7512   3.141   0.416  10.623 -0.6416  1.3149 -0.4740
  505MPD2    N1 7513   2.618   0.653  10.501 -0.5278 -0.1883  0.4841
  505MPD2    H7 7514   2.583   0.742  10.469 -1.8306 -0.7611  0.3206
  506TMC3    C1 7515   2.407   0.563  10.426 -0.4396 -0.2247  0.7640
  506TMC3    C2 7516   2.418   0.616  10.301 -0.5223  0.3223 -0.1930
  506TMC3    C3 7517   2.341   0.571  10.201  0.7060  0.3827  0.3520
  506TMC3    C4 7518   2.315   0.461  10.447 -0.6234 -0.2494 -0.3546
  506TMC3    C5 7519   2.250   0.404  10.342  0.4138  0.1973 -0.3698
  506TMC3    C6 7520   2.256   0.468  10.221  0.2488  0.5040  0.2867
  506TMC3     C 7521   2.536   0.542  10.489 -0.6514 -0.7767  0.6014
  506TMC3     O 7522   2.551   0.426  10.537  0.2582 -0.4810  0.3639
  506TMC3     H 7523   2.492   0.693  10.280  0.9579 -0.8029  0.8848
  506TMC3    H1 7524   2.307   0.418  10.546  0.9779  2.0132  0.7567
  506TMC3    H2 7525   2.218   0.415  10.135 -2.0831  0.3394  1.4097
  506TMC3    C7 7526   2.264   0.261  10.328  0.3637 -0.2213 -0.2062
  506TMC3    C8 7527   2.341   0.644  10.072 -0.3207 -0.5005  0.4619
  506TMC3    O1 7528   2.203   0.211  10.234  0.7824 -0.1253 -0.2457
  506TMC3    O2 7529   2.234   0.646  10.014  0.1394 -0.3312  0.7782
  507TMC3    C1 7530   2.931   2.222  14.217 -0.0282  0.3108 -0.9779
  507TMC3    C2 7531   2.799   2.248  14.189  0.2754  0.0776  0.0195
  507TMC3    C3 7532   2.775   2.290  14.062 -0.5138 -0.5285 -0.3239
  507TMC3    C4 7533   3.033   2.250  14.134 -0.5706 -0.2158  0.0540
  507TMC3    C5 7534   3.011   2.318  14.024  0.4466  0.4113  1.1139
  507TMC3    C6 7535   2.877   2.324  13.978 -0.2860 -0.2421  0.9899
  507TMC3     C 7536   2.961   2.113  14.306 -0.0843  0.1316  0.1984
  507TMC3     O 7537   3.078   2.083  14.315 -0.3735 -0.6470  0.0950
  507TMC3     H 7538   2.721   2.238  14.263 -0.4939  1.1709 -0.6332
  507TMC3    H1 7539   3.135   2.235  14.167  0.1645  0.4643 -1.9069
  507TMC3    H2 7540   2.856   2.361  13.878  1.9458  0.5962  0.8336
  507TMC3    C7 7541   3.046   2.462  14.047 -0.1275  0.1789  0.3275
  507TMC3    C8 7542   2.649   2.362  14.056  0.0418 -0.5367 -0.3814
  507TMC3    O1 7543   2.954   2.531  14.006 -0.4524 -0.7375 -0.2152
  507TMC3    O2 7544   2.559   2.331  14.130  0.3662 -0.3509  0.5641
  508MPD2     C 7545   4.222   4.348  15.561  0.4151 -0.1755 -0.8707
  508MPD2    C1 7546   4.155   4.445  15.643 -0.0550  0.0229 -0.8766
  508MPD2    C2 7547   4.100   4.562  15.591  0.3316 -0.3170  0.5176
  508MPD2    C3 7548   4.132   4.587  15.464 -0.5739 -0.5042 -0.0421
  508MPD2    C4 7549   4.178   4.491  15.378  0.1311 -0.5289  0.2641
  508MPD2    C5 7550   4.222   4.371  15.431 -0.1724 -0.1045 -0.2011
  508MPD2     H 7551   4.067   4.644  15.653  0.7104 -0.5194  0.9849
  508MPD2    H1 7552   4.188   4.511  15.272 -2.8476  2.4749  0.5537
  508MPD2    H2 7553   4.265   4.260  15.606  1.6125  0.9655  0.1944
  508MPD2    H3 7554   4.260   4.289  15.371  0.1153  0.5172 -0.8706
  508MPD2     N 7555   4.106   4.722  15.414  0.1857  0.1717  0.1059
  508MPD2    H5 7556   4.037   0.051  15.465  0.0541  0.9638 -0.9084
  508MPD2    N1 7557   4.164   4.418  15.784 -0.5223  0.5436 -0.3296
  508MPD2    H7 7558   4.205   4.330  15.815  1.1131  2.0043  1.6525
  509TMC3    C1 7559   4.040   0.386  15.272  0.0123  0.1557  0.0332
  509TMC3    C2 7560   4.146   0.455  15.235 -0.2396 -0.1006  0.1082
  509TMC3    C3 7561   4.266   0.390  15.236 -0.9960 -0.6744 -0.1812
  509TMC3    C4 7562   4.044   0.252  15.291  0.3509  0.4552 -0.7106
  509TMC3    C5 7563   4.171   0.195  15.296 -0.1659 -0.4795 -0.5312
  509TMC3    C6 7564   4.284   0.265  15.276  0.5933  0.4480 -0.2097
  509TMC3     C 7565   3.904   0.448  15.276  0.1589 -0.0752  0.0219
  509TMC3     O 7566   3.807   0.374  15.288 -0.2234 -0.8497  0.1789
  509TMC3     H 7567   4.141   0.553  15.188 -0.7877  0.3630  1.1572
  509TMC3    H1 7568   3.953   0.200  15.317  1.7993 -1.4045  0.5439
  509TMC3    H2 7569   4.375   0.209  15.295  0.4596 -0.3681 -1.9533
  509TMC3    C7 7570   4.181   0.048  15.314 -0.1025 -0.2050  0.0200
  509TMC3    C8 7571   4.396   0.453  15.259  0.2202 -0.0835  0.0295
  509TMC3    O1 7572   4.283   4.723  15.270 -0.0007  0.3301 -0.9592
  509TMC3    O2 7573   4.499   0.387  15.261 -0.2722 -0.3755 -0.2136
  510MPD2     C 7574   2.051   1.718  14.400 -0.5530 -0.2130  0.5593
  510MPD2    C1 7575   2.132   1.647  14.485 -0.5830 -0.5505 -0.7593
  510MPD2    C2 7576   2.265   1.630  14.449 -0.2651  0.0903  0.1586
  510MPD2    C3 7577   2.311   1.684  14.323 -0.1538  0.6999 -0.2164
  510MPD2    C4 7578   2.229   1.763  14.246 -0.3529 -0.1999  0.2374
  510MPD2    C5 7579   2.101   1.777  14.288  0.1279 -0.0057 -0.5732
  510MPD2     H 7580   2.329   1.573  14.516  1.5922  1.5280 -0.3974
  510MPD2    H1 7581   2.265   1.820  14.160 -1.8356  1.2076  0.5408
  510MPD2    H2 7582   1.946   1.696  14.388 -0.4703  0.3456 -1.2122
  510MPD2    H3 7583   2.029   1.820  14.219 -0.1320 -0.3985 -0.5504
  510MPD2     N 7584   2.444   1.666  14.285 -0.3092 -0.2353  0.5925
  510MPD2    H5 7585   2.506   1.625  14.354  1.8551  0.3212 -1.0261
  510MPD2    N1 7586   2.076   1.568  14.592 -0.0258 -0.5146  0.1816
  510MPD2    H7 7587   1.975   1.553  14.589 -0.0893 -0.0696 -0.0222
  511TMC3    C1 7588   2.077   1.412  14.758 -0.4292  0.6102 -0.1822
  511TMC3    C2 7589   2.061   1.402  14.896 -0.0203 -0.1250 -0.3332
  511TMC3    C3 7590   1.967   1.320  14.946  0.4735 -0.4314  0.2298
  511TMC3    C4 7591   2.000   1.339  14.672  0.4030 -0.3666 -0.7680
  511TMC3    C5 7592   1.909   1.258  14.730 -0.1127  0.4208 -0.7646
  511TMC3    C6 7593   1.880   1.250  14.861  0.3969 -0.1251  0.3567
  511TMC3     C 7594   2.148   1.517  14.698  0.4031 -0.1393  0.4778
  511TMC3     O 7595   2.251   1.555  14.747  0.0460 -0.0680  0.3421
  511TMC3     H 7596   2.114   1.473  14.959 -0.9777  0.8477 -0.6081
  511TMC3    H1 7597   2.018   1.334  14.565  1.7104  0.0951 -0.5653
  511TMC3    H2 7598   1.798   1.195  14.905 -0.0752 -0.7511 -1.3395
  511TMC3    C7 7599   1.817   1.190  14.639  0.1577  0.0167  0.1795
  511TMC3    C8 7600   1.932   1.312  15.089 -0.1367 -0.0262 -0.2795
  511TMC3    O1 7601   1.829   1.223  14.519 -0.4247  0.4697 -0.4387
  511TMC3    O2 7602   1.977   1.402  15.160 -0.1248  0.2982 -0.7311
  512TMC3    C1 7603   1.448   0.879  13.645  0.0619  0.3293 -0.2992
  512TMC3    C2 7604   1.535   0.929  13.733 -0.0594 -0.2484 -0.2212
  512TMC3    C3 7605   1.538   0.870  13.859 -0.2797 -0.5227 -0.6432
  512TMC3    C4 7606   1.374   0.763  13.672 -0.2888  1.0056 -0.0651
  512TMC3    C5 7607   1.367   0.712  13.804  0.3077  0.1333 -0.5872
  512TMC3    C6 7608   1.448   0.769  13.899  0.8165  0.1089 -0.1890
  512TMC3     C 7609   1.451   0.932  13.503 -0.5275 -0.1304  0.5818
  512TMC3     O 7610   1.366   0.897  13.424  0.2898 -0.7508  0.3933
  512TMC3     H 7611   1.605   1.010  13.717 -0.1027 -0.3095 -0.7360
  512TMC3    H1 7612   1.313   0.732  13.588 -0.1695 -0.9275  0.5847
  512TMC3    H2 7613   1.435   0.744  14.003  2.0566 -1.9041 -0.5118
  512TMC3    C7 7614   1.271   0.607  13.841  0.1591 -0.6507  0.8978
  512TMC3    C8 7615   1.579   0.965  13.959 -0.8018  0.7718 -0.0719
  512TMC3    O1 7616   1.276   0.564  13.957  0.0061 -0.1802 -0.2407
  512TMC3    O2 7617   1.616   0.919  14.065 -0.5089  0.0780  0.4374
  513MPD2     C 7618   3.152   1.046  13.585  0.1680  0.3315  0.7891
  513MPD2    C1 7619   3.215   0.984  13.485  0.9414 -0.7986  0.1677
  513MPD2    C2 7620   3.337   1.032  13.441  0.7484  0.2044  0.4654
  513MPD2    C3 7621   3.403   1.132  13.508  0.1393  0.1151  0.2151
  513MPD2    C4 7622   3.332   1.203  13.607  0.4605 -0.5935  0.5571
  513MPD2    C5 7623   3.206   1.166  13.641  0.1282  0.1743  0.8032
  513MPD2     H 7624   3.389   0.987  13.358  0.8625 -0.8088  1.0910
  513MPD2    H1 7625   3.378   1.287  13.659  1.6077 -1.8343  1.5362
  513MPD2    H2 7626   3.063   1.003  13.630  0.6731 -0.4720  1.0327
  513MPD2    H3 7627   3.156   1.206  13.728 -0.4945  2.0262 -0.3996
  513MPD2     N 7628   3.536   1.158  13.454  0.2599  0.1732 -0.1772
  513MPD2    H5 7629   3.550   1.099  13.373  1.3324  0.5993 -0.2981
  513MPD2    N1 7630   3.170   0.874  13.420  0.7060 -0.2549 -0.2078
  513MPD2    H7 7631   3.237   0.822  13.364  0.2005  0.0984 -1.1358
  514TMC3    C1 7632   3.023   0.706  13.339  0.3607 -0.7116 -0.2863
  514TMC3    C2 7633   2.948   0.738  13.233  0.1478  0.4311  0.4689
  514TMC3    C3 7634   2.982   0.687  13.106  0.0099  0.5340 -0.3139
  514TMC3    C4 7635   3.136   0.627  13.323  0.1946 -1.3630 -0.7784
  514TMC3    C5 7636   3.174   0.584  13.195  0.1357 -0.2335  0.0886
  514TMC3    C6 7637   3.100   0.620  13.084  0.1385 -0.3428 -0.8391
  514TMC3     C 7638   3.038   0.830  13.412 -0.2313  0.4440  0.3337
  514TMC3     O 7639   2.942   0.876  13.470 -0.3711 -0.1577  0.0833
  514TMC3     H 7640   2.863   0.805  13.240  0.7918  0.9750  3.1052
  514TMC3    H1 7641   3.191   0.611  13.416  0.9857  3.5753 -0.4162
  514TMC3    H2 7642   3.120   0.572  12.989 -1.1988  0.0242 -1.3087
  514TMC3    C7 7643   3.310   0.632  13.184  0.2973 -0.2931 -0.2351
  514TMC3    C8 7644   2.882   0.713  13.000  0.5233  0.2762  0.1878
  514TMC3    O1 7645   3.340   0.712  13.268  0.4781 -0.3818  0.1300
  514TMC3    O2 7646   2.768   0.753  13.031 -0.4367  0.3408 -0.1009
  515MPD2     C 7647   0.562   2.887  14.813  0.0989 -0.5823  0.0804
  515MPD2    C1 7648   0.665   2.827  14.752  0.5533 -0.1312  0.3071
  515MPD2    C2 7649   0.796   2.857  14.789 -0.4203 -0.2982  0.5257
  515MPD2    C3 7650   0.823   2.959  14.876 -0.6826  0.0996  0.5821
  515MPD2    C4 7651   0.716   3.010  14.949 -0.2004  0.0661 -0.0261
  515MPD2    C5 7652   0.590   2.975  14.912 -0.0020 -0.1482  0.4935
  515MPD2     H 7653   0.880   2.811  14.739  0.0537 -0.0569  1.0940
  515MPD2    H1 7654   0.720   3.084  15.028  0.7666  0.5715 -0.5608
  515MPD2    H2 7655   0.459   2.862  14.789 -0.7262  2.9252  0.0206
  515MPD2    H3 7656   0.508   3.016  14.970 -1.2315  0.3676 -1.5680
  515MPD2     N 7657   0.952   3.002  14.917 -0.2675 -0.0467  0.0061
  515MPD2    H5 7658   0.957   3.091  14.966  1.6989 -0.0455 -0.2164
  515MPD2    N1 7659   0.651   2.733  14.653  0.1220 -0.7709 -0.3064
  515MPD2    H7 7660   0.740   2.695  14.621  0.0612 -1.9806  0.9594
  516TMC3    C1 7661   0.541   2.590  14.507  0.1280 -0.1880 -0.4749
  516TMC3    C2 7662   0.441   2.580  14.411 -0.4466 -0.3865  0.4454
  516TMC3    C3 7663   0.429   2.463  14.343 -0.3689  0.0640  0.4051
  516TMC3    C4 7664   0.629   2.492  14.541  0.6069 -0.2646 -0.7568
  516TMC3    C5 7665   0.616   2.374  14.475  0.8524 -0.3388 -0.0111
  516TMC3    C6 7666   0.515   2.360  14.379 -0.4766 -0.1052  1.0393
  516TMC3     C 7667   0.530   2.710  14.590  0.3154  0.2785 -0.1993
  516TMC3     O 7668   0.428   2.770  14.571  0.0854 -0.8921 -0.7359
  516TMC3     H 7669   0.393   2.671  14.378 -0.2939  0.1908  1.7907
  516TMC3    H1 7670   0.718   2.509  14.600  2.3634 -0.6650 -3.3162
  516TMC3    H2 7671   0.517   2.272  14.316  0.7968 -0.0119  0.9521
  516TMC3    C7 7672   0.639   2.262  14.565  0.7872  0.5820  0.1312
  516TMC3    C8 7673   0.357   2.458  14.221  0.2015 -0.4992 -0.0594
  516TMC3    O1 7674   0.712   2.294  14.661  0.4965 -0.3137 -0.4057
  516TMC3    O2 7675   0.338   2.344  14.176  0.2435 -0.1707  0.2523
  517MPD2     C 7676   0.178   4.099  17.596  0.5596 -0.0269 -0.6939
  517MPD2    C1 7677   0.300   4.078  17.648 -0.5456  0.0455  0.4645
  517MPD2    C2 7678   0.360   4.174   0.029  0.1929 -0.0132  0.4745
  517MPD2    C3 7679   0.301   4.295   0.047 -0.2772  0.2697  0.0376
  517MPD2    C4 7680   0.182   4.319  17.693  0.5813  0.2229  0.0539
  517MPD2    C5 7681   0.119   4.222  17.620  0.2159 -0.3993  0.4226
  517MPD2     H 7682   0.449   4.149   0.087 -0.3523  0.9280  1.7237
  517MPD2    H1 7683   0.135   4.416   0.000  1.0128  0.2885  1.6055
  517MPD2    H2 7684   0.134   4.037  17.519  0.0048 -0.2009 -0.2428
  517MPD2    H3 7685   0.028   4.263  17.577  0.3265  0.4472  0.9936
  517MPD2     N 7686   0.347   4.391   0.147  0.0229 -0.2823 -0.1149
  517MPD2    H5 7687   0.283   4.469   0.162 -1.4187 -1.4831 -0.0092
  517MPD2    N1 7688   0.373   3.953  17.634  0.6538 -0.4557 -0.2542
  517MPD2    H7 7689   0.467   3.956  17.672  0.1545 -0.6221  0.9740
  518TMC3    C1 7690   0.433   3.732  17.583 -0.4659  0.2677  0.0280
  518TMC3    C2 7691   0.389   3.598  17.583 -0.0533  1.0075  0.9750
  518TMC3    C3 7692   0.482   3.499  17.549 -0.2198  0.1773  0.0465
  518TMC3    C4 7693   0.561   3.768  17.559  0.3109  0.5563  0.0967
  518TMC3    C5 7694   0.648   3.663  17.531 -0.3546 -0.0294 -0.1601
  518TMC3    C6 7695   0.610   3.539  17.508  0.6588  0.1359  0.1466
  518TMC3     C 7696   0.323   3.835  17.585  0.2350  0.1498 -0.1950
  518TMC3     O 7697   0.210   3.802  17.568  0.4663 -0.2029 -0.9255
  518TMC3     H 7698   0.285   3.579  17.606  0.4292 -1.5710  0.9839
  518TMC3    H1 7699   0.590   3.872  17.559 -0.6376  0.8196 -1.0288
  518TMC3    H2 7700   0.683   3.466  17.472 -2.7340 -2.7513 -0.8950
  518TMC3    C7 7701   0.787   3.704  17.530  0.4645 -0.5316 -0.5613
  518TMC3    C8 7702   0.437   3.365  17.517 -0.4657  0.0367  0.1877
  518TMC3    O1 7703   0.809   3.823  17.518  0.6552  0.3640  0.0092
  518TMC3    O2 7704   0.523   3.298  17.460 -0.0789  0.2147  0.9211
  519MPD2     C 7705   2.141   2.619  14.367  0.0823  0.4710  0.7979
  519MPD2    C1 7706   2.057   2.535  14.302 -0.7683 -0.4424 -0.1761
  519MPD2    C2 7707   2.102   2.414  14.249 -0.6853  0.5513 -0.9824
  519MPD2    C3 7708   2.237   2.389  14.255 -0.4146  0.6565  0.2471
  519MPD2    C4 7709   2.324   2.470  14.323 -0.5706 -0.4139 -1.0195
  519MPD2    C5 7710   2.273   2.587  14.371 -0.4017  0.1555 -0.5713
  519MPD2     H 7711   2.038   2.345  14.196  1.4988 -1.3863 -1.0649
  519MPD2    H1 7712   2.432   2.455  14.323 -0.4231  0.5941  0.2828
  519MPD2    H2 7713   2.108   2.716  14.404 -0.7692  0.0251  1.2084
  519MPD2    H3 7714   2.347   2.655  14.413 -0.4853 -0.0459 -0.1019
  519MPD2     N 7715   2.292   2.278  14.187  0.1460  0.1929  0.0739
  519MPD2    H5 7716   2.387   2.289  14.153  0.9397  0.6844  2.4404
  519MPD2    N1 7717   1.922   2.562  14.289  0.0864  0.6722 -0.0298
  519MPD2    H7 7718   1.868   2.491  14.239 -1.1324  3.7821 -3.1428
  520TMC3    C1 7719   2.310   2.085  14.048  0.5322 -0.6541  0.1730
  520TMC3    C2 7720   2.247   2.053  13.933  0.8248 -0.7511  0.1760
  520TMC3    C3 7721   2.335   2.008  13.837 -0.3220 -0.7005 -0.1412
  520TMC3    C4 7722   2.439   2.062  14.074  0.1948 -0.1371  1.0311
  520TMC3    C5 7723   2.524   2.020  13.974  0.3083  0.2561 -0.7575
  520TMC3    C6 7724   2.469   1.995  13.854 -1.0265 -0.3875  0.1943
  520TMC3     C 7725   2.224   2.165  14.137 -0.4260 -0.2217  0.5334
  520TMC3     O 7726   2.109   2.134  14.147  0.0206  0.2814  0.0938
  520TMC3     H 7727   2.139   2.054  13.931  0.8047 -1.7474  1.0820
  520TMC3    H1 7728   2.472   2.107  14.167  1.9462 -1.0504  0.8423
  520TMC3    H2 7729   2.533   1.965  13.772 -2.0370  0.3493 -0.8614
  520TMC3    C7 7730   2.659   1.992  14.003 -0.0233  0.2722  0.3833
  520TMC3    C8 7731   2.286   1.962  13.708 -0.1675  0.0391 -0.4164
  520TMC3    O1 7732   2.678   1.968  14.123  0.4835  0.2232  0.2060
  520TMC3    O2 7733   2.369   1.944  13.618  0.1933  0.1862 -0.2331
  521MPD2     C 7734   2.871   0.184  17.281  0.3516 -0.2519 -0.1867
  521MPD2    C1 7735   2.856   0.169  17.142 -0.6492 -0.8276  0.4071
  521MPD2    C2 7736   2.966   0.122  17.074  0.7878  0.1073 -0.4470
  521MPD2    C3 7737   3.079   0.075  17.137 -0.4345  0.0011 -0.5326
  521MPD2    C4 7738   3.090   0.073  17.272 -0.3717  0.0617 -0.2145
  521MPD2    C5 7739   2.983   0.130  17.341 -1.2499 -0.2314  0.2841
  521MPD2     H 7740   2.967   0.126  16.965 -0.2747 -0.6172 -0.4752
  521MPD2    H1 7741   3.177   0.039  17.328 -0.7724  0.8980  0.9257
  521MPD2    H2 7742   2.797   0.238  17.338  1.2586  0.9386 -0.1404
  521MPD2    H3 7743   2.975   0.139  17.449  0.1479 -1.3582  0.4811
  521MPD2     N 7744   3.185   0.031  17.057 -0.3686  0.1248 -0.1437
  521MPD2    H5 7745   3.176   0.065  16.962 -2.4344  0.4605  0.1717
  521MPD2    N1 7746   2.734   0.209  17.081 -0.3898  0.4507  0.4524
  521MPD2    H7 7747   2.660   0.242  17.142 -1.0749  2.2214 -1.3150
  522TMC3    C1 7748   3.387   4.686  16.973  0.0082 -0.0094 -0.5266
  522TMC3    C2 7749   3.448   4.566  16.957 -0.6962  0.2503 -0.0247
  522TMC3    C3 7750   3.506   4.533  16.835  0.2329  0.0803  0.1518
  522TMC3    C4 7751   3.384   0.054  16.873 -0.1790  0.0018 -0.4465
  522TMC3    C5 7752   3.442   0.019  16.755 -0.0030 -0.2162  0.0702
  522TMC3    C6 7753   3.498   4.621  16.732 -0.3942 -0.2385  0.2287
  522TMC3     C 7754   3.300   4.694  17.087 -0.7712  0.3818  0.4948
  522TMC3     O 7755   3.330   4.636  17.195 -0.1865 -0.1172  0.0313
  522TMC3     H 7756   3.440   4.494  17.037 -0.4548  0.6879  0.3919
  522TMC3    H1 7757   3.362   0.155  16.905  0.0480  0.3163 -1.2632
  522TMC3    H2 7758   3.539   4.597  16.634  2.0032  1.1612  0.9087
  522TMC3    C7 7759   3.488   0.122  16.663 -0.6335  0.2968  0.7691
  522TMC3    C8 7760   3.556   4.402  16.817 -0.3551 -0.7079  0.5350
  522TMC3    O1 7761   3.603   0.103  16.626 -0.1805 -0.3661  0.4164
  522TMC3    O2 7762   3.542   4.315  16.906  0.0065 -0.1302  0.9830
  523MPD2     C 7763   1.298   4.401  10.189  0.3111  0.7706  0.6385
  523MPD2    C1 7764   1.248   4.335  10.076  0.5504  0.5885  0.6750
  523MPD2    C2 7765   1.191   4.408   9.968  0.3760  0.5169  0.6603
  523MPD2    C3 7766   1.178   4.549   9.979 -0.7860 -0.5340 -0.1004
  523MPD2    C4 7767   1.227   4.613  10.094 -0.6972  0.6208 -0.0408
  523MPD2    C5 7768   1.275   4.535  10.192  0.2596  0.6439 -0.3333
  523MPD2     H 7769   1.152   4.359   9.880 -0.1386 -0.4848  1.4498
  523MPD2    H1 7770   1.214   4.720  10.106 -2.7053  0.3783 -0.0786
  523MPD2    H2 7771   1.347   4.345  10.267 -0.0573 -0.5774 -0.1073
  523MPD2    H3 7772   1.304   4.585  10.284  1.0226  0.5624 -0.5268
  523MPD2     N 7773   1.125   4.625   9.872 -0.1140 -0.8643  0.2375
  523MPD2    H5 7774   1.122   0.000   9.886  0.7630 -0.4607 -2.5268
  523MPD2    N1 7775   1.268   4.193  10.066 -0.7039  0.4096 -0.0871
  523MPD2    H7 7776   1.302   4.156  10.154 -1.7126 -1.2129 -0.3744
  524TMC3    C1 7777   1.013   4.690   9.679  0.2066 -0.4329  0.3553
  524TMC3    C2 7778   0.889   4.685   9.630 -0.0770 -0.5805 -0.3590
  524TMC3    C3 7779   0.844   0.076   9.573 -0.2971  0.0199  0.5048
  524TMC3    C4 7780   1.098   0.065   9.650 -0.7499  0.8494 -0.7465
  524TMC3    C5 7781   1.056   0.179   9.583  0.8268  0.1384 -0.5643
  524TMC3    C6 7782   0.921   0.190   9.551 -0.5597 -0.6358  0.1819
  524TMC3     C 7783   1.053   4.583   9.764  0.5195  0.2341 -0.2255
  524TMC3     O 7784   1.002   4.473   9.747  0.0285  0.1107 -0.1371
  524TMC3     H 7785   0.824   4.621   9.688 -2.6572  1.3759 -1.0783
  524TMC3    H1 7786   1.202   0.058   9.681 -0.9279 -1.5594 -0.7089
  524TMC3    H2 7787   0.882   0.280   9.504  1.9848  0.2448 -0.2730
  524TMC3    C7 7788   1.151   0.290   9.568 -0.0256  0.5538  0.1298
  524TMC3    C8 7789   0.701   0.091   9.551 -0.1847  0.8065 -0.4892
  524TMC3    O1 7790   1.262   0.264   9.610 -0.6851  0.1968 -0.9901
  524TMC3    O2 7791   0.656   0.208   9.536  0.2419 -0.7369 -0.4374
  525MPD2     C 7792   3.513   2.102  14.228  0.2242  0.0595  0.6451
  525MPD2    C1 7793   3.601   2.180  14.302 -0.7170  0.0673  0.5903
  525MPD2    C2 7794   3.630   2.306  14.263  0.0364  0.3364 -0.0405
  525MPD2    C3 7795   3.582   2.353  14.143 -0.1458 -0.7413 -0.2321
  525MPD2    C4 7796   3.491   2.277  14.064  0.8419  0.0727  0.1113
  525MPD2    C5 7797   3.461   2.148  14.111  0.1111 -0.3550 -0.2933
  525MPD2     H 7798   3.712   2.363  14.306 -0.1386 -0.7146  1.7020
  525MPD2    H1 7799   3.446   2.307  13.970  0.8283 -0.9553 -0.2101
  525MPD2    H2 7800   3.480   2.005  14.262  1.1241 -1.4026 -2.6855
  525MPD2    H3 7801   3.395   2.092  14.046 -0.2553 -2.0650  1.5559
  525MPD2     N 7802   3.614   2.488  14.109 -0.1969  0.3211  0.2790
  525MPD2    H5 7803   3.642   2.550  14.185  2.4773 -1.8347  1.0775
  525MPD2    N1 7804   3.670   2.131  14.411 -0.6292  0.6734 -0.2656
  525MPD2    H7 7805   3.743   2.191  14.449  0.8753 -1.1340 -0.3053
  526TMC3    C1 7806   3.762   2.000  14.565  0.1794 -0.8224  0.8569
  526TMC3    C2 7807   3.732   1.925  14.679 -0.0067 -0.5257 -0.7607
  526TMC3    C3 7808   3.819   1.937  14.785 -0.7516  0.0642 -0.3255
  526TMC3    C4 7809   3.874   2.080  14.561 -0.8432  0.6317  0.2993
  526TMC3    C5 7810   3.949   2.100  14.670 -0.2099  0.2537  0.1462
  526TMC3    C6 7811   3.924   2.028  14.785 -0.2990 -0.9953  0.3056
  526TMC3     C 7812   3.651   2.012  14.473  0.3086 -0.3753 -0.1134
  526TMC3     O 7813   3.557   1.928  14.473 -0.1426  0.1319 -0.4281
  526TMC3     H 7814   3.646   1.860  14.671 -1.6163  1.4765  0.4381
  526TMC3    H1 7815   3.899   2.134  14.471 -0.9448 -0.5936 -0.4735
  526TMC3    H2 7816   3.985   2.047  14.873  1.3596 -4.3145 -0.1507
  526TMC3    C7 7817   4.084   2.128  14.622 -1.6047 -1.0471  0.1881
  526TMC3    C8 7818   3.798   1.876  14.914 -0.1834 -0.1717  0.5306
  526TMC3    O1 7819   4.099   2.208  14.530  0.0705  0.5550  0.1650
  526TMC3    O2 7820   3.885   1.887  15.004  1.0341 -0.5211  0.9163
  527MPD2     C 7821   2.225   4.688   1.467 -0.3087 -0.4467 -0.2419
  527MPD2    C1 7822   2.307   4.578   1.503  0.2866 -0.2698 -0.2358
  527MPD2    C2 7823   2.353   4.488   1.402  0.0061  0.1185 -0.1993
  527MPD2    C3 7824   2.328   4.518   1.266 -0.0238 -0.8401  0.3620
  527MPD2    C4 7825   2.236   4.619   1.246 -0.6531 -0.0514  0.1316
  527MPD2    C5 7826   2.202   4.716   1.337 -0.6044  0.2997 -0.0620
  527MPD2     H 7827   2.416   4.407   1.436 -0.2936 -0.8264 -1.8993
  527MPD2    H1 7828   2.217   4.648   1.143  0.0398  1.0155  0.3087
  527MPD2    H2 7829   2.193   0.031   1.545 -0.5434  1.7783 -2.2755
  527MPD2    H3 7830   2.138   0.076   1.318  0.9435  1.4556 -0.1501
  527MPD2     N 7831   2.386   4.437   1.165 -0.1357 -0.1194  0.1587
  527MPD2    H5 7832   2.445   4.361   1.197  1.6355  0.6790 -1.1950
  527MPD2    N1 7833   2.341   4.542   1.637 -0.1582  0.5102  0.5614
  527MPD2    H7 7834   2.373   4.450   1.663  0.2944  1.4040  3.1684
  528TMC3    C1 7835   2.355   4.590   1.871 -0.7730 -0.2464  0.1731
  528TMC3    C2 7836   2.382   4.677   1.974  0.2777 -0.0933 -1.2870
  528TMC3    C3 7837   2.397   4.628   2.103 -0.3343  0.5267  0.7108
  528TMC3    C4 7838   2.303   4.467   1.897 -0.3129 -0.0781  0.2049
  528TMC3    C5 7839   2.304   4.430   2.031 -0.6987 -0.8278  0.4604
  528TMC3    C6 7840   2.358   4.502   2.135  0.1077 -0.2600  0.6434
  528TMC3     C 7841   2.345   4.639   1.736 -0.3616  0.4133 -0.9081
  528TMC3     O 7842   2.332   0.038   1.722 -0.5035 -0.2862  0.7253
  528TMC3     H 7843   2.395   0.056   1.949 -0.2002  0.8653  2.3418
  528TMC3    H1 7844   2.285   4.395   1.819  0.8942 -0.9249  0.7059
  528TMC3    H2 7845   2.365   4.456   2.233 -0.1204  0.4449  0.9912
  528TMC3    C7 7846   2.253   4.295   2.060 -0.5732 -0.0175  0.5582
  528TMC3    C8 7847   2.409   0.007   2.210 -0.0849 -0.2599  0.1696
  528TMC3    O1 7848   2.208   4.245   1.958 -0.0116 -0.0102 -0.4326
  528TMC3    O2 7849   2.428   0.125   2.179 -0.5004  0.1897 -0.3486
  529MPD2     C 7850   3.834   3.629   0.542  0.0194 -1.0806  0.5514
  529MPD2    C1 7851   3.832   3.499   0.502  0.4288  0.2956 -1.0408
  529MPD2    C2 7852   3.843   3.468   0.367 -0.0640 -1.0720  0.7105
  529MPD2    C3 7853   3.853   3.574   0.278  0.4619  0.2372 -0.0527
  529MPD2    C4 7854   3.878   3.705   0.325  0.7936  0.0559  0.5230
  529MPD2    C5 7855   3.872   3.729   0.462 -0.2587 -0.2034  0.4960
  529MPD2     H 7856   3.843   3.367   0.327 -0.1912 -0.4538 -0.8181
  529MPD2    H1 7857   3.896   3.775   0.245  3.8175 -0.4119  0.8124
  529MPD2    H2 7858   3.819   3.650   0.647 -0.2307 -2.7254  0.8478
  529MPD2    H3 7859   3.903   3.824   0.504 -0.6469  0.5951 -0.9916
  529MPD2     N 7860   3.857   3.553   0.139  0.2660 -0.8063 -0.0089
  529MPD2    H5 7861   3.852   3.637   0.081  0.1155 -1.0545 -0.3553
  529MPD2    N1 7862   3.849   3.395   0.595 -0.2036  0.6833  0.6048
  529MPD2    H7 7863   3.875   3.304   0.558 -2.3908  0.7134 -0.9720
  530TMC3    C1 7864   3.869   3.278   0.795 -0.3341 -0.2195 -0.0488
  530TMC3    C2 7865   3.928   3.290   0.921  0.1813  0.7103 -0.4506
  530TMC3    C3 7866   3.916   3.180   1.002  0.5761  0.2325  0.7746
  530TMC3    C4 7867   3.792   3.166   0.759  0.1460  0.2972  0.1942
  530TMC3    C5 7868   3.785   3.065   0.847 -0.5794 -0.5661  0.2730
  530TMC3    C6 7869   3.843   3.073   0.974 -0.2585  0.1701  0.0714
  530TMC3     C 7870   3.843   3.403   0.730 -0.5747  0.0565 -0.4653
  530TMC3     O 7871   3.811   3.494   0.809 -0.5474  0.4533  0.1630
  530TMC3     H 7872   3.976   3.380   0.956  1.5178 -0.2902  0.2589
  530TMC3    H1 7873   3.757   3.150   0.658 -0.1728  1.0346  0.1829
  530TMC3    H2 7874   3.837   2.998   1.052 -1.5281 -1.3738 -1.4921
  530TMC3    C7 7875   3.685   2.963   0.819 -0.1793  0.7459 -0.5213
  530TMC3    C8 7876   3.939   3.205   1.147 -0.1661  0.5426 -0.3829
  530TMC3    O1 7877   3.599   2.993   0.744  0.1397 -0.2222 -0.1505
  530TMC3    O2 7878   3.921   3.316   1.191 -0.3625  0.3005  0.2688
  531MPD2     C 7879   3.803   0.641  13.051 -0.9127  0.4938 -0.1713
  531MPD2    C1 7880   3.726   0.733  13.112 -0.7707 -0.2501  0.0778
  531MPD2    C2 7881   3.591   0.711  13.133 -0.5526 -0.2029  0.2301
  531MPD2    C3 7882   3.525   0.598  13.077 -0.6400  0.3378 -0.3454
  531MPD2    C4 7883   3.607   0.505  13.011 -0.2763 -0.2362 -0.5245
  531MPD2    C5 7884   3.742   0.525  13.003  0.3372  0.1441  0.3352
  531MPD2     H 7885   3.526   0.785  13.179  1.4123  0.3188  2.1753
  531MPD2    H1 7886   3.562   0.419  12.963  0.9406 -1.9126  1.3174
  531MPD2    H2 7887   3.910   0.641  13.034 -1.0296  0.5435 -0.9379
  531MPD2    H3 7888   3.793   0.450  12.943  0.0188 -0.7752  1.2239
  531MPD2     N 7889   3.388   0.562  13.096  0.2878 -0.7945 -0.1799
  531MPD2    H5 7890   3.353   0.484  13.042 -0.2665 -1.2795  0.8831
  531MPD2    N1 7891   3.786   0.851  13.149  0.2376 -0.3705 -0.2259
  531MPD2    H7 7892   3.887   0.852  13.144  0.2767 -1.0393  0.4937
  532TMC3    C1 7893   3.809   1.074  13.246  0.2752  0.4165 -0.5265
  532TMC3    C2 7894   3.727   1.168  13.308 -0.4489 -0.1422  1.1285
  532TMC3    C3 7895   3.750   1.214  13.436  0.5950 -0.3690  0.0447
  532TMC3    C4 7896   3.926   1.049  13.313  0.2160  0.3794 -0.5196
  532TMC3    C5 7897   3.952   1.107  13.439  0.0589  0.7150 -0.3600
  532TMC3    C6 7898   3.867   1.203  13.498 -0.5028  0.0808  0.2421
  532TMC3     C 7899   3.721   0.959  13.209  0.3236  0.5063 -0.1454
  532TMC3     O 7900   3.601   0.979  13.219 -0.7621 -0.1721 -0.1825
  532TMC3     H 7901   3.649   1.199  13.238 -1.5484 -2.0155  1.5359
  532TMC3    H1 7902   3.988   0.964  13.283 -0.1932 -0.2701  0.4861
  532TMC3    H2 7903   3.882   1.238  13.599 -1.5221  0.1128  0.3868
  532TMC3    C7 7904   4.064   1.067  13.525 -0.7876  0.2964  0.2488
  532TMC3    C8 7905   3.632   1.232  13.508 -0.8652 -0.0611 -0.1743
  532TMC3    O1 7906   4.104   1.144  13.615 -0.1781  0.7448  0.4136
  532TMC3    O2 7907   3.625   1.289  13.617 -0.0324 -0.2150  0.5385
  533TMC3    C1 7908   3.620   2.678  13.975  0.5005 -0.6623 -0.3966
  533TMC3    C2 7909   3.747   2.696  13.930  0.3936  0.1910 -0.4838
  533TMC3    C3 7910   3.823   2.783  14.005  0.4361  0.1788 -0.1494
  533TMC3    C4 7911   3.576   2.730  14.095  0.1718  0.3694  0.0801
  533TMC3    C5 7912   3.649   2.827  14.155 -0.2510 -0.0001  0.8595
  533TMC3    C6 7913   3.781   2.854  14.112 -0.2842  0.0523  0.1553
  533TMC3     C 7914   3.594   2.533  13.981  0.5217 -0.4637  0.8192
  533TMC3     O 7915   3.582   2.470  13.879  0.4702 -0.1015  0.5532
  533TMC3     H 7916   3.784   2.631  13.851  0.1803  0.9063 -1.1728
  533TMC3    H1 7917   3.473   2.725  14.130 -0.4072 -0.5004 -1.7539
  533TMC3    H2 7918   3.829   2.939  14.159  0.3565 -1.2521  1.8495
  533TMC3    C7 7919   3.660   2.793  14.295 -0.2391 -0.3883  0.6071
  533TMC3    C8 7920   3.958   2.800  13.954 -0.7332 -0.7303  0.2327
  533TMC3    O1 7921   3.616   2.683  14.335 -0.5057 -0.6928 -0.2063
  533TMC3    O2 7922   3.982   2.755  13.842 -0.2794 -0.4210 -0.3520
  534MPD2     C 7923   1.213   3.327   2.053 -0.2570 -0.2905 -0.4323
  534MPD2    C1 7924   1.309   3.312   1.950  0.3298 -0.1257 -0.0393
  534MPD2    C2 7925   1.261   3.288   1.822  0.0478 -0.0820  1.0517
  534MPD2    C3 7926   1.130   3.280   1.788  0.5672  0.0831  0.4050
  534MPD2    C4 7927   1.043   3.291   1.893 -0.3933 -0.7882  0.3057
  534MPD2    C5 7928   1.080   3.318   2.020 -0.1652 -0.2362 -0.4933
  534MPD2     H 7929   1.334   3.287   1.742 -2.0408 -0.8949 -0.8748
  534MPD2    H1 7930   0.936   3.289   1.872 -0.6177  1.3356  1.2452
  534MPD2    H2 7931   1.237   3.355   2.155  0.9866 -0.8513 -0.5650
  534MPD2    H3 7932   1.006   3.339   2.097 -1.2958 -1.4728 -1.2406
  534MPD2     N 7933   1.071   3.246   1.663 -0.0352 -0.0175  0.1120
  534MPD2    H5 7934   0.971   3.259   1.648 -0.2599 -1.2395  0.6024
  534MPD2    N1 7935   1.448   3.335   1.966  0.7543  0.1111 -0.5677
  534MPD2    H7 7936   1.500   3.362   1.884  0.2872  1.9120 -0.2738
  535TMC3    C1 7937   1.056   3.161   1.449  0.2431 -0.4567 -0.1974
  535TMC3    C2 7938   0.924   3.138   1.459 -0.9165 -0.1975  0.5835
  535TMC3    C3 7939   0.854   3.108   1.339 -0.0310  0.9272  0.0667
  535TMC3    C4 7940   1.120   3.150   1.329  0.0764  1.3183  0.1601
  535TMC3    C5 7941   1.048   3.130   1.213  0.3380  0.9657  0.1432
  535TMC3    C6 7942   0.914   3.104   1.213 -0.2823 -0.1519  0.1233
  535TMC3     C 7943   1.141   3.197   1.560 -0.0917  0.5345  0.0214
  535TMC3     O 7944   1.259   3.157   1.561  0.3584 -0.0491 -0.6711
  535TMC3     H 7945   0.875   3.128   1.556 -0.5322  1.3480  0.9317
  535TMC3    H1 7946   1.228   3.152   1.338  0.3008 -1.1284 -1.7968
  535TMC3    H2 7947   0.860   3.079   1.123 -0.3950 -2.2617  0.7812
  535TMC3    C7 7948   1.127   3.154   1.097  0.0342  0.5362  0.6603
  535TMC3    C8 7949   0.714   3.099   1.337 -0.3336  0.8226 -0.2395
  535TMC3    O1 7950   1.088   3.093   1.000 -1.0399 -0.1613  0.0830
  535TMC3    O2 7951   0.667   3.062   1.230  0.0410 -0.1371 -0.2616
  536MPD2     C 7952   0.758   1.898  16.264  0.0667 -0.2020  0.4459
  536MPD2    C1 7953   0.665   1.799  16.280 -0.0114 -0.2670  0.0583
  536MPD2    C2 7954   0.554   1.802  16.198 -0.5123 -0.0157 -1.2449
  536MPD2    C3 7955   0.540   1.893  16.092 -0.3909 -0.2638 -0.1454
  536MPD2    C4 7956   0.638   1.980  16.069  0.0385  0.1611 -0.4784
  536MPD2    C5 7957   0.746   1.983  16.156  0.3577  0.1427  0.9109
  536MPD2     H 7958   0.472   1.732  16.206  2.1725 -3.1668 -1.5364
  536MPD2    H1 7959   0.633   2.046  15.983  0.7977  2.0652  0.9405
  536MPD2    H2 7960   0.848   1.898  16.324  0.6725 -1.9219 -0.4830
  536MPD2    H3 7961   0.828   2.052  16.135 -0.0917 -0.6890 -3.5455
  536MPD2     N 7962   0.429   1.909  16.006  0.6164  0.8937  0.3506
  536MPD2    H5 7963   0.438   1.971  15.927 -2.0043 -1.1664 -1.5547
  536MPD2    N1 7964   0.700   1.707  16.375  0.4858 -0.3227 -0.4378
  536MPD2    H7 7965   0.766   1.737  16.445  0.0902  1.0696 -0.6575
  537TMC3    C1 7966   0.688   1.494  16.491 -0.1659  0.3457  0.1894
  537TMC3    C2 7967   0.722   1.540  16.618 -0.6705  0.2797  0.2005
  537TMC3    C3 7968   0.740   1.456  16.730  0.1230 -0.5265 -0.0717
  537TMC3    C4 7969   0.673   1.358  16.480 -0.5495  0.6913 -1.0351
  537TMC3    C5 7970   0.695   1.278  16.588  0.4262 -0.1444  0.1270
  537TMC3    C6 7971   0.720   1.324  16.716  0.2546 -0.1977 -0.8659
  537TMC3     C 7972   0.646   1.579  16.380  0.3600 -0.5724  0.0550
  537TMC3     O 7973   0.588   1.520  16.286 -0.0701 -0.1092  0.3521
  537TMC3     H 7974   0.734   1.646  16.632  1.9247 -0.0236  0.1833
  537TMC3    H1 7975   0.643   1.317  16.384 -0.3025  0.2175 -0.9128
  537TMC3    H2 7976   0.724   1.257  16.802  3.4857 -1.1480 -1.7368
  537TMC3    C7 7977   0.685   1.134  16.570 -0.2012 -0.5756 -0.3757
  537TMC3    C8 7978   0.695   1.518  16.854 -0.1317 -0.5273 -0.5342
  537TMC3    O1 7979   0.708   1.092  16.456 -0.6831  0.5707  0.2389
  537TMC3    O2 7980   0.622   1.616  16.850 -0.0434 -0.8885 -0.0546
  538TMC3    C1 7981   1.221   0.084  11.269  0.0936 -0.4614  0.4021
  538TMC3    C2 7982   1.356   0.106  11.246  0.0117 -0.2441  0.3371
  538TMC3    C3 7983   1.396   0.169  11.132  0.1731 -0.2851 -0.5900
  538TMC3    C4 7984   1.130   0.113  11.173 -0.2117  0.2911 -0.4804
  538TMC3    C5 7985   1.181   0.166  11.061 -0.2036 -0.5346 -1.1414
  538TMC3    C6 7986   1.311   0.205  11.033 -0.1269  0.7435  0.3003
  538TMC3     C 7987   1.168   0.031  11.389 -0.5197  0.2907 -0.0042
  538TMC3     O 7988   1.053   0.069  11.413  0.0402 -0.2311  0.5070
  538TMC3     H 7989   1.428   0.085  11.325 -1.0022 -0.9876  1.0640
  538TMC3    H1 7990   1.029   0.076  11.188  0.0008 -0.9322 -2.0633
  538TMC3    H2 7991   1.344   0.249  10.940  1.1779 -0.4509  0.2099
  538TMC3    C7 7992   1.084   0.188  10.951 -0.1422  0.0452  0.3858
  538TMC3    C8 7993   1.543   0.185  11.109  0.6946  1.0954 -0.2387
  538TMC3    O1 7994   0.969   0.210  10.982  0.8206  0.0056  0.2583
  538TMC3    O2 7995   1.615   0.114  11.179 -0.4484 -0.3503 -0.3298
  539MPD2     C 7996   0.900   3.749  11.773  0.6398  0.0666  0.0324
  539MPD2    C1 7997   0.918   3.741  11.635 -0.0282  0.2206  0.4922
  539MPD2    C2 7998   0.887   3.856  11.561 -0.1129 -0.5945  1.0902
  539MPD2    C3 7999   0.828   3.965  11.621  0.5235 -0.5717 -0.4810
  539MPD2    C4 8000   0.818   3.965  11.758 -0.1354 -0.0858 -0.7995
  539MPD2    C5 8001   0.856   3.863  11.834  0.5471  0.1178  0.4892
  539MPD2     H 8002   0.892   3.859  11.453  1.0733  0.7183  1.1750
  539MPD2    H1 8003   0.768   4.049  11.805 -1.2933 -2.2657  1.7944
  539MPD2    H2 8004   0.919   3.664  11.838 -1.3633  0.0340  0.5621
  539MPD2    H3 8005   0.830   3.868  11.939 -1.2176 -0.3041  0.0781
  539MPD2     N 8006   0.787   4.082  11.551 -0.3233  0.5018  0.6146
  539MPD2    H5 8007   0.754   4.155  11.613 -0.6162  1.2631 -0.4356
  539MPD2    N1 8008   0.968   3.629  11.564  0.3627 -0.3499  0.5998
  539MPD2    H7 8009   0.974   3.640  11.463  1.5587 -0.0096  0.7076
  540TMC3    C1 8010   0.740   4.236  11.377  0.2672 -0.6139 -0.2891
  540TMC3    C2 8011   0.752   4.266  11.245  0.1680  0.6414 -0.2246
  540TMC3    C3 8012   0.676   4.371  11.206  0.2967 -0.6333  0.2747
  540TMC3    C4 8013   0.678   4.318  11.476  0.3187 -0.0431  0.4743
  540TMC3    C5 8014   0.598   4.423  11.423  0.0630 -0.2128  0.2312
  540TMC3    C6 8015   0.604   4.453  11.291  0.9314 -0.5415  0.3430
  540TMC3     C 8016   0.786   4.099  11.414  0.1946 -0.5648 -0.4706
  540TMC3     O 8017   0.818   4.024  11.323  0.4186 -0.3014  0.6043
  540TMC3     H 8018   0.821   4.203  11.189 -0.2689 -0.5966  0.6410
  540TMC3    H1 8019   0.669   4.293  11.581 -1.1501 -1.5423 -0.0161
  540TMC3    H2 8020   0.550   4.539  11.252  2.3670 -0.2168 -0.9709
  540TMC3    C7 8021   0.553   4.526  11.513 -0.0045 -0.3795 -0.7882
  540TMC3    C8 8022   0.656   4.395  11.063  0.0206  0.3667  0.2194
  540TMC3    O1 8023   0.455   4.593  11.478  0.2073 -0.0174 -0.1702
  540TMC3    O2 8024   0.593   4.488  11.021  0.4373  0.9461  0.3661
  541MPD2     C 8025   4.316   1.758  13.240 -0.2991 -0.6170 -0.3152
  541MPD2    C1 8026   4.339   1.629  13.175 -0.5299 -0.0185 -0.4351
  541MPD2    C2 8027   4.353   1.633  13.039  0.4968 -0.0170 -0.1560
  541MPD2    C3 8028   4.351   1.755  12.970 -0.2516  0.0071  0.5647
  541MPD2    C4 8029   4.349   1.877  13.048  0.4932 -0.4396  0.5586
  541MPD2    C5 8030   4.327   1.878  13.180 -0.4496  0.3759 -0.5889
  541MPD2     H 8031   4.358   1.540  12.984  1.8925  0.6148 -1.1008
  541MPD2    H1 8032   4.376   1.975  13.009 -2.8100  1.3558  2.7110
  541MPD2    H2 8033   4.300   1.751  13.347  2.9397  0.5026  0.2421
  541MPD2    H3 8034   4.315   1.969  13.237  2.2233  0.2343  0.2158
  541MPD2     N 8035   4.364   1.773  12.828  0.6348 -0.2103 -0.0535
  541MPD2    H5 8036   4.358   1.866  12.790  0.6585 -0.4116 -0.5489
  541MPD2    N1 8037   4.345   1.503  13.243  0.0290 -0.1863  0.4525
  541MPD2    H7 8038   4.321   1.505  13.342  2.1012 -4.2344  1.0307
  542TMC3    C1 8039   4.333   1.722  12.598 -0.2330  0.1018  0.0152
  542TMC3    C2 8040   4.366   1.633  12.504 -0.0020 -0.6577 -0.4720
  542TMC3    C3 8041   4.326   1.663  12.372 -0.8753  0.0472  0.0279
  542TMC3    C4 8042   4.249   1.825  12.569 -0.1115  0.8374 -0.2001
  542TMC3    C5 8043   4.214   1.853  12.437 -0.1080 -0.2199 -0.5390
  542TMC3    C6 8044   4.260   1.775  12.336 -0.4073  0.1426  0.0366
  542TMC3     C 8045   4.364   1.672  12.733 -0.0136 -0.1098 -0.2244
  542TMC3     O 8046   4.402   1.556  12.750 -0.9380  0.2533 -0.9275
  542TMC3     H 8047   4.422   1.542  12.524  0.3876 -0.5937 -1.2412
  542TMC3    H1 8048   4.207   1.879  12.653 -0.6406  1.2348 -0.7169
  542TMC3    H2 8049   4.230   1.782  12.232 -1.7368 -1.0238  0.3364
  542TMC3    C7 8050   4.175   1.986  12.406  0.1852 -0.5981  0.8844
  542TMC3    C8 8051   4.392   1.581  12.264  0.3028 -0.1012  0.0668
  542TMC3    O1 8052   4.190   2.061  12.499 -1.2295 -0.8362 -0.2023
  542TMC3    O2 8053   4.341   1.600  12.154  0.3221 -0.0785 -0.5060
  543TMC3    C1 8054   3.382   2.347  17.071 -0.5510  0.2172  0.5480
  543TMC3    C2 8055   3.414   2.239  17.147 -0.3195 -0.2933  0.5843
  543TMC3    C3 8056   3.327   2.207  17.249 -0.5832  0.0721  0.2578
  543TMC3    C4 8057   3.272   2.424  17.096 -1.0599  0.2114  0.7878
  543TMC3    C5 8058   3.184   2.385  17.196 -0.1149  0.1988  0.4462
  543TMC3    C6 8059   3.214   2.277  17.275 -0.7497  0.0983 -0.0796
  543TMC3     C 8060   3.450   2.349  16.942  0.4224  0.0377  0.3180
  543TMC3     O 8061   3.557   2.290  16.941 -0.1874 -0.9780  0.4036
  543TMC3     H 8062   3.503   2.178  17.132  0.5436  1.5566 -1.8755
  543TMC3    H1 8063   3.246   2.497  17.021 -0.9656 -0.6418 -0.0739
  543TMC3    H2 8064   3.156   2.251  17.362 -1.1588 -0.6622 -0.5741
  543TMC3    C7 8065   3.109   2.497  17.250 -0.4250 -0.9329 -0.0243
  543TMC3    C8 8066   3.347   2.068  17.295 -0.7281 -0.0965 -0.2778
  543TMC3    O1 8067   3.059   2.576  17.169  0.1415  0.1680 -0.8829
  543TMC3    O2 8068   3.434   2.002  17.236  0.0775 -0.3812  0.4679
  544MPD2     C 8069   3.193   1.663  17.533  0.2279 -0.5206 -0.1415
  544MPD2    C1 8070   3.276   1.670  17.429 -0.5441  0.9215 -0.2515
  544MPD2    C2 8071   3.293   1.795  17.370 -0.0429  0.2910  0.3552
  544MPD2    C3 8072   3.233   1.907  17.429  0.1323 -0.1567 -0.2600
  544MPD2    C4 8073   3.154   1.897  17.536 -0.2487 -0.3258  0.0689
  544MPD2    C5 8074   3.131   1.773  17.587  1.0202  0.0635 -0.1163
  544MPD2     H 8075   3.349   1.807  17.278  0.0754  1.9853  0.6341
  544MPD2    H1 8076   3.109   1.987  17.578 -0.9303  0.1488 -1.6913
  544MPD2    H2 8077   3.160   1.571  17.580 -0.2814  0.9277  2.3859
  544MPD2    H3 8078   3.066   1.762  17.673  1.5460 -2.3362 -0.0259
  544MPD2     N 8079   3.257   2.032  17.383  0.1549  0.1573  0.2258
  544MPD2    H5 8080   3.225   2.114  17.432 -0.6347  0.0606 -0.1280
  544MPD2    N1 8081   3.341   1.554  17.384 -0.3636 -0.6300  0.6778
  544MPD2    H7 8082   3.316   1.474  17.443 -2.4426  1.2246  2.3123
  545TMC3    C1 8083   3.480   1.412  17.258 -0.5171 -0.4148  0.2764
  545TMC3    C2 8084   3.560   1.409  17.148 -0.0184 -0.1562  0.0659
  545TMC3    C3 8085   3.658   1.313  17.140  0.0429 -0.2579 -0.0325
  545TMC3    C4 8086   3.497   1.329  17.363  0.2204  0.4686 -0.5575
  545TMC3    C5 8087   3.604   1.241  17.361 -0.4631 -0.9729 -0.0000
  545TMC3    C6 8088   3.681   1.230  17.249  0.3384  0.4914 -0.2514
  545TMC3     C 8089   3.430   1.545  17.286 -0.0678 -0.7734 -0.9302
  545TMC3     O 8090   3.483   1.641  17.227 -0.0690  0.1776 -0.3339
  545TMC3     H 8091   3.556   1.489  17.076  2.1827 -0.4249 -0.3783
  545TMC3    H1 8092   3.447   1.345  17.458 -1.6220  0.4256 -1.5225
  545TMC3    H2 8093   3.748   1.148  17.227  2.1888  2.0124 -0.2780
  545TMC3    C7 8094   3.610   1.134  17.461  0.3709 -0.0900 -0.2943
  545TMC3    C8 8095   3.761   1.324  17.038 -0.0099 -0.2962  0.0728
  545TMC3    O1 8096   3.504   1.112  17.518  0.0537 -0.6627  0.3189
  545TMC3    O2 8097   3.721   1.364  16.930  0.4082 -0.7348  0.3593
  546MPD2     C 8098   4.721   2.164  16.869 -0.6539 -0.5950 -0.5043
  546MPD2    C1 8099   4.685   2.203  16.996 -0.4457  0.1730  0.4380
  546MPD2    C2 8100   0.052   2.273  17.073  0.6818 -0.3640 -0.6572
  546MPD2    C3 8101   0.175   2.293  17.025  0.1462 -0.2560  0.3507
  546MPD2    C4 8102   0.221   2.254  16.903  0.1498  0.5443  0.1554
  546MPD2    C5 8103   0.127   2.195  16.819 -0.8374 -0.4140  0.3769
  546MPD2     H 8104   0.043   2.304  17.177 -1.5000 -2.7635 -0.1470
  546MPD2    H1 8105   0.322   2.268  16.866 -0.1928  2.1313 -0.1999
  546MPD2    H2 8106   4.652   2.109  16.806 -1.1755 -0.2799 -0.2122
  546MPD2    H3 8107   0.148   2.177  16.714  2.5266 -0.3909  1.0724
  546MPD2     N 8108   0.268   2.370  17.098 -0.1497 -0.5690  0.7353
  546MPD2    H5 8109   0.232   2.397  17.189 -0.9189 -1.2225  0.6194
  546MPD2    N1 8110   4.555   2.161  17.043  0.0576  0.4189  0.2002
  546MPD2    H7 8111   4.488   2.110  16.986  0.0044 -0.2285  0.8467
  547TMC3    C1 8112   4.402   2.102  17.196 -0.2162 -0.3877 -0.8688
  547TMC3    C2 8113   4.370   1.997  17.114 -0.0702 -0.3367 -0.7721
  547TMC3    C3 8114   4.244   1.936  17.142  0.5930  0.3490  0.1792
  547TMC3    C4 8115   4.339   2.133  17.304 -0.2462 -0.8902  0.0198
  547TMC3    C5 8116   4.219   2.069  17.333  0.0198 -0.0854  0.6131
  547TMC3    C6 8117   4.166   1.972  17.250 -0.4177  0.0156 -0.0261
  547TMC3     C 8118   4.523   2.180  17.173  0.0438 -0.4658 -0.0538
  547TMC3     O 8119   4.571   2.249  17.258  0.2390 -0.8489 -0.6880
  547TMC3     H 8120   4.446   1.953  17.052 -0.7313 -1.9566 -0.4236
  547TMC3    H1 8121   4.384   2.210  17.365 -0.6797 -0.5780 -0.0563
  547TMC3    H2 8122   4.072   1.920  17.264  0.0796 -1.6234 -2.8769
  547TMC3    C7 8123   4.132   2.139  17.427  0.7539 -0.5007  0.1578
  547TMC3    C8 8124   4.198   1.847  17.043 -0.0600 -0.5361  0.1736
  547TMC3    O1 8125   4.180   2.225  17.494 -0.3321  0.0705  0.5507
  547TMC3    O2 8126   4.239   1.875  16.933  0.0427 -0.0839 -0.3542
  548MPD2     C 8127   0.138   3.275  12.045  1.4351  0.3706  1.0393
  548MPD2    C1 8128   0.084   3.272  12.165 -0.8887 -0.2829 -0.4271
  548MPD2    C2 8129   0.102   3.153  12.237 -0.4250  0.2685  1.1209
  548MPD2    C3 8130   0.163   3.040  12.184  0.2183 -0.0499 -0.0884
  548MPD2    C4 8131   0.218   3.050  12.063  0.6861 -0.0920  0.4310
  548MPD2    C5 8132   0.211   3.166  11.995 -0.0033 -0.0508 -0.3888
  548MPD2     H 8133   0.046   3.145  12.330 -2.3794  0.5820 -0.0248
  548MPD2    H1 8134   0.272   2.970  12.014  0.3812  0.1766 -0.3423
  548MPD2    H2 8135   0.126   3.362  11.980  0.7454 -0.4579  0.0514
  548MPD2    H3 8136   0.260   3.168  11.898  2.3033 -1.5945  0.7295
  548MPD2     N 8137   0.175   2.921  12.258  1.0181 -0.9664 -0.2028
  548MPD2    H5 8138   0.113   2.912  12.338 -1.2467 -0.0676 -1.8499
  548MPD2    N1 8139   4.717   3.362  12.218 -0.3995 -0.2467  0.0858
  548MPD2    H7 8140   4.705   3.346  12.318 -0.9955  2.9137  0.5397
  549TMC3    C1 8141   4.506   3.459  12.199 -0.4633 -0.8140 -0.2706
  549TMC3    C2 8142   4.415   3.533  12.130 -0.4626  0.0393  0.0972
  549TMC3    C3 8143   4.285   3.516  12.151 -0.5440  0.0452 -0.2006
  549TMC3    C4 8144   4.463   3.371  12.294  0.4570  0.1161  0.6684
  549TMC3    C5 8145   4.326   3.354  12.307  0.2469  0.1425 -0.3588
  549TMC3    C6 8146   4.235   3.434  12.254 -0.1623  0.4096  0.4801
  549TMC3     C 8147   4.643   3.449  12.150 -0.4443 -0.6582 -0.3480
  549TMC3     O 8148   4.671   3.506  12.042  0.4653 -0.2430  0.1049
  549TMC3     H 8149   4.456   3.596  12.052 -1.2006 -1.1403 -1.2496
  549TMC3    H1 8150   4.521   3.323  12.371 -0.0154 -0.8847  0.4028
  549TMC3    H2 8151   4.130   3.413  12.271 -0.5587  3.1439  1.4909
  549TMC3    C7 8152   4.276   3.256  12.399  0.1589  1.0420  0.0867
  549TMC3    C8 8153   4.186   3.606  12.093 -0.3432  0.6991  0.2464
  549TMC3    O1 8154   4.179   3.300  12.460 -0.6297 -0.5403 -0.2526
  549TMC3    O2 8155   4.078   3.551  12.071  0.5342  0.1008 -0.2098
  550TMC3    C1 8156   3.945   0.844  12.679 -0.3921 -0.1654 -0.3119
  550TMC3    C2 8157   3.893   0.919  12.774 -0.2422 -0.1464  0.3041
  550TMC3    C3 8158   3.870   1.051  12.749  0.4465  0.4415  0.6654
  550TMC3    C4 8159   3.975   0.895  12.554 -0.0734  0.4349  0.7844
  550TMC3    C5 8160   3.947   1.027  12.524  0.8079  0.1801 -0.3550
  550TMC3    C6 8161   3.899   1.104  12.633 -0.5266  0.0234  0.3460
  550TMC3     C 8162   3.883   0.719  12.662 -0.4129 -0.2929 -0.7520
  550TMC3     O 8163   3.890   0.641  12.756  0.5979  0.4346 -0.2289
  550TMC3     H 8164   3.852   0.873  12.864 -0.2136 -2.2995 -0.7961
  550TMC3    H1 8165   4.004   0.823  12.478  3.8695  2.1915  0.6292
  550TMC3    H2 8166   3.864   1.206  12.620  1.2459  0.7601  1.4182
  550TMC3    C7 8167   3.858   1.030  12.404 -0.1159  0.2623  0.1050
  550TMC3    C8 8168   3.758   1.115  12.814 -0.2043  0.2615 -0.2625
  550TMC3    O1 8169   3.797   0.925  12.378 -0.3236  0.4313 -0.6279
  550TMC3    O2 8170   3.742   1.237  12.821  0.3193  0.3918  0.3005
  551TMC3    C1 8171   1.123   3.537  13.082  0.1585  0.0825  0.3890
  551TMC3    C2 8172   1.231   3.522  12.998 -1.4713 -0.1196  0.3567
  551TMC3    C3 8173   1.328   3.620  13.007 -0.0602  0.3431  0.9405
  551TMC3    C4 8174   1.119   3.638  13.182  0.3431 -1.0213 -0.0901
  551TMC3    C5 8175   1.222   3.728  13.191  0.3597  0.2488  0.0653
  551TMC3    C6 8176   1.329   3.724  13.106 -0.4144 -0.6577  0.5613
  551TMC3     C 8177   1.007   3.459  13.051  0.5260 -0.3344 -0.0375
  551TMC3     O 8178   0.999   3.412  12.937  0.2048 -0.2350  0.6864
  551TMC3     H 8179   1.226   3.453  12.914  0.0594 -1.2630  1.2137
  551TMC3    H1 8180   1.028   3.655  13.239  0.8427 -0.2236  0.4652
  551TMC3    H2 8181   1.406   3.799  13.106 -0.9417 -0.1197 -0.4950
  551TMC3    C7 8182   1.228   3.815  13.303  0.0447  0.0349  0.2879
  551TMC3    C8 8183   1.440   3.616  12.916 -0.2560  0.6807  0.0691
  551TMC3    O1 8184   1.334   3.869  13.339 -0.1686 -0.4893 -0.1527
  551TMC3    O2 8185   1.485   3.502  12.889  0.3975  0.1327  0.4569
  552MPD2     C 8186   3.147   0.807  13.946  0.3828  0.0102  0.3891
  552MPD2    C1 8187   3.268   0.870  13.953  0.6935 -0.0066  1.0508
  552MPD2    C2 8188   3.318   0.900  14.074 -0.2552 -0.1168  0.2488
  552MPD2    C3 8189   3.252   0.866  14.188  0.7700  0.2883 -0.4976
  552MPD2    C4 8190   3.125   0.812  14.185 -0.0295  0.3587  0.3987
  552MPD2    C5 8191   3.078   0.784  14.058 -0.2791 -0.0816  0.4133
  552MPD2     H 8192   3.414   0.950  14.068 -0.5987  0.6315  0.9700
  552MPD2    H1 8193   3.073   0.773  14.271 -0.0287  3.0379  1.6147
  552MPD2    H2 8194   3.112   0.772  13.850 -0.9402  2.7183 -0.1003
  552MPD2    H3 8195   2.985   0.729  14.050 -1.1071  1.3253  0.5878
  552MPD2     N 8196   3.309   0.885  14.311 -0.0729 -0.0323  0.9435
  552MPD2    H5 8197   3.256   0.850  14.390 -1.6717  0.4573  0.1010
  552MPD2    N1 8198   3.351   0.901  13.844  0.1996  0.9806  0.2801
  552MPD2    H7 8199   3.439   0.943  13.873 -1.1509  3.2852  1.0742
  553TMC3    C1 8200   3.477   0.843  13.645 -0.3029  0.4449 -0.3456
  553TMC3    C2 8201   3.491   0.745  13.551 -1.1391  0.0549  0.1525
  553TMC3    C3 8202   3.615   0.723  13.501 -0.3320 -0.2417 -0.2191
  553TMC3    C4 8203   3.592   0.900  13.707  0.0590  0.6699 -1.0188
  553TMC3    C5 8204   3.711   0.873  13.654 -0.2076 -0.8349 -0.2216
  553TMC3    C6 8205   3.721   0.798  13.543  0.0691  0.5304  0.0849
  553TMC3     C 8206   3.353   0.833  13.724 -0.4422 -0.7009  0.0696
  553TMC3     O 8207   3.269   0.749  13.687 -0.1641  0.1460 -0.2782
  553TMC3     H 8208   3.409   0.683  13.517 -0.3096  0.6349 -2.9327
  553TMC3    H1 8209   3.590   0.971  13.789  1.2543 -2.5105  1.7900
  553TMC3    H2 8210   3.823   0.772  13.516  0.1716  1.4440 -0.4297
  553TMC3    C7 8211   3.810   0.838  13.754 -0.0999  0.6128 -0.1199
  553TMC3    C8 8212   3.655   0.583  13.482 -0.5046 -0.2204  0.2642
  553TMC3    O1 8213   3.852   0.934  13.816 -0.3237 -0.8021 -0.4410
  553TMC3    O2 8214   3.765   0.564  13.526  0.0391  0.0733 -0.3897
  554TMC3    C1 8215   0.069   4.583  11.514 -0.3268 -0.0195  0.1829
  554TMC3    C2 8216   0.009   4.498  11.429 -0.4024 -0.3952  0.2699
  554TMC3    C3 8217   4.671   4.554  11.322 -0.5519  0.5273 -0.0904
  554TMC3    C4 8218   0.075   4.717  11.499  0.1204  0.3038  0.8361
  554TMC3    C5 8219   0.022   0.039  11.382 -0.1126 -0.2001  0.2277
  554TMC3    C6 8220   4.685   4.686  11.292 -0.2745 -0.3499 -0.3717
  554TMC3     C 8221   0.144   4.532  11.627  0.4523  0.3204 -0.6562
  554TMC3     O 8222   0.165   4.608  11.722  0.0370 -0.3017 -0.0687
  554TMC3     H 8223   0.018   4.390  11.426 -2.5231 -0.5171 -0.9070
  554TMC3    H1 8224   0.132   0.053  11.568  2.1348 -0.0268 -0.5363
  554TMC3    H2 8225   4.643   4.722  11.199 -1.5010 -0.5788  0.0961
  554TMC3    C7 8226   0.088   0.154  11.324 -0.2726  0.6365 -0.6311
  554TMC3    C8 8227   4.623   4.461  11.217  0.1943 -0.1546  0.3520
  554TMC3    O1 8228   0.029   0.207  11.232 -0.0376 -0.1320 -0.0228
  554TMC3    O2 8229   4.627   4.507  11.103  0.2853 -0.1745  0.3050
  555TMC3    C1 8230   4.274   3.871  14.619 -0.0603  0.0750 -0.9263
  555TMC3    C2 8231   4.295   3.974  14.704 -0.6507 -0.1498 -0.0223
  555TMC3    C3 8232   4.356   3.940  14.824 -0.7393  0.1670 -0.4971
  555TMC3    C4 8233   4.302   3.740  14.652  0.0977 -0.5207 -0.0197
  555TMC3    C5 8234   4.342   3.713  14.778 -0.5894  0.0364 -0.1815
  555TMC3    C6 8235   4.364   3.813  14.872 -0.0365 -0.0930  0.1174
  555TMC3     C 8236   4.245   3.902  14.475 -0.0421 -1.0209 -0.2425
  555TMC3     O 8237   4.301   3.846  14.382 -0.0837  0.8134 -0.4587
  555TMC3     H 8238   4.272   4.076  14.675  0.3218 -0.9069 -3.5211
  555TMC3    H1 8239   4.280   3.659  14.584  2.8267 -1.8813  0.7326
  555TMC3    H2 8240   4.406   3.786  14.969 -2.9347  0.9592  1.6634
  555TMC3    C7 8241   4.338   3.575  14.826 -0.0850  0.5223 -0.0252
  555TMC3    C8 8242   4.373   4.053  14.922  0.4978  0.8082 -0.2277
  555TMC3    O1 8243   4.328   3.555  14.945  0.5727  0.5505 -0.0733
  555TMC3    O2 8244   4.320   4.162  14.892  0.4263 -0.0773  0.0049
  556MPD2     C 8245   2.362   1.103  10.756  0.5167  0.3821  0.0296
  556MPD2    C1 8246   2.318   0.991  10.817  0.0162  0.4512 -0.2685
  556MPD2    C2 8247   2.236   0.903  10.755 -0.1299 -0.4121  0.2500
  556MPD2    C3 8248   2.189   0.928  10.627 -0.0206  0.2287 -0.5845
  556MPD2    C4 8249   2.237   1.046  10.570 -0.4629  0.6847 -0.1991
  556MPD2    C5 8250   2.329   1.125  10.630  0.3172 -0.1991  0.2834
  556MPD2     H 8251   2.208   0.815  10.813 -1.1982  0.3806  0.9329
  556MPD2    H1 8252   2.215   1.072  10.467 -1.4987  2.1788  0.4106
  556MPD2    H2 8253   2.429   1.179  10.795  1.6121 -1.2717  1.3393
  556MPD2    H3 8254   2.368   1.206  10.568  0.0373  0.1864  0.6072
  556MPD2     N 8255   2.116   0.826  10.553  0.6843 -0.1034 -0.3196
  556MPD2    H5 8256   2.108   0.731  10.588 -0.3232  0.8245  2.0128
  556MPD2    N1 8257   2.345   0.968  10.959  0.0568 -0.4377  0.5247
  556MPD2    H7 8258   2.307   0.883  11.000 -0.9002 -0.0463  0.4480
  557TMC3    C1 8259   1.998   0.726  10.378  0.9873  0.3295  0.4114
  557TMC3    C2 8260   1.953   0.725  10.253  0.2240 -0.6909 -0.3406
  557TMC3    C3 8261   1.887   0.611  10.212 -0.5581 -0.0094  0.5028
  557TMC3    C4 8262   1.972   0.627  10.473  0.5722  0.0782  0.0657
  557TMC3    C5 8263   1.893   0.520  10.425 -0.1444  0.8489 -0.1315
  557TMC3    C6 8264   1.853   0.510  10.298 -0.2769  0.3746  0.5846
  557TMC3     C 8265   2.061   0.842  10.428 -0.5224  0.4674  1.1539
  557TMC3     O 8266   2.070   0.934  10.346  0.3577 -0.0282 -0.4288
  557TMC3     H 8267   1.960   0.810  10.186  1.6942 -0.3601  0.2243
  557TMC3    H1 8268   2.025   0.620  10.567 -0.0583 -0.1698  0.4056
  557TMC3    H2 8269   1.801   0.420  10.267 -0.2344  0.6093 -0.1619
  557TMC3    C7 8270   1.908   0.410  10.511  0.1065  0.3740  0.8044
  557TMC3    C8 8271   1.830   0.617  10.077  0.3523 -0.6445  0.0124
  557TMC3    O1 8272   1.966   0.313  10.462 -0.5387  0.6760 -0.0206
  557TMC3    O2 8273   1.828   0.725  10.020  0.0813 -0.0307 -0.1475
  558TMC3    C1 8274   1.139   2.218   9.552  0.8806  0.3170  0.7094
  558TMC3    C2 8275   1.016   2.223   9.497  0.8345  0.0159  0.0478
  558TMC3    C3 8276   0.974   2.115   9.429  0.4856  0.7055  1.1460
  558TMC3    C4 8277   1.219   2.110   9.539  0.0151  0.3958 -0.4337
  558TMC3    C5 8278   1.167   2.002   9.466  0.7596 -0.5540  0.7373
  558TMC3    C6 8279   1.046   2.003   9.411 -0.5651 -0.8627  0.4150
  558TMC3     C 8280   1.185   2.340   9.633 -0.0950 -0.1428  0.2133
  558TMC3     O 8281   1.303   2.371   9.631 -0.1948  0.2456 -0.0394
  558TMC3     H 8282   0.964   2.318   9.493  1.8868  0.5379 -1.1950
  558TMC3    H1 8283   1.318   2.098   9.583 -1.1493 -1.6856  1.5850
  558TMC3    H2 8284   0.997   1.919   9.364 -0.2103 -1.6240  1.4236
  558TMC3    C7 8285   1.210   1.869   9.496  0.0440 -0.2245  0.0196
  558TMC3    C8 8286   0.834   2.091   9.403  0.3829  0.4719  0.0666
  558TMC3    O1 8287   1.328   1.866   9.521  0.2446  0.5361 -0.3306
  558TMC3    O2 8288   0.797   2.022   9.308  0.6546 -0.3605 -0.2008
  559MPD2     C 8289   4.654   3.891  10.303 -0.2708  0.7656 -0.4754
  559MPD2    C1 8290   4.632   3.759  10.266 -0.1936 -0.2150 -0.2351
  559MPD2    C2 8291   0.015   3.675  10.281 -0.4606  0.2529  0.3275
  559MPD2    C3 8292   0.140   3.707  10.333 -0.4462  0.0498 -0.3189
  559MPD2    C4 8293   0.159   3.835  10.371  0.6618 -0.5763 -0.2161
  559MPD2    C5 8294   0.052   3.925  10.359 -0.1876  0.2589 -0.3171
  559MPD2     H 8295   4.720   3.569  10.274  3.3529 -0.4578  0.1714
  559MPD2    H1 8296   0.245   3.872  10.425  0.9074  1.6849 -2.1907
  559MPD2    H2 8297   4.578   3.968  10.306 -0.8834  0.1242  0.2006
  559MPD2    H3 8298   0.073   4.024  10.397 -0.5138  0.4788 -0.7117
  559MPD2     N 8299   0.234   3.594  10.354 -0.2411 -0.1554 -0.4355
  559MPD2    H5 8300   0.199   3.506  10.319 -0.3665  0.3629 -1.6169
  559MPD2    N1 8301   4.499   3.720  10.229  0.5872 -0.1834  0.4080
  559MPD2    H7 8302   4.429   3.793  10.220  0.2794 -0.3803  1.1443
  560TMC3    C1 8303   0.425   3.474  10.429  0.1084  0.6659 -0.0829
  560TMC3    C2 8304   0.410   3.375  10.332 -0.0764  0.4779  0.0398
  560TMC3    C3 8305   0.462   3.256  10.358 -0.0778  0.2273  0.6658
  560TMC3    C4 8306   0.494   3.451  10.542 -0.1525  0.0647 -0.0193
  560TMC3    C5 8307   0.541   3.330  10.568  0.0187  0.2612  0.0864
  560TMC3    C6 8308   0.518   3.228  10.482 -0.1448 -0.2819 -0.3254
  560TMC3     C 8309   0.361   3.603  10.413  0.1772 -0.3191 -0.0083
  560TMC3     O 8310   0.412   3.684  10.491 -0.2681 -0.0604  0.2509
  560TMC3     H 8311   0.356   3.399  10.240 -0.2991 -0.6527 -0.1213
  560TMC3    H1 8312   0.504   3.527  10.619  2.0362 -0.3972  0.1595
  560TMC3    H2 8313   0.539   3.123  10.502 -0.0285 -0.1631  0.1828
  560TMC3    C7 8314   0.587   3.292  10.704  0.7352  0.3875  0.1008
  560TMC3    C8 8315   0.450   3.143  10.266  0.1079  0.1326 -0.4124
  560TMC3    O1 8316   0.558   3.175  10.736 -0.2952  0.0346  0.8049
  560TMC3    O2 8317   0.436   3.029  10.314 -0.1675  0.4505  0.0106
  561TMC3    C1 8318   2.810   2.380  11.009  0.4505 -0.4174 -0.6363
  561TMC3    C2 8319   2.781   2.316  11.126  0.2037 -0.0587 -0.0800
  561TMC3    C3 8320   2.738   2.407  11.222  0.0898  0.2464  0.1714
  561TMC3    C4 8321   2.805   2.514  10.981 -0.0764  0.2162  0.3450
  561TMC3    C5 8322   2.777   2.595  11.081  0.6913  0.2376 -0.0231
  561TMC3    C6 8323   2.744   2.546  11.206  0.4640  0.4605  0.0274
  561TMC3     C 8324   2.846   2.289  10.902  0.0136 -1.0127  0.4461
  561TMC3     O 8325   2.841   2.337  10.788  1.1887  0.1156 -0.3699
  561TMC3     H 8326   2.762   2.213  11.151  3.0622 -0.4245  0.5290
  561TMC3    H1 8327   2.812   2.542  10.876  3.0011 -0.0898  0.4744
  561TMC3    H2 8328   2.736   2.607  11.296 -2.5261 -0.4639  0.3962
  561TMC3    C7 8329   2.796   2.732  11.069 -0.6204 -0.6518 -0.8149
  561TMC3    C8 8330   2.707   2.345  11.355 -0.5836 -0.2490  0.2549
  561TMC3    O1 8331   2.762   2.796  11.172 -0.2130 -0.3236  0.1525
  561TMC3    O2 8332   2.749   2.233  11.380  0.4283 -0.7340 -1.0008
  562TMC3    C1 8333   3.859   4.125  15.991 -0.7703 -0.4471 -0.2761
  562TMC3    C2 8334   3.747   4.207  15.997 -0.8540  0.1227 -0.2578
  562TMC3    C3 8335   3.705   4.266  15.879  0.1075  0.4230  0.2782
  562TMC3    C4 8336   3.924   4.114  15.871 -0.2187 -0.2642 -0.1507
  562TMC3    C5 8337   3.882   4.176  15.755  0.0094  0.1379  0.0239
  562TMC3    C6 8338   3.767   4.253  15.756 -0.5596  0.3014  0.9145
  562TMC3     C 8339   3.886   4.045  16.108 -0.5496  0.0715 -0.9022
  562TMC3     O 8340   3.818   4.072  16.207  0.1850  0.1272 -0.5907
  562TMC3     H 8341   3.696   4.227  16.091  1.7195 -1.0815  1.3899
  562TMC3    H1 8342   4.000   4.036  15.874 -1.8194 -1.7023  3.8709
  562TMC3    H2 8343   3.754   4.322  15.673  1.7875  0.7567  0.9160
  562TMC3    C7 8344   3.943   4.153  15.627  0.3444  0.0953 -0.4742
  562TMC3    C8 8345   3.576   4.326  15.879 -0.2529  0.2074  0.0369
  562TMC3    O1 8346   3.889   4.208  15.537 -0.1565 -0.0087  0.7120
  562TMC3    O2 8347   3.524   4.344  15.989 -0.4618 -0.7188  0.5578
  563MPD2     C 8348   1.528   0.198  15.627  0.1493 -0.5767 -0.0725
  563MPD2    C1 8349   1.492   0.316  15.692  0.5066  0.0930  0.6979
  563MPD2    C2 8350   1.597   0.398  15.732 -0.7623 -0.2401  0.2698
  563MPD2    C3 8351   1.731   0.354  15.722 -0.6106  0.2439  0.7776
  563MPD2    C4 8352   1.761   0.237  15.659  0.4615  0.8145  0.5719
  563MPD2    C5 8353   1.663   0.158  15.609 -0.5553 -0.9380 -0.0876
  563MPD2     H 8354   1.575   0.489  15.788  0.6525  1.1627 -1.4594
  563MPD2    H1 8355   1.864   0.202  15.664  0.1205 -0.3313 -0.4814
  563MPD2    H2 8356   1.458   0.124  15.590 -1.5150  1.2003 -0.4909
  563MPD2    H3 8357   1.683   0.061  15.565  1.5065 -0.1365 -0.9017
  563MPD2     N 8358   1.817   0.418  15.811 -0.2080  0.3543  0.1382
  563MPD2    H5 8359   1.775   0.484  15.875  0.7121  1.1057 -0.0395
  563MPD2    N1 8360   1.356   0.345  15.718 -0.2396  0.4056 -0.3052
  563MPD2    H7 8361   1.281   0.283  15.689 -0.7372  1.6657 -1.7011
  564TMC3    C1 8362   1.193   0.385  15.876  0.3559  0.6018 -0.0477
  564TMC3    C2 8363   1.147   0.274  15.809  0.7621 -0.0291 -0.2864
  564TMC3    C3 8364   1.078   0.186  15.882  0.0351  0.4389 -0.5125
  564TMC3    C4 8365   1.176   0.405  16.013  0.1433  0.3644 -0.3805
  564TMC3    C5 8366   1.124   0.302  16.084 -0.2896  0.3331  0.3714
  564TMC3    C6 8367   1.070   0.193  16.021 -0.2904  0.4423  0.3170
  564TMC3     C 8368   1.319   0.426  15.827 -0.2381  0.0225  0.3211
  564TMC3     O 8369   1.385   0.512  15.888  0.1365  0.1577  0.0650
  564TMC3     H 8370   1.142   0.272  15.701 -0.5221  1.6665 -0.2681
  564TMC3    H1 8371   1.229   0.484  16.064  0.2801  0.2369 -0.3253
  564TMC3    H2 8372   1.008   0.124  16.077 -1.1064  0.3739 -0.6854
  564TMC3    C7 8373   1.218   0.254  16.185 -0.2371 -0.8674  0.1122
  564TMC3    C8 8374   1.111   0.045  15.855  0.3934  0.9104  0.2853
  564TMC3    O1 8375   1.288   0.335  16.243  0.0219  0.5394  0.3024
  564TMC3    O2 8376   1.113   4.706  15.959  0.4142 -0.3292  0.5397
  565TMC3    C1 8377   3.031   1.982   9.317 -0.4217  0.1977 -0.6939
  565TMC3    C2 8378   3.115   1.879   9.306 -0.9724 -0.0556  0.7065
  565TMC3    C3 8379   3.044   1.761   9.279 -0.6619  0.2874 -0.6332
  565TMC3    C4 8380   2.894   1.983   9.314  0.1234  0.0083  1.0800
  565TMC3    C5 8381   2.837   1.863   9.297  0.5591 -0.2805 -0.5399
  565TMC3    C6 8382   2.909   1.752   9.273  0.1777  0.1721  0.0720
  565TMC3     C 8383   3.082   2.113   9.316  0.3912  0.8697  0.2596
  565TMC3     O 8384   2.997   2.200   9.293 -0.2162 -0.5338 -0.0735
  565TMC3     H 8385   3.223   1.882   9.317 -0.9656  0.0880  0.5950
  565TMC3    H1 8386   2.831   2.069   9.335 -0.5873  0.0411 -1.2418
  565TMC3    H2 8387   2.858   1.666   9.232 -0.4065  0.9668 -0.8759
  565TMC3    C7 8388   2.691   1.870   9.286 -0.4238  0.5907 -0.3124
  565TMC3    C8 8389   3.101   1.644   9.333 -0.5863 -0.3826 -0.2723
  565TMC3    O1 8390   2.636   1.969   9.235 -0.3162  0.0546  0.5432
  565TMC3    O2 8391   3.018   1.552   9.350 -0.7643 -0.1527  0.4288
  566MPD2     C 8392   3.191   4.277  14.394 -0.2918 -0.5286 -0.4759
  566MPD2    C1 8393   3.267   4.178  14.340 -0.7511 -0.3610 -0.0464
  566MPD2    C2 8394   3.223   4.082  14.254 -0.6582  0.3797 -0.1284
  566MPD2    C3 8395   3.089   4.082  14.228  0.2988  0.0103  0.1311
  566MPD2    C4 8396   3.000   4.178  14.288 -0.0615 -0.2957  0.6670
  566MPD2    C5 8397   3.056   4.275  14.375 -0.2160  0.4446 -0.8560
  566MPD2     H 8398   3.285   4.011  14.200 -0.2975 -0.0556  0.8598
  566MPD2    H1 8399   2.896   4.170  14.258  0.0511 -0.4157  0.3103
  566MPD2    H2 8400   3.228   4.353  14.463 -1.5404 -0.9093  0.6286
  566MPD2    H3 8401   2.984   4.337  14.426  0.1998  1.3948 -1.4342
  566MPD2     N 8402   3.041   3.994  14.125  0.5017 -0.4941  0.2299
  566MPD2    H5 8403   3.101   3.921  14.088  0.1380 -0.5205 -0.3122
  566MPD2    N1 8404   3.407   4.184  14.358  0.0534  0.0050 -0.1762
  566MPD2    H7 8405   3.428   4.281  14.381  1.9239 -0.4176 -0.1324
  567TMC3    C1 8406   3.630   4.144  14.316  0.4062 -0.1276  0.4812
  567TMC3    C2 8407   3.649   4.247  14.219  0.6679  0.0051  0.1894
  567TMC3    C3 8408   3.756   4.238  14.144  0.5953  0.1367 -0.4278
  567TMC3    C4 8409   3.726   4.052  14.341  1.2636  0.0991 -0.2574
  567TMC3    C5 8410   3.836   4.048  14.254 -0.2050  0.0371 -0.2249
  567TMC3    C6 8411   3.851   4.140  14.154 -0.0401  0.3811 -0.3751
  567TMC3     C 8412   3.492   4.086  14.320  0.2009 -0.0264  0.3110
  567TMC3     O 8413   3.476   3.967  14.318 -0.2891 -0.6460  0.0952
  567TMC3     H 8414   3.573   4.320  14.194  0.6875  0.4196  1.3214
  567TMC3    H1 8415   3.693   3.977  14.412  1.1802 -0.1691 -0.5820
  567TMC3    H2 8416   3.940   4.134  14.092 -1.7533 -0.4573 -2.7531
  567TMC3    C7 8417   3.878   3.912  14.214 -0.5039 -0.1740  0.1638
  567TMC3    C8 8418   3.747   4.329  14.027 -0.2896 -0.8922  0.0292
  567TMC3    O1 8419   3.902   3.885  14.096 -0.4839 -0.9242 -0.1832
  567TMC3    O2 8420   3.639   4.374  13.983  0.1528 -0.1294  0.0074
  568MPD2     C 8421   1.515   3.705  16.596  0.2592 -0.3549  0.0420
  568MPD2    C1 8422   1.382   3.732  16.610  0.3496  0.3909 -0.0134
  568MPD2    C2 8423   1.314   3.808  16.516  0.7171  0.2426 -0.1645
  568MPD2    C3 8424   1.374   3.847  16.396  0.0831  0.9033  0.3666
  568MPD2    C4 8425   1.507   3.808  16.385 -0.0268 -0.1080 -0.4220
  568MPD2    C5 8426   1.577   3.751  16.484  0.4651  0.1638 -0.9560
  568MPD2     H 8427   1.210   3.836  16.530  0.9613  2.4563 -2.8528
  568MPD2    H1 8428   1.561   3.817  16.291 -0.5026  1.8548 -0.5183
  568MPD2    H2 8429   1.573   3.641  16.662 -0.8739 -0.1726  1.2142
  568MPD2    H3 8430   1.680   3.731  16.456 -0.1066 -0.4564 -2.6483
  568MPD2     N 8431   1.305   3.918  16.297  0.0239 -0.3732  0.3438
  568MPD2    H5 8432   1.211   3.948  16.320 -0.3755 -0.2575 -1.4428
  568MPD2    N1 8433   1.327   3.674  16.727  0.6601 -0.5810  0.6585
  568MPD2    H7 8434   1.384   3.599  16.764 -1.1974 -2.4663 -0.2554
  569TMC3    C1 8435   1.228   3.999  16.093  0.1180 -0.4777  0.0810
  569TMC3    C2 8436   1.150   4.071  16.164 -0.4958 -0.4296 -0.3775
  569TMC3    C3 8437   1.053   4.139  16.090  0.1332 -0.3648 -0.1312
  569TMC3    C4 8438   1.221   3.983  15.957 -0.6037  0.4502 -0.5789
  569TMC3    C5 8439   1.131   4.052  15.877  1.2767 -0.3678 -0.5148
  569TMC3    C6 8440   1.040   4.125  15.955 -0.4427  0.7226 -0.0032
  569TMC3     C 8441   1.333   3.928  16.166  0.0506 -0.8314  0.4379
  569TMC3     O 8442   1.430   3.893  16.102  0.3244 -0.0490  0.7368
  569TMC3     H 8443   1.155   4.086  16.271 -2.5662 -1.2714 -0.1597
  569TMC3    H1 8444   1.296   3.920  15.910  0.6128  0.8511  0.8335
  569TMC3    H2 8445   0.963   4.179  15.900  0.8732  0.6857 -1.8705
  569TMC3    C7 8446   1.206   4.132  15.775  0.1328 -0.4312 -0.1985
  569TMC3    C8 8447   0.983   4.249  16.146  0.3387  0.0928  0.2860
  569TMC3    O1 8448   1.281   4.082  15.694 -0.3108 -0.0342  0.1692
  569TMC3    O2 8449   0.876   4.279  16.097 -0.4595 -0.1902 -0.1826
  570TMC3    C1 8450   0.507   3.188  16.058 -0.1569  0.3890 -0.0417
  570TMC3    C2 8451   0.527   3.255  15.936  0.0785  0.1876 -0.1000
  570TMC3    C3 8452   0.625   3.359  15.923 -0.2022  0.2771 -0.6619
  570TMC3    C4 8453   0.572   3.230  16.171  0.6806 -0.2620 -0.4520
  570TMC3    C5 8454   0.674   3.315  16.151  0.0182  0.6801 -0.2449
  570TMC3    C6 8455   0.698   3.389  16.038  0.5573 -0.5156  0.4676
  570TMC3     C 8456   0.436   3.061  16.046 -0.2626 -0.4247  0.8316
  570TMC3     O 8457   0.418   3.021  15.930 -0.2173  0.2341  0.6936
  570TMC3     H 8458   0.458   3.233  15.856  0.5386 -1.4322 -0.0393
  570TMC3    H1 8459   0.575   3.167  16.259  0.6729 -2.0640 -1.7415
  570TMC3    H2 8460   0.769   3.470  16.035 -0.9598  0.7167 -2.0647
  570TMC3    C7 8461   0.768   3.330  16.263 -0.3601 -0.2569 -0.4321
  570TMC3    C8 8462   0.704   3.373  15.799  0.1877 -0.0131 -0.3259
  570TMC3    O1 8463   0.726   3.296  16.375 -0.3129 -0.0861  0.1161
  570TMC3    O2 8464   0.816   3.425  15.812 -0.1924 -0.0628  0.2284
  571MPD2     C 8465   3.270   4.104  17.359  0.2261  0.2297 -0.0151
  571MPD2    C1 8466   3.213   4.013  17.448 -0.3812  0.3119 -0.3421
  571MPD2    C2 8467   3.177   4.064  17.572 -0.8900  0.2083 -0.1610
  571MPD2    C3 8468   3.194   4.202  17.598  0.4578  0.1393  0.1421
  571MPD2    C4 8469   3.247   4.287  17.506 -0.5022  0.2645 -0.3655
  571MPD2    C5 8470   3.285   4.240  17.391  0.3265  0.3267 -0.2990
  571MPD2     H 8471   3.128   4.001  17.645 -1.1152 -0.9622 -1.3183
  571MPD2    H1 8472   3.268   4.390  17.530 -0.9680  0.2000  0.3227
  571MPD2    H2 8473   3.297   4.059  17.264 -1.1332  0.2220 -0.4114
  571MPD2    H3 8474   3.318   4.316  17.322  0.4707  0.2886 -0.2707
  571MPD2     N 8475   3.175   4.268   0.023 -0.1307 -0.2456  0.3050
  571MPD2    H5 8476   3.211   4.362   0.035  1.3029 -0.6903 -0.5837
  571MPD2    N1 8477   3.180   3.887  17.400 -0.3188 -0.7315  0.4243
  571MPD2    H7 8478   3.184   3.852  17.304  1.4767  1.0007 -0.1206
  572TMC3    C1 8479   3.084   4.294   0.237  0.2327  0.1320 -0.4969
  572TMC3    C2 8480   3.046   4.236   0.352  0.4812  0.4505 -0.0978
  572TMC3    C3 8481   3.016   4.315   0.459  0.7342  0.6531  0.0988
  572TMC3    C4 8482   3.075   4.429   0.220  0.1785 -0.1554  0.7196
  572TMC3    C5 8483   3.034   4.506   0.326 -0.6871  0.1742  0.2775
  572TMC3    C6 8484   3.002   4.454   0.447 -0.0993 -0.2539 -0.2428
  572TMC3     C 8485   3.121   4.206   0.132 -0.4512  1.4130  0.6895
  572TMC3     O 8486   3.097   4.089   0.146  0.7043 -0.1236 -0.1611
  572TMC3     H 8487   3.049   4.129   0.370  0.5220  0.8203  2.1153
  572TMC3    H1 8488   3.071   4.467   0.118 -0.2829 -1.3133  0.3130
  572TMC3    H2 8489   2.960   4.517   0.525  2.1881 -1.1925  1.7669
  572TMC3    C7 8490   3.031   4.652   0.301 -0.1898  0.4392  0.1449
  572TMC3    C8 8491   2.941   4.254   0.570  0.4695  0.5011  0.4289
  572TMC3    O1 8492   2.944   4.709   0.363  0.0009  0.1365 -0.3284
  572TMC3    O2 8493   2.909   4.137   0.570 -0.9153 -0.4331  0.2001
  573MPD2     C 8494   4.678   1.326   0.475  0.6013  0.3929  0.1316
  573MPD2    C1 8495   4.622   1.218   0.540  0.2207 -0.8577 -0.4686
  573MPD2    C2 8496   4.592   1.107   0.468 -1.1407 -0.0782 -0.8836
  573MPD2    C3 8497   4.620   1.099   0.325  0.1942  0.3802  0.5682
  573MPD2    C4 8498   4.663   1.218   0.268  0.8657  0.0308  0.6937
  573MPD2    C5 8499   4.689   1.329   0.340  0.3171  0.4799 -0.2387
  573MPD2     H 8500   4.556   1.022   0.523 -1.1447  0.7869  0.4423
  573MPD2    H1 8501   4.668   1.229   0.160 -2.2400 -1.8984  0.3645
  573MPD2    H2 8502   4.714   1.414   0.526  0.9098 -0.6127  1.6499
  573MPD2    H3 8503   4.713   1.421   0.287  0.2051  1.9888  2.3692
  573MPD2     N 8504   4.592   0.982   0.246 -0.6966  0.5695  0.4788
  573MPD2    H5 8505   4.617   0.989   0.148  0.8057  0.7081  0.8713
  573MPD2    N1 8506   4.598   1.235   0.676  0.7313 -0.9482  0.4372
  573MPD2    H7 8507   4.633   1.322   0.715  0.3745 -0.4359 -0.3919
  574TMC3    C1 8508   4.473   0.793   0.180 -1.0835  0.0396 -0.5390
  574TMC3    C2 8509   4.349   0.741   0.201  0.3339  0.0270 -0.7206
  574TMC3    C3 8510   4.267   0.719   0.094 -0.3372 -0.0918  0.7613
  574TMC3    C4 8511   4.517   0.811   0.049  0.3823  0.5561 -0.7395
  574TMC3    C5 8512   4.434   0.777  17.645 -0.3702 -0.1545 -0.0007
  574TMC3    C6 8513   4.303   0.739  17.668 -0.6723  0.6238 -0.6659
  574TMC3     C 8514   4.526   0.871   0.290 -0.0459 -0.0383  0.2182
  574TMC3     O 8515   4.505   0.816   0.396  0.1887  0.1355 -0.0120
  574TMC3     H 8516   4.304   0.740   0.300 -0.4184 -1.4181 -1.0679
  574TMC3    H1 8517   4.615   0.855   0.033 -0.0297  0.7969 -2.5724
  574TMC3    H2 8518   4.240   0.707  17.585  0.4473  0.1073 -1.3245
  574TMC3    C7 8519   4.479   0.774  17.511 -0.5827  0.2530 -0.3291
  574TMC3    C8 8520   4.125   0.740   0.114  0.2469  0.6066 -0.1320
  574TMC3    O1 8521   4.410   0.709  17.434  0.3331  0.1191  0.2235
  574TMC3    O2 8522   4.077   0.687   0.212 -0.1192 -0.4812 -0.1877
  575TMC3    C1 8523   3.152   0.997   9.926  0.2332 -0.1933 -0.3575
  575TMC3    C2 8524   3.021   0.962   9.957  0.2425 -0.4877 -0.1639
  575TMC3    C3 8525   2.933   1.031   9.874 -0.4477  0.3455  0.2971
  575TMC3    C4 8526   3.191   1.087   9.832  0.2885 -0.3045  0.1122
  575TMC3    C5 8527   3.102   1.151   9.755  0.6416  0.0881  0.5006
  575TMC3    C6 8528   2.970   1.118   9.775 -0.2917  0.3941  0.1935
  575TMC3     C 8529   3.255   0.923   9.989  0.3123 -0.2379  0.3614
  575TMC3     O 8530   3.224   0.811  10.035 -0.4986 -0.1793  0.2842
  575TMC3     H 8531   2.987   0.887  10.026 -0.7792 -0.3607 -0.5283
  575TMC3    H1 8532   3.299   1.092   9.817  0.3288 -2.4431 -0.2715
  575TMC3    H2 8533   2.899   1.172   9.713  2.5376  0.8722 -2.6662
  575TMC3    C7 8534   3.138   1.227   9.647  0.0889 -0.2791 -0.1406
  575TMC3    C8 8535   2.796   1.051   9.917  0.0736  0.3236  0.3891
  575TMC3    O1 8536   3.064   1.230   9.546 -0.2572 -0.1790  0.2620
  575TMC3    O2 8537   2.720   1.091   9.829  0.0459  0.1190 -0.5068
  576MPD2     C 8538   1.783   2.826  12.402  0.1769  0.4627  0.7944
  576MPD2    C1 8539   1.765   2.895  12.284 -0.2049 -0.6653  0.6570
  576MPD2    C2 8540   1.708   3.020  12.286  0.7520 -0.0046  0.1766
  576MPD2    C3 8541   1.655   3.071  12.400 -0.0484  0.3787  0.2790
  576MPD2    C4 8542   1.674   3.001  12.519  0.3978 -0.2865 -0.6164
  576MPD2    C5 8543   1.732   2.884  12.515 -0.2573  0.2860  0.1605
  576MPD2     H 8544   1.704   3.080  12.196  0.4517 -0.6169 -0.2218
  576MPD2    H1 8545   1.634   3.041  12.612  0.1996  0.6849 -1.1152
  576MPD2    H2 8546   1.834   2.731  12.410  1.2495  0.8768 -1.2403
  576MPD2    H3 8547   1.739   2.822  12.604 -0.1692 -1.7993 -1.2796
  576MPD2     N 8548   1.605   3.198  12.387  0.0514 -0.1502  0.2363
  576MPD2    H5 8549   1.600   3.236  12.293  1.5515  0.4096  0.3786
  576MPD2    N1 8550   1.813   2.847  12.164 -0.8027 -0.2361  0.1632
  576MPD2    H7 8551   1.779   2.902  12.086 -2.1497 -0.2657  0.7360
  577TMC3    C1 8552   1.957   2.738  12.009  0.5761 -0.1217 -0.0574
  577TMC3    C2 8553   2.044   2.638  11.992  0.2488  0.6804 -0.5800
  577TMC3    C3 8554   2.125   2.643  11.881 -0.4006 -0.3234  0.0991
  577TMC3    C4 8555   1.940   2.848  11.922 -0.5946 -0.7788 -0.2945
  577TMC3    C5 8556   2.018   2.845  11.808  0.5117 -0.0772 -0.5827
  577TMC3    C6 8557   2.116   2.748  11.792 -0.0341  0.2171 -0.4655
  577TMC3     C 8558   1.904   2.745  12.143 -0.5582 -0.0342 -0.7289
  577TMC3     O 8559   1.965   2.689  12.235  0.2360 -0.2511 -0.1359
  577TMC3     H 8560   2.047   2.557  12.063  2.3954  3.1537  2.1221
  577TMC3    H1 8561   1.866   2.926  11.933 -0.4904 -0.7040 -0.1234
  577TMC3    H2 8562   2.180   2.750  11.704  0.8266 -0.8702  0.1435
  577TMC3    C7 8563   2.011   2.947  11.706 -0.3283  0.8924  0.0992
  577TMC3    C8 8564   2.194   2.517  11.850  0.3776  0.3639  0.3563
  577TMC3    O1 8565   2.102   2.941  11.624  0.0773 -0.2976  0.3469
  577TMC3    O2 8566   2.170   2.424  11.925 -0.2447 -0.3918  0.6142
  578MPD2     C 8567   4.174   3.577   0.792  0.2036  0.9252 -1.1161
  578MPD2    C1 8568   4.224   3.464   0.729  0.4110  0.2446  0.6457
  578MPD2    C2 8569   4.299   3.380   0.804  0.4922 -0.3037  0.3896
  578MPD2    C3 8570   4.318   3.393   0.942 -0.5473 -0.5991  0.4103
  578MPD2    C4 8571   4.260   3.500   1.007 -0.3538 -0.2851 -0.5185
  578MPD2    C5 8572   4.187   3.589   0.934  0.8277  0.0767  0.1591
  578MPD2     H 8573   4.340   3.292   0.756  0.6430  0.9755 -1.8146
  578MPD2    H1 8574   4.271   3.520   1.113  0.8157 -3.4609 -0.0386
  578MPD2    H2 8575   4.121   3.656   0.740 -1.7035  1.1004  1.0905
  578MPD2    H3 8576   4.140   3.677   0.978  2.8512  1.2627 -0.0577
  578MPD2     N 8577   4.404   3.307   1.004  0.2044 -1.2337  0.4049
  578MPD2    H5 8578   4.451   3.238   0.945  2.6308 -0.4119  1.3829
  578MPD2    N1 8579   4.208   3.465   0.590  0.0462 -0.5442 -0.2053
  578MPD2    H7 8580   4.138   3.532   0.560  0.3310 -0.4084 -0.5658
  579TMC3    C1 8581   4.499   3.181   1.170  0.7368 -0.1260 -0.9422
  579TMC3    C2 8582   4.587   3.203   1.270  0.1206  0.0371 -0.2312
  579TMC3    C3 8583   4.700   3.115   1.277  0.2528 -0.0767  0.6859
  579TMC3    C4 8584   4.512   3.079   1.077  0.5654 -0.3258  0.0558
  579TMC3    C5 8585   4.624   2.998   1.086 -0.3633  0.4106 -0.4317
  579TMC3    C6 8586   4.714   3.010   1.194 -0.0041  0.9588  0.0202
  579TMC3     C 8587   4.433   3.303   1.137 -0.2288  0.3929 -0.3787
  579TMC3     O 8588   4.399   3.379   1.227  0.8689  0.0269 -0.7773
  579TMC3     H 8589   4.591   3.289   1.336  3.1572 -0.0493 -0.2789
  579TMC3    H1 8590   4.434   3.053   1.006  1.0402 -0.4920 -0.4149
  579TMC3    H2 8591   0.062   2.933   1.216 -0.8170 -0.0107 -0.5954
  579TMC3    C7 8592   4.641   2.880   1.003  0.0841  0.1917  0.7646
  579TMC3    C8 8593   0.068   3.146   1.378 -0.3327  0.5055 -0.8845
  579TMC3    O1 8594   0.025   2.825   1.009  0.3050 -0.4088 -0.1182
  579TMC3    O2 8595   0.020   3.202   1.473 -0.1214 -0.0530  0.4882
  580TMC3    C1 8596   4.500   2.719  11.247  0.2814  0.0040 -0.4477
  580TMC3    C2 8597   4.615   2.783  11.247  0.1233 -0.0983 -0.0480
  580TMC3    C3 8598   4.709   2.745  11.345 -0.3025  0.1211  0.5644
  580TMC3    C4 8599   4.473   2.603  11.318  0.5866 -0.5467 -0.3189
  580TMC3    C5 8600   4.575   2.566  11.404 -0.4323 -0.5896 -0.4120
  580TMC3    C6 8601   4.691   2.639  11.422 -0.3816  0.0761  0.4151
  580TMC3     C 8602   4.400   2.749  11.143  0.6256  0.0235 -0.3579
  580TMC3     O 8603   4.441   2.813  11.047  0.2610  0.3551 -0.1463
  580TMC3     H 8604   4.635   2.876  11.194  2.3394 -0.2402  0.5644
  580TMC3    H1 8605   4.376   2.557  11.327 -1.1459  2.2268 -4.5046
  580TMC3    H2 8606   0.044   2.609  11.491  1.0163 -0.1517 -1.2618
  580TMC3    C7 8607   4.563   2.438  11.470  0.1869  1.0551 -0.2130
  580TMC3    C8 8608   0.100   2.818  11.360  0.4886  0.1268  0.4812
  580TMC3    O1 8609   4.479   2.366  11.422  0.1208  0.0154  0.2093
  580TMC3    O2 8610   0.154   2.817  11.468 -0.6115 -0.0125 -0.3954
  581MPD2     C 8611   2.401   2.300  14.718 -0.0687  0.9004  0.5846
  581MPD2    C1 8612   2.346   2.319  14.839  0.2907  0.5888  0.2808
  581MPD2    C2 8613   2.214   2.359  14.849  0.4820 -0.2401  0.2970
  581MPD2    C3 8614   2.142   2.365  14.738  0.2135 -0.6674 -0.5712
  581MPD2    C4 8615   2.203   2.359  14.613 -0.7431  0.6548 -0.5541
  581MPD2    C5 8616   2.333   2.334  14.605 -1.0952 -0.2007 -0.0280
  581MPD2     H 8617   2.157   2.365  14.941  0.3458 -0.8523  0.2518
  581MPD2    H1 8618   2.157   2.360  14.515  2.0951 -1.5215 -1.9217
  581MPD2    H2 8619   2.500   2.257  14.710  0.0931  0.9525  2.3900
  581MPD2    H3 8620   2.377   2.313  14.508  0.1410  1.7352  0.1318
  581MPD2     N 8621   2.002   2.385  14.751 -0.1335  0.2114 -0.3996
  581MPD2    H5 8622   1.969   2.431  14.835  2.1023  1.3514 -0.1315
  581MPD2    N1 8623   2.425   2.279  14.949  0.4971  0.4283 -0.1898
  581MPD2    H7 8624   2.509   2.225  14.930 -0.0527  0.0026 -1.4469
  582TMC3    C1 8625   2.446   2.167  15.158 -0.3442 -0.3059 -0.4606
  582TMC3    C2 8626   2.417   2.159  15.289  0.5683 -0.0502  0.0888
  582TMC3    C3 8627   2.447   2.042  15.361 -0.4109 -0.5521  0.7168
  582TMC3    C4 8628   2.470   2.049  15.087 -0.4328 -0.2482  0.1400
  582TMC3    C5 8629   2.485   1.929  15.152 -0.2111  0.0354 -0.3470
  582TMC3    C6 8630   2.485   1.935  15.289  0.3714 -0.4355 -0.0493
  582TMC3     C 8631   2.383   2.276  15.086  0.4215 -0.6456  0.0088
  582TMC3     O 8632   2.302   2.351  15.142 -0.1265  0.3418  0.4498
  582TMC3     H 8633   2.401   2.253  15.339  0.0721  0.0563 -0.2718
  582TMC3    H1 8634   2.470   2.035  14.980 -1.8893  0.8315  0.0073
  582TMC3    H2 8635   2.501   1.838  15.335 -0.6254 -1.2955 -1.5130
  582TMC3    C7 8636   2.382   1.839  15.109 -0.2714 -0.5684 -0.7677
  582TMC3    C8 8637   2.450   2.050  15.505  1.2576  0.7356 -0.1584
  582TMC3    O1 8638   2.375   1.806  14.993  0.4026 -0.2433 -0.4371
  582TMC3    O2 8639   2.424   2.163  15.549  0.4451 -0.6639 -0.0313
  583MPD2     C 8640   2.518   3.292  16.446  0.1636  0.0866 -0.4268
  583MPD2    C1 8641   2.502   3.416  16.382 -0.7223 -0.1403  0.2765
  583MPD2    C2 8642   2.480   3.518  16.464 -0.0448 -0.8386  0.2659
  583MPD2    C3 8643   2.465   3.508  16.608  0.0750  0.0996 -1.1447
  583MPD2    C4 8644   2.460   3.385  16.670  0.4734  0.0705 -1.1302
  583MPD2    C5 8645   2.497   3.280  16.585  0.4112  0.5834 -0.8124
  583MPD2     H 8646   2.481   3.617  16.419 -1.1047 -1.3264 -0.8448
  583MPD2    H1 8647   2.445   3.372  16.777  1.2516  0.6740 -0.9449
  583MPD2    H2 8648   2.556   3.207  16.391  1.0168 -1.4014  2.4499
  583MPD2    H3 8649   2.505   3.185  16.636 -1.4140  0.2651 -1.1322
  583MPD2     N 8650   2.450   3.629  16.677 -0.0933 -0.6959 -0.3525
  583MPD2    H5 8651   2.446   3.711  16.617 -0.9284 -0.0367  0.6008
  583MPD2    N1 8652   2.517   3.428  16.243 -0.2080  0.4258  0.1369
  583MPD2    H7 8653   2.512   3.518  16.198  0.2476 -0.0238 -0.8045
  584TMC3    C1 8654   2.427   3.797  16.834  0.1774  0.1316 -0.2702
  584TMC3    C2 8655   2.395   3.897  16.744  0.2561 -0.1078 -0.7598
  584TMC3    C3 8656   2.421   4.028  16.781  0.7768  0.0137 -0.0626
  584TMC3    C4 8657   2.479   3.835  16.955  0.6919 -0.7556  0.5481
  584TMC3    C5 8658   2.502   3.963  16.992 -0.3562  0.3965 -0.0339
  584TMC3    C6 8659   2.475   4.063  16.905 -0.0698 -0.1861 -0.0326
  584TMC3     C 8660   2.421   3.657  16.811 -0.1351 -0.0456  0.0592
  584TMC3     O 8661   2.393   3.580  16.899  0.1612 -0.6449 -0.5172
  584TMC3     H 8662   2.378   3.873  16.640 -1.4507 -2.5859  0.1013
  584TMC3    H1 8663   2.507   3.761  17.029  2.4753  1.2575  1.9049
  584TMC3    H2 8664   2.507   4.165  16.925 -2.9457  0.5310  0.8881
  584TMC3    C7 8665   2.544   3.996  17.125  0.1964 -0.6941  0.4147
  584TMC3    C8 8666   2.359   4.130  16.700  0.1041  0.3572  0.5013
  584TMC3    O1 8667   2.567   3.896  17.191  0.1561 -0.3193 -0.2177
  584TMC3    O2 8668   2.303   4.089  16.600  0.1817  0.2305  0.0468
  585MPD2     C 8669   1.144   2.699   0.484 -0.0490  0.7523 -0.9648
  585MPD2    C1 8670   1.226   2.727   0.381 -0.1318 -0.1592  0.3625
  585MPD2    C2 8671   1.222   2.631   0.276  0.5177 -0.9019 -0.0225
  585MPD2    C3 8672   1.131   2.525   0.267  0.3111  0.0886 -0.2222
  585MPD2    C4 8673   1.043   2.510   0.372  0.0165 -0.4670  0.0091
  585MPD2    C5 8674   1.052   2.599   0.473 -0.4787  0.4544  0.1042
  585MPD2     H 8675   1.275   2.650   0.183 -0.5114 -0.4983 -0.5263
  585MPD2    H1 8676   0.963   2.437   0.370 -0.9246  0.6004 -0.8275
  585MPD2    H2 8677   1.139   2.746   0.582 -1.6594 -4.0371  1.2843
  585MPD2    H3 8678   0.983   2.587   0.555 -0.6456 -0.7903 -0.2291
  585MPD2     N 8679   1.116   2.435   0.154  0.3711  0.2473  0.0406
  585MPD2    H5 8680   1.035   2.374   0.160  0.2524  0.0661 -3.0600
  585MPD2    N1 8681   1.306   2.850   0.385 -0.1398 -0.1197 -0.0093
  585MPD2    H7 8682   1.297   2.901   0.472 -2.0210  0.6478 -0.6481
  586TMC3    C1 8683   1.168   2.318  17.662  0.0424 -0.2747 -0.0860
  586TMC3    C2 8684   1.268   2.263  17.587 -0.1848 -0.0615  0.6328
  586TMC3    C3 8685   1.230   2.184  17.484 -0.2379  0.4780  0.0897
  586TMC3    C4 8686   1.038   2.315  17.633 -0.3163  0.3515 -0.1928
  586TMC3    C5 8687   1.006   2.241  17.525  0.0628 -0.3861 -0.0434
  586TMC3    C6 8688   1.097   2.167  17.449 -0.3707  0.1450 -0.1112
  586TMC3     C 8689   1.208   2.421   0.055 -0.1481 -0.6140  0.0494
  586TMC3     O 8690   1.324   2.456   0.054 -0.0731 -0.0598  0.2197
  586TMC3     H 8691   1.375   2.271  17.605 -0.2811  0.6696  0.8829
  586TMC3    H1 8692   0.962   2.366  17.690 -0.4228 -0.3215  0.2678
  586TMC3    H2 8693   1.075   2.119  17.354 -0.1548  1.3092 -0.7635
  586TMC3    C7 8694   0.868   2.211  17.495  0.1685  0.3191  0.4703
  586TMC3    C8 8695   1.329   2.102  17.421  0.1249 -0.0940 -0.3923
  586TMC3    O1 8696   0.839   2.120  17.419  0.7611 -0.1685 -0.8463
  586TMC3    O2 8697   1.281   1.997  17.370  1.2125  0.6518 -0.0110
  587TMC3    C1 8698   3.705   1.080  16.770  0.5921  0.6690 -0.0970
  587TMC3    C2 8699   3.704   1.171  16.671 -0.0500 -0.5166  0.2383
  587TMC3    C3 8700   3.820   1.210  16.608  0.0286 -0.4490  0.2712
  587TMC3    C4 8701   3.821   1.027  16.813  0.7767 -0.5823  0.5161
  587TMC3    C5 8702   3.934   1.061  16.751 -0.0244  0.0409  0.2799
  587TMC3    C6 8703   3.940   1.153  16.648  0.4484  0.5502 -0.5404
  587TMC3     C 8704   3.590   1.064  16.867  0.3534  0.2231 -0.1317
  587TMC3     O 8705   3.607   1.000  16.970 -0.4299 -0.0224  0.0442
  587TMC3     H 8706   3.607   1.206  16.637  0.1802  1.4454  1.5810
  587TMC3    H1 8707   3.830   0.951  16.890 -2.4394 -3.0198 -1.5123
  587TMC3    H2 8708   4.029   1.193  16.599  2.0926 -0.4571  1.6194
  587TMC3    C7 8709   4.062   0.999  16.803 -0.3163 -0.6771 -0.2133
  587TMC3    C8 8710   3.827   1.310  16.502 -0.1410 -0.1915  0.9484
  587TMC3    O1 8711   4.053   0.907  16.884 -0.4995 -0.5986 -0.1727
  587TMC3    O2 8712   3.930   1.309  16.430  0.5620  0.4120  0.2228
  588TMC3    C1 8713   2.082   3.804   9.878 -0.5210  0.4779 -0.0210
  588TMC3    C2 8714   2.157   3.686   9.858  0.3183 -0.4094  0.9556
  588TMC3    C3 8715   2.243   3.643   9.956 -0.0932 -0.1377 -0.3784
  588TMC3    C4 8716   2.084   3.856  10.002  0.0953  0.0163  0.6695
  588TMC3    C5 8717   2.168   3.806  10.093  0.0309  0.1656 -0.5198
  588TMC3    C6 8718   2.253   3.703  10.074 -0.2989  0.8923  0.3246
  588TMC3     C 8719   1.986   3.848   9.777  0.2065 -0.1585 -0.2138
  588TMC3     O 8720   1.954   3.767   9.693 -0.2472 -0.1030  0.2632
  588TMC3     H 8721   2.140   3.634   9.765  2.3768 -0.3168  0.5158
  588TMC3    H1 8722   2.005   3.925  10.033  1.0235  1.7855 -0.8992
  588TMC3    H2 8723   2.335   3.677  10.140  1.1587 -0.0716 -1.9034
  588TMC3    C7 8724   2.170   3.880  10.224 -1.0839  0.4551  0.6496
  588TMC3    C8 8725   2.302   3.508   9.946 -0.5645  0.2717 -0.1742
  588TMC3    O1 8726   2.200   3.830  10.332  0.1640 -0.3865 -0.4504
  588TMC3    O2 8727   2.305   3.461   9.833  0.5212 -0.3909  0.4645
  589TMC3    C1 8728   0.404   2.315   1.282  0.1457  0.5762  0.4149
  589TMC3    C2 8729   0.521   2.371   1.321  0.4291 -0.8807  0.2437
  589TMC3    C3 8730   0.630   2.361   1.238  0.1630  0.3002 -0.0122
  589TMC3    C4 8731   0.393   2.247   1.167  0.0639 -0.4477  0.9770
  589TMC3    C5 8732   0.508   2.236   1.093 -0.0165 -0.1871  0.1807
  589TMC3    C6 8733   0.626   2.299   1.121 -0.5570 -0.3038 -0.0089
  589TMC3     C 8734   0.302   2.325   1.382  0.1737  0.2535 -0.2478
  589TMC3     O 8735   0.336   2.371   1.491  0.1264 -0.1480 -0.8166
  589TMC3     H 8736   0.544   2.428   1.411 -0.0240 -0.1522 -0.1033
  589TMC3    H1 8737   0.314   2.173   1.159 -0.0138 -0.3464  0.8152
  589TMC3    H2 8738   0.700   2.319   1.045  0.9488 -0.6561  1.3748
  589TMC3    C7 8739   0.504   2.173   0.963  0.4021  0.1400  0.4030
  589TMC3    C8 8740   0.756   2.401   1.291  0.1645  0.1139  0.8501
  589TMC3    O1 8741   0.611   2.148   0.911  0.0639 -0.4213 -0.5126
  589TMC3    O2 8742   0.772   2.507   1.349 -0.1892 -0.0220 -0.5208
  590MPD2     C 8743   4.647   4.174  16.358  0.3786  0.1961  0.3161
  590MPD2    C1 8744   4.603   4.293  16.301  0.1401  0.5689 -0.4703
  590MPD2    C2 8745   4.695   4.392  16.273 -0.1260 -0.1762  0.3972
  590MPD2    C3 8746   0.103   4.368  16.298 -0.5257 -0.2054  0.5121
  590MPD2    C4 8747   0.145   4.252  16.353  1.5955  0.3021  0.2732
  590MPD2    C5 8748   0.052   4.158  16.387 -0.1631  0.2823 -0.0905
  590MPD2     H 8749   4.679   4.490  16.229 -1.1492 -0.9432 -0.9073
  590MPD2    H1 8750   0.249   4.233  16.376  1.5679  0.3517  0.4383
  590MPD2    H2 8751   4.579   4.092  16.374 -2.4429  2.3393 -0.8033
  590MPD2    H3 8752   0.089   4.069  16.437 -2.7553  0.3331  1.8834
  590MPD2     N 8753   0.188   4.481  16.280  0.3893  0.4462 -0.3796
  590MPD2    H5 8754   0.148   4.560  16.231  0.7708  0.4164 -0.7438
  590MPD2    N1 8755   4.466   4.308  16.272 -0.4998  0.9570 -0.0693
  590MPD2    H7 8756   4.405   4.235  16.307 -0.5065  1.1461  0.3137
  591TMC3    C1 8757   0.384   4.615  16.291 -0.0759  0.2522 -0.2691
  591TMC3    C2 8758   0.501   4.619  16.223  0.9836  0.2234 -0.1552
  591TMC3    C3 8759   0.534   0.009  16.158  0.1173  0.2712 -0.5807
  591TMC3    C4 8760   0.293   4.718  16.284  0.9191 -0.3548  0.2005
  591TMC3    C5 8761   0.328   0.103  16.208  0.7685 -0.0735 -0.7592
  591TMC3    C6 8762   0.446   0.117  16.145  0.7663  0.3379  0.3937
  591TMC3     C 8763   0.327   4.487  16.311  0.4165  0.0145  0.2354
  591TMC3     O 8764   0.406   4.397  16.336 -0.4788  0.2168  0.1618
  591TMC3     H 8765   0.575   4.543  16.247  2.4785  1.3159 -1.2640
  591TMC3    H1 8766   0.194   4.705  16.326  1.7139 -3.7724  0.9854
  591TMC3    H2 8767   0.452   0.206  16.083  1.0992  0.2832  0.3450
  591TMC3    C7 8768   0.220   0.203  16.197  0.3907  0.3424  0.3162
  591TMC3    C8 8769   0.642   0.004  16.057 -0.0606  0.5180 -0.3483
  591TMC3    O1 8770   0.110   0.155  16.189 -0.2970 -0.0963  0.0320
  591TMC3    O2 8771   0.689   4.618  16.043  0.2844 -0.4219  0.3313
  592MPD2     C 8772   0.322   2.179  11.205  0.0776 -0.1046 -0.2331
  592MPD2    C1 8773   0.292   2.242  11.326 -0.2980  0.0635 -0.2939
  592MPD2    C2 8774   0.237   2.175  11.435 -0.4324  0.2204  0.6394
  592MPD2    C3 8775   0.217   2.034  11.428  0.9435 -0.2772 -0.1857
  592MPD2    C4 8776   0.251   1.977  11.306  0.1211  0.2194  0.3692
  592MPD2    C5 8777   0.300   2.046  11.197 -0.0380  0.0009 -0.0913
  592MPD2     H 8778   0.219   2.229  11.527 -2.7191  0.9876 -0.2501
  592MPD2    H1 8779   0.241   1.871  11.284  1.9271  0.1494 -0.1569
  592MPD2    H2 8780   0.351   2.243  11.123 -0.9180  0.5118 -0.0982
  592MPD2    H3 8781   0.336   1.993  11.109  0.3103  0.7388 -0.3932
  592MPD2     N 8782   0.155   1.963  11.536  0.8057  0.6467  0.1362
  592MPD2    H5 8783   0.128   2.000  11.627 -0.3097  0.1933 -0.0218
  592MPD2    N1 8784   0.329   2.379  11.327  0.1768  0.2638  0.1357
  592MPD2    H7 8785   0.364   2.410  11.237  0.1944  1.4416  0.5524
  593TMC3    C1 8786   0.400   2.591  11.411 -0.9753 -0.0460 -0.8852
  593TMC3    C2 8787   0.396   2.690  11.507  0.0283  0.3998  0.3136
  593TMC3    C3 8788   0.510   2.770  11.521 -0.8856 -0.4799  0.5304
  593TMC3    C4 8789   0.499   2.588  11.314 -0.5600 -0.1577  0.2211
  593TMC3    C5 8790   0.607   2.668  11.332 -0.7187 -0.1377 -0.2936
  593TMC3    C6 8791   0.618   2.749  11.440  0.4326  0.3490  0.7708
  593TMC3     C 8792   0.319   2.470  11.433 -0.3159 -0.4165  0.6272
  593TMC3     O 8793   0.278   2.459  11.546 -0.5025  0.2942  0.0912
  593TMC3     H 8794   0.325   2.684  11.589  0.5077 -0.6689  0.6528
  593TMC3    H1 8795   0.496   2.512  11.237  0.5221  0.0012  0.0185
  593TMC3    H2 8796   0.701   2.818  11.450  1.3859 -0.7190  0.2605
  593TMC3    C7 8797   0.730   2.656  11.251 -0.3425 -0.6515 -0.5718
  593TMC3    C8 8798   0.537   2.805  11.660 -0.4291  1.1880  0.3489
  593TMC3    O1 8799   0.836   2.691  11.297 -0.0125 -0.3673  0.0150
  593TMC3    O2 8800   0.436   2.826  11.726 -0.7780  0.4275  0.4359
  594MPD2     C 8801   3.978   0.944  14.945  0.3620  0.1750  0.4903
  594MPD2    C1 8802   3.951   0.995  14.823 -0.1394  0.1570  0.4120
  594MPD2    C2 8803   4.050   1.058  14.752  0.3631 -1.0373  0.1842
  594MPD2    C3 8804   4.180   1.040  14.788  0.4666 -0.2288  0.2309
  594MPD2    C4 8805   4.215   0.969  14.901  0.8822 -0.1783  0.0341
  594MPD2    C5 8806   4.108   0.920  14.978 -0.3858 -0.4856 -0.3473
  594MPD2     H 8807   4.030   1.105  14.656  2.5378 -3.0673 -1.2613
  594MPD2    H1 8808   4.314   0.960  14.945  1.4130  0.2763 -1.0644
  594MPD2    H2 8809   3.904   0.885  14.999 -0.4060  0.1942 -0.5474
  594MPD2    H3 8810   4.136   0.847  15.053 -0.4734 -2.2380 -2.0270
  594MPD2     N 8811   4.273   1.109  14.708  0.2223 -0.6677 -0.4118
  594MPD2    H5 8812   4.238   1.151  14.623 -2.9358  1.1287  1.7351
  594MPD2    N1 8813   3.816   0.979  14.790  0.0138 -0.0921 -0.4473
  594MPD2    H7 8814   3.752   0.918  14.841 -1.0849 -0.9455 -2.8314
  595TMC3    C1 8815   4.663   1.331  14.594 -0.1004  0.3683  0.5396
  595TMC3    C2 8816   4.608   1.223  14.647  0.3985  0.0036  0.4952
  595TMC3    C3 8817   4.473   1.220  14.647  0.7502 -0.5191 -0.1293
  595TMC3    C4 8818   4.601   1.447  14.553 -0.3931  0.5443  0.0076
  595TMC3    C5 8819   4.465   1.444  14.568  0.1592 -0.3284 -0.4369
  595TMC3    C6 8820   4.398   1.333  14.616 -0.0739 -0.7395 -0.1809
  595TMC3     C 8821   0.085   1.349  14.584  0.0263  0.3483  0.5345
  595TMC3     O 8822   0.162   1.299  14.662 -0.0421  0.5625  0.0469
  595TMC3     H 8823   4.668   1.142  14.688  0.4671 -0.6959 -0.9676
  595TMC3    H1 8824   4.652   1.542  14.565 -2.6835  1.9410 -1.2308
  595TMC3    H2 8825   4.293   1.350  14.639  0.2617  0.5402  0.4396
  595TMC3    C7 8826   4.399   1.574  14.592  0.4492  0.0090  0.3160
  595TMC3    C8 8827   4.410   1.120  14.727 -0.0886  0.6844 -0.4661
  595TMC3    O1 8828   4.323   1.580  14.688  0.1062  0.5595 -0.0769
  595TMC3    O2 8829   4.478   1.084  14.822 -0.3539  0.4995  0.1997
  596MPD2     C 8830   3.268   3.594  16.104  0.3394  0.0801 -0.0200
  596MPD2    C1 8831   3.235   3.713  16.045 -0.0484  0.2681 -0.0920
  596MPD2    C2 8832   3.231   3.708  15.909 -0.0854 -0.6066  0.0660
  596MPD2    C3 8833   3.277   3.605  15.827  0.5910  0.2143 -0.3249
  596MPD2    C4 8834   3.334   3.498  15.895 -0.2752 -0.1968  0.0312
  596MPD2    C5 8835   3.331   3.497  16.034  0.2834  0.0742 -0.4008
  596MPD2     H 8836   3.203   3.804  15.866  1.5559  0.2203  0.8512
  596MPD2    H1 8837   3.383   3.421  15.838  0.2101 -0.5843  0.9711
  596MPD2    H2 8838   3.252   3.578  16.210 -1.8628 -1.8951 -0.6504
  596MPD2    H3 8839   3.364   3.407  16.085  0.9924 -0.2046 -1.3680
  596MPD2     N 8840   3.257   3.600  15.685  0.2101  0.2422 -0.3402
  596MPD2    H5 8841   3.304   3.523  15.639 -2.2096 -2.0148  0.9658
  596MPD2    N1 8842   3.192   3.826  16.122  0.4637  0.1147  0.5419
  596MPD2    H7 8843   3.172   3.910  16.069 -2.0223 -1.0113 -0.3081
  597TMC3    C1 8844   3.137   3.939  16.329  0.6210  0.6703  0.3098
  597TMC3    C2 8845   3.142   4.057  16.270  0.0453  0.3893 -0.7249
  597TMC3    C3 8846   3.083   4.163  16.330  0.4639 -0.0676  0.4449
  597TMC3    C4 8847   3.082   3.933  16.457 -0.9078  0.5520  0.4518
  597TMC3    C5 8848   3.033   4.045  16.514 -0.4531 -0.2284  0.8374
  597TMC3    C6 8849   3.027   4.164  16.450 -0.1401 -0.3878  0.2681
  597TMC3     C 8850   3.152   3.815  16.256  0.1505  0.3721  0.5247
  597TMC3     O 8851   3.123   3.720  16.326 -0.3776  0.4520 -0.4540
  597TMC3     H 8852   3.183   4.070  16.171 -0.8393  0.7638 -1.0417
  597TMC3    H1 8853   3.084   3.846  16.521 -0.6610 -0.1353 -0.4901
  597TMC3    H2 8854   3.013   4.255  16.506  0.5972  0.3699 -0.7671
  597TMC3    C7 8855   3.014   4.043  16.662  0.2439  0.6648 -0.3074
  597TMC3    C8 8856   3.102   4.288  16.259 -0.2585 -0.3382 -0.7144
  597TMC3    O1 8857   2.991   3.939  16.723  0.1597  0.0036 -0.3658
  597TMC3    O2 8858   3.172   4.284  16.159  0.2604  0.1771  0.1082
  598TMC3    C1 8859   1.271   0.573  15.077  0.5023  0.0423 -0.3149
  598TMC3    C2 8860   1.181   0.474  15.071 -0.0394  0.4702  0.2226
  598TMC3    C3 8861   1.126   0.449  14.944  0.2249 -0.3241  0.3712
  598TMC3    C4 8862   1.310   0.641  14.967 -0.4943  0.0316  0.5976
  598TMC3    C5 8863   1.244   0.621  14.847  0.6401 -0.3000 -0.9619
  598TMC3    C6 8864   1.154   0.516  14.831  0.5733 -0.1214 -0.4703
  598TMC3     C 8865   1.352   0.584  15.198  0.1378  0.6346  0.8369
  598TMC3     O 8866   1.468   0.604  15.166 -0.5403  0.3313  0.0728
  598TMC3     H 8867   1.160   0.421  15.163 -0.7879 -4.3380 -2.6943
  598TMC3    H1 8868   1.381   0.721  14.987  2.5433 -2.3688 -0.5075
  598TMC3    H2 8869   1.089   0.505  14.745  0.5891  0.5553 -0.5725
  598TMC3    C7 8870   1.291   0.697  14.727 -0.2775  0.4519 -0.5361
  598TMC3    C8 8871   1.012   0.356  14.935  0.0817 -0.2213  0.0258
  598TMC3    O1 8872   1.205   0.699  14.637  0.1459  0.7465 -0.0558
  598TMC3    O2 8873   0.955   0.335  14.829  0.3264  0.0340 -0.3003
  599MPD2     C 8874   1.359   2.615  15.722  0.0048 -0.0243  0.8896
  599MPD2    C1 8875   1.413   2.497  15.776 -0.2863 -0.7134 -0.6773
  599MPD2    C2 8876   1.329   2.418  15.853 -0.1137 -0.2857  0.4652
  599MPD2    C3 8877   1.191   2.447  15.863  0.1242  0.2761 -0.9244
  599MPD2    C4 8878   1.150   2.564  15.802  0.7138  0.6400  0.0045
  599MPD2    C5 8879   1.226   2.644  15.723  0.2567 -0.8638 -0.2203
  599MPD2     H 8880   1.364   2.326  15.898  0.7659 -0.4702 -0.5888
  599MPD2    H1 8881   1.048   2.597  15.815  0.5853 -0.0203  0.6402
  599MPD2    H2 8882   1.420   2.692  15.676  0.2023  0.1472  1.4430
  599MPD2    H3 8883   1.192   2.738  15.681  0.7851 -1.0102 -0.9790
  599MPD2     N 8884   1.094   2.387  15.955  0.1812  0.7760  0.0086
  599MPD2    H5 8885   0.998   2.419  15.956 -0.8410 -2.3259  1.0903
  599MPD2    N1 8886   1.552   2.483  15.763  0.1064 -0.2957 -0.0584
  599MPD2    H7 8887   1.607   2.547  15.706 -0.4500  1.2997  1.2139
  600TMC3    C1 8888   1.021   2.261  16.138 -0.4955 -0.1010 -0.4989
  600TMC3    C2 8889   0.900   2.311  16.113  0.1528 -0.4648  0.3206
  600TMC3    C3 8890   0.822   2.353  16.222  0.1365  0.9177  0.5011
  600TMC3    C4 8891   1.074   2.250  16.262 -0.3277  1.0405  0.0244
  600TMC3    C5 8892   0.996   2.303  16.365  0.2058 -0.0261 -0.0770
  600TMC3    C6 8893   0.872   2.350  16.347 -0.4206 -0.8647  0.3139
  600TMC3     C 8894   1.121   2.278  16.036 -0.4077 -0.9356  0.0900
  600TMC3     O 8895   1.230   2.225  16.053 -0.2657 -0.4005  0.1372
  600TMC3     H 8896   0.863   2.314  16.011 -1.5204  5.0570  1.0683
  600TMC3    H1 8897   1.169   2.202  16.286  0.6731  2.2492 -1.5627
  600TMC3    H2 8898   0.823   2.389  16.434 -1.1463 -1.3820  0.1332
  600TMC3    C7 8899   1.067   2.387  16.456 -0.3563 -0.1926 -0.1222
  600TMC3    C8 8900   0.681   2.321  16.222  0.2000  0.0451  0.8975
  600TMC3    O1 8901   1.013   2.418  16.559  0.1185 -0.5731  0.0069
  600TMC3    O2 8902   0.646   2.253  16.318 -0.1152  0.0484  0.2955
  601MPD2     C 8903   3.170   0.372   0.072  0.9011 -0.4100 -0.1035
  601MPD2    C1 8904   3.075   0.347   0.171  0.3703 -0.1714  0.3437
  601MPD2    C2 8905   3.044   0.216   0.206 -0.9172  0.8127 -0.6309
  601MPD2    C3 8906   3.127   0.109   0.167 -0.0018  0.0945  0.8026
  601MPD2    C4 8907   3.234   0.140   0.088 -0.9527  0.7206 -0.2925
  601MPD2    C5 8908   3.245   0.262   0.031 -0.7739  0.2084 -0.7192
  601MPD2     H 8909   2.950   0.199   0.257  0.2097  2.4670  2.0059
  601MPD2    H1 8910   3.302   0.062   0.057  0.5935  1.9755 -0.0836
  601MPD2    H2 8911   3.187   0.465   0.019 -0.6734  0.5826  1.1074
  601MPD2    H3 8912   3.318   0.279  17.655  0.0181  1.8286  0.3701
  601MPD2     N 8913   3.121   4.695   0.206  0.2361  0.0598  1.0150
  601MPD2    H5 8914   3.186   4.629   0.166 -0.2610 -0.0265  0.3614
  601MPD2    N1 8915   2.983   0.454   0.209 -0.6419 -0.2649  0.0121
  601MPD2    H7 8916   2.900   0.418   0.254 -0.1354 -2.6409 -0.9095
  602TMC3    C1 8917   2.916   0.677   0.263  0.3673  0.3687  0.1882
  602TMC3    C2 8918   2.967   0.800   0.295 -0.4666 -0.2040 -0.1237
  602TMC3    C3 8919   2.882   0.911   0.285  0.1484  0.7029  0.2965
  602TMC3    C4 8920   2.786   0.665   0.215  0.7639 -0.0133  0.2880
  602TMC3    C5 8921   2.710   0.774   0.210  0.2629 -0.3589  0.2314
  602TMC3    C6 8922   2.756   0.896   0.243 -0.2356 -0.1288 -0.3528
  602TMC3     C 8923   3.015   0.587   0.204 -0.3347  0.3940  0.0278
  602TMC3     O 8924   3.129   0.633   0.191  0.1164  0.4352  0.2701
  602TMC3     H 8925   3.065   0.815   0.338 -0.4412  0.7460 -0.5213
  602TMC3    H1 8926   2.745   0.567   0.195 -0.4943  0.7295 -0.6960
  602TMC3    H2 8927   2.688   0.978   0.262 -0.7958 -0.8650  0.8028
  602TMC3    C7 8928   2.581   0.763   0.138  0.2285  0.1703 -0.1693
  602TMC3    C8 8929   2.943   1.040   0.296  0.4459 -0.2655 -0.1665
  602TMC3    O1 8930   2.522   0.655   0.144 -0.1325 -0.0972 -0.1886
  602TMC3    O2 8931   3.038   1.063   0.372  0.4631 -0.0615 -0.1662
  603TMC3    C1 8932   2.055   1.241  10.910  0.5349  0.7423  0.6789
  603TMC3    C2 8933   2.037   1.331  11.004  0.1309 -0.2517  0.0840
  603TMC3    C3 8934   1.977   1.450  10.971 -0.6020  0.5571  0.0324
  603TMC3    C4 8935   2.033   1.272  10.776 -0.3239  0.1580 -0.4267
  603TMC3    C5 8936   1.991   1.398  10.745  0.3372  0.2399 -0.5741
  603TMC3    C6 8937   1.953   1.487  10.841  0.1646  0.0857  0.1293
  603TMC3     C 8938   2.022   1.109  10.966  0.3955 -0.1416  0.2289
  603TMC3     O 8939   2.032   1.087  11.085  0.7225  0.3044  0.4468
  603TMC3     H 8940   2.058   1.322  11.110  0.6828 -1.3091 -0.1233
  603TMC3    H1 8941   2.038   1.204  10.692  0.2812  0.8712 -0.9731
  603TMC3    H2 8942   1.926   1.590  10.822  4.2566  1.5201  2.0880
  603TMC3    C7 8943   1.965   1.418  10.599  0.0613 -0.7579  0.3167
  603TMC3    C8 8944   1.935   1.533  11.088 -0.5899 -0.3007 -1.1181
  603TMC3    O1 8945   1.883   1.504  10.573 -0.0205 -0.3487  0.6786
  603TMC3    O2 8946   1.967   1.505  11.202  0.2305  0.3446  0.3924
  604MPD2     C 8947   2.101   4.497  16.093  0.2958  0.3744  0.4261
  604MPD2    C1 8948   2.139   4.631  16.076 -0.1651  0.4625 -0.0753
  604MPD2    C2 8949   2.226   4.662  15.974 -0.0388  0.3515 -0.8683
  604MPD2    C3 8950   2.280   4.557  15.897  0.9094  0.7731 -0.4212
  604MPD2    C4 8951   2.248   4.427  15.929 -0.3883  0.2889  0.1499
  604MPD2    C5 8952   2.163   4.396  16.028 -0.6010  0.5309  0.0911
  604MPD2     H 8953   2.263   0.035  15.947  0.2367  0.6020  0.4288
  604MPD2    H1 8954   2.280   4.339  15.873 -1.4366 -1.1768  1.8671
  604MPD2    H2 8955   2.036   4.481  16.178 -1.3815  0.7101 -0.8029
  604MPD2    H3 8956   2.124   4.296  16.042  1.2689 -0.0453  1.1733
  604MPD2     N 8957   2.359   4.598  15.789 -0.4117 -0.5062 -1.0954
  604MPD2    H5 8958   2.356   4.698  15.773  1.8681 -0.2495  0.0980
  604MPD2    N1 8959   2.082   0.016  16.153  0.7566 -0.3394  0.0811
  604MPD2    H7 8960   2.006   4.722  16.217  1.2134 -0.9678  0.4247
  605TMC3    C1 8961   2.060   0.210  16.269  0.0598 -0.7842  0.4989
  605TMC3    C2 8962   2.126   0.303  16.342  0.2790 -0.2584 -0.1365
  605TMC3    C3 8963   2.049   0.370  16.429 -0.0849 -0.0982  0.0951
  605TMC3    C4 8964   1.932   0.167  16.298 -0.2168  0.1997  0.8398
  605TMC3    C5 8965   1.871   0.226  16.399  0.1233 -0.1942  0.1092
  605TMC3    C6 8966   1.927   0.328  16.463  0.0048  0.3903  0.3497
  605TMC3     C 8967   2.137   0.138  16.167  0.2880  0.4977  0.2432
  605TMC3     O 8968   2.247   0.180  16.134  0.0788 -0.2487 -0.4072
  605TMC3     H 8969   2.229   0.327  16.320 -0.7000  2.3417 -1.8931
  605TMC3    H1 8970   1.891   0.083  16.243  0.5697 -0.7768  1.7414
  605TMC3    H2 8971   1.866   0.374  16.540  0.6639  1.1938  0.3999
  605TMC3    C7 8972   1.729   0.207  16.412 -0.3652 -0.8443  0.0601
  605TMC3    C8 8973   2.106   0.473  16.515 -0.0893 -0.1765 -1.1033
  605TMC3    O1 8974   1.650   0.300  16.412 -0.2063  0.0558  0.5650
  605TMC3    O2 8975   2.023   0.517  16.596 -0.1513 -0.3536  0.5990
  606TMC3    C1 8976   3.620   3.067  16.483  0.0982 -0.0668 -0.1575
  606TMC3    C2 8977   3.649   3.094  16.613  0.1394  0.0030  0.6477
  606TMC3    C3 8978   3.568   3.047  16.716  0.1900  0.2101  0.0025
  606TMC3    C4 8979   3.506   3.004  16.450  0.0202  0.1368 -0.3968
  606TMC3    C5 8980   3.423   2.959  16.556  0.3763 -0.5673 -0.2939
  606TMC3    C6 8981   3.450   2.984  16.690  0.2572 -0.8872 -0.6037
  606TMC3     C 8982   3.729   3.055  16.392 -0.6523  0.7424  0.1761
  606TMC3     O 8983   3.838   3.079  16.440  0.1689  0.3120  0.8785
  606TMC3     H 8984   3.733   3.158  16.640  0.2863  0.7768 -1.6295
  606TMC3    H1 8985   3.473   2.976  16.350  2.3746 -1.6077 -0.6701
  606TMC3    H2 8986   3.389   2.932  16.763 -2.3428 -1.1372 -2.9434
  606TMC3    C7 8987   3.333   2.850  16.527 -0.1706 -0.6952 -0.2089
  606TMC3    C8 8988   3.598   3.089  16.848  0.0419  0.3498  0.3083
  606TMC3    O1 8989   3.358   2.785  16.428 -0.0395 -0.5432  0.6205
  606TMC3    O2 8990   3.717   3.114  16.869  0.6611  0.4067 -0.1630
  607MPD2     C 8991   0.552   1.886  11.423  0.1917 -0.2822  0.3179
  607MPD2    C1 8992   0.562   1.984  11.525 -0.6340 -0.8481 -0.0582
  607MPD2    C2 8993   0.516   1.944  11.647  0.6618 -0.2907  0.6031
  607MPD2    C3 8994   0.481   1.813  11.689 -0.1079  0.5256 -0.4517
  607MPD2    C4 8995   0.473   1.720  11.586 -1.0966 -0.1899 -0.3577
  607MPD2    C5 8996   0.517   1.754  11.462 -0.1091  0.2535 -0.6762
  607MPD2     H 8997   0.508   2.030  11.712 -0.6638  0.1140 -0.0967
  607MPD2    H1 8998   0.444   1.617  11.598 -1.3080 -0.0127  0.6562
  607MPD2    H2 8999   0.594   1.898  11.324  1.0221 -0.3963  0.6611
  607MPD2    H3 9000   0.523   1.676  11.387  1.2385 -1.6347  1.4174
  607MPD2     N 9001   0.444   1.779  11.817 -0.6620 -0.0716  0.2327
  607MPD2    H5 9002   0.444   1.679  11.834 -1.2279  0.0329  0.8673
  607MPD2    N1 9003   0.615   2.111  11.502  0.5772 -0.0214 -0.0531
  607MPD2    H7 9004   0.607   2.173  11.582  2.2931  0.4514 -0.2338
  608TMC3    C1 9005   0.744   2.294  11.399 -0.5537  0.1343 -0.4827
  608TMC3    C2 9006   0.734   2.350  11.522 -0.9763  0.2254  0.0652
  608TMC3    C3 9007   0.845   2.405  11.574 -0.1435 -0.1052 -0.0392
  608TMC3    C4 9008   0.866   2.307  11.329  0.1768 -0.2868  0.2361
  608TMC3    C5 9009   0.966   2.386  11.383 -0.4852 -0.6348 -0.4425
  608TMC3    C6 9010   0.963   2.423  11.515  0.1672  0.0446  0.6479
  608TMC3     C 9011   0.669   2.168  11.386 -0.2379 -0.0422 -0.0906
  608TMC3     O 9012   0.690   2.119  11.274 -0.1378  0.0074  0.0940
  608TMC3     H 9013   0.635   2.365  11.563 -0.7317 -0.3997  0.8687
  608TMC3    H1 9014   0.888   2.258  11.234 -1.6424  1.0575 -0.8848
  608TMC3    H2 9015   1.049   2.465  11.565 -0.5291  1.2177  0.8580
  608TMC3    C7 9016   1.098   2.366  11.331 -0.2541 -0.1404 -0.1658
  608TMC3    C8 9017   0.855   2.422  11.725  0.4087 -0.3603 -0.0332
  608TMC3    O1 9018   1.115   2.266  11.265 -0.3265  0.0887 -0.0241
  608TMC3    O2 9019   0.969   2.448  11.776  0.4027 -0.1520 -0.5189
  609TMC3    C1 9020   4.291   0.228   9.452 -0.2532  0.6215  0.1375
  609TMC3    C2 9021   4.379   0.329   9.425 -0.3213 -0.3216 -0.2677
  609TMC3    C3 9022   4.511   0.295   9.436  0.1262 -0.4718  0.4352
  609TMC3    C4 9023   4.322   0.098   9.489 -0.1642  0.3516  0.3315
  609TMC3    C5 9024   4.455   0.075   9.493 -0.2077  0.1295  0.8467
  609TMC3    C6 9025   4.547   0.174   9.475  0.3845  0.1790 -0.3251
  609TMC3     C 9026   4.147   0.258   9.443 -0.1027  0.5960 -0.5330
  609TMC3     O 9027   4.119   0.332   9.349 -0.0742 -0.2760  0.3067
  609TMC3     H 9028   4.348   0.431   9.406  1.3858  0.5636  1.7423
  609TMC3    H1 9029   4.250   0.019   9.508 -0.8046  0.2560 -2.4395
  609TMC3    H2 9030   4.649   0.139   9.481  0.2549 -0.5757 -2.5634
  609TMC3    C7 9031   4.509   4.668   9.517 -0.3805 -0.8028 -0.7395
  609TMC3    C8 9032   4.610   0.397   9.424  0.2695  0.3022 -0.5860
  609TMC3    O1 9033   4.618   4.660   9.579 -0.3358 -0.3679 -0.3598
  609TMC3    O2 9034   4.565   0.511   9.435  0.5008 -0.4426  0.6385
  610TMC3    C1 9035   0.844   1.605  12.945  0.3763 -0.3386  0.5825
  610TMC3    C2 9036   0.860   1.708  12.858 -0.4588 -0.6963 -0.1647
  610TMC3    C3 9037   0.950   1.696  12.758  0.0748  0.2139 -0.1921
  610TMC3    C4 9038   0.924   1.495  12.940 -0.2847 -0.2124  1.3075
  610TMC3    C5 9039   1.010   1.488  12.838  0.6215 -0.3904  0.8118
  610TMC3    C6 9040   1.029   1.587  12.746 -0.8587 -0.4441 -0.7196
  610TMC3     C 9041   0.783   1.637  13.072 -0.2087  0.0560 -0.6442
  610TMC3     O 9042   0.689   1.715  13.065 -0.0281 -0.2006 -0.0317
  610TMC3     H 9043   0.797   1.796  12.863  2.2699  1.2875 -0.8332
  610TMC3    H1 9044   0.906   1.409  13.004  1.2738 -2.9629 -1.9388
  610TMC3    H2 9045   1.097   1.573  12.662 -0.1440  0.6763 -0.3271
  610TMC3    C7 9046   1.084   1.364  12.820 -0.7508 -0.6930 -0.1507
  610TMC3    C8 9047   0.952   1.793  12.654 -0.1508  0.0354  0.0390
  610TMC3    O1 9048   1.031   1.254  12.841  0.5343 -0.2336 -0.2149
  610TMC3    O2 9049   0.849   1.847  12.618 -0.3536 -0.1533  0.2736
  611MPD2     C 9050   0.998   1.034  10.162  1.1821 -0.1183 -0.3487
  611MPD2    C1 9051   0.943   1.146  10.109 -0.2112 -0.2370 -0.4411
  611MPD2    C2 9052   1.022   1.246  10.061 -0.2958 -0.2636 -0.2585
  611MPD2    C3 9053   1.158   1.235  10.074  0.2173  0.8444 -0.0490
  611MPD2    C4 9054   1.215   1.123  10.126  0.5560 -0.8495 -0.1888
  611MPD2    C5 9055   1.133   1.017  10.162 -0.3220  0.0409 -0.1703
  611MPD2     H 9056   0.987   1.335  10.010  1.0334  0.1269 -0.4971
  611MPD2    H1 9057   1.321   1.101  10.123  0.8678  0.6062  0.4311
  611MPD2    H2 9058   0.944   0.950  10.203  0.6143  0.7093  0.6207
  611MPD2    H3 9059   1.174   0.919  10.181  1.2998  0.6654 -0.4788
  611MPD2     N 9060   1.241   1.344  10.048 -0.3905  0.6843 -0.4558
  611MPD2    H5 9061   1.189   1.416  10.000 -1.3332  0.1885 -0.1860
  611MPD2    N1 9062   0.797   1.149  10.099 -0.3465 -0.2543  0.5635
  611MPD2    H7 9063   0.743   1.066  10.119 -2.8034  2.3871  4.8636
  612TMC3    C1 9064   1.434   1.469  10.004  1.1158 -0.1067  0.2970
  612TMC3    C2 9065   1.559   1.450   9.954 -0.0302  0.2340 -0.0578
  612TMC3    C3 9066   1.660   1.543   9.973 -0.3848  0.2009 -0.0758
  612TMC3    C4 9067   1.409   1.583  10.086 -0.3552 -0.1062  0.0314
  612TMC3    C5 9068   1.514   1.677  10.098  0.5954  0.1320 -0.1915
  612TMC3    C6 9069   1.640   1.658  10.044 -0.2181  0.3693 -0.3982
  612TMC3     C 9070   1.376   1.344  10.040 -0.3987  0.6057  0.0590
  612TMC3     O 9071   1.454   1.249  10.041 -0.3638  0.3457  0.3052
  612TMC3     H 9072   1.583   1.357   9.904 -1.5694 -1.0078  1.5103
  612TMC3    H1 9073   1.315   1.599  10.138 -1.5353 -0.1336 -2.1114
  612TMC3    H2 9074   1.715   1.734  10.029  1.9570 -1.6946  0.1632
  612TMC3    C7 9075   1.498   1.803  10.171  0.7499 -0.1013  0.0784
  612TMC3    C8 9076   1.786   1.490   9.993  0.0202  0.0305 -0.9520
  612TMC3    O1 9077   1.603   1.843  10.213  0.3465 -0.0941  0.6418
  612TMC3    O2 9078   1.839   1.427   9.909 -0.5170 -0.3517  0.1245
  613MPD2     C 9079   0.436   3.760  15.923  0.2467 -0.9142 -0.1710
  613MPD2    C1 9080   0.344   3.833  15.861  0.4724  0.1960  0.1147
  613MPD2    C2 9081   0.223   3.778  15.839 -0.0840 -0.2545  0.3588
  613MPD2    C3 9082   0.193   3.654  15.890  0.3138  0.1116  0.0123
  613MPD2    C4 9083   0.293   3.576  15.947  0.3187 -0.3117  1.0907
  613MPD2    C5 9084   0.414   3.630  15.953 -0.6031  0.3463  0.4989
  613MPD2     H 9085   0.146   3.829  15.781 -0.5897  0.0445  1.2976
  613MPD2    H1 9086   0.274   3.474  15.976  0.7241 -0.4469  0.8762
  613MPD2    H2 9087   0.539   3.790  15.938 -0.0094  0.4304 -1.0258
  613MPD2    H3 9088   0.493   3.571  16.000 -1.1837 -2.5284 -2.1020
  613MPD2     N 9089   0.066   3.600  15.866  0.3804 -0.4072 -0.2324
  613MPD2    H5 9090   0.048   3.503  15.891  0.2534 -0.6297 -1.1843
  613MPD2    N1 9091   0.380   3.959  15.815 -0.1767 -0.0686  0.5366
  613MPD2    H7 9092   0.476   3.987  15.831  1.5426 -4.4964 -2.0801
  614TMC3    C1 9093   0.375   4.122  15.653 -0.1307 -0.4373  0.1543
  614TMC3    C2 9094   0.441   4.037  15.570 -0.7137 -0.3871 -0.0977
  614TMC3    C3 9095   0.422   4.033  15.435 -0.2242  0.8576  0.7355
  614TMC3    C4 9096   0.295   4.218  15.596 -0.0911 -0.0023  0.1019
  614TMC3    C5 9097   0.281   4.217  15.459 -0.1747  0.6983  0.1485
  614TMC3    C6 9098   0.338   4.120  15.373 -0.6689 -0.1273 -0.7096
  614TMC3     C 9099   0.299   4.053  15.749 -0.8245 -0.3156  0.0468
  614TMC3     O 9100   0.175   4.062  15.745  0.3613  0.1035  0.3664
  614TMC3     H 9101   0.502   3.961  15.618  2.8568  2.2491 -0.4911
  614TMC3    H1 9102   0.233   4.282  15.657 -0.0828 -1.8470  2.0395
  614TMC3    H2 9103   0.317   4.133  15.268 -0.5673  0.1511 -0.6970
  614TMC3    C7 9104   0.149   4.268  15.416  0.3602  0.0272  0.7209
  614TMC3    C8 9105   0.408   3.897  15.389 -0.1680 -0.2352  0.3769
  614TMC3    O1 9106   0.105   4.349  15.492 -0.2750  0.0532 -0.3505
  614TMC3    O2 9107   0.413   3.812  15.476 -0.1169 -0.0765  0.0958
  615MPD2     C 9108   4.040   0.080  16.438  0.1858 -0.1995 -0.2294
  615MPD2    C1 9109   3.939   0.174  16.413 -0.6194 -0.4382 -0.3410
  615MPD2    C2 9110   3.865   0.176  16.292  0.5622  0.2232 -0.0020
  615MPD2    C3 9111   3.889   0.077  16.201 -1.1184 -0.3442  0.1004
  615MPD2    C4 9112   3.992   4.713  16.219  0.0570 -0.5495  0.2523
  615MPD2    C5 9113   4.067   4.720  16.335 -0.2279  0.5369 -0.5158
  615MPD2     H 9114   3.781   0.242  16.279 -0.8117 -1.2197  1.5226
  615MPD2    H1 9115   4.010   4.636  16.144 -1.4785 -1.9814  1.3585
  615MPD2    H2 9116   4.100   0.076  16.529  1.9515  0.3568 -1.3836
  615MPD2    H3 9117   4.137   4.641  16.358  0.0710  0.4705 -1.6647
  615MPD2     N 9118   3.813   0.059  16.080  0.3802 -0.0250  0.0996
  615MPD2    H5 9119   3.854   0.003  16.007 -0.2839  0.3632 -0.5717
  615MPD2    N1 9120   3.901   0.274  16.501 -0.3477 -0.0155  0.1920
  615MPD2    H7 9121   3.838   0.341  16.457  0.2361  1.1386  1.1249
  616TMC3    C1 9122   3.875   0.415  16.676 -0.3315  0.0777 -0.7945
  616TMC3    C2 9123   3.931   0.525  16.620 -0.2375  0.2048 -0.1121
  616TMC3    C3 9124   3.860   0.640  16.625  0.4545  0.5380 -0.2686
  616TMC3    C4 9125   3.767   0.430  16.761 -0.6143  0.2924  0.1897
  616TMC3    C5 9126   3.705   0.546  16.769  0.3304  0.6862  0.6566
  616TMC3    C6 9127   3.748   0.652  16.692  0.4303  0.4250  0.4396
  616TMC3     C 9128   3.926   0.287  16.631 -0.1072  0.0033 -0.5364
  616TMC3     O 9129   3.963   0.200  16.706 -0.5820  0.2069  0.2903
  616TMC3     H 9130   4.023   0.516  16.564 -1.0111  1.2845 -1.5698
  616TMC3    H1 9131   3.714   0.341  16.793  1.5240 -1.2496 -0.5047
  616TMC3    H2 9132   3.705   0.751  16.697  2.1725  1.1876  0.4448
  616TMC3    C7 9133   3.571   0.547  16.818 -0.1115  0.9614  0.7242
  616TMC3    C8 9134   3.917   0.754  16.567 -0.3406 -0.1129  0.0190
  616TMC3    O1 9135   3.509   0.649  16.790 -0.0113 -0.0753 -0.4172
  616TMC3    O2 9136   3.838   0.829  16.513 -0.0445 -0.1824  0.2445
  617MPD2     C 9137   1.622   3.697  13.975 -0.1732  0.2630 -0.6307
  617MPD2    C1 9138   1.646   3.598  14.073 -0.5492 -0.4710  0.2898
  617MPD2    C2 9139   1.547   3.504  14.097  0.0592  0.6066 -0.2205
  617MPD2    C3 9140   1.428   3.503  14.016 -0.1890  0.8453 -0.0674
  617MPD2    C4 9141   1.410   3.604  13.922 -0.3447  0.3005  0.6573
  617MPD2    C5 9142   1.507   3.699  13.900 -0.2805  0.1460 -0.7551
  617MPD2     H 9143   1.566   3.415  14.155  0.3321  2.2535  2.2221
  617MPD2    H1 9144   1.326   3.598  13.855  0.9594 -0.5544 -0.8943
  617MPD2    H2 9145   1.700   3.768  13.947 -2.2327  3.8561  2.7478
  617MPD2    H3 9146   1.498   3.765  13.815 -1.1125  0.1034 -0.7036
  617MPD2     N 9147   1.346   3.389  14.026  0.7296 -0.5911  0.0461
  617MPD2    H5 9148   1.379   3.326  14.099  1.0495 -2.3610 -1.6092
  617MPD2    N1 9149   1.778   3.595  14.123  0.3780  0.4180 -0.0902
  617MPD2    H7 9150   1.843   3.648  14.065  0.2635 -0.5975 -1.1514
  618TMC3    C1 9151   1.979   3.513  14.188  0.8146  0.2493  0.1461
  618TMC3    C2 9152   2.042   3.411  14.134  0.2624  0.2272  0.1312
  618TMC3    C3 9153   2.171   3.429  14.100  0.3644  0.4747  0.4033
  618TMC3    C4 9154   2.036   3.635  14.189  0.1033 -0.2322 -0.3341
  618TMC3    C5 9155   2.167   3.662  14.142  0.1423  0.0418 -0.1819
  618TMC3    C6 9156   2.239   3.553  14.107 -0.0745  0.3499  0.2607
  618TMC3     C 9157   1.837   3.498  14.198  0.5368  0.3808  0.6489
  618TMC3     O 9158   1.790   3.405  14.261  0.3817 -0.8096 -0.3273
  618TMC3     H 9159   1.993   3.314  14.137 -0.5662  0.6632  0.7851
  618TMC3    H1 9160   1.978   3.720  14.224  0.2733 -0.1533 -0.2443
  618TMC3    H2 9161   2.346   3.557  14.089 -0.6981  0.1676 -3.5531
  618TMC3    C7 9162   2.213   3.800  14.113 -0.7414  0.0609 -0.2763
  618TMC3    C8 9163   2.238   3.322  14.021 -0.2535  0.3327 -0.1135
  618TMC3    O1 9164   2.130   3.887  14.140 -0.4742  0.3032  0.5524
  618TMC3    O2 9165   2.180   3.217  14.013  0.2275 -0.6638 -0.1139
  619MPD2     C 9166   3.768   0.020  13.890  0.2025  0.7132 -0.3298
  619MPD2    C1 9167   3.774   0.060  13.760  0.4457 -0.0238  0.7489
  619MPD2    C2 9168   3.661   0.054  13.682  0.0414  0.6781 -0.2923
  619MPD2    C3 9169   3.541   0.017  13.741  0.2094 -0.2206 -0.1819
  619MPD2    C4 9170   3.537   4.695  13.868  0.0354 -0.3307  0.3770
  619MPD2    C5 9171   3.645   4.705  13.944  0.5414  0.5041  0.4765
  619MPD2     H 9172   3.671   0.082  13.578  1.1496 -0.5701 -0.5217
  619MPD2    H1 9173   3.448   4.654  13.914 -0.3742 -0.1564 -0.2613
  619MPD2    H2 9174   3.860   0.017  13.947  0.2685 -1.9399 -0.5389
  619MPD2    H3 9175   3.632   4.666  14.044 -2.6971  1.7421  0.5501
  619MPD2     N 9176   3.420   4.723  13.670  0.5959  0.2338 -0.4702
  619MPD2    H5 9177   3.346   4.687  13.729 -0.2352  2.0574 -0.4030
  619MPD2    N1 9178   3.896   0.083  13.693  0.1113  0.3513 -0.0320
  619MPD2    H7 9179   3.893   0.113  13.596 -0.4894  0.6977  0.0875
  620TMC3    C1 9180   4.131   0.100  13.661 -0.3223 -0.5651  0.0406
  620TMC3    C2 9181   4.095   0.088  13.529 -0.3940  0.5007 -0.2318
  620TMC3    C3 9182   4.149   0.184  13.449 -0.3130  0.2500 -0.1898
  620TMC3    C4 9183   4.230   0.179  13.710 -0.6853  0.1189  0.5475
  620TMC3    C5 9184   4.276   0.271  13.620  0.0236  0.2004  0.1288
  620TMC3    C6 9185   4.240   0.279  13.489  0.4476 -0.3073 -0.1292
  620TMC3     C 9186   4.019   0.082  13.751  0.6197  0.0900  0.0376
  620TMC3     O 9187   4.062   0.057  13.863 -0.0015  0.3712  0.0251
  620TMC3     H 9188   4.017   0.017  13.501  0.6814  0.2125 -2.5025
  620TMC3    H1 9189   4.250   0.182  13.816 -2.7095 -0.4633  0.9411
  620TMC3    H2 9190   4.290   0.340  13.414  0.5190  0.6091  0.6614
  620TMC3    C7 9191   4.315   0.392  13.681  0.2575  0.4371  0.2674
  620TMC3    C8 9192   4.044   0.248  13.379 -0.3872  0.4059  0.1280
  620TMC3    O1 9193   4.375   0.383  13.788 -0.1284 -0.2140  0.6102
  620TMC3    O2 9194   4.054   0.372  13.385  0.3272 -0.3250  0.2507
  621MPD2     C 9195   3.368   4.614  10.549  0.3126 -0.3896  0.4417
  621MPD2    C1 9196   3.449   4.584  10.441  0.2792  0.8239  1.0242
  621MPD2    C2 9197   3.569   4.652  10.426  0.0586 -0.5977  0.0305
  621MPD2    C3 9198   3.598   0.036  10.511 -0.4357 -0.3544  0.9357
  621MPD2    C4 9199   3.512   0.061  10.616 -0.5483  0.1864 -0.7193
  621MPD2    C5 9200   3.402   4.712  10.639  0.4979 -0.6751  0.3188
  621MPD2     H 9201   3.636   4.645  10.340  0.7774 -0.9073  0.6099
  621MPD2    H1 9202   3.542   0.136  10.688 -1.6152 -0.2844  0.2120
  621MPD2    H2 9203   3.271   4.567  10.556 -0.0347  0.1806 -0.5216
  621MPD2    H3 9204   3.329   0.016  10.713  0.1460 -0.6414 -0.0396
  621MPD2     N 9205   3.717   0.112  10.485  0.1429  0.0674 -0.2131
  621MPD2    H5 9206   3.785   0.070  10.423  0.6752 -0.4338  0.7068
  621MPD2    N1 9207   3.423   4.492  10.342 -0.5731  0.3761  0.2315
  621MPD2    H7 9208   3.487   4.486  10.264 -0.9374 -0.6380  0.0113
  622TMC3    C1 9209   3.290   4.340  10.208 -0.3335 -0.3374 -0.1579
  622TMC3    C2 9210   3.158   4.304  10.167 -0.4051 -0.0623 -0.0057
  622TMC3    C3 9211   3.142   4.276  10.033  0.0485  0.2126  0.5149
  622TMC3    C4 9212   3.398   4.336  10.117 -0.4077  0.4169 -0.4377
  622TMC3    C5 9213   3.374   4.300   9.986  0.1892  0.4026  0.3685
  622TMC3    C6 9214   3.245   4.275   9.945  0.1453  0.3436 -0.3199
  622TMC3     C 9215   3.305   4.417  10.332  0.7763 -0.0359  0.6427
  622TMC3     O 9216   3.205   4.423  10.400 -0.0351  0.5261  0.4201
  622TMC3     H 9217   3.067   4.311  10.225  1.6371 -0.8314  3.3248
  622TMC3    H1 9218   3.497   4.361  10.152 -0.9079  2.7540 -0.7254
  622TMC3    H2 9219   3.225   4.249   9.842 -1.0486  0.5433 -0.1412
  622TMC3    C7 9220   3.483   4.327   9.898  0.2614  1.0965 -0.4587
  622TMC3    C8 9221   3.013   4.282   9.971  0.7637 -0.2249 -0.1266
  622TMC3    O1 9222   3.594   4.320   9.945 -0.1265  0.3388 -0.0249
  622TMC3    O2 9223   2.965   4.198   9.896  0.3161 -0.2029  0.0554
  623MPD2     C 9224   2.521   0.725  15.834 -0.2722 -0.1787 -0.7291
  623MPD2    C1 9225   2.501   0.658  15.948  0.4386 -0.0808 -0.7322
  623MPD2    C2 9226   2.601   0.648  16.045 -0.6370  0.4145  0.6816
  623MPD2    C3 9227   2.727   0.716  16.023  0.1860  0.2427 -0.1673
  623MPD2    C4 9228   2.737   0.783  15.903 -0.4411 -0.4608  1.4731
  623MPD2    C5 9229   2.636   0.788  15.808  0.0734 -0.1466  0.2909
  623MPD2     H 9230   2.581   0.591  16.135 -0.8843 -0.3104  0.1644
  623MPD2    H1 9231   2.829   0.839  15.889 -0.0852 -1.1823  0.8953
  623MPD2    H2 9232   2.452   0.723  15.750 -0.7414  1.2300 -0.3940
  623MPD2    H3 9233   2.648   0.845  15.717 -1.0450  0.2954  0.4289
  623MPD2     N 9234   2.819   0.712  16.125 -0.1044  0.5954  0.2672
  623MPD2    H5 9235   2.793   0.673  16.215 -1.8133  0.7069 -0.1840
  623MPD2    N1 9236   2.375   0.592  15.971 -0.1323  0.3707  0.1819
  623MPD2    H7 9237   2.322   0.590  15.884 -0.6592  0.4733  0.4994
  624TMC3    C1 9238   3.088   0.781  16.464  0.3152  0.6644 -0.2876
  624TMC3    C2 9239   2.983   0.808  16.546 -0.7802  0.2541  0.3866
  624TMC3    C3 9240   2.864   0.831  16.486 -0.2623 -0.1542  0.4891
  624TMC3    C4 9241   3.081   0.787  16.323 -1.2223  0.1356  0.3377
  624TMC3    C5 9242   2.953   0.807  16.275 -0.1287 -0.1472  0.8910
  624TMC3    C6 9243   2.842   0.833  16.354 -0.1795 -0.0513  0.0599
  624TMC3     C 9244   3.172   0.672  16.511 -0.0760  0.5475  0.6144
  624TMC3     O 9245   3.130   0.618  16.611 -0.0558 -0.5219 -0.8627
  624TMC3     H 9246   2.982   0.789  16.653 -0.8731  1.7062  0.6353
  624TMC3    H1 9247   3.154   0.754  16.251 -0.8153 -0.1294  0.8665
  624TMC3    H2 9248   2.746   0.868  16.317 -0.7171 -0.2148  1.3052
  624TMC3    C7 9249   2.934   0.780  16.135 -0.9350 -0.3681 -0.1837
  624TMC3    C8 9250   2.745   0.828  16.573 -0.1026  0.2034  0.1919
  624TMC3    O1 9251   2.998   0.831  16.040  0.6819  0.2271  0.0531
  624TMC3    O2 9252   2.759   0.866  16.688 -0.1219 -0.1374 -0.2878
  625MPD2     C 9253   1.968   1.170   0.567  0.0589  0.4748 -0.5896
  625MPD2    C1 9254   2.060   1.263   0.617 -0.3890 -0.4327 -0.7604
  625MPD2    C2 9255   2.147   1.230   0.714  0.6032 -0.6816 -0.2205
  625MPD2    C3 9256   2.157   1.099   0.751  1.0358 -0.7839 -0.8010
  625MPD2    C4 9257   2.063   1.002   0.711 -0.2061 -0.2002 -0.8191
  625MPD2    C5 9258   1.975   1.042   0.617 -0.1890 -0.2028  0.2292
  625MPD2     H 9259   2.222   1.304   0.741 -1.2518  0.8917  0.5897
  625MPD2    H1 9260   2.056   0.904   0.758 -3.4080 -0.0430 -1.0126
  625MPD2    H2 9261   1.895   1.187   0.489  0.6254  0.8672 -1.0282
  625MPD2    H3 9262   1.907   0.971   0.573 -1.3061 -0.5715  2.5333
  625MPD2     N 9263   2.263   1.060   0.838  0.2671  0.5519  0.1018
  625MPD2    H5 9264   2.326   1.138   0.854  2.4081 -1.7067  2.6409
  625MPD2    N1 9265   2.058   1.403   0.568 -0.4212 -0.0881 -0.6630
  625MPD2    H7 9266   2.119   1.469   0.615 -1.6494  0.2463  0.4565
  626TMC3    C1 9267   1.993   1.585   0.434 -0.3888 -0.9412 -0.5135
  626TMC3    C2 9268   1.954   1.633   0.313  1.1656  0.1246 -0.2607
  626TMC3    C3 9269   1.966   1.759   0.290  0.2366  0.2685  0.6288
  626TMC3    C4 9270   2.019   1.674   0.539 -0.0105  0.5590  0.3515
  626TMC3    C5 9271   2.011   1.809   0.519  0.9847  0.3024  0.5910
  626TMC3    C6 9272   1.992   1.851   0.390  0.1243 -0.9266 -0.0015
  626TMC3     C 9273   1.988   1.442   0.456 -1.4624 -0.0480  0.8833
  626TMC3     O 9274   1.937   1.370   0.372  0.0227  0.4068 -0.1239
  626TMC3     H 9275   1.930   1.571   0.227 -2.2582 -0.9470  1.4910
  626TMC3    H1 9276   2.035   1.633   0.639  0.3322 -0.2619 -0.0378
  626TMC3    H2 9277   2.000   1.956   0.366 -2.6940 -1.4305 -3.0041
  626TMC3    C7 9278   1.994   1.893   0.631  0.3297  0.1162  0.0023
  626TMC3    C8 9279   1.959   1.813   0.150 -0.4473 -0.0397  0.2605
  626TMC3    O1 9280   2.048   1.854   0.731  0.0575  0.5913  0.1009
  626TMC3    O2 9281   2.006   1.922   0.128 -0.1479  0.0260  0.0872
  627MPD2     C 9282   1.291   2.176  14.397  0.2163 -0.2995  0.0367
  627MPD2    C1 9283   1.348   2.140  14.520 -0.1543  0.3968  0.5524
  627MPD2    C2 9284   1.319   2.011  14.576 -0.0285  0.3144  1.1908
  627MPD2    C3 9285   1.232   1.919  14.516 -0.5976 -0.2274 -0.5810
  627MPD2    C4 9286   1.176   1.963  14.397  0.2613 -1.1287 -0.1644
  627MPD2    C5 9287   1.193   2.089  14.347  0.0737  0.0191  0.1231
  627MPD2     H 9288   1.375   1.994  14.668  0.8897  0.2186  0.6146
  627MPD2    H1 9289   1.104   1.896  14.351  0.5333  0.5529 -3.0346
  627MPD2    H2 9290   1.281   2.280  14.368 -0.3526 -0.8095 -1.5925
  627MPD2    H3 9291   1.139   2.126  14.261  0.0374 -1.1701 -0.3639
  627MPD2     N 9292   1.202   1.798  14.581 -0.4019  0.4995  0.6230
  627MPD2    H5 9293   1.247   1.791  14.671  1.5738  1.0097 -0.3215
  627MPD2    N1 9294   1.425   2.228  14.600 -0.2272  0.4128 -0.1651
  627MPD2    H7 9295   1.465   2.182  14.682  0.1645 -1.2568 -1.2930
  628TMC3    C1 9296   1.546   2.412  14.665 -0.0693  0.5518  0.4346
  628TMC3    C2 9297   1.667   2.340  14.659  0.1851 -0.2683  0.2249
  628TMC3    C3 9298   1.777   2.413  14.672  0.7869  1.1596 -0.3199
  628TMC3    C4 9299   1.540   2.548  14.696  0.8498  0.3128 -0.4330
  628TMC3    C5 9300   1.657   2.617  14.709 -0.0002  0.3821 -0.2147
  628TMC3    C6 9301   1.778   2.546  14.698  0.1541 -0.2747  0.3679
  628TMC3     C 9302   1.447   2.363  14.579  0.3955  0.7281  0.2024
  628TMC3     O 9303   1.389   2.448  14.513  0.5684  0.1903 -0.4932
  628TMC3     H 9304   1.678   2.238  14.624  0.1960 -0.1902 -0.0042
  628TMC3    H1 9305   1.442   2.593  14.702  0.0173 -1.8590  2.2221
  628TMC3    H2 9306   1.873   2.597  14.686  0.2372 -1.2375 -2.8505
  628TMC3    C7 9307   1.669   2.748  14.670  0.6078 -0.7662 -0.5987
  628TMC3    C8 9308   1.909   2.354  14.655 -0.0731 -0.2195  0.4897
  628TMC3    O1 9309   1.771   2.803  14.701  0.0672 -0.2762  0.1418
  628TMC3    O2 9310   1.913   2.282  14.557 -0.5831  0.4596  0.1163
  629MPD2     C 9311   4.328   0.956  16.345 -0.6718  0.4597 -0.2284
  629MPD2    C1 9312   4.365   0.856  16.430  0.0972 -0.5835 -0.2335
  629MPD2    C2 9313   4.270   0.794  16.513 -0.0213 -0.7268  0.1859
  629MPD2    C3 9314   4.144   0.837  16.504 -0.2523 -0.3090 -0.0723
  629MPD2    C4 9315   4.106   0.944  16.430  0.0171 -0.4484 -0.1515
  629MPD2    C5 9316   4.197   1.000  16.346 -0.1559  0.2047 -0.3018
  629MPD2     H 9317   4.292   0.706  16.574 -0.9972 -1.5202 -0.6049
  629MPD2    H1 9318   4.008   0.987  16.447  0.1569 -0.4191  0.5793
  629MPD2    H2 9319   4.398   1.021  16.294 -0.5481  0.9383  0.5449
  629MPD2    H3 9320   4.158   1.075  16.278 -1.7383  0.8370  1.2775
  629MPD2     N 9321   4.053   0.759  16.578  1.0359 -0.0420 -0.1362
  629MPD2    H5 9322   4.102   0.683  16.624  1.1701  0.8434  1.1707
  629MPD2    N1 9323   4.501   0.815  16.434 -0.3907 -0.7858  0.0668
  629MPD2    H7 9324   4.557   0.868  16.368 -1.6385  0.6051  0.0991
  630TMC3    C1 9325   4.700   0.687  16.483 -0.6116  0.5041  0.0672
  630TMC3    C2 9326   0.051   0.785  16.420 -0.7503  0.1442 -0.3439
  630TMC3    C3 9327   0.176   0.738  16.385 -0.0065 -0.0368 -0.0190
  630TMC3    C4 9328   0.025   0.562  16.525 -0.1119 -0.1993 -0.0010
  630TMC3    C5 9329   0.150   0.530  16.485  0.1608  0.7816 -0.6584
  630TMC3    C6 9330   0.227   0.615  16.413 -0.9120 -0.0744  0.2199
  630TMC3     C 9331   4.555   0.716  16.511 -0.4230 -0.0540  0.1976
  630TMC3     O 9332   4.504   0.653  16.600  0.1306 -0.2957  0.2957
  630TMC3     H 9333   0.025   0.888  16.398  0.4230  0.7548  1.0492
  630TMC3    H1 9334   4.676   0.494  16.563  0.4615 -0.2321  1.0457
  630TMC3    H2 9335   0.327   0.578  16.393  0.6224  2.7673  2.7501
  630TMC3    C7 9336   0.229   0.446  16.571  0.7121 -0.1995 -0.5889
  630TMC3    C8 9337   0.267   0.841  16.335  0.0785 -0.3087 -0.0373
  630TMC3    O1 9338   0.344   0.481  16.601  0.7690  0.1065  0.0915
  630TMC3    O2 9339   0.380   0.823  16.376 -0.2200  0.4160  0.0713
  631MPD2     C 9340   2.987   0.331  15.447 -0.2645 -0.0643  0.1234
  631MPD2    C1 9341   3.093   0.409  15.413 -0.5222  0.7997 -0.8748
  631MPD2    C2 9342   3.221   0.369  15.458  0.3600  0.2270 -0.4881
  631MPD2    C3 9343   3.232   0.261  15.547  0.5354  0.0151 -0.5088
  631MPD2    C4 9344   3.117   0.190  15.582 -0.1199 -0.2431 -0.6319
  631MPD2    C5 9345   3.001   0.225  15.527  0.1354  0.1695  0.3358
  631MPD2     H 9346   3.309   0.423  15.424  0.4226  1.8303  2.2039
  631MPD2    H1 9347   3.116   0.102  15.645 -1.5853 -1.5756 -2.5252
  631MPD2    H2 9348   2.888   0.358  15.413  0.0093  0.3900 -0.3116
  631MPD2    H3 9349   2.914   0.172  15.563  0.5246 -0.3975  0.4503
  631MPD2     N 9350   3.356   0.228  15.594  0.5438  0.0881 -0.1939
  631MPD2    H5 9351   3.438   0.274  15.557  1.4140  0.2117  1.8982
  631MPD2    N1 9352   3.063   0.527  15.345 -0.1390  0.1671 -0.2704
  631MPD2    H7 9353   2.968   0.531  15.310 -1.5509  0.7193  3.5677
  632TMC3    C1 9354   3.065   0.739  15.266 -0.1186  0.3335  0.3257
  632TMC3    C2 9355   2.936   0.747  15.300  0.1753  0.9883  0.1357
  632TMC3    C3 9356   2.850   0.804  15.216  0.5029 -0.3186 -0.8285
  632TMC3    C4 9357   3.096   0.786  15.143  0.6637  0.1875 -0.8004
  632TMC3    C5 9358   3.013   0.847  15.053  0.1402  0.5836  0.5614
  632TMC3    C6 9359   2.882   0.850  15.088  0.6669  0.1862 -0.3464
  632TMC3     C 9360   3.147   0.632  15.314 -0.3029  0.0911 -0.7420
  632TMC3     O 9361   3.266   0.650  15.334  0.4599  0.2875  0.2390
  632TMC3     H 9362   2.905   0.726  15.401  1.1095  0.4409  0.3048
  632TMC3    H1 9363   3.199   0.766  15.115  1.0028  1.3792 -0.4232
  632TMC3    H2 9364   2.827   0.916  15.022  1.3627  1.4963  0.3784
  632TMC3    C7 9365   3.063   0.925  14.937 -0.0704  0.2428 -0.5212
  632TMC3    C8 9366   2.734   0.860  15.269  0.3482  0.1662  0.1455
  632TMC3    O1 9367   2.992   0.964  14.847 -0.0631 -0.4303 -0.2975
  632TMC3    O2 9368   2.733   0.884  15.389  0.1472  0.0420  0.2277
  633MPD2     C 9369   2.755   3.358  17.085  1.1660 -0.4169  0.7851
  633MPD2    C1 9370   2.743   3.316  16.951 -0.3429 -0.0398  0.3542
  633MPD2    C2 9371   2.687   3.190  16.922  0.3802  0.4064  0.3491
  633MPD2    C3 9372   2.665   3.105  17.025  0.7187  0.1970 -1.1592
  633MPD2    C4 9373   2.682   3.141  17.158 -0.4438  0.0304  0.1748
  633MPD2    C5 9374   2.728   3.266  17.180  0.5073 -0.4225  0.7456
  633MPD2     H 9375   2.678   3.163  16.817  0.1282  3.1064 -0.3396
  633MPD2    H1 9376   2.661   3.080  17.244 -0.9057 -0.4449 -0.2753
  633MPD2    H2 9377   2.799   3.452  17.115  0.1422  0.4558 -0.4796
  633MPD2    H3 9378   2.734   3.303  17.282 -1.2044  1.6924  0.0783
  633MPD2     N 9379   2.622   2.974  17.004 -0.6739  0.3774  0.3702
  633MPD2    H5 9380   2.621   2.918  17.089 -3.5767  0.1790  0.2219
  633MPD2    N1 9381   2.780   3.393  16.842  0.3005 -0.4352  0.3115
  633MPD2    H7 9382   2.780   3.351  16.750  0.6850  2.1085 -0.8637
  634TMC3    C1 9383   2.824   3.562  16.704  0.5721 -0.0585  0.4155
  634TMC3    C2 9384   2.879   3.467  16.614 -0.1274 -0.6904 -0.3217
  634TMC3    C3 9385   2.866   3.493  16.482 -0.5456 -0.5810 -0.2186
  634TMC3    C4 9386   2.772   3.684  16.667  0.1151 -0.5843 -0.3556
  634TMC3    C5 9387   2.779   3.708  16.525  0.2348 -0.3860  0.9159
  634TMC3    C6 9388   2.814   3.612  16.431 -0.4489 -0.1982 -0.6661
  634TMC3     C 9389   2.814   3.524  16.843  0.1555  0.3686 -0.0357
  634TMC3     O 9390   2.778   3.608  16.924  0.2779  0.1462  0.1693
  634TMC3     H 9391   2.917   3.370  16.643  1.0585 -0.0313  0.3025
  634TMC3    H1 9392   2.717   3.742  16.740  0.6008  0.3554 -0.7348
  634TMC3    H2 9393   2.795   3.634  16.326 -0.4199  0.8335 -0.4554
  634TMC3    C7 9394   2.734   3.832  16.476  0.3862 -0.7369  0.5130
  634TMC3    C8 9395   2.876   3.381  16.395  1.0300 -0.2702 -0.4096
  634TMC3    O1 9396   2.699   3.828  16.360  0.6689 -0.0039  0.4080
  634TMC3    O2 9397   2.860   3.270  16.436 -0.3097  0.0915  0.0551
  635TMC3    C1 9398   3.112   3.655  17.413  0.4315  0.9079 -0.0248
  635TMC3    C2 9399   3.118   3.644  17.273  0.7497  0.7419 -0.4825
  635TMC3    C3 9400   3.075   3.531  17.214 -0.0922 -0.4386  0.5355
  635TMC3    C4 9401   3.067   3.554  17.494  0.5066 -0.5007  0.1519
  635TMC3    C5 9402   3.032   3.435  17.425  0.0290  0.1917  0.7195
  635TMC3    C6 9403   3.032   3.428  17.289  0.0747  0.2106 -0.8262
  635TMC3     C 9404   3.136   3.783  17.480  0.6100 -0.7236  0.3612
  635TMC3     O 9405   3.134   3.776  17.601 -0.3556 -0.5536 -0.5535
  635TMC3     H 9406   3.179   3.715  17.217  0.7949  0.3575 -0.9168
  635TMC3    H1 9407   3.092   3.561  17.600  1.0247 -1.4102  0.0908
  635TMC3    H2 9408   2.994   3.337  17.245  0.6719 -1.5567  2.3221
  635TMC3    C7 9409   2.986   3.321  17.501 -0.4661  0.4655 -0.6321
  635TMC3    C8 9410   3.114   3.491  17.079  0.3705  0.4876  0.3970
  635TMC3    O1 9411   2.992   3.211  17.448  0.3314 -0.2833 -0.1656
  635TMC3    O2 9412   3.092   3.375  17.050 -0.2935  0.3399  0.0059
  636MPD2     C 9413   4.099   4.052  15.397  0.3830  0.1257  0.4730
  636MPD2    C1 9414   4.126   4.021  15.530 -0.0617 -0.9283 -0.0505
  636MPD2    C2 9415   4.225   3.935  15.562 -0.4211 -0.1551 -0.4107
  636MPD2    C3 9416   4.295   3.874  15.459  0.5490 -0.1569  0.5516
  636MPD2    C4 9417   4.288   3.913  15.322 -0.0368 -0.4826  0.3588
  636MPD2    C5 9418   4.181   4.001  15.295 -0.1294 -0.4129 -0.2610
  636MPD2     H 9419   4.240   3.910  15.666 -0.2947 -0.5543 -0.5227
  636MPD2    H1 9420   4.340   3.869  15.238 -0.7263  0.4840 -0.5681
  636MPD2    H2 9421   4.010   4.101  15.362 -0.7674 -1.0563  1.7482
  636MPD2    H3 9422   4.154   4.035  15.196 -0.9690  0.0593  0.1274
  636MPD2     N 9423   4.364   3.761  15.505 -0.7971 -0.6489  0.0968
  636MPD2    H5 9424   4.354   3.735  15.603  0.1532 -2.0535 -0.1820
  636MPD2    N1 9425   4.045   4.067  15.637  0.0964 -0.5200 -0.0229
  636MPD2    H7 9426   4.068   4.020  15.725 -1.4609  0.6179  0.9923
  637TMC3    C1 9427   4.506   3.577  15.504 -0.5451  0.7890 -0.7323
  637TMC3    C2 9428   4.518   3.602  15.643  0.5661  0.1256  0.1314
  637TMC3    C3 9429   4.617   3.550  15.714 -1.3265 -0.4702  0.4280
  637TMC3    C4 9430   4.587   3.499  15.434 -0.0448  0.3374  0.0984
  637TMC3    C5 9431   4.692   3.447  15.504  0.3231 -0.0479 -0.2547
  637TMC3    C6 9432   4.705   3.463  15.643 -0.5096  0.0526  0.1441
  637TMC3     C 9433   4.443   3.676  15.427  0.6220 -0.1330  0.3683
  637TMC3     O 9434   4.447   3.667  15.303 -0.4052 -0.0341  0.1159
  637TMC3     H 9435   4.471   3.681  15.700 -0.4331  0.8006 -1.6470
  637TMC3    H1 9436   4.559   3.466  15.335 -0.6287 -1.3603  0.8391
  637TMC3    H2 9437   0.073   3.433  15.690 -0.7599 -1.3332 -0.2552
  637TMC3    C7 9438   0.091   3.481  15.447  0.0595  0.2181 -0.7045
  637TMC3    C8 9439   4.691   3.654  15.786 -0.4674 -0.2354 -0.8433
  637TMC3    O1 9440   0.178   3.525  15.525 -0.2224 -0.6743  0.4056
  637TMC3    O2 9441   4.667   3.766  15.744 -0.2240 -0.0360 -0.0465
  638MPD2     C 9442   3.794   2.989  14.569 -0.2988  0.1161  0.4141
  638MPD2    C1 9443   3.758   2.873  14.500 -0.2053 -0.2212  0.1624
  638MPD2    C2 9444   3.801   2.751  14.553  0.1609  0.1529 -0.4129
  638MPD2    C3 9445   3.845   2.739  14.678 -0.2606  0.0801  0.3531
  638MPD2    C4 9446   3.884   2.854  14.752  0.3460 -0.5785 -0.2604
  638MPD2    C5 9447   3.863   2.979  14.687 -0.5881  0.5179 -0.0177
  638MPD2     H 9448   3.798   2.662  14.492  0.0924 -0.4607  0.4805
  638MPD2    H1 9449   3.932   2.860  14.849 -2.4013  0.5924  1.0472
  638MPD2    H2 9450   3.785   3.084  14.517 -0.7170  0.7874  1.6956
  638MPD2    H3 9451   3.893   3.067  14.743  0.1384 -0.0178  0.4506
  638MPD2     N 9452   3.861   2.605  14.727 -0.1256  0.7854  0.1994
  638MPD2    H5 9453   3.819   2.540  14.661 -0.4218  0.9621  0.2159
  638MPD2    N1 9454   3.706   2.895  14.373  0.6840  0.3295  0.6568
  638MPD2    H7 9455   3.718   2.988  14.335  0.8415 -0.0336 -0.1737
  639TMC3    C1 9456   3.898   2.430  14.869  0.2160 -0.9031 -0.1807
  639TMC3    C2 9457   3.776   2.381  14.855 -0.2690 -0.0990 -0.1032
  639TMC3    C3 9458   3.727   2.285  14.937  0.0067 -0.2899 -0.4260
  639TMC3    C4 9459   3.978   2.379  14.963 -0.2736  0.5190 -0.5193
  639TMC3    C5 9460   3.939   2.279  15.041 -0.1808  0.3425 -0.7077
  639TMC3    C6 9461   3.808   2.228  15.036 -0.1020  0.0643  0.0158
  639TMC3     C 9462   3.912   2.568  14.847 -0.2082  0.6362  0.7273
  639TMC3     O 9463   3.987   2.628  14.926 -0.9261  0.5127 -0.1304
  639TMC3     H 9464   3.704   2.428  14.789 -1.4751 -0.1652  1.1449
  639TMC3    H1 9465   4.078   2.421  14.967 -0.3009  0.5241  0.2214
  639TMC3    H2 9466   3.781   2.139  15.092  0.9090  0.1123  0.5634
  639TMC3    C7 9467   4.035   2.184  15.105  0.6691  0.2079  1.1085
  639TMC3    C8 9468   3.616   2.211  14.876 -0.6015 -0.0272  0.3860
  639TMC3    O1 9469   3.989   2.108  15.191 -0.0790 -0.7154  0.5340
  639TMC3    O2 9470   3.585   2.240  14.763  0.0953  0.5742  0.8238
  640MPD2     C 9471   0.098   0.953   9.833  0.5329 -0.0491  0.0980
  640MPD2    C1 9472   0.085   0.815   9.845 -0.2310  1.3001  0.1734
  640MPD2    C2 9473   4.691   0.763   9.896  0.2503  0.1201  0.6333
  640MPD2    C3 9474   4.592   0.853   9.933 -0.5877  0.1115  0.4139
  640MPD2    C4 9475   4.612   0.989   9.928  0.1831  0.0156 -0.4486
  640MPD2    C5 9476   0.005   1.040   9.882 -1.0146  0.2996 -0.2077
  640MPD2     H 9477   4.664   0.659   9.884  1.9011 -0.5800  3.0150
  640MPD2    H1 9478   4.528   1.047   9.964 -0.0825  0.4027 -1.6814
  640MPD2    H2 9479   0.187   0.993   9.786 -0.4253 -1.1682 -2.6537
  640MPD2    H3 9480   0.023   1.145   9.861  0.2967  0.1480  0.1463
  640MPD2     N 9481   4.480   0.807   9.990 -0.2048  0.0327  0.7351
  640MPD2    H5 9482   4.404   0.874   9.980  1.2090  1.5026 -0.2717
  640MPD2    N1 9483   0.187   0.730   9.799  0.9812  0.0158  0.3174
  640MPD2    H7 9484   0.275   0.775   9.776 -0.2861  2.4220  0.1475
  641TMC3    C1 9485   0.312   0.531   9.762 -0.1604  0.0981 -0.1858
  641TMC3    C2 9486   0.331   0.399   9.810  0.0412 -0.0993  0.6759
  641TMC3    C3 9487   0.463   0.354   9.805  0.9573 -0.2933  0.2703
  641TMC3    C4 9488   0.406   0.606   9.705  0.7324  0.1024 -0.1522
  641TMC3    C5 9489   0.527   0.544   9.683  0.6359  0.1021  0.4182
  641TMC3    C6 9490   0.563   0.420   9.734 -0.1466 -0.4522 -0.8017
  641TMC3     C 9491   0.188   0.595   9.810 -0.6824  0.0011  0.0368
  641TMC3     O 9492   0.106   0.516   9.850 -0.3264  0.7644 -0.1875
  641TMC3     H 9493   0.257   0.345   9.868  0.1351  0.1875  1.0640
  641TMC3    H1 9494   0.382   0.704   9.664 -1.4769 -0.1767  0.4871
  641TMC3    H2 9495   0.666   0.385   9.739 -0.0754  0.0892  1.5394
  641TMC3    C7 9496   0.601   0.614   9.580 -0.5154 -0.3572 -0.0903
  641TMC3    C8 9497   0.477   0.211   9.845  0.2732 -0.9139  0.1713
  641TMC3    O1 9498   0.585   0.735   9.569 -0.7859 -0.6377  0.8072
  641TMC3    O2 9499   0.368   0.149   9.858  0.0118  0.1932  0.1405
  642TMC3    C1 9500   0.240   2.714  12.336  0.0365  0.7654  0.4272
  642TMC3    C2 9501   0.157   2.746  12.448  0.1274  0.4775  0.0200
  642TMC3    C3 9502   0.076   2.636  12.488 -0.2763 -0.2034 -0.1080
  642TMC3    C4 9503   0.251   2.581  12.291 -0.4482 -0.0403 -0.6305
  642TMC3    C5 9504   0.184   2.483  12.357  0.5348 -0.0312 -1.0133
  642TMC3    C6 9505   0.087   2.509  12.447  0.0761  0.1950  0.0836
  642TMC3     C 9506   0.258   2.817  12.237  0.3731 -0.2730  0.5879
  642TMC3     O 9507   0.347   2.794  12.152 -0.3460  0.2207  0.0150
  642TMC3     H 9508   0.154   2.844  12.495  0.1209  1.5165 -2.1211
  642TMC3    H1 9509   0.319   2.563  12.208 -1.3265 -2.8583 -0.7312
  642TMC3    H2 9510   0.030   2.430  12.494 -0.4667  0.5410  0.0017
  642TMC3    C7 9511   0.176   2.360  12.281  1.2389 -0.1267 -0.1315
  642TMC3    C8 9512   0.014   2.653  12.620 -0.1225  0.0529 -0.0680
  642TMC3    O1 9513   0.155   2.383  12.162 -0.2073  0.5251 -0.4509
  642TMC3    O2 9514   4.723   2.548  12.685  0.3827 -0.4736  0.7497
  643TMC3    C1 9515   4.008   2.822   0.191  0.5227  0.8479  0.1538
  643TMC3    C2 9516   3.904   2.897   0.149  0.7243  0.4854 -0.0981
  643TMC3    C3 9517   3.782   2.831   0.116  0.7655  0.6287 -0.4630
  643TMC3    C4 9518   4.003   2.688   0.190  0.1093  0.0383  1.1477
  643TMC3    C5 9519   3.882   2.626   0.158 -0.2198  0.3649  0.0459
  643TMC3    C6 9520   3.761   2.695   0.130  0.1791 -0.5902 -0.2405
  643TMC3     C 9521   4.120   2.887   0.253 -0.2150  0.0634  0.6202
  643TMC3     O 9522   4.113   3.008   0.270  0.9390 -0.0492 -0.1641
  643TMC3     H 9523   3.917   3.001   0.124  1.2198  0.4076 -0.1622
  643TMC3    H1 9524   4.084   2.618   0.209 -1.2951 -1.9598 -0.2262
  643TMC3    H2 9525   3.686   2.638   0.076 -0.3139  0.7716 -0.9792
  643TMC3    C7 9526   3.905   2.515   0.068  0.3161 -0.1426  0.0574
  643TMC3    C8 9527   3.717   2.888  17.702  0.3223 -0.4035  0.3645
  643TMC3    O1 9528   4.008   2.523   0.004  0.2057  0.0575  0.1298
  643TMC3    O2 9529   3.603   2.842  17.679  0.4928 -0.5440  0.4555
  644MPD2     C 9530   0.590   1.475   9.169 -0.3162  0.0822  0.4076
  644MPD2    C1 9531   0.622   1.351   9.217 -0.7584 -0.0498  0.3333
  644MPD2    C2 9532   0.529   1.249   9.202 -0.3309  0.8870 -0.3127
  644MPD2    C3 9533   0.406   1.269   9.145  0.4170  0.0617  0.1408
  644MPD2    C4 9534   0.374   1.397   9.097  0.2494 -0.7841 -0.3633
  644MPD2    C5 9535   0.472   1.493   9.105  0.1019  1.0121  0.2993
  644MPD2     H 9536   0.546   1.148   9.237  1.6044  0.9485 -1.0930
  644MPD2    H1 9537   0.280   1.441   9.066  1.1718  1.3584 -0.1017
  644MPD2    H2 9538   0.650   1.564   9.181  0.7295 -0.1972 -2.7975
  644MPD2    H3 9539   0.462   1.596   9.073  0.6656  1.1182  0.4754
  644MPD2     N 9540   0.307   1.168   9.139 -0.4261 -0.4874  0.7161
  644MPD2    H5 9541   0.338   1.075   9.166  0.6677 -1.2385 -3.0832
  644MPD2    N1 9542   0.745   1.333   9.283  0.1487 -0.3573 -0.4604
  644MPD2    H7 9543   0.798   1.420   9.282 -0.5024  0.0220 -1.9419
  645TMC3    C1 9544   0.101   1.059   9.129  0.6399 -0.3023  0.1917
  645TMC3    C2 9545   4.689   1.064   9.148 -0.2222 -0.3910  0.3545
  645TMC3    C3 9546   4.624   0.948   9.179  0.8114  0.0298 -0.5571
  645TMC3    C4 9547   0.157   0.933   9.111 -0.2233  0.9562  0.4590
  645TMC3    C5 9548   0.090   0.817   9.135  0.0292 -0.0339  0.3779
  645TMC3    C6 9549   4.683   0.822   9.177 -0.0614 -0.4246  0.4462
  645TMC3     C 9550   0.172   1.184   9.112 -0.0655  0.1217 -0.1519
  645TMC3     O 9551   0.111   1.289   9.094  0.3620  0.8857  0.0580
  645TMC3     H 9552   4.642   1.161   9.154  1.3349  0.2369  2.3385
  645TMC3    H1 9553   0.260   0.919   9.079 -0.5630 -2.4080  0.7537
  645TMC3    H2 9554   4.635   0.727   9.200 -0.2599 -1.1397 -2.8376
  645TMC3    C7 9555   0.157   0.695   9.097 -0.2445  0.1527 -0.0917
  645TMC3    C8 9556   4.475   0.967   9.195 -0.4816 -0.7155  0.7977
  645TMC3    O1 9557   0.275   0.705   9.082  0.3494 -0.2389 -0.2064
  645TMC3    O2 9558   4.430   1.080   9.187  0.3646 -0.0896 -0.5045
  646MPD2     C 9559   3.972   1.631  14.705  0.0750  0.5434  0.2498
  646MPD2    C1 9560   3.888   1.533  14.751  0.4979 -0.5339 -0.1209
  646MPD2    C2 9561   3.784   1.492  14.665  0.0700 -0.2352 -0.0067
  646MPD2    C3 9562   3.761   1.547  14.542  0.6175 -0.1111  0.4265
  646MPD2    C4 9563   3.847   1.642  14.498 -0.0742 -0.8203  0.3017
  646MPD2    C5 9564   3.948   1.682  14.579  0.1836  0.4364 -0.2303
  646MPD2     H 9565   3.713   1.419  14.702  0.2791 -0.6000 -0.3309
  646MPD2    H1 9566   3.831   1.704  14.410  1.9190  0.3678  0.7954
  646MPD2    H2 9567   4.050   1.690  14.752 -0.2110 -0.4282  1.9743
  646MPD2    H3 9568   4.015   1.760  14.548  0.2369 -0.1661 -1.6374
  646MPD2     N 9569   3.641   1.516  14.462 -0.0688 -0.2750  0.1701
  646MPD2    H5 9570   3.575   1.460  14.515 -0.3188  0.8310  1.0407
  646MPD2    N1 9571   3.922   1.469  14.866 -0.0795  0.2342  1.2956
  646MPD2    H7 9572   4.017   1.484  14.898 -0.3475  1.6519  1.4194
  647TMC3    C1 9573   3.926   1.319  15.043 -0.4527 -0.2417  0.0594
  647TMC3    C2 9574   3.851   1.271  15.141  0.1146 -0.3308  0.4328
  647TMC3    C3 9575   3.914   1.224  15.253 -0.2210 -0.4368 -0.1439
  647TMC3    C4 9576   4.057   1.298  15.027 -0.1708  0.4202 -0.2497
  647TMC3    C5 9577   4.123   1.257  15.141 -0.2946 -0.2546 -0.8194
  647TMC3    C6 9578   4.051   1.230  15.258  0.1800  0.3554 -0.6000
  647TMC3     C 9579   3.861   1.355  14.916  0.4705 -0.8685  0.5502
  647TMC3     O 9580   3.752   1.304  14.895  0.6151 -0.0179  0.7247
  647TMC3     H 9581   3.744   1.270  15.127  0.5544  0.3814 -3.1251
  647TMC3    H1 9582   4.104   1.308  14.930  0.2492 -0.4343 -0.1307
  647TMC3    H2 9583   4.113   1.215  15.345 -2.2335 -2.2828  0.6629
  647TMC3    C7 9584   4.262   1.239  15.140  0.4552  0.3543 -0.8397
  647TMC3    C8 9585   3.870   1.101  15.307 -0.2426  0.1495 -0.1893
  647TMC3    O1 9586   4.301   1.154  15.223  0.2068 -0.2197  0.0468
  647TMC3    O2 9587   3.954   1.050  15.380 -0.0658 -0.0141  0.5100
  648TMC3    C1 9588   3.186   3.681  15.469  0.6583 -0.4409 -0.0912
  648TMC3    C2 9589   3.213   3.561  15.405 -0.1974  0.9901  0.4021
  648TMC3    C3 9590   3.144   3.537  15.286 -0.1771  0.0645 -0.7203
  648TMC3    C4 9591   3.098   3.770  15.407  0.4002 -0.8576 -0.8117
  648TMC3    C5 9592   3.040   3.742  15.289  0.2842  0.0579 -0.4728
  648TMC3    C6 9593   3.050   3.621  15.227 -0.1688  1.2441 -0.0120
  648TMC3     C 9594   3.200   3.703  15.609 -0.9624 -0.5021  0.3552
  648TMC3     O 9595   3.141   3.801  15.657  0.1968 -0.1660  0.5393
  648TMC3     H 9596   3.278   3.483  15.444 -2.9470 -1.7886 -0.5238
  648TMC3    H1 9597   3.121   3.874  15.427 -0.1736 -0.9154  0.1612
  648TMC3    H2 9598   2.994   3.601  15.137  0.4536  1.6138 -0.4785
  648TMC3    C7 9599   2.914   3.808  15.277  0.3205  0.1177 -0.3191
  648TMC3    C8 9600   3.157   3.411  15.222 -0.0546 -0.0645  0.5785
  648TMC3    O1 9601   2.844   3.796  15.179 -0.5619  0.4649  0.3724
  648TMC3    O2 9602   3.052   3.372  15.178 -0.1167  0.0202 -0.1922
  649TMC3    C1 9603   2.526   0.134  12.512 -0.9238 -0.3485 -0.1296
  649TMC3    C2 9604   2.652   0.178  12.507  0.0468  0.6165 -0.0163
  649TMC3    C3 9605   2.725   0.184  12.629 -0.5112 -0.3410  0.1311
  649TMC3    C4 9606   2.468   0.088  12.626  0.3359 -0.3280  0.1190
  649TMC3    C5 9607   2.549   0.082  12.738  0.2626 -0.1323  0.0900
  649TMC3    C6 9608   2.680   0.126  12.750 -0.3730  0.6006 -0.6008
  649TMC3     C 9609   2.433   0.155  12.395 -0.5673  0.4258  0.1547
  649TMC3     O 9610   2.315   0.129  12.420 -0.4804 -0.4982  0.1143
  649TMC3     H 9611   2.705   0.203  12.415 -0.8789 -2.5757 -1.4342
  649TMC3    H1 9612   2.364   0.056  12.624 -0.2854  1.5801  1.0154
  649TMC3    H2 9613   2.736   0.130  12.842 -1.2503  1.8620 -0.1091
  649TMC3    C7 9614   2.486   0.049  12.868 -0.1952  0.1998  0.0580
  649TMC3    C8 9615   2.875   0.182  12.626 -0.1875 -0.0278  0.1168
  649TMC3    O1 9616   2.364   0.059  12.869  0.3981  0.0601 -0.0325
  649TMC3    O2 9617   2.926   0.129  12.725 -0.2309 -1.0556 -0.1633
  650TMC3    C1 9618   4.439   2.268  12.512 -0.0033 -0.6769  0.4723
  650TMC3    C2 9619   4.435   2.409  12.514 -0.9282  0.8086 -0.3252
  650TMC3    C3 9620   4.465   2.478  12.406  0.0462  0.1109 -0.2551
  650TMC3    C4 9621   4.475   2.201  12.399  0.2016 -0.3356  0.7920
  650TMC3    C5 9622   4.497   2.275  12.288  0.6411  0.5339 -0.1865
  650TMC3    C6 9623   4.508   2.414  12.295 -0.3356 -0.3548  0.3638
  650TMC3     C 9624   4.465   2.204  12.641 -0.7933  0.2082  0.3915
  650TMC3     O 9625   4.453   2.270  12.743  0.3077  0.3049 -0.0113
  650TMC3     H 9626   4.421   2.459  12.609 -0.6540  0.9729 -0.3724
  650TMC3    H1 9627   4.452   2.096  12.393 -1.2181  0.0013  0.2861
  650TMC3    H2 9628   4.538   2.470  12.207 -1.6266  1.1051  0.8606
  650TMC3    C7 9629   4.535   2.202  12.164  0.2321 -0.5191  0.1601
  650TMC3    C8 9630   4.414   2.615  12.384 -0.0942 -0.5360  0.0062
  650TMC3    O1 9631   4.518   2.083  12.154 -0.0226  0.4468 -0.5569
  650TMC3    O2 9632   4.472   2.687  12.302  0.1870 -0.0049 -0.1061
  651MPD2     C 9633   3.728   2.976  10.108 -0.7605  0.6161 -1.2506
  651MPD2    C1 9634   3.672   3.101  10.125 -0.2717  0.0967 -0.1161
  651MPD2    C2 9635   3.750   3.211  10.109  0.3363  0.0759 -0.0013
  651MPD2    C3 9636   3.888   3.196  10.082  0.3137 -0.6393  0.2557
  651MPD2    C4 9637   3.944   3.073  10.072  0.7403  0.8002 -0.5335
  651MPD2    C5 9638   3.860   2.963  10.073  0.4786 -0.7443 -0.1037
  651MPD2     H 9639   3.704   3.307  10.130 -0.5802 -0.4233  0.2960
  651MPD2    H1 9640   4.047   3.055  10.045 -0.2324 -0.5812 -3.3800
  651MPD2    H2 9641   3.680   2.879  10.115 -0.3440  0.5221  0.2055
  651MPD2    H3 9642   3.901   2.867  10.043 -0.4854 -1.0479 -0.4391
  651MPD2     N 9643   3.968   3.311  10.081 -0.6173  0.0036  0.3418
  651MPD2    H5 9644   3.925   3.403  10.092  0.1895  0.2647  1.3075
  651MPD2    N1 9645   3.534   3.115  10.165  0.2594 -0.2191 -0.2314
  651MPD2    H7 9646   3.500   3.211  10.171  0.4855 -0.2253  1.1498
  652TMC3    C1 9647   4.318   3.592  10.173 -0.6690 -0.2637 -0.0840
  652TMC3    C2 9648   4.273   3.479  10.107  0.3605  0.8395 -0.3028
  652TMC3    C3 9649   4.140   3.464  10.093  0.0005  0.5012 -0.2967
  652TMC3    C4 9650   4.238   3.686  10.228  0.6225  0.1585  0.0468
  652TMC3    C5 9651   4.103   3.667  10.225 -0.4895  0.1238 -0.3195
  652TMC3    C6 9652   4.052   3.553  10.159  0.1224  0.0732  0.3498
  652TMC3     C 9653   4.458   3.600  10.190  0.2155  0.3675 -0.0204
  652TMC3     O 9654   4.517   3.494  10.185  0.3105 -0.6281 -0.3950
  652TMC3     H 9655   4.336   3.401  10.066 -0.9729  0.0892 -0.8875
  652TMC3    H1 9656   4.275   3.764  10.294 -2.0736  1.0933  0.4621
  652TMC3    H2 9657   3.948   3.528  10.176  0.8651 -2.5331  1.1945
  652TMC3    C7 9658   4.015   3.777  10.228  0.3088  0.4778  0.1493
  652TMC3    C8 9659   4.105   3.322  10.083  0.1250  0.0651  0.4102
  652TMC3    O1 9660   3.903   3.757  10.189 -0.4373 -0.0163 -0.9606
  652TMC3    O2 9661   4.187   3.232  10.090 -0.2998  0.3464 -0.2294
  653MPD2     C 9662   2.604   3.468  17.469  0.2695  0.5781 -0.7567
  653MPD2    C1 9663   2.594   3.560  17.368 -0.0258  0.2249 -0.6871
  653MPD2    C2 9664   2.510   3.540  17.260 -0.5641  0.2590  0.0671
  653MPD2    C3 9665   2.449   3.417  17.244  0.1871 -0.1518 -0.4410
  653MPD2    C4 9666   2.455   3.330  17.355  0.0105 -0.6252  1.1490
  653MPD2    C5 9667   2.535   3.353  17.464 -0.1153 -0.3321  0.1312
  653MPD2     H 9668   2.495   3.609  17.178  0.8324 -0.3291 -0.6820
  653MPD2    H1 9669   2.408   3.234  17.369 -0.2581 -0.8989 -1.5615
  653MPD2    H2 9670   2.648   3.486  17.566  0.1134  2.0402 -0.9694
  653MPD2    H3 9671   2.529   3.280  17.544  0.8794  1.4553  1.8458
  653MPD2     N 9672   2.378   3.393  17.120  0.2516 -0.4019 -0.0397
  653MPD2    H5 9673   2.378   3.467  17.051 -1.5317  0.2797  0.6981
  653MPD2    N1 9674   2.655   3.686  17.376 -0.0959  0.3055 -0.0527
  653MPD2    H7 9675   2.621   3.753  17.307 -0.0493  1.5346  1.0998
  654TMC3    C1 9676   2.263   3.267  16.963  0.4725  0.1583 -0.3379
  654TMC3    C2 9677   2.175   3.366  16.933 -0.0452  0.3380 -0.1870
  654TMC3    C3 9678   2.091   3.348  16.827  0.5687  0.6750  0.3786
  654TMC3    C4 9679   2.262   3.145  16.899  0.2830 -0.6872  0.2263
  654TMC3    C5 9680   2.180   3.130  16.789  0.8347  0.0181 -0.2708
  654TMC3    C6 9681   2.095   3.235  16.748 -0.0733  0.1222 -0.6333
  654TMC3     C 9682   2.320   3.272  17.094 -0.1674 -0.2859  0.6300
  654TMC3     O 9683   2.333   3.160  17.149  0.2067  0.2245  0.0529
  654TMC3     H 9684   2.149   3.443  17.004  0.0460 -0.0745  0.2950
  654TMC3    H1 9685   2.331   3.072  16.940  1.7533  0.6069  0.0142
  654TMC3    H2 9686   2.037   3.231  16.657  3.0297 -0.3121 -2.6062
  654TMC3    C7 9687   2.120   3.000  16.762 -0.5470 -0.1218 -0.0878
  654TMC3    C8 9688   1.952   3.368  16.875  0.2175 -0.0386  0.0166
  654TMC3    O1 9689   2.017   3.003  16.698  0.4803 -0.6580 -0.0458
  654TMC3    O2 9690   1.933   3.444  16.969  0.1827  0.0307  0.7657
  655MPD2     C 9691   3.870   3.798  15.608  0.3434  0.2323 -0.1911
  655MPD2    C1 9692   3.781   3.821  15.498 -0.2232 -0.0868 -0.2071
  655MPD2    C2 9693   3.807   3.764  15.371  0.1311  0.2870 -0.1167
  655MPD2    C3 9694   3.912   3.676  15.354 -0.6108 -1.1602 -0.0450
  655MPD2    C4 9695   4.002   3.663  15.455 -0.1633 -0.8089 -0.8897
  655MPD2    C5 9696   3.983   3.727  15.577 -0.0845  0.1339  0.9011
  655MPD2     H 9697   3.724   3.756  15.301  1.6295 -2.0276 -1.6335
  655MPD2    H1 9698   4.093   3.606  15.444  1.1074  0.7374  1.5541
  655MPD2    H2 9699   3.864   3.838  15.709 -2.0152  0.4856 -0.4330
  655MPD2    H3 9700   4.057   3.707  15.654 -0.8005 -0.8677  1.3265
  655MPD2     N 9701   3.934   3.591  15.239 -0.3384  0.5401 -0.2049
  655MPD2    H5 9702   4.020   3.537  15.232 -0.6957 -0.2354  1.4574
  655MPD2    N1 9703   3.663   3.894  15.512  0.0437 -0.3233 -0.4702
  655MPD2    H7 9704   3.597   3.897  15.435  0.6796  1.2918 -0.9345
  656TMC3    C1 9705   3.487   4.000  15.629 -0.0203 -0.1078 -0.4984
  656TMC3    C2 9706   3.431   4.025  15.746 -0.3311  0.2638 -0.5526
  656TMC3    C3 9707   3.309   4.085  15.741 -0.0760 -0.4833  0.1677
  656TMC3    C4 9708   3.441   4.041  15.507  0.4825 -0.0724 -0.4647
  656TMC3    C5 9709   3.321   4.112  15.514  0.2858 -0.4309  0.2707
  656TMC3    C6 9710   3.250   4.130  15.625  0.5356  0.2244 -0.1677
  656TMC3     C 9711   3.620   3.943  15.633  0.2309  0.5146  0.2597
  656TMC3     O 9712   3.677   3.977  15.736  0.7380 -0.2661  0.2227
  656TMC3     H 9713   3.473   3.978  15.834 -3.4653  0.5380  1.1042
  656TMC3    H1 9714   3.481   4.006  15.412  1.5149  0.8664 -0.3636
  656TMC3    H2 9715   3.146   4.157  15.612 -0.8422 -5.3130 -0.6333
  656TMC3    C7 9716   3.245   4.114  15.387 -0.1137  0.8162  0.5658
  656TMC3    C8 9717   3.224   4.074  15.851 -0.0720 -0.3676 -0.1287
  656TMC3    O1 9718   3.271   4.018  15.315  0.0033  0.1944 -0.7515
  656TMC3    O2 9719   3.284   4.056  15.956 -0.2439 -0.1218 -0.2653
  657TMC3    C1 9720   2.417   2.663  14.854 -0.3975 -0.2030  0.5160
  657TMC3    C2 9721   2.288   2.682  14.879 -0.3604 -0.8566 -0.2801
  657TMC3    C3 9722   2.247   2.674  15.007  0.2356  0.4980  0.2957
  657TMC3    C4 9723   2.512   2.647  14.950 -0.0182  0.1634 -1.4366
  657TMC3    C5 9724   2.467   2.638  15.082  0.2959  0.5069  0.6455
  657TMC3    C6 9725   2.329   2.645  15.107  0.0120  0.1914  0.8016
  657TMC3     C 9726   2.460   2.675  14.713  0.3951 -0.5256 -0.6078
  657TMC3     O 9727   2.421   2.767  14.643  0.3437  0.5793 -0.4504
  657TMC3     H 9728   2.220   2.701  14.797  0.0662  0.1264 -0.4008
  657TMC3    H1 9729   2.618   2.635  14.934  0.4226 -0.5562  1.8582
  657TMC3    H2 9730   2.291   2.637  15.208  0.2089  1.0248  0.9426
  657TMC3    C7 9731   2.567   2.655  15.189 -0.1599  0.3587 -0.1129
  657TMC3    C8 9732   2.105   2.632  15.019  0.3578  0.8687 -0.4953
  657TMC3    O1 9733   2.686   2.643  15.165 -0.0883 -0.4113 -0.3209
  657TMC3    O2 9734   2.028   2.680  14.934 -0.4146  0.0403 -0.0751
  658MPD2     C 9735   4.037   3.447  14.376  0.2283  0.1861  0.9615
  658MPD2    C1 9736   4.020   3.535  14.485 -0.0578 -0.4645  0.3697
  658MPD2    C2 9737   3.981   3.666  14.463  0.0969 -0.1768 -0.3485
  658MPD2    C3 9738   3.959   3.715  14.334  0.1058 -0.1126  0.1226
  658MPD2    C4 9739   3.964   3.624  14.233 -0.1635 -0.5160  0.2412
  658MPD2    C5 9740   4.004   3.498  14.255  0.3847 -0.4932 -0.5271
  658MPD2     H 9741   3.968   3.743  14.538 -1.7787 -0.8989  0.0717
  658MPD2    H1 9742   3.946   3.662  14.133  3.1605  1.4785  0.3785
  658MPD2    H2 9743   4.064   3.343  14.390  0.4335  0.0349 -0.5331
  658MPD2    H3 9744   4.016   3.436  14.167 -0.7619 -0.0347 -1.0001
  658MPD2     N 9745   3.910   3.845  14.325  0.9173  0.5495 -0.4116
  658MPD2    H5 9746   3.917   3.901  14.409  0.6444  0.9673 -0.6667
  658MPD2    N1 9747   4.036   3.480  14.610 -0.6924  0.3981 -0.4476
  658MPD2    H7 9748   4.057   3.381  14.617 -0.1396  0.6675  1.5467
  659TMC3    C1 9749   3.968   3.449  14.836 -0.1408  0.3035  0.1294
  659TMC3    C2 9750   3.983   3.506  14.968  0.3667 -0.3818  0.2620
  659TMC3    C3 9751   3.882   3.463  15.049  0.0749  0.7763 -0.3948
  659TMC3    C4 9752   3.866   3.359  14.798  0.4580  0.0751 -0.6410
  659TMC3    C5 9753   3.773   3.327  14.890 -1.2391 -0.0993 -0.5869
  659TMC3    C6 9754   3.777   3.379  15.018  0.2848 -0.2538 -0.3999
  659TMC3     C 9755   3.997   3.542  14.728 -1.0031  0.3689 -0.0342
  659TMC3     O 9756   3.993   3.662  14.752 -0.9340  0.0769  0.2338
  659TMC3     H 9757   4.058   3.581  14.989 -0.8368  1.4180 -1.8706
  659TMC3    H1 9758   3.844   3.339  14.694  2.1719 -0.7374 -0.8330
  659TMC3    H2 9759   3.702   3.347  15.090 -0.4177 -0.3597 -1.1774
  659TMC3    C7 9760   3.638   3.351  14.841 -0.0983  0.7794 -0.7381
  659TMC3    C8 9761   3.835   3.569  15.142 -0.4490 -0.4518  0.1344
  659TMC3    O1 9762   3.606   3.290  14.742  0.3713  1.1259 -0.5478
  659TMC3    O2 9763   3.712   3.583  15.139  0.5010  0.0870 -0.2520
  660MPD2     C 9764   1.697   2.474  12.460 -0.2620 -0.0250 -0.8733
  660MPD2    C1 9765   1.572   2.532  12.453 -0.1191 -0.1949  0.3849
  660MPD2    C2 9766   1.474   2.512  12.550  0.2181  0.1478 -0.3203
  660MPD2    C3 9767   1.510   2.456  12.673  0.1259  0.0562 -0.2516
  660MPD2    C4 9768   1.642   2.432  12.692 -0.5871 -0.5219 -0.5167
  660MPD2    C5 9769   1.728   2.437  12.586  0.2454  0.1512 -0.0706
  660MPD2     H 9770   1.369   2.530  12.529 -0.3695 -1.2935  1.3219
  660MPD2    H1 9771   1.670   2.390  12.788 -0.0393 -1.4300 -1.0753
  660MPD2    H2 9772   1.769   2.469  12.378  0.0059  1.9395 -0.7717
  660MPD2    H3 9773   1.832   2.407  12.597 -0.2202 -2.0340 -1.6801
  660MPD2     N 9774   1.414   2.434  12.778 -0.8142  0.0443 -0.6242
  660MPD2    H5 9775   1.445   2.383  12.860  0.4724  2.6293  0.5079
  660MPD2    N1 9776   1.539   2.590  12.330  0.4125 -0.4453 -0.7899
  660MPD2    H7 9777   1.601   2.564  12.253 -0.2540  0.4686 -1.6355
  661TMC3    C1 9778   1.411   2.700  12.156  0.1431  0.6595 -0.0739
  661TMC3    C2 9779   1.513   2.671  12.067  0.4532 -0.6452 -0.1393
  661TMC3    C3 9780   1.485   2.700  11.934 -0.1613  0.4740  0.4297
  661TMC3    C4 9781   1.279   2.711  12.118  0.2053  0.2505  0.2090
  661TMC3    C5 9782   1.257   2.707  11.986 -0.5158 -0.5624 -0.5011
  661TMC3    C6 9783   1.355   2.724  11.890  0.3965 -0.4219 -0.0275
  661TMC3     C 9784   1.426   2.658  12.301  0.1824  0.5435 -0.1176
  661TMC3     O 9785   1.349   2.714  12.376  0.1144 -0.4062 -0.0616
  661TMC3     H 9786   1.615   2.657  12.100  0.8488 -2.0870 -1.9571
  661TMC3    H1 9787   1.203   2.731  12.192  1.2067 -0.1577  1.3451
  661TMC3    H2 9788   1.336   2.716  11.784 -2.4212 -1.8713  0.5949
  661TMC3    C7 9789   1.122   2.759  11.936  0.8013  0.3663  0.3107
  661TMC3    C8 9790   1.593   2.697  11.845 -0.6534 -0.1099 -0.3780
  661TMC3    O1 9791   1.118   2.789  11.818  0.0350  0.0557  0.1899
  661TMC3    O2 9792   1.687   2.625  11.876 -0.1067 -0.0955  0.1422
  662MPD2     C 9793   1.787   1.990  17.239 -0.9168  0.3047 -0.3256
  662MPD2    C1 9794   1.675   1.912  17.277  0.3261 -0.1385  0.3293
  662MPD2    C2 9795   1.567   1.973  17.334 -0.2908 -0.6794  1.3471
  662MPD2    C3 9796   1.561   2.109  17.349  0.0022 -0.4321 -0.1101
  662MPD2    C4 9797   1.669   2.185  17.315 -0.1765 -0.0254  0.4545
  662MPD2    C5 9798   1.775   2.124  17.252  0.4330  0.3123 -1.0081
  662MPD2     H 9799   1.483   1.909  17.361 -1.7474 -0.1545 -1.9694
  662MPD2    H1 9800   1.666   2.287  17.351  1.6646 -0.9725  3.3049
  662MPD2    H2 9801   1.877   1.957  17.188 -0.2387 -1.5713  2.0675
  662MPD2    H3 9802   1.852   2.191  17.217  1.3820 -0.5329 -0.5667
  662MPD2     N 9803   1.445   2.171  17.401 -0.0431  0.5050  0.0649
  662MPD2    H5 9804   1.450   2.270  17.425  0.2131  0.1429  1.4847
  662MPD2    N1 9805   1.661   1.776  17.244 -0.0535  0.2696  0.1441
  662MPD2    H7 9806   1.589   1.728  17.297 -1.2623  1.5327 -0.3745
  663TMC3    C1 9807   1.732   1.566  17.165  0.7772  0.1617  0.8156
  663TMC3    C2 9808   1.638   1.516  17.250 -0.0467  0.3163 -0.2872
  663TMC3    C3 9809   1.564   1.406  17.212 -0.1019  0.3715  0.6226
  663TMC3    C4 9810   1.766   1.504  17.047  0.0690 -0.2716 -0.5935
  663TMC3    C5 9811   1.704   1.385  17.018 -0.5066  0.1270 -0.2360
  663TMC3    C6 9812   1.616   1.328  17.105 -0.5178  0.5388  0.3222
  663TMC3     C 9813   1.753   1.707  17.164 -0.2872  0.7093  0.4770
  663TMC3     O 9814   1.830   1.759  17.078 -0.4652  0.0348  0.0264
  663TMC3     H 9815   1.625   1.541  17.355  1.6966  3.0894 -0.7405
  663TMC3    H1 9816   1.836   1.545  16.975  0.5265  0.6757  0.3889
  663TMC3    H2 9817   1.557   1.242  17.075  2.4177 -1.2588 -0.2714
  663TMC3    C7 9818   1.775   1.294  16.928 -0.4698 -0.2537 -1.0519
  663TMC3    C8 9819   1.518   1.316  17.316  0.3557  0.0375  0.2182
  663TMC3    O1 9820   1.834   1.341  16.835 -0.0962  0.3856  0.1116
  663TMC3    O2 9821   1.526   1.196  17.285  0.1684 -0.0168  0.4813
  664MPD2     C 9822   0.116   0.574  17.626 -0.0316  0.7096  0.0751
  664MPD2    C1 9823   0.232   0.652  17.602  0.0887  0.1343 -0.2321
  664MPD2    C2 9824   0.272   0.751  17.690 -0.4186  0.2728  0.1902
  664MPD2    C3 9825   0.215   0.756   0.114  0.5208  0.8718  0.3345
  664MPD2    C4 9826   0.105   0.674   0.141  0.4193 -0.1056  0.1763
  664MPD2    C5 9827   0.058   0.585   0.050 -0.3922  0.4107  0.7853
  664MPD2     H 9828   0.354   0.817  17.663 -1.1490  1.6527  1.3430
  664MPD2    H1 9829   0.039   0.703   0.221  2.6056  2.3866  1.0857
  664MPD2    H2 9830   0.080   0.518  17.541  2.4782 -1.3904  0.3905
  664MPD2    H3 9831   4.685   0.541   0.060  0.1032 -1.1109 -1.0539
  664MPD2     N 9832   0.252   0.860   0.203 -0.3465  0.3938 -0.5711
  664MPD2    H5 9833   0.315   0.932   0.170 -0.1240 -0.1275 -1.2714
  664MPD2    N1 9834   0.313   0.637  17.490 -0.0324 -0.5763 -0.1155
  664MPD2    H7 9835   0.406   0.676  17.486  0.0561 -0.8892 -1.1051
  665TMC3    C1 9836   0.260   0.956   0.416  0.2926  0.0739  0.1908
  665TMC3    C2 9837   0.265   0.928   0.548  0.1447 -0.1949 -0.6079
  665TMC3    C3 9838   0.278   1.030   0.637 -0.2268 -1.0768  0.3039
  665TMC3    C4 9839   0.291   1.081   0.371  1.0888  0.3781  0.3095
  665TMC3    C5 9840   0.317   1.180   0.465 -0.1385  0.3462 -0.1564
  665TMC3    C6 9841   0.310   1.155   0.601  0.4862  0.0655 -0.3337
  665TMC3     C 9842   0.207   0.853   0.334  0.8649 -0.9009  0.6717
  665TMC3     O 9843   0.161   0.756   0.393  0.0024 -0.1721  0.8025
  665TMC3     H 9844   0.250   0.829   0.589 -0.6233 -0.0430 -0.5275
  665TMC3    H1 9845   0.311   1.108   0.268 -0.5307 -1.6536 -0.5343
  665TMC3    H2 9846   0.335   1.225   0.680  0.5216  0.3949 -0.6326
  665TMC3    C7 9847   0.307   1.324   0.430  0.0716  0.1835 -0.4596
  665TMC3    C8 9848   0.254   0.996   0.778 -0.0589 -0.2317  0.2885
  665TMC3    O1 9849   0.274   1.350   0.316 -0.0382 -0.1631  0.1039
  665TMC3    O2 9850   0.313   1.068   0.856  0.5118  0.7362  0.0454
  666TMC3    C1 9851   3.850   0.298  10.476 -0.3488 -0.1444  1.2994
  666TMC3    C2 9852   3.963   0.222  10.514 -0.3155 -0.3794 -0.5173
  666TMC3    C3 9853   4.074   0.294  10.534 -0.1132 -0.0486  0.1000
  666TMC3    C4 9854   3.845   0.437  10.452  0.4884  0.0843 -0.2361
  666TMC3    C5 9855   3.970   0.497  10.461  0.4163 -0.6913 -0.4361
  666TMC3    C6 9856   4.084   0.426  10.497 -0.0012  0.0613 -0.5267
  666TMC3     C 9857   3.725   0.243  10.529 -0.3346  0.0581  0.4405
  666TMC3     O 9858   3.635   0.313  10.577 -0.0107 -0.4055 -0.1625
  666TMC3     H 9859   3.960   0.117  10.541 -0.6339 -0.1121  0.4925
  666TMC3    H1 9860   3.754   0.487  10.420  0.6680  0.5779  0.0384
  666TMC3    H2 9861   4.178   0.479  10.510 -0.7942  1.4551 -0.5567
  666TMC3    C7 9862   3.986   0.623  10.387  0.7678 -0.1272 -0.6329
  666TMC3    C8 9863   4.199   0.230  10.585  0.1907 -0.0168 -0.1087
  666TMC3    O1 9864   3.887   0.683  10.349  0.1418 -1.1349 -0.8514
  666TMC3    O2 9865   4.310   0.276  10.569  0.2297  0.4093 -0.6702
  667MPD2     C 9866   0.307   0.914  14.820 -0.3565 -0.2235 -0.6202
  667MPD2    C1 9867   0.361   0.788  14.812 -0.3094  0.2252 -0.2948
  667MPD2    C2 9868   0.307   0.695  14.728 -0.1557 -0.4526 -0.2624
  667MPD2    C3 9869   0.209   0.730  14.638  0.1137 -0.5249  0.3999
  667MPD2    C4 9870   0.138   0.847  14.663  0.1684  0.4166 -0.2673
  667MPD2    C5 9871   0.195   0.939  14.751 -0.5564 -0.2718  0.3010
  667MPD2     H 9872   0.346   0.594  14.737 -1.6639 -0.9277  1.0683
  667MPD2    H1 9873   0.043   0.873  14.618 -0.3788  0.4549  0.9309
  667MPD2    H2 9874   0.342   0.994  14.884  0.7592 -1.5987  0.4882
  667MPD2    H3 9875   0.143   1.034  14.749 -1.5847 -0.8366  0.6143
  667MPD2     N 9876   0.167   0.641  14.537 -0.6362 -0.6272  0.0835
  667MPD2    H5 9877   0.087   0.673  14.483  0.2699 -1.4595 -1.7818
  667MPD2    N1 9878   0.473   0.746  14.890  0.4857 -0.0618 -0.2544
  667MPD2    H7 9879   0.503   0.649  14.879  0.7185  0.0939 -1.0524
  668TMC3    C1 9880   0.644   0.753  15.043  0.0892 -0.4027 -0.6542
  668TMC3    C2 9881   0.756   0.827  15.071  0.0410 -0.1648  0.6441
  668TMC3    C3 9882   0.836   0.780  15.168  0.1731 -0.0099 -0.3921
  668TMC3    C4 9883   0.598   0.654  15.124 -0.0154  0.2324  0.1724
  668TMC3    C5 9884   0.674   0.618  15.230  0.0431  0.0165  0.3294
  668TMC3    C6 9885   0.793   0.672  15.252 -0.1089 -0.1200 -0.3663
  668TMC3     C 9886   0.543   0.831  14.977  0.3335 -0.5160 -0.4748
  668TMC3     O 9887   0.531   0.949  15.009  0.4956 -0.4386 -0.2893
  668TMC3     H 9888   0.785   0.913  15.014 -0.7744 -1.3009 -1.4916
  668TMC3    H1 9889   0.497   0.625  15.099 -0.1641  0.4873  0.4863
  668TMC3    H2 9890   0.845   0.661  15.346  0.9139 -2.1422 -1.1738
  668TMC3    C7 9891   0.641   0.511  15.319  1.0302 -0.2428  0.1440
  668TMC3    C8 9892   0.976   0.817  15.188 -0.3473  0.4337  0.3630
  668TMC3    O1 9893   0.705   0.500  15.423 -0.5892 -0.3823  0.2909
  668TMC3    O2 9894   1.036   0.751  15.269  0.1600  0.3094 -0.2335
  669TMC3    C1 9895   3.468   0.807  14.686  0.0987 -0.0548 -0.5667
  669TMC3    C2 9896   3.422   0.823  14.557 -0.1671 -0.1659 -0.7841
  669TMC3    C3 9897   3.478   0.920  14.478 -0.5794  0.0453  0.1567
  669TMC3    C4 9898   3.572   0.881  14.739  0.8509 -0.1520 -0.5472
  669TMC3    C5 9899   3.623   0.974  14.652 -0.1328  0.1241 -0.2949
  669TMC3    C6 9900   3.577   1.001  14.527  0.5443 -0.0485 -0.2067
  669TMC3     C 9901   3.454   0.672  14.739  0.0453  0.9801 -0.0082
  669TMC3     O 9902   3.356   0.604  14.709 -0.3137 -0.4110 -0.2188
  669TMC3     H 9903   3.344   0.755  14.524 -0.3487  0.2466 -1.1997
  669TMC3    H1 9904   3.596   0.886  14.845 -1.5355  3.8381 -0.1606
  669TMC3    H2 9905   3.618   1.081  14.466  1.9733  1.0274  2.1377
  669TMC3    C7 9906   3.753   1.035  14.677 -0.1946 -0.5495 -0.2842
  669TMC3    C8 9907   3.432   0.945  14.339 -0.1796  0.2132 -0.4701
  669TMC3    O1 9908   3.798   1.119  14.600  0.1523  0.2687 -0.1507
  669TMC3    O2 9909   3.524   0.988  14.265 -0.4230  0.2430 -0.8186
  670MPD2     C 9910   1.722   3.014  13.562  0.3086  0.8664 -0.2605
  670MPD2    C1 9911   1.812   3.054  13.664  0.1668  0.0946  0.1581
  670MPD2    C2 9912   1.780   3.021  13.799  0.0569  0.0934  0.2263
  670MPD2    C3 9913   1.659   2.959  13.829 -0.3284 -0.5355 -0.6849
  670MPD2    C4 9914   1.574   2.921  13.724 -0.0988 -0.0148  0.5148
  670MPD2    C5 9915   1.604   2.953  13.595 -0.1222  0.1047 -0.0618
  670MPD2     H 9916   1.850   3.056  13.874  0.1227  2.0077 -0.7271
  670MPD2    H1 9917   1.478   2.876  13.744  0.8975 -1.7318  1.3763
  670MPD2    H2 9918   1.743   3.041  13.459 -0.0649  1.6136 -0.1446
  670MPD2    H3 9919   1.542   2.924  13.511  0.7987  1.2875 -1.1365
  670MPD2     N 9920   1.642   2.924  13.969  1.3609  0.2147  0.7818
  670MPD2    H5 9921   1.706   2.969  14.034  4.2245 -2.5342 -0.1369
  670MPD2    N1 9922   1.931   3.123  13.636 -0.3942 -0.1688 -0.5702
  670MPD2    H7 9923   1.969   3.176  13.715 -1.7150  1.0643 -0.7665
  671TMC3    C1 9924   1.551   2.815  14.156  0.2497  0.6174 -0.0222
  671TMC3    C2 9925   1.678   2.804  14.201  1.4065  0.3124  0.3419
  671TMC3    C3 9926   1.714   2.687  14.263 -0.0416 -0.6029 -0.0911
  671TMC3    C4 9927   1.458   2.715  14.190 -1.1159  0.1541  0.2496
  671TMC3    C5 9928   1.506   2.595  14.236 -0.0613  0.4913  0.1492
  671TMC3    C6 9929   1.630   2.582  14.284  0.0727  0.1534 -0.3352
  671TMC3     C 9930   1.535   2.852  14.020  0.6353  0.1861  0.0166
  671TMC3     O 9931   1.450   2.793  13.963  0.9808  0.0090 -0.1321
  671TMC3     H 9932   1.758   2.876  14.185  2.5393 -1.3271 -1.3194
  671TMC3    H1 9933   1.354   2.715  14.159 -0.9438 -0.8712 -0.3091
  671TMC3    H2 9934   1.658   2.488  14.329  1.4008  1.0158  0.6206
  671TMC3    C7 9935   1.456   2.470  14.178 -0.5148 -0.3053  0.4703
  671TMC3    C8 9936   1.851   2.680  14.317 -0.0292 -0.3610  0.3294
  671TMC3    O1 9937   1.542   2.385  14.150  0.2407  0.5032 -0.2462
  671TMC3    O2 9938   1.896   2.779  14.376 -0.2188  0.2796 -0.2655
  672MPD2     C 9939   1.660   2.855   0.508 -0.1641 -0.4174 -0.0153
  672MPD2    C1 9940   1.778   2.918   0.487  0.4138  0.2374  0.2861
  672MPD2    C2 9941   1.829   3.011   0.576  0.0436 -0.4406 -0.4794
  672MPD2    C3 9942   1.763   3.042   0.691 -0.1468  0.0361  0.2171
  672MPD2    C4 9943   1.645   2.970   0.718  0.3687 -0.6631 -0.0382
  672MPD2    C5 9944   1.599   2.876   0.632 -0.3033 -0.0221 -0.2910
  672MPD2     H 9945   1.920   3.062   0.546 -0.3408 -0.0451 -0.9818
  672MPD2    H1 9946   1.595   2.985   0.813  1.1448 -0.3852  0.3200
  672MPD2    H2 9947   1.609   2.793   0.435  0.0919 -0.2855 -0.3083
  672MPD2    H3 9948   1.512   2.817   0.656 -0.5525  1.4154  2.3749
  672MPD2     N 9949   1.810   3.133   0.785  0.8631  0.6259 -0.2551
  672MPD2    H5 9950   1.768   3.122   0.877 -0.9024 -0.8037 -1.2433
  672MPD2    N1 9951   1.866   2.888   0.380 -0.0986 -0.7626  0.2768
  672MPD2    H7 9952   1.963   2.916   0.380 -0.3803  0.1750 -1.0272
  673TMC3    C1 9953   1.926   2.759   0.191 -0.2832 -0.3185 -0.1433
  673TMC3    C2 9954   1.943   2.624   0.215  0.1206 -0.2948  0.2080
  673TMC3    C3 9955   2.069   2.571   0.189  0.5193  0.2429  0.6530
  673TMC3    C4 9956   2.031   2.838   0.140 -1.0675  0.1501 -0.5690
  673TMC3    C5 9957   2.150   2.777   0.109  0.2971 -0.7339  0.0666
  673TMC3    C6 9958   2.166   2.641   0.121  0.5575 -0.2393 -0.1946
  673TMC3     C 9959   1.820   2.826   0.270  0.8193 -0.5905  0.1797
  673TMC3     O 9960   1.710   2.800   0.221  0.1982  0.0718 -0.2307
  673TMC3     H 9961   1.862   2.562   0.250 -0.2348 -0.4096 -0.8025
  673TMC3    H1 9962   2.021   2.944   0.120 -0.4890  0.2718 -0.2083
  673TMC3    H2 9963   2.265   2.602   0.100  0.3811 -0.7199 -0.1449
  673TMC3    C7 9964   2.271   2.859   0.092 -0.1416  0.9497  0.4768
  673TMC3    C8 9965   2.097   2.436   0.214  0.2682 -0.1118 -0.2245
  673TMC3    O1 9966   2.353   2.797   0.027 -0.3559 -0.2652 -0.4884
  673TMC3    O2 9967   2.169   2.375   0.134  0.0386  0.2335 -0.1780
  674MPD2     C 9968   2.096   3.050  17.501  0.2377  0.0558 -0.0636
  674MPD2    C1 9969   2.004   2.947  17.498  0.1204  0.0946 -0.1584
  674MPD2    C2 9970   1.894   2.957  17.581 -0.5404  0.2543  0.5829
  674MPD2    C3 9971   1.883   3.067  17.669 -0.1494  0.4607 -0.2561
  674MPD2    C4 9972   1.976   3.170  17.662 -0.2013  0.5199 -0.1238
  674MPD2    C5 9973   2.083   3.161  17.581 -0.0163  0.0813 -0.5778
  674MPD2     H 9974   1.817   2.881  17.579  0.3103 -0.6124  1.0993
  674MPD2    H1 9975   1.971   3.249   0.033 -2.2562 -0.5835  0.9347
  674MPD2    H2 9976   2.195   3.042  17.457  0.3146 -0.1229  0.1422
  674MPD2    H3 9977   2.164   3.233  17.587  1.1597 -1.1855 -1.3378
  674MPD2     N 9978   1.776   3.072   0.061  0.1204  0.0088  0.0665
  674MPD2    H5 9979   1.709   2.996   0.065  1.1291 -0.8841 -0.1886
  674MPD2    N1 9980   2.039   2.833  17.420  0.6039  1.0687 -0.0954
  674MPD2    H7 9981   2.124   2.839  17.365  0.8336 -0.8910  0.0280
  675TMC3    C1 9982   2.038   2.610  17.356 -0.5030 -0.7364 -0.2145
  675TMC3    C2 9983   1.972   2.498  17.408  0.5976 -0.2521 -0.7144
  675TMC3    C3 9984   2.049   2.391  17.443  0.4677  0.5437  0.5447
  675TMC3    C4 9985   2.169   2.619  17.342 -0.2622 -0.1912  0.5083
  675TMC3    C5 9986   2.240   2.504  17.375 -0.0391 -0.3116  0.4294
  675TMC3    C6 9987   2.182   2.390  17.427 -0.0164 -0.4236 -0.4094
  675TMC3     C 9988   1.959   2.728  17.392  0.0050 -0.1648  0.0255
  675TMC3     O 9989   1.839   2.703  17.409  0.0818  0.2946  0.3162
  675TMC3     H 9990   1.864   2.495  17.418  0.6780  0.1636  0.1819
  675TMC3    H1 9991   2.219   2.703  17.294  1.5655 -0.5509  1.7997
  675TMC3    H2 9992   2.230   2.295  17.450  2.6070  0.4557 -2.1532
  675TMC3    C7 9993   2.368   2.491  17.304 -0.2859 -0.0525  0.4768
  675TMC3    C8 9994   1.979   2.278  17.506  0.6380  0.2127  0.5553
  675TMC3    O1 9995   2.382   2.544  17.194 -0.2073  0.0132  0.0114
  675TMC3    O2 9996   2.020   2.164  17.487  0.3034  0.2092  0.2941
  676MPD2     C 9997   0.106   1.719  10.669 -0.2411 -0.5507  0.2347
  676MPD2    C1 9998   0.057   1.695  10.798  0.8290 -0.9767  0.0114
  676MPD2    C2 9999   4.700   1.582  10.809  0.3065  0.7274  0.5722
  676MPD2    C310000   4.695   1.481  10.718 -0.0702 -0.0152 -0.1655
  676MPD2    C410001   0.027   1.504  10.598 -0.0390  0.3720  0.4057
  676MPD2    C510002   0.089   1.622  10.569  0.2321  0.0225 -0.5244
  676MPD2     H10003   4.636   1.583  10.897  0.4796 -0.8129  0.7212
  676MPD2    H110004   0.011   1.434  10.516 -0.9187  2.2205 -1.0202
  676MPD2    H210005   0.171   1.801  10.639  0.9271 -2.1137 -1.5415
  676MPD2    H310006   0.126   1.632  10.468  1.3961 -2.3331 -0.3088
  676MPD2     N10007   4.634   1.360  10.735  0.6489 -0.1844 -0.0546
  676MPD2    H510008   4.655   1.294  10.660  2.3415  0.3228 -0.0330
  676MPD2    N110009   0.038   1.794  10.896 -0.7253 -0.1017  0.1249
  676MPD2    H710010   4.699   1.769  10.971  2.2944  0.0128  2.7414
  677TMC3    C110011   0.037   2.017  10.985 -0.1437  0.0694  0.2391
  677TMC3    C210012   4.681   1.969  11.089  0.0108 -0.3508  0.2688
  677TMC3    C310013   4.629   2.062  11.169  0.0614  0.9168 -0.8474
  677TMC3    C410014   0.055   2.150  10.964 -0.0269  0.5462  0.4613
  677TMC3    C510015   0.002   2.236  11.068  1.0090  0.1840 -0.1936
  677TMC3    C610016   4.641   2.194  11.161  0.4625  0.3604 -0.2332
  677TMC3     C10017   0.086   1.919  10.886 -0.1675  0.2535  0.0138
  677TMC3     O10018   0.163   1.969  10.799 -0.6785  0.1035 -0.4816
  677TMC3     H10019   4.670   1.864  11.113 -0.7731 -0.3403 -0.0581
  677TMC3    H110020   0.121   2.177  10.883  2.0510  1.0186  2.2847
  677TMC3    H210021   4.625   2.265  11.241 -0.4809 -0.8325  0.6242
  677TMC3    C710022   0.022   2.382  11.055  0.4304 -0.1174 -0.2866
  677TMC3    C810023   4.569   2.003  11.288 -0.5838  0.8105  0.2898
  677TMC3    O110024   4.662   2.447  11.113  0.8775 -0.3046 -0.5675
  677TMC3    O210025   4.610   1.890  11.312  0.0019 -0.0638  0.0317
  678MPD2     C10026   1.249   2.297   1.409  0.2111 -0.0417 -0.0647
  678MPD2    C110027   1.185   2.185   1.357  0.6002 -0.0543  0.1386
  678MPD2    C210028   1.054   2.193   1.316 -0.3843  0.4229  0.6502
  678MPD2    C310029   0.980   2.312   1.314 -0.4859  0.6127 -0.2748
  678MPD2    C410030   1.050   2.424   1.352 -0.0944 -1.0548  0.6989
  678MPD2    C510031   1.176   2.418   1.400 -0.5045 -0.5055  0.6365
  678MPD2     H10032   1.007   2.099   1.287  2.8478 -0.8117 -0.5971
  678MPD2    H110033   0.999   2.519   1.366 -1.2572 -1.4542 -0.8510
  678MPD2    H210034   1.350   2.300   1.447  1.3853  1.3590 -3.2750
  678MPD2    H310035   1.219   2.504   1.452 -3.2484  1.3106 -0.1091
  678MPD2     N10036   0.846   2.306   1.277  0.6211 -0.8623 -0.0046
  678MPD2    H510037   0.817   2.217   1.237  2.0536 -1.8128  1.0856
  678MPD2    N110038   1.240   2.055   1.352 -0.0199 -0.7278  0.1260
  678MPD2    H710039   1.186   1.979   1.311 -1.2906  0.0566  0.3351
  679TMC3    C110040   1.543   1.707   1.478  0.7067  0.5366 -0.5688
  679TMC3    C210041   1.482   1.829   1.501  0.3302 -0.1788 -0.0580
  679TMC3    C310042   1.391   1.873   1.413 -0.5204 -0.2596 -0.3411
  679TMC3    C410043   1.501   1.626   1.375  0.3383 -0.4668 -0.2707
  679TMC3    C510044   1.409   1.679   1.293 -0.5264 -0.0623  0.0167
  679TMC3    C610045   1.362   1.803   1.306  0.9810  0.1912  0.2645
  679TMC3     C10046   1.651   1.659   1.570  0.1764 -0.1813 -0.1357
  679TMC3     O10047   1.741   1.596   1.517 -0.2918  0.6557  0.3512
  679TMC3     H10048   1.520   1.890   1.581 -0.6963 -1.1324  1.1488
  679TMC3    H110049   1.517   1.519   1.367  0.7233 -0.5460  1.5160
  679TMC3    H210050   1.293   1.836   1.229  1.1868 -1.2345 -0.5346
  679TMC3    C710051   1.357   1.603   1.181  0.6674 -0.1649 -0.0535
  679TMC3    C810052   1.345   2.011   1.429  0.7058  0.6067 -0.2029
  679TMC3    O110053   1.246   1.635   1.137  0.4217  0.1634 -0.2792
  679TMC3    O210054   1.418   2.067   1.501 -0.8742  0.5285  0.6537
  680MPD2     C10055   1.967   0.514  13.309  0.0733  0.7807  0.6114
  680MPD2    C110056   2.052   0.454  13.400 -0.1710 -0.2645  0.2378
  680MPD2    C210057   2.158   0.525  13.449  0.1792  0.4771 -0.6509
  680MPD2    C310058   2.157   0.660  13.427  0.6272 -0.3437  0.0017
  680MPD2    C410059   2.076   0.719  13.331 -0.2432  0.3098 -0.7123
  680MPD2    C510060   1.981   0.648  13.271 -0.2775 -0.2920 -0.4343
  680MPD2     H10061   2.236   0.482  13.511  1.1691  0.4419 -1.9185
  680MPD2    H110062   2.082   0.826  13.313 -0.3476  0.4092 -0.1793
  680MPD2    H210063   1.875   0.468  13.275  0.2423  0.3848  0.6884
  680MPD2    H310064   1.915   0.698  13.200  0.6795  0.3219 -0.8950
  680MPD2     N10065   2.244   0.742  13.501 -1.3042  0.1564 -0.4207
  680MPD2    H510066   2.223   0.841  13.488 -3.1968 -0.1149  0.5962
  680MPD2    N110067   2.036   0.317  13.439  0.2284  0.5238 -0.2261
  680MPD2    H710068   2.104   0.287  13.509  1.6790  1.4347 -1.2636
  681TMC3    C110069   1.952   0.107  13.473  0.0639 -1.1757 -0.0180
  681TMC3    C210070   1.843   0.027  13.510 -0.2388  0.0751  0.3278
  681TMC3    C310071   1.866   4.618  13.534 -0.2962 -0.4289  0.6463
  681TMC3    C410072   2.072   0.045  13.449 -0.2288 -0.5813 -0.3316
  681TMC3    C510073   2.090   4.636  13.464 -0.2382  0.3715 -0.1153
  681TMC3    C610074   1.989   4.562  13.514  0.0885  0.1345 -0.3502
  681TMC3     C10075   1.935   0.231  13.399  0.3657  0.2228  0.1243
  681TMC3     O10076   1.823   0.258  13.366 -0.3953  0.3304 -0.2162
  681TMC3     H10077   1.747   0.076  13.527 -0.2375  0.9698 -2.2672
  681TMC3    H110078   2.150   0.097  13.394 -0.4504  1.2333  1.0676
  681TMC3    H210079   2.003   4.456  13.535  0.2425  0.5736  1.6789
  681TMC3    C710080   2.222   4.579  13.424 -0.5008 -0.5369  0.1225
  681TMC3    C810081   1.767   4.550  13.606  0.5653  0.4138 -1.1626
  681TMC3    O110082   2.265   4.474  13.479  0.5763 -0.1556 -1.0151
  681TMC3    O210083   1.751   4.429  13.593 -0.0589  0.1183 -0.1109
  682MPD2     C10084   4.048   1.820  10.749 -0.4528 -0.6602 -0.3575
  682MPD2    C110085   3.955   1.722  10.733  0.3917  0.7908  0.2102
  682MPD2    C210086   3.903   1.660  10.844  0.4555 -0.3134 -0.4175
  682MPD2    C310087   3.935   1.703  10.971 -0.3342  0.5526 -0.2985
  682MPD2    C410088   4.029   1.798  10.985 -0.1159  0.1062  0.0224
  682MPD2    C510089   4.081   1.860  10.873 -0.5843 -0.3836 -0.3310
  682MPD2     H10090   3.840   1.573  10.830 -0.5972  0.2923  0.5342
  682MPD2    H110091   4.052   1.841  11.082 -2.2257  2.0991 -0.3427
  682MPD2    H210092   4.093   1.870  10.664 -0.8972  3.5016  1.8510
  682MPD2    H310093   4.153   1.940  10.887  1.1769 -1.4306 -3.5378
  682MPD2     N10094   3.883   1.640  11.085  0.4484  0.2939  0.3733
  682MPD2    H510095   3.886   1.686  11.176  3.1309 -0.8719  0.8640
  682MPD2    N110096   3.926   1.671  10.606  0.5265 -0.3673  0.4625
  682MPD2    H710097   3.852   1.601  10.600  1.7971 -1.8595  2.1457
  683TMC3    C110098   3.691   1.490  11.429  0.0046 -0.7609  0.7791
  683TMC3    C210099   3.666   1.355  11.442 -0.3841 -0.0929  0.0039
  683TMC3    C310100   3.698   1.276  11.327 -0.3885  0.6188 -0.6772
  683TMC3    C410101   3.763   1.543  11.323  0.1444  0.8664  0.6305
  683TMC3    C510102   3.792   1.464  11.214  0.1359  0.7233  0.8536
  683TMC3    C610103   3.760   1.335  11.217  0.0588  0.4317  0.5026
  683TMC3     C10104   3.662   1.573  11.542  0.6283  0.2317 -0.9481
  683TMC3     O10105   3.751   1.655  11.570  0.0963 -0.1057  0.5732
  683TMC3     H10106   3.631   1.308  11.534 -0.5159  0.6767  0.3503
  683TMC3    H110107   3.791   1.647  11.308 -1.8195  1.5789  1.8167
  683TMC3    H210108   3.784   1.272  11.133 -1.5866 -1.2439  1.3030
  683TMC3    C710109   3.844   1.509  11.088  0.2066 -0.3790 -0.2054
  683TMC3    C810110   3.716   1.135  11.347  1.0224 -0.3597  0.5300
  683TMC3    O110111   3.820   1.432  10.993  0.1292  0.2603 -0.1532
  683TMC3    O210112   3.823   1.093  11.298 -0.6607 -0.1322 -0.5249
  684MPD2     C10113   1.777   0.846  16.429  0.8386  0.5056 -0.3260
  684MPD2    C110114   1.879   0.881  16.344 -0.0973  0.7316  0.1226
  684MPD2    C210115   1.926   1.013  16.339 -0.6441 -0.2681  0.3288
  684MPD2    C310116   1.872   1.107  16.422  0.2716 -0.0617  0.5984
  684MPD2    C410117   1.762   1.076  16.500 -0.0250 -0.0588  0.1294
  684MPD2    C510118   1.714   0.944  16.502  0.2522  0.0746  0.1517
  684MPD2     H10119   2.005   1.034  16.268 -0.6794  1.4873  0.8040
  684MPD2    H110120   1.708   1.151  16.557 -0.6246 -1.6280  1.6351
  684MPD2    H210121   1.753   0.744  16.458  1.3406  0.0954 -1.3597
  684MPD2    H310122   1.643   0.917  16.580  0.1515  0.2711  0.1294
  684MPD2     N10123   1.926   1.230  16.435 -0.0161 -0.0486  0.2593
  684MPD2    H510124   1.904   1.290  16.513 -0.2075  0.9077 -0.5271
  684MPD2    N110125   1.940   0.793  16.255  0.1088 -0.0159  0.1311
  684MPD2    H710126   2.023   0.818  16.202  0.1154  0.8820  0.5775
  685TMC3    C110127   1.970   0.576  16.159 -0.3639 -0.2943  0.1949
  685TMC3    C210128   1.916   0.514  16.046  0.3905  0.7007 -0.0049
  685TMC3    C310129   2.000   0.451  15.957 -0.5025 -0.2377  0.1904
  685TMC3    C410130   2.106   0.593  16.170 -0.0830  0.7906 -0.5343
  685TMC3    C510131   2.182   0.529  16.076 -1.1500  0.4176  1.3505
  685TMC3    C610132   2.138   0.462  15.966  0.0130 -0.1643 -0.1595
  685TMC3     C10133   1.882   0.676  16.217  0.1925 -0.6263  0.2209
  685TMC3     O10134   1.766   0.637  16.241 -0.2665  0.7366 -0.1209
  685TMC3     H10135   1.808   0.512  16.034  0.2459  1.0868  1.2257
  685TMC3    H110136   2.153   0.641  16.255  1.9069 -0.3881 -0.9714
  685TMC3    H210137   2.208   0.412  15.900 -2.4320 -2.7956 -0.7599
  685TMC3    C710138   2.324   0.545  16.091  0.3761 -0.0284 -0.3424
  685TMC3    C810139   1.947   0.383  15.836  0.7672  0.2996 -0.2612
  685TMC3    O110140   2.364   0.543  16.207  0.4540  0.7482 -0.3410
  685TMC3    O210141   2.033   0.330  15.768 -0.2069  0.4912  0.1735
  686MPD2     C10142   3.843   0.621  15.858  0.5826  0.0135  0.2554
  686MPD2    C110143   3.738   0.549  15.806  0.0637  0.1963 -0.5477
  686MPD2    C210144   3.768   0.427  15.755 -0.8739  0.9418 -0.3203
  686MPD2    C310145   3.902   0.380  15.741 -0.2524  0.3416  0.6299
  686MPD2    C410146   4.001   0.461  15.796  1.0046 -0.3982 -0.0716
  686MPD2    C510147   3.972   0.577  15.853 -0.3471 -0.1913 -0.5542
  686MPD2     H10148   3.684   0.364  15.728 -0.4875 -0.2820  1.3102
  686MPD2    H110149   4.105   0.430  15.791  1.1124  0.4108 -3.1580
  686MPD2    H210150   3.826   0.724  15.889 -2.3788 -0.3112 -0.2553
  686MPD2    H310151   4.050   0.644  15.886  1.1500 -2.4995  0.6306
  686MPD2     N10152   3.948   0.262  15.666 -0.2375  0.1029  1.0480
  686MPD2    H510153   4.049   0.263  15.656 -0.0643 -1.7112  2.5124
  686MPD2    N110154   3.609   0.605  15.794 -0.5873 -0.1547  0.7978
  686MPD2    H710155   3.599   0.706  15.787 -1.3087 -0.2851 -0.1100
  687TMC3    C110156   3.750   0.139  15.697 -0.2057 -0.3941  0.5831
  687TMC3    C210157   3.625   0.134  15.645 -0.3623 -0.3937 -0.0262
  687TMC3    C310158   3.518   0.125  15.731  0.0528 -0.3470 -0.1102
  687TMC3    C410159   3.778   0.119  15.826 -0.4215  0.1273 -0.0496
  687TMC3    C510160   3.666   0.110  15.912  0.6170 -0.0024 -0.3483
  687TMC3    C610161   3.540   0.108  15.865 -0.5044 -0.3230 -0.6658
  687TMC3     C10162   3.865   0.168  15.609  0.4275 -0.4962  1.1691
  687TMC3     O10163   3.884   0.092  15.514 -0.7897 -0.0108 -0.9953
  687TMC3     H10164   3.609   0.141  15.538 -0.1158 -2.3801 -0.2006
  687TMC3    H110165   3.882   0.122  15.857 -0.8328  2.1863  1.1389
  687TMC3    H210166   3.456   0.090  15.930 -1.8024  1.6910 -1.7869
  687TMC3    C710167   3.696   0.121  16.050  0.5866 -0.1793  0.3980
  687TMC3    C810168   3.378   0.143  15.695  0.1747 -0.0989  0.1917
  687TMC3    O110169   3.608   0.168  16.122  0.2533  0.3757 -0.2234
  687TMC3    O210170   3.297   0.123  15.791 -0.4397 -0.5674 -0.2409
  688MPD2     C10171   3.056   4.290  17.113 -0.0833  0.5494 -0.0607
  688MPD2    C110172   2.979   4.179  17.079 -0.0504 -0.9438  0.3699
  688MPD2    C210173   2.980   4.130  16.948 -0.9498  0.6337  0.0830
  688MPD2    C310174   3.060   4.193  16.854  0.3714 -0.3289 -0.3918
  688MPD2    C410175   3.123   4.310  16.883 -0.4283 -0.1535  0.4109
  688MPD2    C510176   3.133   4.349  17.013 -0.6592  0.0849  0.3792
  688MPD2     H10177   2.916   4.046  16.925  2.6581 -2.2292  0.5108
  688MPD2    H110178   3.182   4.372  16.817  1.6202 -1.3617  1.0890
  688MPD2    H210179   3.067   4.324  17.215  1.0357  0.2729 -0.0941
  688MPD2    H310180   3.203   4.427  17.040 -0.8410  0.0357  0.9861
  688MPD2     N10181   3.064   4.157  16.719 -0.0362  0.5455  0.3076
  688MPD2    H510182   3.106   4.232  16.664  0.8269  1.0691  1.6855
  688MPD2    N110183   2.925   4.098  17.188 -0.2076 -0.1119 -0.7972
  688MPD2    H710184   2.918   3.997  17.178  1.2343 -0.2083 -0.9124
  689TMC3    C110185   2.858   4.055  17.417  0.9066 -1.1757  0.3935
  689TMC3    C210186   2.847   4.118  17.538  0.5350 -0.2260 -1.2545
  689TMC3    C310187   2.805   4.048  17.649  0.0770 -0.1971 -0.2991
  689TMC3    C410188   2.808   3.931  17.396 -0.3789 -0.8863 -0.3742
  689TMC3    C510189   2.749   3.872  17.503 -0.0265 -0.3070 -0.1916
  689TMC3    C610190   2.746   3.922  17.630 -0.2384  0.0721  0.2696
  689TMC3     C10191   2.882   4.154  17.311 -0.8246  0.2203  0.2560
  689TMC3     O10192   2.897   4.269  17.350 -0.1811 -0.9266  0.4462
  689TMC3     H10193   2.886   4.218  17.555  0.8992 -0.5527 -0.1635
  689TMC3    H110194   2.814   3.879  17.301 -1.2063 -1.1559 -0.2820
  689TMC3    H210195   2.694   3.874   0.010  2.0677 -0.2913  1.5152
  689TMC3    C710196   2.723   3.729  17.488 -0.4239  0.8447  0.7260
  689TMC3    C810197   2.780   4.123   0.070  0.4604 -0.1662 -0.2995
  689TMC3    O110198   2.783   3.668  17.570 -0.3380 -0.2636  0.3039
  689TMC3    O210199   2.729   4.058   0.155 -0.0495 -0.7013  0.0328
  690MPD2     C10200   0.251   1.540  15.792  0.0063  0.0856 -0.3955
  690MPD2    C110201   0.204   1.575  15.669 -0.4029 -0.6290 -0.1423
  690MPD2    C210202   0.285   1.644  15.585  0.4477  0.6588 -0.0429
  690MPD2    C310203   0.410   1.681  15.623 -0.0891  0.1730  0.2450
  690MPD2    C410204   0.456   1.643  15.745  0.2715  0.0817  0.0727
  690MPD2    C510205   0.373   1.582  15.833 -0.0563  0.3960  0.1764
  690MPD2     H10206   0.242   1.665  15.488  1.1615  3.9153  0.3495
  690MPD2    H110207   0.557   1.663  15.777 -0.0475 -1.2572  1.8735
  690MPD2    H210208   0.191   1.485  15.864 -0.3261 -1.2122 -1.6513
  690MPD2    H310209   0.418   1.564  15.930  0.3082 -2.2980 -0.5040
  690MPD2     N10210   0.484   1.761  15.528 -0.3613  0.2703  0.3501
  690MPD2    H510211   0.455   1.756  15.431  1.4624 -0.9537 -0.1345
  690MPD2    N110212   0.077   1.532  15.620 -0.5812 -0.3718  0.1061
  690MPD2    H710213   0.058   1.551  15.522 -0.9753  1.2435  0.5140
  691TMC3    C110214   4.609   1.405  15.604 -0.3892 -0.0156 -0.0803
  691TMC3    C210215   4.476   1.405  15.648  0.5903 -0.7431 -0.3778
  691TMC3    C310216   4.389   1.320  15.581  0.2948  0.5300 -0.5952
  691TMC3    C410217   4.662   1.333  15.505 -0.1773  0.6128 -0.0992
  691TMC3    C510218   4.574   1.249  15.440 -0.2546 -0.3328 -1.0373
  691TMC3    C610219   4.439   1.245  15.481 -0.2608  0.6600 -0.1244
  691TMC3     C10220   4.701   1.464  15.692 -0.3025 -0.3412 -0.0815
  691TMC3     O10221   4.675   1.463  15.815  0.0359 -0.7152  0.1940
  691TMC3     H10222   4.437   1.446  15.741  0.0375 -1.5497 -0.2470
  691TMC3    H110223   0.043   1.335  15.484 -0.2613  0.3643 -0.5566
  691TMC3    H210224   4.379   1.158  15.455 -0.4136  1.6281 -3.0111
  691TMC3    C710225   4.626   1.127  15.401  0.1897  0.2264  0.5754
  691TMC3    C810226   4.264   1.283  15.642 -0.6599 -0.1183  0.7124
  691TMC3    O110227   0.022   1.126  15.405  0.0981  0.0079 -0.3683
  691TMC3    O210228   4.219   1.170  15.621  0.4232 -0.0722 -0.2568
  692TMC3    C110229   1.767   2.418  15.816 -0.0475  0.2738  0.9685
  692TMC3    C210230   1.802   2.551  15.830 -0.3882  0.0938 -0.0447
  692TMC3    C310231   1.918   2.568  15.896 -0.1315 -0.4557 -0.4229
  692TMC3    C410232   1.843   2.308  15.826 -0.0876 -0.4187 -0.3350
  692TMC3    C510233   1.959   2.326  15.895 -0.5376 -0.6378  0.0107
  692TMC3    C610234   1.990   2.451  15.939 -0.2527  0.4636  0.2693
  692TMC3     C10235   1.625   2.380  15.808 -0.1976 -0.0459 -0.3579
  692TMC3     O10236   1.589   2.271  15.847  0.3929  0.3724  0.1722
  692TMC3     H10237   1.734   2.634  15.846  2.2696  2.5137 -1.3629
  692TMC3    H110238   1.802   2.212  15.795 -0.3726 -0.0939 -0.9720
  692TMC3    H210239   2.080   2.466  15.999 -0.3473 -0.1404  0.5693
  692TMC3    C710240   2.017   2.210  15.950  0.6292  0.2607 -1.0348
  692TMC3    C810241   1.916   2.666  15.997  0.2145  0.0541 -0.5314
  692TMC3    O110242   2.048   2.209  16.064  0.1152 -0.2110  0.4568
  692TMC3    O210243   1.927   2.786  15.969 -1.0098 -0.2429  0.0425
  693MPD2     C10244   0.986   0.209  10.451  0.5147  0.4098  0.7644
  693MPD2    C110245   0.911   0.240  10.562 -0.2837 -0.0850  0.1410
  693MPD2    C210246   0.963   0.229  10.690  0.1567 -0.1631  0.4994
  693MPD2    C310247   1.092   0.187  10.699 -0.8449  0.2523  0.1759
  693MPD2    C410248   1.166   0.154  10.592  0.1555 -0.8871  0.1226
  693MPD2    C510249   1.120   0.163  10.465 -0.8878 -0.0852 -0.5768
  693MPD2     H10250   0.896   0.252  10.772 -1.1126 -1.2830 -0.2277
  693MPD2    H110251   1.270   0.131  10.612 -0.0134 -3.6314 -2.2255
  693MPD2    H210252   0.949   0.223  10.350  1.5143 -0.0825  0.3268
  693MPD2    H310253   1.184   0.147  10.379 -0.6853 -0.7602 -0.3030
  693MPD2     N10254   1.144   0.171  10.826  0.0642  0.1141 -0.2502
  693MPD2    H510255   1.241   0.143  10.823 -0.2402 -1.2297  2.5022
  693MPD2    N110256   0.774   0.273  10.558 -0.5837  0.3601 -0.2345
  693MPD2    H710257   0.728   0.286  10.647 -1.1439  1.0824 -0.6251
  694TMC3    C110258   0.554   0.314  10.491 -0.4346 -0.1613 -0.5320
  694TMC3    C210259   0.458   0.230  10.437  0.2299 -0.4448  0.0836
  694TMC3    C310260   0.358   0.196  10.531 -0.2594  0.2611  0.0754
  694TMC3    C410261   0.544   0.371  10.617  0.5989 -0.1912 -0.2036
  694TMC3    C510262   0.455   0.318  10.704 -0.7941  0.6374  0.2934
  694TMC3    C610263   0.360   0.222  10.663  0.4963  0.4245  0.1336
  694TMC3     C10264   0.689   0.282  10.448 -0.3538  0.8101 -0.1045
  694TMC3     O10265   0.704   0.256  10.327  0.1699 -0.4988 -0.1213
  694TMC3     H10266   0.455   0.197  10.334 -1.6516 -1.0874  0.3529
  694TMC3    H110267   0.615   0.451  10.635 -0.3367  0.6053 -0.0647
  694TMC3    H210268   0.295   0.177  10.737  1.2427  0.3813  0.7712
  694TMC3    C710269   0.509   0.298  10.840 -0.3748 -1.6224 -0.0835
  694TMC3    C810270   0.262   0.099  10.488 -0.0837 -0.4812 -0.1830
  694TMC3    O110271   0.631   0.310  10.845  0.0283  0.1705  0.2713
  694TMC3    O210272   0.244   4.724  10.551 -0.4767 -0.0894  0.4130
  695MPD2     C10273   2.117   1.897  13.469  0.3420  0.3608 -0.5419
  695MPD2    C110274   2.084   1.975  13.573 -0.4667  0.0234  0.4724
  695MPD2    C210275   1.965   2.049  13.569  0.6801  0.2884  0.5973
  695MPD2    C310276   1.886   2.043  13.455  0.3559 -0.1595  0.1444
  695MPD2    C410277   1.922   1.978  13.345  0.3269  0.2261 -0.3425
  695MPD2    C510278   2.036   1.899  13.357 -0.6177 -0.5315  0.8408
  695MPD2     H10279   1.936   2.105  13.657 -0.2788 -0.4698  0.7678
  695MPD2    H110280   1.860   1.946  13.262 -2.4060 -0.2453  1.9013
  695MPD2    H210281   2.203   1.831  13.472 -1.6422 -2.1580  1.1784
  695MPD2    H310282   2.049   1.827  13.277 -0.5101  0.0735  0.3142
  695MPD2     N10283   1.760   2.103  13.470  0.3910  0.5048 -0.7702
  695MPD2    H510284   1.733   2.126  13.566  0.4991  0.2766 -0.6863
  695MPD2    N110285   2.150   1.984  13.693  0.2514  0.0767  0.1865
  695MPD2    H710286   2.114   2.044  13.767 -0.2266  1.1764 -0.9513
  696TMC3    C110287   1.551   2.184  13.432  0.5830  0.0036 -0.5202
  696TMC3    C210288   1.511   2.142  13.552  0.5902 -0.8375 -0.3673
  696TMC3    C310289   1.393   2.201  13.604 -0.4669  0.1326 -0.7423
  696TMC3    C410290   1.489   2.276  13.360  0.0390  0.7179  0.1264
  696TMC3    C510291   1.388   2.353  13.422 -0.0407  0.0523 -0.2845
  696TMC3    C610292   1.340   2.317  13.546  0.0009  0.7945  0.1319
  696TMC3     C10293   1.671   2.139  13.370  0.2171  0.5294  0.1714
  696TMC3     O10294   1.701   2.153  13.252  0.0744 -0.9744  0.9745
  696TMC3     H10295   1.556   2.055  13.600 -3.2563 -2.5538  0.1137
  696TMC3    H110296   1.523   2.302  13.260  1.4585 -1.3713  0.0771
  696TMC3    H210297   1.256   2.367  13.591  0.1910  0.9993  0.2601
  696TMC3    C710298   1.367   2.483  13.359 -0.2298 -0.4158  0.2282
  696TMC3    C810299   1.370   2.186  13.746 -0.6033 -0.6659 -0.0464
  696TMC3    O110300   1.403   2.500  13.241 -0.5847  0.1034 -0.1710
  696TMC3    O210301   1.464   2.146  13.812  0.3724 -0.5428 -0.0280
  697MPD2     C10302   1.771   3.783  15.543  0.1416  0.2145  0.8941
  697MPD2    C110303   1.701   3.766  15.425 -0.0202  0.6032 -0.0549
  697MPD2    C210304   1.713   3.875  15.329 -0.0972  0.3644 -0.5059
  697MPD2    C310305   1.763   3.997  15.372  0.5204 -0.0776  0.1673
  697MPD2    C410306   1.823   4.006  15.495 -0.2285 -0.5298 -0.3620
  697MPD2    C510307   1.829   3.899  15.579 -0.1241  0.3368 -0.1220
  697MPD2     H10308   1.671   3.871  15.230  1.5512  3.1544 -1.3028
  697MPD2    H110309   1.869   4.097  15.532  0.9001 -0.7561 -1.2478
  697MPD2    H210310   1.788   3.704  15.616  0.0397 -2.3193 -1.8070
  697MPD2    H310311   1.883   3.902  15.673 -0.4523 -0.5152  0.0941
  697MPD2     N10312   1.770   4.104  15.276  0.1515 -0.4979 -0.2075
  697MPD2    H510313   1.743   4.085  15.180  0.0897 -1.6609  0.0377
  697MPD2    N110314   1.625   3.655  15.394 -0.5897 -0.1739  0.0333
  697MPD2    H710315   1.580   3.652  15.303  0.6959 -0.9445 -0.5673
  698TMC3    C110316   1.819   4.319  15.189 -0.2636  0.4275 -0.2425
  698TMC3    C210317   1.898   4.437  15.196  0.2328 -0.5401  0.3449
  698TMC3    C310318   1.902   4.520  15.083 -0.4779 -0.5396  0.1329
  698TMC3    C410319   1.746   4.294  15.076  0.2197 -0.1405 -0.5645
  698TMC3    C510320   1.754   4.371  14.965 -0.0906  0.5288 -0.1382
  698TMC3    C610321   1.831   4.491  14.973  0.0523  0.3582  0.5725
  698TMC3     C10322   1.804   4.232  15.303 -1.1579 -0.6818  0.1988
  698TMC3     O10323   1.799   4.293  15.412 -0.0227 -0.0938 -0.0624
  698TMC3     H10324   1.956   4.455  15.285 -1.0063 -1.4233  1.3306
  698TMC3    H110325   1.677   4.211  15.063 -0.3066  0.1726  0.2234
  698TMC3    H210326   1.805   4.569  14.902  1.6925 -1.2099 -1.7271
  698TMC3    C710327   1.655   4.353  14.862  0.3596 -0.2237  0.4630
  698TMC3    C810328   1.975   4.640  15.096 -0.2741 -0.2564 -0.0628
  698TMC3    O110329   1.566   4.273  14.884  0.1576 -0.0007  0.3589
  698TMC3    O210330   2.002   4.695  14.987 -0.6838  0.2190  0.7701
  699TMC3    C110331   1.233   2.477  12.915  0.2008  0.3036  0.2130
  699TMC3    C210332   1.240   2.366  12.989 -0.7894  0.0034 -0.1175
  699TMC3    C310333   1.156   2.345  13.096 -0.0218  0.6967  0.9703
  699TMC3    C410334   1.139   2.570  12.946 -0.2168  0.0607  0.3650
  699TMC3    C510335   1.054   2.555  13.053 -0.3938  0.3081  0.4950
  699TMC3    C610336   1.065   2.441  13.126 -0.5375 -0.2984  0.3133
  699TMC3     C10337   1.288   2.485  12.779  1.3230  0.1809  0.0646
  699TMC3     O10338   1.239   2.568  12.698  0.4413 -0.0799 -0.1411
  699TMC3     H10339   1.302   2.290  12.942 -0.6962 -0.1675  0.2814
  699TMC3    H110340   1.134   2.660  12.886  1.2419 -0.8703 -1.1750
  699TMC3    H210341   0.992   2.434  13.206  0.1470 -2.6271  0.7119
  699TMC3    C710342   1.004   2.669  13.127  0.1758 -0.1159 -0.0450
  699TMC3    C810343   1.142   2.222  13.174 -0.0140  0.0812 -0.5284
  699TMC3    O110344   0.930   2.651  13.224  0.1230 -0.3929  0.2088
  699TMC3    O210345   1.049   2.211  13.257 -0.5228 -0.1046 -0.3247
  700TMC3    C110346   0.263   4.301  17.192  0.6454 -0.2938 -0.3723
  700TMC3    C210347   0.319   4.178  17.201  0.0937  0.6885  0.2714
  700TMC3    C310348   0.418   4.154  17.299  0.1226  0.3980 -0.1059
  700TMC3    C410349   0.300   4.408  17.271  0.7110  0.6099 -0.2072
  700TMC3    C510350   0.393   4.375  17.369  0.0946  0.4363 -0.1520
  700TMC3    C610351   0.452   4.256  17.386 -0.1103 -0.1285  0.0052
  700TMC3     C10352   0.240   4.330  17.055 -0.3250 -0.1890 -0.5860
  700TMC3     O10353   0.172   4.259  16.988  0.2062 -0.3226 -0.0514
  700TMC3     H10354   0.302   4.100  17.128  0.6919 -0.3690  1.2660
  700TMC3    H110355   0.252   4.505  17.261 -1.0284 -0.4431 -2.0714
  700TMC3    H210356   0.532   4.238  17.456  0.9441 -1.0345 -1.4462
  700TMC3    C710357   0.428   4.485  17.462 -0.4982  0.0299 -0.0806
  700TMC3    C810358   0.504   4.038  17.287 -0.4698 -0.5054  0.2462
  700TMC3    O110359   0.358   4.587  17.459  0.1333 -0.5663  0.0589
  700TMC3    O210360   0.618   4.044  17.335 -0.2691 -0.7603  0.1018
  701TMC3    C110361   0.473   3.350  15.203 -0.0563  0.5026  0.0227
  701TMC3    C210362   0.521   3.315  15.073 -0.2352  0.1182 -0.5871
  701TMC3    C310363   0.624   3.392  15.024 -0.8821  0.3825  0.3144
  701TMC3    C410364   0.534   3.446  15.280 -0.0630 -0.4233 -0.0215
  701TMC3    C510365   0.642   3.509  15.222 -0.2566 -0.0969 -0.0873
  701TMC3    C610366   0.685   3.486  15.101  0.0891 -0.3643 -0.2963
  701TMC3     C10367   0.360   3.279  15.266  0.2208 -0.3781 -0.0815
  701TMC3     O10368   0.349   3.284  15.390  0.0417  0.0583  0.5990
  701TMC3     H10369   0.466   3.236  15.023 -0.9125 -1.3319  2.4746
  701TMC3    H110370   0.480   3.470  15.371  0.3377 -0.4103  0.2091
  701TMC3    H210371   0.765   3.545  15.058 -1.3796  1.5670 -0.3696
  701TMC3    C710372   0.700   3.618  15.288  0.2392 -0.3053 -0.0550
  701TMC3    C810373   0.674   3.372  14.882  0.1725  0.0918 -0.3860
  701TMC3    O110374   0.746   3.704  15.217 -0.2898  0.6104  0.2488
  701TMC3    O210375   0.794   3.381  14.863 -0.8268  0.0042  0.3659
  702MPD2     C10376   4.676   0.743  10.373 -0.8869  0.0181  0.2954
  702MPD2    C110377   4.713   0.871  10.408  0.0156 -1.2071  0.1502
  702MPD2    C210378   0.083   0.936  10.336 -0.0452 -0.4062  0.2608
  702MPD2    C310379   0.143   0.868  10.227  0.1236  0.6811 -0.0505
  702MPD2    C410380   0.099   0.741  10.193  0.0433 -0.7031 -0.9722
  702MPD2    C510381   0.006   0.681  10.266 -0.1783  0.2981  0.9055
  702MPD2     H10382   0.113   1.035  10.368  0.4249 -1.0154  1.6939
  702MPD2    H110383   0.129   0.693  10.100 -1.0789  0.6514 -2.0394
  702MPD2    H210384   4.600   0.684  10.423 -0.9579  2.2666  2.7928
  702MPD2    H310385   4.697   0.585  10.227 -1.8515  1.0116  0.6095
  702MPD2     N10386   0.254   0.916  10.152  0.1667 -0.4800  0.0227
  702MPD2    H510387   0.267   0.877  10.059  1.1075  1.7910 -0.7947
  702MPD2    N110388   4.653   0.936  10.515  0.3653 -0.4902 -0.0238
  702MPD2    H710389   4.693   1.029  10.531 -0.9608  0.6844 -3.4537
  703TMC3    C110390   0.403   1.088  10.106  0.9600  0.5879  0.0137
  703TMC3    C210391   0.325   1.156  10.023 -0.0074  0.0925 -0.4470
  703TMC3    C310392   0.373   1.266   9.953  0.1148  0.3095  0.7105
  703TMC3    C410393   0.531   1.131  10.135 -0.2096  0.5924 -0.4695
  703TMC3    C510394   0.580   1.230  10.054  0.7352  0.2077 -0.2480
  703TMC3    C610395   0.500   1.306   9.968 -0.6478  0.6312  0.3223
  703TMC3     C10396   0.338   1.009  10.208  0.1789 -0.3221  0.3985
  703TMC3     O10397   0.371   1.032  10.323 -0.1131 -0.3500 -0.1382
  703TMC3     H10398   0.219   1.133  10.022  0.0382 -0.0924 -0.6861
  703TMC3    H110399   0.597   1.075  10.201 -0.4590  2.5956  1.5062
  703TMC3    H210400   0.537   1.379   9.898  3.8061 -1.9133 -0.0258
  703TMC3    C710401   0.721   1.255  10.043  0.4319  0.1969  0.4252
  703TMC3    C810402   0.285   1.380   9.925 -0.5932  1.6410 -0.5336
  703TMC3    O110403   0.750   1.358   9.983 -0.0955  0.2146  0.0524
  703TMC3    O210404   0.323   1.487   9.872 -0.2217 -0.2300  0.2247
  704TMC3    C110405   2.138   3.951  11.725 -0.8653  0.1537 -0.4385
  704TMC3    C210406   2.272   3.969  11.750 -0.4196  0.6266  0.2932
  704TMC3    C310407   2.338   3.859  11.789 -0.0105 -0.3409  0.4286
  704TMC3    C410408   2.065   3.836  11.749  0.1142  0.1441 -0.2687
  704TMC3    C510409   2.137   3.725  11.784  0.0600  0.3736 -0.4197
  704TMC3    C610410   2.276   3.739  11.808 -0.5408 -0.1544  0.4574
  704TMC3     C10411   2.061   4.061  11.672  0.5381  0.0462  0.0495
  704TMC3     O10412   1.948   4.042  11.632 -0.0407 -0.3889 -0.6734
  704TMC3     H10413   2.334   4.045  11.704 -0.1866  0.9319  1.1031
  704TMC3    H110414   1.958   3.826  11.733 -0.0248  2.2964 -0.7062
  704TMC3    H210415   2.336   3.656  11.843 -0.9664 -0.1600  1.1762
  704TMC3    C710416   2.072   3.603  11.821 -0.6637 -1.0087  1.3136
  704TMC3    C810417   2.479   3.858  11.789 -0.1505 -0.2376  0.1282
  704TMC3    O110418   1.963   3.600  11.883 -0.1859  0.4153 -0.1795
  704TMC3    O210419   2.536   3.752  11.774  0.3138  0.3951  0.5763
  705MPD2     C10420   2.204   2.025  16.753  0.5545 -0.3434  0.3704
  705MPD2    C110421   2.105   2.095  16.682 -0.8624  0.0338 -0.2523
  705MPD2    C210422   1.981   2.108  16.734  0.1179  0.9157  0.3060
  705MPD2    C310423   1.945   2.032  16.845  0.0201 -0.9399 -0.3272
  705MPD2    C410424   2.041   1.961  16.917 -0.3294  0.3395  0.0015
  705MPD2    C510425   2.173   1.958  16.866  0.0342 -0.2296  0.9768
  705MPD2     H10426   1.909   2.167  16.679  0.1882  1.9251  1.2774
  705MPD2    H110427   2.010   1.894  16.997  1.3731 -1.7270 -1.0781
  705MPD2    H210428   2.307   2.025  16.717  0.3548  2.1230 -0.2031
  705MPD2    H310429   2.246   1.903  16.924  0.9955 -0.7245 -0.7174
  705MPD2     N10430   1.810   2.025  16.891 -0.3098  0.7502  0.8358
  705MPD2    H510431   1.789   1.954  16.960 -1.0850 -0.6300 -0.8172
  705MPD2    N110432   2.129   2.164  16.559 -0.5646 -0.2831 -0.2220
  705MPD2    H710433   2.058   2.227  16.524  0.0776  0.5059 -0.0833
  706TMC3    C110434   2.346   2.250  16.154 -0.2974  0.2729 -0.5034
  706TMC3    C210435   2.319   2.383  16.157 -0.0240 -0.3305 -0.3243
  706TMC3    C310436   2.263   2.432  16.268  0.2255 -0.0916 -0.1293
  706TMC3    C410437   2.310   2.171  16.258 -0.7993 -0.3495  0.1166
  706TMC3    C510438   2.250   2.225  16.367  0.8861 -0.2656 -0.0664
  706TMC3    C610439   2.218   2.356  16.374 -0.4417  0.4482 -0.5545
  706TMC3     C10440   2.395   2.202  16.029  0.0196 -0.4729  0.0213
  706TMC3     O10441   2.397   2.272  15.931 -0.1047  0.0034 -0.3070
  706TMC3     H10442   2.341   2.451  16.075 -1.7621 -0.4498 -0.8787
  706TMC3    H110443   2.336   2.066  16.260 -0.0671 -0.1679  0.1370
  706TMC3    H210444   2.151   2.403  16.445  0.3362 -0.6905  0.9274
  706TMC3    C710445   2.240   2.140  16.485  0.2841 -0.2089 -0.2183
  706TMC3    C810446   2.232   2.574  16.243  0.2077 -0.4749 -0.1814
  706TMC3    O110447   2.315   2.041  16.490 -0.1244 -0.7395  0.2937
  706TMC3    O210448   2.197   2.608  16.127 -0.3246 -0.5018  0.2510
  707TMC3    C110449   3.890   1.518   1.621 -0.0858  1.0001 -0.5845
  707TMC3    C210450   3.982   1.619   1.644  0.2816 -0.3021 -0.4202
  707TMC3    C310451   3.964   1.682   1.762  0.3456 -0.0655  0.2834
  707TMC3    C410452   3.781   1.489   1.706  0.6927 -0.0419  0.2931
  707TMC3    C510453   3.766   1.563   1.821  1.0309  0.2685  0.1694
  707TMC3    C610454   3.858   1.665   1.850  0.1057 -0.4858 -0.0168
  707TMC3     C10455   3.912   1.450   1.494 -0.3042 -0.2309 -0.3881
  707TMC3     O10456   3.997   1.498   1.419 -0.3717  0.6721 -0.7055
  707TMC3     H10457   4.063   1.647   1.578  1.5940 -1.6749  0.6137
  707TMC3    H110458   3.715   1.405   1.686  1.9232 -0.0899 -3.5055
  707TMC3    H210459   3.849   1.707   1.949  0.8611 -0.3361 -0.0178
  707TMC3    C710460   3.691   1.509   1.931 -0.1314 -0.1610 -0.0489
  707TMC3    C810461   4.083   1.722   1.825 -0.3198 -0.5492  0.7409
  707TMC3    O110462   3.690   1.572   2.036 -0.4060 -0.3843  0.2301
  707TMC3    O210463   4.071   1.790   1.927  0.3845 -0.2216  0.0235
  708MPD2     C10464   0.865   0.802  13.691 -0.0743 -0.3683  0.9620
  708MPD2    C110465   0.808   0.903  13.766  0.4219  1.0024  0.1026
  708MPD2    C210466   0.737   0.874  13.882 -0.9229  0.1354 -0.9938
  708MPD2    C310467   0.726   0.744  13.927  0.1812 -0.6046 -0.2459
  708MPD2    C410468   0.783   0.643  13.852 -0.6532 -0.8243  0.1245
  708MPD2    C510469   0.852   0.674  13.734 -0.4253 -0.4684  0.0831
  708MPD2     H10470   0.680   0.951  13.932 -1.1490 -0.3575 -0.5009
  708MPD2    H110471   0.779   0.539  13.882 -0.8499 -0.7952  0.1991
  708MPD2    H210472   0.922   0.833  13.604 -1.0359 -1.4286 -0.0366
  708MPD2    H310473   0.898   0.603  13.666 -0.8767 -1.6587  1.0272
  708MPD2     N10474   0.637   0.716  14.033 -0.2189  0.3411  0.0259
  708MPD2    H510475   0.599   0.792  14.088  0.3207  0.9920 -0.5067
  708MPD2    N110476   0.819   1.034  13.709 -0.3772  0.1802  0.0342
  708MPD2    H710477   0.879   1.039  13.628 -0.9471 -2.4370 -0.5765
  709TMC3    C110478   0.749   1.248  13.655 -0.7578 -0.6887 -0.3494
  709TMC3    C210479   0.794   1.215  13.529  0.8051  0.0380  0.2593
  709TMC3    C310480   0.713   1.239  13.426 -0.0508  0.5247  0.0013
  709TMC3    C410481   0.633   1.311  13.677  0.9145 -0.9998 -0.0741
  709TMC3    C510482   0.543   1.317  13.578 -0.2067  0.4274  0.8619
  709TMC3    C610483   0.584   1.288  13.456 -0.4034  0.3297  0.3715
  709TMC3     C10484   0.755   1.147  13.759 -0.2601 -0.1495  0.5147
  709TMC3     O10485   0.690   1.153  13.857 -0.0732  0.5471  0.1448
  709TMC3     H10486   0.897   1.183  13.523  0.7433 -0.4837  2.0102
  709TMC3    H110487   0.614   1.345  13.778 -1.5327  1.9696 -1.5193
  709TMC3    H210488   0.524   1.321  13.372  0.8413  0.3504 -0.5029
  709TMC3    C710489   0.419   1.265  13.629  0.0156  0.2431 -0.4659
  709TMC3    C810490   0.762   1.182  13.298  0.5592  0.6856  0.0930
  709TMC3    O110491   0.371   1.306  13.733  0.1627 -0.2238 -0.9902
  709TMC3    O210492   0.864   1.110  13.297 -0.0424 -0.2130  0.2459
  710TMC3    C110493   1.078   1.780   0.385 -0.0209 -0.0302  0.3350
  710TMC3    C210494   1.121   1.712   0.275 -0.0471  0.1633 -0.7461
  710TMC3    C310495   1.221   1.611   0.295  0.2636 -1.0009  0.7086
  710TMC3    C410496   1.124   1.735   0.510  0.1436  0.0926  0.0292
  710TMC3    C510497   1.213   1.637   0.525  0.3351  0.7874  0.2950
  710TMC3    C610498   1.275   1.577   0.416 -0.0269 -0.0972  0.0674
  710TMC3     C10499   0.980   1.882   0.373 -0.4548 -0.8513 -0.1056
  710TMC3     O10500   0.917   1.880   0.270 -0.0138  0.8600 -0.2013
  710TMC3     H10501   1.084   1.739   0.177  0.4294 -2.0055 -1.5329
  710TMC3    H110502   1.091   1.794   0.595 -0.6758  0.6542 -0.6727
  710TMC3    H210503   1.358   1.510   0.440  1.3589  1.3541 -0.7164
  710TMC3    C710504   1.235   1.584   0.655 -0.5284 -0.1897 -0.5411
  710TMC3    C810505   1.271   1.549   0.168 -0.5696  0.3382  0.4917
  710TMC3    O110506   1.169   1.641   0.745 -0.2458 -0.2350 -0.0346
  710TMC3    O210507   1.228   1.610   0.071 -0.1144  0.3623 -0.2374
  711TMC3    C110508   1.184   2.992  14.939  0.1980 -0.3913 -0.0952
  711TMC3    C210509   1.172   3.033  15.068  0.1719 -0.4460  0.1161
  711TMC3    C310510   1.287   3.004  15.139  0.0809 -0.5965  0.1711
  711TMC3    C410511   1.297   2.934  14.892  0.3025  1.1742 -0.5076
  711TMC3    C510512   1.409   2.897  14.963 -0.2018  0.3420 -0.1154
  711TMC3    C610513   1.404   2.947  15.095  0.0165  0.1085  0.0612
  711TMC3     C10514   1.065   2.933  14.889 -0.2507 -0.0335 -0.4927
  711TMC3     O10515   1.079   2.817  14.853 -0.3617 -0.3942 -0.1886
  711TMC3     H10516   1.087   3.083  15.113 -0.2112 -0.6563 -0.3779
  711TMC3    H110517   1.287   2.898  14.790 -1.5938  2.2536 -0.7136
  711TMC3    H210518   1.487   2.916  15.157  0.9224  2.3687 -0.0510
  711TMC3    C710519   1.423   2.762  14.981  0.2982 -0.2824  0.0933
  711TMC3    C810520   1.273   3.031  15.279  0.9528 -0.4744  0.0065
  711TMC3    O110521   1.524   2.720  15.034 -0.3160  0.5222 -0.4579
  711TMC3    O210522   1.165   3.063  15.331  0.6679 -0.1740  0.0275
  712MPD2     C10523   2.769   4.373  14.042 -0.2132 -0.0326 -0.2909
  712MPD2    C110524   2.740   4.349  13.914 -0.1252  0.1256 -0.2840
  712MPD2    C210525   2.809   4.422  13.815 -0.7192 -0.2172  0.0180
  712MPD2    C310526   2.889   4.534  13.854  0.4866 -0.3065 -0.8913
  712MPD2    C410527   2.917   4.558  13.987  0.6965  0.0868  0.3139
  712MPD2    C510528   2.861   4.473  14.081  0.1759  0.2093  0.4873
  712MPD2     H10529   2.780   4.400  13.713 -1.5608 -2.0020  0.6382
  712MPD2    H110530   2.992   4.626  14.024 -0.0150  0.5592  0.9000
  712MPD2    H210531   2.726   4.318  14.126  2.0023 -1.3951 -0.0369
  712MPD2    H310532   2.877   4.481  14.188  0.3429  1.9283  0.3412
  712MPD2     N10533   2.950   4.623  13.766 -0.1365 -0.3774  0.3230
  712MPD2    H510534   3.019   4.689  13.801  0.5600 -0.7173 -0.4175
  712MPD2    N110535   2.634   4.262  13.869 -0.4881 -0.0910  0.1616
  712MPD2    H710536   2.614   4.251  13.770 -0.1334  1.4703 -0.0884
  713TMC3    C110537   3.008   4.701  13.556 -0.6078  0.1965  0.4336
  713TMC3    C210538   3.144   4.714  13.598  0.2823  0.3484 -0.5717
  713TMC3    C310539   3.247   0.016  13.507 -0.3293  0.3450  0.3970
  713TMC3    C410540   2.974   0.008  13.425 -0.1028 -0.3947 -0.0325
  713TMC3    C510541   3.072   0.060  13.347  0.3369 -0.2372 -0.0602
  713TMC3    C610542   3.204   0.054  13.382 -0.2257  0.5231  0.6322
  713TMC3     C10543   2.910   4.632  13.638 -0.1631 -0.4829  0.0244
  713TMC3     O10544   2.813   4.586  13.578  0.4498 -0.3530  0.3254
  713TMC3     H10545   3.171   4.710  13.702 -0.1152 -0.2537 -0.4908
  713TMC3    H110546   2.876   4.710  13.387  0.8130 -0.8727 -2.1116
  713TMC3    H210547   3.274   0.090  13.307  0.2077 -1.2177  0.2071
  713TMC3    C710548   3.045   0.151  13.235 -0.1238 -0.0035 -0.0185
  713TMC3    C810549   3.384   0.039  13.546  0.1803 -0.6492 -0.3909
  713TMC3    O110550   3.138   0.176  13.154 -0.5256  0.2070  0.2695
  713TMC3    O210551   3.450   0.101  13.472 -0.1458 -0.1415  0.0273
  714MPD2     C10552   4.243   3.116   1.534 -0.8482  0.4073 -0.5749
  714MPD2    C110553   4.288   3.045   1.422 -0.5840 -0.3542  0.4464
  714MPD2    C210554   4.213   3.050   1.306  0.3225 -0.3063 -0.4508
  714MPD2    C310555   4.096   3.120   1.306 -0.2641 -0.1772 -0.2434
  714MPD2    C410556   4.050   3.186   1.414  0.0965 -0.1893  0.2941
  714MPD2    C510557   4.128   3.183   1.529  0.7928 -0.5897 -0.0824
  714MPD2     H10558   4.253   2.995   1.222 -2.5800 -1.2137 -1.2377
  714MPD2    H110559   3.954   3.236   1.420 -0.2337 -0.6617 -1.2488
  714MPD2    H210560   4.298   3.124   1.627 -0.6933  1.6598 -0.7765
  714MPD2    H310561   4.085   3.227   1.619  3.1579 -2.2817  1.8520
  714MPD2     N10562   4.027   3.110   1.187 -0.1626  0.3027 -0.2276
  714MPD2    H510563   4.066   3.051   1.114  0.3807 -0.1390  0.4286
  714MPD2    N110564   4.406   2.964   1.426  0.0636 -0.0227  0.0468
  714MPD2    H710565   4.468   2.988   1.502 -1.0481  0.5402  0.7787
  715TMC3    C110566   4.557   2.780   1.373  0.4343 -0.5292  0.6612
  715TMC3    C210567   4.604   2.692   1.277  0.1089 -0.0216  0.4741
  715TMC3    C310568   0.000   2.627   1.298 -0.5601  0.2984 -0.2911
  715TMC3    C410569   4.630   2.794   1.484  0.8838  1.1431  0.3826
  715TMC3    C510570   0.016   2.720   1.508 -0.4000  0.4499 -0.3649
  715TMC3    C610571   0.075   2.638   1.412 -0.2094  0.0408 -0.2220
  715TMC3     C10572   4.433   2.854   1.343  0.5047 -0.1564 -0.0665
  715TMC3     O10573   4.386   2.823   1.237 -0.7408 -0.8027 -0.4038
  715TMC3     H10574   4.546   2.671   1.187 -0.0717  3.5100 -0.2457
  715TMC3    H110575   4.593   2.869   1.553  1.8542 -0.1046  2.2520
  715TMC3    H210576   0.166   2.584   1.431 -1.5987 -2.1000  0.3249
  715TMC3    C710577   0.103   2.746   1.623 -0.0092 -0.3288 -0.7762
  715TMC3    C810578   0.076   2.578   1.189 -0.4673  0.0129 -0.0215
  715TMC3    O110579   0.208   2.678   1.620  0.3750  0.7024 -0.0971
  715TMC3    O210580   0.003   2.529   1.104 -0.1990 -0.1099 -0.0594
  716MPD2     C10581   0.765   0.025   9.976  1.1289  0.5863  0.0755
  716MPD2    C110582   0.644   0.049   9.905 -0.0403  0.0959  0.6993
  716MPD2    C210583   0.569   4.669   9.864 -0.0808  0.3877  0.0834
  716MPD2    C310584   0.608   4.540   9.889  0.2778  0.1463  0.9482
  716MPD2    C410585   0.719   4.512   9.963  0.3915  0.8823 -0.1930
  716MPD2    C510586   0.805   4.621   9.999  0.5152  0.3934 -0.2810
  716MPD2     H10587   0.485   4.676   9.795  1.0079  1.7522 -1.1200
  716MPD2    H110588   0.759   4.414   9.986  1.7036  0.7931 -2.8195
  716MPD2    H210589   0.826   0.101  10.023  2.7059  0.2208 -1.3894
  716MPD2    H310590   0.897   4.614  10.056 -0.9366  0.2685  2.0478
  716MPD2     N10591   0.516   4.442   9.841  0.5307  0.2598 -0.4654
  716MPD2    H510592   0.423   4.472   9.814  0.3676 -0.1543 -0.3660
  716MPD2    N110593   0.604   0.175   9.877 -0.5139  0.4548 -0.3931
  716MPD2    H710594   0.669   0.248   9.905  0.1925 -0.1468 -0.4451
  717TMC3    C110595   0.446   4.232   9.761  0.6073 -0.4154  0.0768
  717TMC3    C210596   0.326   4.293   9.729  0.7261  0.4025 -0.9218
  717TMC3    C310597   0.234   4.209   9.672 -0.3666  1.1221 -0.2586
  717TMC3    C410598   0.459   4.102   9.749  0.0115  0.0762  0.2800
  717TMC3    C510599   0.360   4.015   9.706  0.1773 -0.1675 -0.0015
  717TMC3    C610600   0.244   4.071   9.661 -0.9168 -0.2140  0.5532
  717TMC3     C10601   0.550   4.309   9.833 -0.1113  0.2211  0.6969
  717TMC3     O10602   0.654   4.246   9.855  0.4490 -1.2311 -0.2867
  717TMC3     H10603   0.312   4.399   9.716 -0.3922  0.6129  1.9302
  717TMC3    H110604   0.559   4.061   9.758 -1.0247 -2.7854 -1.0699
  717TMC3    H210605   0.176   4.012   9.602 -1.8577  0.7433  0.6885
  717TMC3    C710606   0.389   3.877   9.682 -0.5203  0.2782 -0.3013
  717TMC3    C810607   0.098   4.271   9.645 -0.0271  0.4978  0.5227
  717TMC3    O110608   0.502   3.834   9.686  0.0767 -0.2109 -0.3543
  717TMC3    O210609   0.087   4.378   9.698  0.2938 -0.0170  0.4118
  718MPD2     C10610   4.036   0.329  12.926  0.4637 -0.3578 -0.5107
  718MPD2    C110611   3.951   0.248  12.858 -0.0833  0.4059 -0.4554
  718MPD2    C210612   3.929   0.123  12.914 -0.3240  0.0342  0.9481
  718MPD2    C310613   4.010   0.071  13.007  0.4819 -0.3861 -0.6688
  718MPD2    C410614   4.097   0.149  13.076  0.0977 -0.3495  0.3677
  718MPD2    C510615   4.107   0.280  13.033  0.5680 -0.2055 -0.3414
  718MPD2     H10616   3.845   0.061  12.886  0.7962 -1.3239  0.6205
  718MPD2    H110617   4.164   0.114  13.154  0.6688 -0.1937 -0.0573
  718MPD2    H210618   4.054   0.433  12.900 -0.4459 -0.3677 -1.1967
  718MPD2    H310619   4.162   0.353  13.091 -1.7334  0.1020  1.4598
  718MPD2     N10620   4.003   4.659  13.020 -0.1418 -0.2848 -0.4887
  718MPD2    H510621   3.937   4.615  12.957  0.2471 -0.2053 -0.9530
  718MPD2    N110622   3.889   0.295  12.739  0.1723  0.5915 -0.9599
  718MPD2    H710623   3.900   0.394  12.721 -1.7203  1.2202  1.4549
  719TMC3    C110624   3.770   0.252  12.536 -0.2877  0.3081  0.4740
  719TMC3    C210625   3.662   0.179  12.494 -0.4678  0.2977  0.3310
  719TMC3    C310626   3.655   0.141  12.364 -0.1197  0.5818  0.2274
  719TMC3    C410627   3.864   0.292  12.444  0.1505  0.0154 -0.4591
  719TMC3    C510628   3.861   0.256  12.321 -0.2079  0.1393  0.3934
  719TMC3    C610629   3.753   0.188  12.278 -0.3612 -0.1437 -0.6735
  719TMC3     C10630   3.826   0.203  12.659 -0.3491 -0.7056  0.0223
  719TMC3     O10631   3.830   0.077  12.654 -0.3407  0.3827  0.7370
  719TMC3     H10632   3.598   0.135  12.569 -1.6162  2.1252  0.4351
  719TMC3    H110633   3.950   0.340  12.489  1.1661 -2.2222 -0.0374
  719TMC3    H210634   3.756   0.127  12.189  0.5151 -0.4569 -0.4231
  719TMC3    C710635   3.971   0.180  12.287  0.7896 -0.2305  0.8950
  719TMC3    C810636   3.629   4.725  12.346 -0.0473 -0.3524 -0.3846
  719TMC3    O110637   4.021   0.201  12.180  0.0217 -0.0845  0.3815
  719TMC3    O210638   3.581   4.682  12.241  0.1280  0.0620 -0.1008
  720MPD2     C10639   2.714   1.002  13.705  0.5840  0.4940 -0.0944
  720MPD2    C110640   2.730   1.143  13.697 -0.3862  0.8149  0.3187
  720MPD2    C210641   2.792   1.212  13.801 -0.4537 -0.0451  0.1544
  720MPD2    C310642   2.843   1.150  13.911 -0.6557 -0.2477 -0.0619
  720MPD2    C410643   2.828   1.011  13.921 -0.1866 -0.2550 -0.9058
  720MPD2    C510644   2.757   0.947  13.823  0.6391  0.2762 -0.0305
  720MPD2     H10645   2.802   1.320  13.801  0.5058 -0.1343  0.7133
  720MPD2    H110646   2.860   0.962  14.013  0.1553 -1.5740 -1.7316
  720MPD2    H210647   2.659   0.934  13.641 -1.0153  0.0150  1.7720
  720MPD2    H310648   2.734   0.842  13.838  0.1353  0.3376 -0.3716
  720MPD2     N10649   2.902   1.235  14.004  0.3942  0.0636  1.0962
  720MPD2    H510650   2.907   1.333  13.976 -1.2725 -0.4775 -1.1052
  720MPD2    N110651   2.684   1.214  13.585  0.3526 -0.7300 -0.0402
  720MPD2    H710652   2.708   1.312  13.581  0.0668 -0.6269  0.7721
  721TMC3    C110653   3.083   1.269  14.165 -0.1078 -0.4547  0.3967
  721TMC3    C210654   3.139   1.240  14.281 -0.6011 -0.5895 -0.0999
  721TMC3    C310655   3.278   1.254  14.290  0.1053 -0.2579 -0.2888
  721TMC3    C410656   3.146   1.341  14.070  0.6304 -0.4530  0.2822
  721TMC3    C510657   3.283   1.356  14.082 -0.5618 -0.4845  0.3654
  721TMC3    C610658   3.355   1.299  14.188  0.3756  0.7995 -0.5005
  721TMC3     C10659   2.961   1.191  14.125  0.2890 -0.3686 -0.3981
  721TMC3     O10660   2.950   1.085  14.184 -0.5783 -0.0553 -0.3787
  721TMC3     H10661   3.070   1.208  14.359  0.9441 -0.4143  1.3474
  721TMC3    H110662   3.107   1.354  13.969 -1.5410 -0.0500  1.1704
  721TMC3    H210663   3.461   1.312  14.201  0.9304 -3.7301 -0.5044
  721TMC3    C710664   3.353   1.434  13.980  0.1494 -0.1574  0.3399
  721TMC3    C810665   3.337   1.262  14.426 -0.2062  0.9948  0.0919
  721TMC3    O110666   3.473   1.408  13.968  0.0965 -0.0549 -0.1623
  721TMC3    O210667   3.450   1.307  14.427  0.4705 -0.1830 -0.3526
  722MPD2     C10668   1.894   4.620  13.123 -0.2160 -0.4361 -0.3783
  722MPD2    C110669   1.833   0.019  13.100 -0.3680  0.3729 -0.0451
  722MPD2    C210670   1.693   0.023  13.108  0.4278  0.1384 -0.4587
  722MPD2    C310671   1.615   4.644  13.150  0.3149  0.6272 -0.8046
  722MPD2    C410672   1.677   4.525  13.175 -0.3872  0.4385 -0.3160
  722MPD2    C510673   1.811   4.512  13.158 -0.1542  0.4443  0.4715
  722MPD2     H10674   1.652   0.121  13.086 -1.4727  0.1218  2.8870
  722MPD2    H110675   1.618   4.437  13.197  0.1475  0.3168  0.6338
  722MPD2    H210676   2.002   4.605  13.118 -0.3853 -2.7548  3.3615
  722MPD2    H310677   1.860   4.417  13.176 -5.0937 -2.1176  0.4857
  722MPD2     N10678   1.472   4.667  13.152  0.2856  0.1257 -0.9897
  722MPD2    H510679   1.436   0.033  13.129  0.9404  0.3321 -1.1945
  722MPD2    N110680   1.909   0.131  13.071  0.1033 -0.0964 -0.5367
  722MPD2    H710681   1.848   0.212  13.070  1.8887  1.2821  0.8487
  723TMC3    C110682   1.248   4.610  13.212 -0.6750 -0.2575  0.5231
  723TMC3    C210683   1.140   4.539  13.174  0.0828 -0.0720  0.2422
  723TMC3    C310684   1.022   4.578  13.223 -0.5037 -0.1722  0.3005
  723TMC3    C410685   1.244   4.723  13.292  0.1462 -0.2007 -0.1009
  723TMC3    C510686   1.125   0.033  13.339 -0.2452  0.3606  0.2873
  723TMC3    C610687   1.012   4.689  13.304 -0.2808  0.1028  0.7717
  723TMC3     C10688   1.383   4.567  13.173 -0.1311 -0.0109  1.0130
  723TMC3     O10689   1.396   4.449  13.142  0.3246 -0.5535 -0.4586
  723TMC3     H10690   1.157   4.436  13.142 -0.5529 -0.1654  0.2155
  723TMC3    H110691   1.333   0.044  13.333  0.4681 -1.8856  1.0976
  723TMC3    H210692   0.910   4.717  13.328  0.2247  1.3740  1.4131
  723TMC3    C710693   1.126   0.157  13.416 -0.1498  0.4666  0.8126
  723TMC3    C810694   0.898   4.522  13.176 -0.5556  0.1120 -0.0328
  723TMC3    O110695   1.213   0.234  13.381 -0.5343  0.3451 -0.3527
  723TMC3    O210696   0.793   4.563  13.222  0.1947 -0.2558  0.5569
  724TMC3    C110697   3.107   2.244   9.686  0.2443 -0.3568  0.2069
  724TMC3    C210698   3.201   2.339   9.647 -0.8299 -0.6659  0.3649
  724TMC3    C310699   3.172   2.474   9.669  0.6435  0.0712  0.0420
  724TMC3    C410700   2.989   2.281   9.752  0.5616 -0.7504  0.8112
  724TMC3    C510701   2.974   2.416   9.776 -0.5444 -0.4448  0.2902
  724TMC3    C610702   3.062   2.516   9.740 -0.3147  0.3889  0.0686
  724TMC3     C10703   3.135   2.103   9.678 -0.3130  0.5597 -0.3473
  724TMC3     O10704   3.252   2.070   9.690  0.0481  0.0893 -0.4341
  724TMC3     H10705   3.267   2.302   9.570 -1.5736  0.5329 -0.8346
  724TMC3    H110706   2.924   2.202   9.786  1.0422 -1.5740 -0.1695
  724TMC3    H210707   3.040   2.620   9.761 -0.8180  0.8299 -2.6458
  724TMC3    C710708   2.842   2.468   9.804 -0.0002  0.9101 -0.1536
  724TMC3    C810709   3.286   2.565   9.636  0.0976  0.0220  0.3045
  724TMC3    O110710   2.817   2.583   9.761 -0.6930 -0.2956  0.3002
  724TMC3    O210711   3.395   2.517   9.630  0.2037  0.3501  0.1243
  725TMC3    C110712   3.220   1.689  13.126  0.0998  0.2358 -0.4984
  725TMC3    C210713   3.102   1.677  13.057 -0.6637 -0.1403 -0.1830
  725TMC3    C310714   3.063   1.556  13.006 -0.2857  0.5053 -0.7922
  725TMC3    C410715   3.291   1.574  13.143  0.0529  0.0983  0.2322
  725TMC3    C510716   3.243   1.449  13.107 -0.2507 -0.5406  0.5531
  725TMC3    C610717   3.128   1.443  13.027 -0.4454 -0.2552 -0.7699
  725TMC3     C10718   3.278   1.822  13.120  0.3639 -0.5463 -0.0579
  725TMC3     O10719   3.210   1.905  13.074  0.5051 -0.0998  0.1185
  725TMC3     H10720   3.036   1.761  13.040 -2.3443 -1.3077  0.6204
  725TMC3    H110721   3.382   1.584  13.201 -0.3937 -2.4013  1.3551
  725TMC3    H210722   3.106   1.350  12.976  1.0916 -0.3973 -1.1606
  725TMC3    C710723   3.346   1.358  13.077 -0.0088 -0.2281 -0.0193
  725TMC3    C810724   2.966   1.570  12.896 -0.0960 -0.6910 -0.2264
  725TMC3    O110725   3.461   1.405  13.078  0.0105  0.5560 -0.0798
  725TMC3    O210726   2.885   1.479  12.871  0.1816 -0.1601  0.0018
  726MPD2     C10727   2.056   2.907  10.224 -0.8000 -0.0001 -0.0339
  726MPD2    C110728   1.970   2.922  10.120  0.1783  0.1948 -0.3352
  726MPD2    C210729   1.878   2.821  10.083 -0.0877  0.2753  0.7782
  726MPD2    C310730   1.878   2.700  10.155 -0.1232  1.0126 -0.1308
  726MPD2    C410731   1.959   2.687  10.261 -0.2624 -0.1136 -0.0641
  726MPD2    C510732   2.051   2.793  10.292 -0.6840  0.4182  0.1697
  726MPD2     H10733   1.809   2.835  10.000 -1.2968 -1.6236  1.4505
  726MPD2    H110734   1.960   2.599  10.323 -1.4142 -0.7802 -0.9898
  726MPD2    H210735   2.142   2.971  10.235 -1.4044  0.5336  1.7214
  726MPD2    H310736   2.116   2.764  10.375  0.5290  2.8432  0.0546
  726MPD2     N10737   1.796   2.590  10.136  0.6104  0.2569 -0.5363
  726MPD2    H510738   1.801   2.514  10.204  1.1267  0.6380 -0.1494
  726MPD2    N110739   1.962   3.042  10.056 -0.2778  0.7021 -0.3141
  726MPD2    H710740   1.901   3.047   9.975 -1.0266 -1.5444  0.1134
  727TMC3    C110741   1.971   3.273  10.021 -0.1906 -0.5446 -0.4519
  727TMC3    C210742   1.948   3.388  10.090 -0.8944  1.1445 -0.5264
  727TMC3    C310743   1.883   3.496  10.029 -0.3047  0.1296 -0.3617
  727TMC3    C410744   1.929   3.261   9.891 -0.5204 -0.1858 -0.8775
  727TMC3    C510745   1.873   3.372   9.834  0.4377 -0.1147  0.4379
  727TMC3    C610746   1.842   3.485   9.897 -0.3615 -0.4054 -0.0465
  727TMC3     C10747   2.010   3.162  10.101  0.0686  0.0774  0.1887
  727TMC3     O10748   2.039   3.192  10.217  0.0595  0.1527  0.0148
  727TMC3     H10749   1.987   3.403  10.190 -1.8975 -1.4225  0.2445
  727TMC3    H110750   1.946   3.176   9.826  0.9019 -0.9960  0.5653
  727TMC3    H210751   1.807   3.574   9.845  2.5944  0.4171 -0.5991
  727TMC3    C710752   1.826   3.345   9.702 -0.3176  0.1128  0.0842
  727TMC3    C810753   1.854   3.613  10.108 -0.1674 -0.2862 -0.3227
  727TMC3    O110754   1.913   3.299   9.631 -0.1788 -0.3603  0.3700
  727TMC3    O210755   1.908   3.608  10.215  0.5551  0.2062  0.3362
  728TMC3    C110756   0.640   1.908  15.432  0.8785 -0.2457  0.1695
  728TMC3    C210757   0.715   2.019  15.441 -0.2130 -0.1420 -0.9308
  728TMC3    C310758   0.764   2.063  15.321 -0.4780 -0.3276  0.0190
  728TMC3    C410759   0.606   1.850  15.309 -0.2074  0.0971  1.0501
  728TMC3    C510760   0.644   1.912  15.195 -0.2266  0.6625 -0.0640
  728TMC3    C610761   0.727   2.016  15.199  0.2024 -0.2931 -0.2620
  728TMC3     C10762   0.586   1.852  15.560 -0.0815 -0.3680 -0.6901
  728TMC3     O10763   0.629   1.889  15.669 -0.1537 -0.3948  0.0128
  728TMC3     H10764   0.753   2.050  15.537 -0.2176 -1.6749 -0.4257
  728TMC3    H110765   0.565   1.750  15.309  1.9268 -0.7864  1.0722
  728TMC3    H210766   0.760   2.071  15.112  0.7502 -0.6400 -0.2761
  728TMC3    C710767   0.580   1.871  15.073 -0.1193  0.5845  0.5114
  728TMC3    C810768   0.836   2.191  15.321  0.1395 -0.3114 -1.0925
  728TMC3    O110769   0.475   1.806  15.079  0.7435  0.3300 -0.2980
  728TMC3    O210770   0.886   2.223  15.430  0.6062  0.1929  0.0271
  729MPD2     C10771   2.648   2.207  16.341 -0.1740  0.6267 -0.1913
  729MPD2    C110772   2.641   2.344  16.352 -0.0371  0.2513  0.4501
  729MPD2    C210773   2.576   2.405  16.460 -0.3678  0.2163  0.3029
  729MPD2    C310774   2.538   2.322  16.568 -0.0653  0.1927 -0.1709
  729MPD2    C410775   2.573   2.189  16.564 -0.0820 -0.3308  0.0552
  729MPD2    C510776   2.619   2.132  16.453 -0.2532  0.3560  0.2945
  729MPD2     H10777   2.571   2.513  16.456 -0.7047  0.1556 -1.0024
  729MPD2    H110778   2.564   2.123  16.649 -1.0970 -1.1985 -0.7258
  729MPD2    H210779   2.698   2.153  16.262 -1.1531 -1.3268  0.5440
  729MPD2    H310780   2.646   2.027  16.453  0.8215  0.6414 -1.8385
  729MPD2     N10781   2.490   2.376  16.687  0.1330  0.2450  0.4334
  729MPD2    H510782   2.491   2.317  16.769 -3.1566  2.1106  1.8137
  729MPD2    N110783   2.710   2.409  16.249  0.4569 -0.0714 -0.2524
  729MPD2    H710784   2.735   2.340  16.179 -2.1372 -1.4288  0.1456
  730TMC3    C110785   2.487   2.575  16.832 -0.3936  0.8256 -0.2367
  730TMC3    C210786   2.572   2.509  16.918 -0.0118 -0.4223  0.5647
  730TMC3    C310787   2.674   2.585  16.971 -0.3666  0.4882  0.2608
  730TMC3    C410788   2.492   2.710  16.819  0.1786 -0.3484  0.0334
  730TMC3    C510789   2.573   2.780  16.901 -0.1346 -0.0672 -0.1346
  730TMC3    C610790   2.662   2.721  16.985 -0.8180  0.4906 -0.1854
  730TMC3     C10791   2.462   2.517  16.696 -0.0538  1.3757 -0.4876
  730TMC3     O10792   2.423   2.591  16.607 -0.0572 -0.4326 -0.0115
  730TMC3     H10793   2.576   2.401  16.916 -0.9326 -0.5070  2.9621
  730TMC3    H110794   2.425   2.764  16.753 -1.2700 -2.8071 -0.5261
  730TMC3    H210795   2.737   2.770  17.045 -1.1478 -0.4362  1.0052
  730TMC3    C710796   2.572   2.928  16.891  0.4819 -0.3189 -0.0951
  730TMC3    C810797   2.796   2.556  16.901 -0.1565 -0.2649 -0.1568
  730TMC3    O110798   2.536   2.986  16.787 -0.0684 -0.1069  0.2576
  730TMC3    O210799   2.810   2.441  16.862 -0.3059  0.0002 -0.6569
  731MPD2     C10800   2.725   0.814  12.526  0.7825 -0.7264 -0.1667
  731MPD2    C110801   2.859   0.813  12.524 -0.2470 -0.0788 -0.0407
  731MPD2    C210802   2.925   0.779  12.642 -0.1770  0.1788  0.4209
  731MPD2    C310803   2.862   0.740  12.756  0.2639 -0.4927  0.0619
  731MPD2    C410804   2.726   0.716  12.751  0.3469 -0.8038  0.3207
  731MPD2    C510805   2.661   0.755  12.639 -0.4044  0.0862  0.0599
  731MPD2     H10806   3.033   0.793  12.639 -0.1644 -0.1386 -0.8624
  731MPD2    H110807   2.668   0.664  12.826  0.1506 -1.5186 -0.3284
  731MPD2    H210808   2.661   0.841  12.443  0.4703 -1.0053 -0.0187
  731MPD2    H310809   2.554   0.741  12.627 -0.2328 -0.0456 -1.2988
  731MPD2     N10810   2.938   0.718  12.874 -0.6259  0.3271  0.3305
  731MPD2    H510811   3.038   0.712  12.855 -0.4598 -1.5957  1.7375
  731MPD2    N110812   2.918   0.836  12.396  0.5405 -0.1230  0.1513
  731MPD2    H710813   2.849   0.863  12.326  1.2559 -2.7347 -1.5614
  732TMC3    C110814   3.073   0.892  12.225  0.4226  0.0705 -0.5190
  732TMC3    C210815   2.980   0.861  12.125 -0.0931 -0.4396 -0.1794
  732TMC3    C310816   3.000   0.927  12.003  0.5983 -0.2466 -0.6099
  732TMC3    C410817   3.180   0.976  12.212 -0.0755 -0.1320 -0.0401
  732TMC3    C510818   3.201   1.029  12.085  0.7818 -0.1369  0.1054
  732TMC3    C610819   3.116   1.003  11.980  0.4662 -0.4819  0.0059
  732TMC3     C10820   3.052   0.841  12.358 -0.6194 -0.2514 -0.0075
  732TMC3     O10821   3.141   0.809  12.431  0.2696  0.0549  0.1377
  732TMC3     H10822   2.905   0.784  12.139  0.3417 -1.3191 -2.6736
  732TMC3    H110823   3.237   1.012  12.297 -1.6772 -0.0200  0.9839
  732TMC3    H210824   3.133   1.050  11.884 -0.1647  0.1756  0.2089
  732TMC3    C710825   3.324   1.106  12.050  0.3696 -0.4501  0.5190
  732TMC3    C810826   2.900   0.910  11.897  0.0469 -0.3637  0.0224
  732TMC3    O110827   3.321   1.159  11.939 -0.2174 -0.4221 -0.1766
  732TMC3    O210828   2.937   0.947  11.790  0.1947 -0.4949 -0.2025
  733TMC3    C110829   4.064   4.206  13.069  0.1092 -0.6208  0.3273
  733TMC3    C210830   4.076   4.338  13.117 -0.0749 -0.1753 -0.0421
  733TMC3    C310831   4.088   4.441  13.028 -0.4427  0.6056  0.1509
  733TMC3    C410832   4.082   4.179  12.932  0.6548 -0.5649 -0.8288
  733TMC3    C510833   4.102   4.282  12.845 -0.1154 -0.0256 -0.0386
  733TMC3    C610834   4.098   4.420  12.891 -0.4878 -0.7050 -0.6938
  733TMC3     C10835   3.966   4.124  13.137 -0.5419 -0.2487 -0.3658
  733TMC3     O10836   3.895   4.051  13.067  0.4193 -0.3991  0.4566
  733TMC3     H10837   4.093   4.364  13.221 -0.9685  0.9752 -0.1805
  733TMC3    H110838   4.065   4.079  12.896  0.7843 -0.3748 -1.4129
  733TMC3    H210839   4.135   4.497  12.824 -4.5212  2.3025  0.5369
  733TMC3    C710840   4.042   4.262  12.719  0.2137 -0.2926 -0.8853
  733TMC3    C810841   4.092   4.577  13.083  0.3777 -0.7176  0.1285
  733TMC3    O110842   4.081   4.165  12.650 -0.2534 -0.0429 -0.4899
  733TMC3    O210843   4.176   4.595  13.172 -0.3062  0.1646  0.3290
  734MPD2     C10844   0.704   2.311  12.199  0.9122 -0.0788 -0.7724
  734MPD2    C110845   0.627   2.234  12.111 -0.2971  0.2279  0.1319
  734MPD2    C210846   0.650   2.255  11.975  0.0030  0.3607 -0.5449
  734MPD2    C310847   0.738   2.354  11.933 -0.3903 -0.0785 -0.0675
  734MPD2    C410848   0.813   2.422  12.024 -0.3745  0.1735  0.8983
  734MPD2    C510849   0.796   2.403  12.156 -0.3419  0.2219  0.1778
  734MPD2     H10850   0.587   2.210  11.900  1.4764 -0.0334 -1.5599
  734MPD2    H110851   0.887   2.497  12.000 -1.5548  1.6261  1.7790
  734MPD2    H210852   0.698   2.300  12.307  1.8202 -0.4800 -0.7609
  734MPD2    H310853   0.854   2.448  12.235  0.7554 -0.6025 -0.1560
  734MPD2     N10854   0.743   2.377  11.796 -0.0022  0.3109  0.4435
  734MPD2    H510855   0.659   2.354  11.744 -0.1134 -1.3194  1.3587
  734MPD2    N110856   0.550   2.123  12.153 -0.5056 -0.2908  0.5017
  734MPD2    H710857   0.509   2.072  12.075 -0.5372 -1.8204  1.5294
  735TMC3    C110858   0.521   1.923  12.258 -0.6957 -0.2258 -0.6801
  735TMC3    C210859   0.437   1.909  12.153  0.0485 -0.7914 -0.1171
  735TMC3    C310860   0.447   1.811  12.055 -0.3535 -0.0940 -0.5936
  735TMC3    C410861   0.624   1.829  12.266  0.2218 -1.0356 -0.4643
  735TMC3    C510862   0.633   1.742  12.164 -0.7245  0.6984  0.1058
  735TMC3    C610863   0.549   1.717  12.057 -0.7741  0.2911 -0.9298
  735TMC3     C10864   0.563   2.059  12.273 -0.0374  0.5300 -0.1685
  735TMC3     O10865   0.646   2.085  12.359 -0.4615 -0.7017  0.0099
  735TMC3     H10866   0.350   1.973  12.150  0.2212 -0.4698  2.0390
  735TMC3    H110867   0.707   1.846  12.333 -1.6379 -1.6014  1.9877
  735TMC3    H210868   0.562   1.623  12.005 -0.7424  1.1423 -2.4509
  735TMC3    C710869   0.759   1.671  12.139  0.0764  0.1084 -0.0556
  735TMC3    C810870   0.422   1.869  11.925 -0.1039 -0.1785  0.1041
  735TMC3    O110871   0.791   1.659  12.021  0.2831 -0.4378 -0.1603
  735TMC3    O210872   0.412   1.993  11.926  0.1200 -0.2502 -0.3842
  736MPD2     C10873   0.983   1.525  12.386 -0.6632 -0.0856  0.6043
  736MPD2    C110874   0.947   1.582  12.265 -0.2463 -0.5443  0.2143
  736MPD2    C210875   1.041   1.586  12.165  0.1444 -0.7455  0.5528
  736MPD2    C310876   1.170   1.538  12.181  0.8571  0.3893 -0.4395
  736MPD2    C410877   1.206   1.478  12.299  0.3129  0.5311 -0.0149
  736MPD2    C510878   1.112   1.474  12.400 -1.0680 -0.2124 -0.0228
  736MPD2     H10879   1.023   1.630  12.067 -1.3829  1.7749  1.9717
  736MPD2    H110880   1.303   1.431  12.313 -0.5979 -1.1751  0.6106
  736MPD2    H210881   0.908   1.527  12.465 -0.8913  0.0094  0.3859
  736MPD2    H310882   1.140   1.423  12.492 -0.8656 -2.5581 -1.3964
  736MPD2     N10883   1.276   1.539  12.089 -0.1671 -0.1534 -0.3167
  736MPD2    H510884   1.369   1.506  12.113  0.0962  0.0567 -1.0298
  736MPD2    N110885   0.820   1.635  12.261  0.3512 -0.7035 -0.4371
  736MPD2    H710886   0.765   1.628  12.346  0.8714 -1.0681 -0.1316
  737TMC3    C110887   1.404   1.599  11.891  0.0817 -0.6788 -0.0413
  737TMC3    C210888   1.432   1.678  11.781  0.6606  0.2717 -0.0393
  737TMC3    C310889   1.506   1.627  11.680  0.4160 -0.3143 -0.3826
  737TMC3    C410890   1.459   1.472  11.891  0.4037 -0.5327 -0.6267
  737TMC3    C510891   1.552   1.433  11.801 -0.2997 -0.2773  0.2048
  737TMC3    C610892   1.568   1.501  11.681 -0.8465  0.0239 -0.4552
  737TMC3     C10893   1.276   1.598  11.961 -0.6145  0.7466  0.9512
  737TMC3     O10894   1.181   1.657  11.909  0.8011  0.6055  0.7272
  737TMC3     H10895   1.379   1.771  11.762 -0.8448 -0.6110 -0.2221
  737TMC3    H110896   1.440   1.401  11.971  0.8755 -1.9911 -1.7990
  737TMC3    H210897   1.612   1.453  11.594 -3.3039 -0.6004 -1.3390
  737TMC3    C710898   1.635   1.310  11.831  0.5136  0.3111  0.8144
  737TMC3    C810899   1.522   1.714  11.566 -0.2682 -0.4272  0.3980
  737TMC3    O110900   1.609   1.247  11.934 -0.7087 -0.3834 -0.0263
  737TMC3    O210901   1.447   1.814  11.557  0.4969  0.1428 -0.2114
  738MPD2     C10902   2.016   0.123  15.402  1.2585 -0.3303 -0.0874
  738MPD2    C110903   2.042   0.082  15.268 -0.7497 -0.2510  0.1785
  738MPD2    C210904   2.102   0.164  15.181  0.5766  0.5805 -0.0390
  738MPD2    C310905   2.134   0.291  15.217  0.6264 -0.6699  0.1302
  738MPD2    C410906   2.084   0.342  15.338  0.3972  0.7422 -0.3159
  738MPD2    C510907   2.038   0.254  15.438 -0.5452  0.3165  0.1947
  738MPD2     H10908   2.143   0.126  15.088  0.4551  1.6570 -0.5282
  738MPD2    H110909   2.092   0.449  15.354  3.8023  0.3859  0.1989
  738MPD2    H210910   1.973   0.054  15.474 -1.3538 -1.2414 -2.5285
  738MPD2    H310911   2.010   0.283  15.539 -0.5355  1.3882 -0.1168
  738MPD2     N10912   2.210   0.363  15.124 -0.3688 -0.3068 -0.4867
  738MPD2    H510913   2.269   0.302  15.068  1.6109  1.5623 -0.4559
  738MPD2    N110914   1.988   4.681  15.223  0.0954  0.3535 -0.7138
  738MPD2    H710915   1.939   4.626  15.292  1.1087  0.4235  0.0672
  739TMC3    C110916   2.312   0.540  15.013 -0.7371 -0.2802 -0.1298
  739TMC3    C210917   2.265   0.641  14.929  0.3387  0.5576 -0.0387
  739TMC3    C310918   2.342   0.649  14.815 -0.6851 -0.2945  0.1707
  739TMC3    C410919   2.424   0.470  14.992 -0.9681  0.1058  0.5406
  739TMC3    C510920   2.492   0.493  14.877  1.0085 -0.6660 -0.1076
  739TMC3    C610921   2.456   0.588  14.790 -0.3331 -0.2481  0.3714
  739TMC3     C10922   2.230   0.499  15.121 -0.3989  0.9783  0.2137
  739TMC3     O10923   2.159   0.590  15.162 -0.3858 -0.3424  0.1231
  739TMC3     H10924   2.174   0.697  14.943  1.2716  1.5496  2.1706
  739TMC3    H110925   2.465   0.404  15.067  0.4359  0.5457  0.1567
  739TMC3    H210926   2.518   0.622  14.708 -0.1367  0.9249  1.0061
  739TMC3    C710927   2.622   0.426  14.869 -0.4359  0.8713 -0.1838
  739TMC3    C810928   2.261   0.685  14.699  0.6191  0.7439 -0.0481
  739TMC3    O110929   2.648   0.345  14.958  0.1580 -0.2980  0.1792
  739TMC3    O210930   2.139   0.698  14.709 -0.1386 -0.5968 -0.2946
  740TMC3    C110931   2.630   1.659  14.137 -0.6048  0.6337 -0.5768
  740TMC3    C210932   2.700   1.606  14.247 -0.1576  0.3050  0.3395
  740TMC3    C310933   2.827   1.574  14.219 -0.1708  0.2300 -1.0529
  740TMC3    C410934   2.689   1.663  14.013 -0.0590  0.0170 -0.1681
  740TMC3    C510935   2.825   1.646  14.015  0.0977  0.3032 -0.0239
  740TMC3    C610936   2.896   1.604  14.111 -0.6047  0.0902 -0.0221
  740TMC3     C10937   2.488   1.703  14.157  0.1452 -0.1875 -0.0053
  740TMC3     O10938   2.434   1.737  14.054  0.0713  0.5872 -0.8718
  740TMC3     H10939   2.661   1.597  14.348  1.1269  2.1628  1.0000
  740TMC3    H110940   2.633   1.681  13.922 -3.4128  0.4622  1.9883
  740TMC3    H210941   3.003   1.586  14.105 -0.8629 -2.1250  1.7876
  740TMC3    C710942   2.879   1.591  13.891 -0.2030  0.9003  0.0747
  740TMC3    C810943   2.898   1.521  14.334  0.6173 -0.0161 -0.5344
  740TMC3    O110944   2.942   1.489  13.900  0.1231 -0.0025  0.2211
  740TMC3    O210945   3.022   1.535  14.330  0.2622 -0.2472 -0.0043
  741TMC3    C110946   2.027   0.993  14.219 -0.2279 -0.7496 -0.1228
  741TMC3    C210947   1.921   0.910  14.261  0.6490  0.8912 -0.1127
  741TMC3    C310948   1.926   0.866  14.391  0.3576 -0.5789  0.3925
  741TMC3    C410949   2.107   1.050  14.311  0.0767  0.1249 -0.0292
  741TMC3    C510950   2.085   1.020  14.442  0.1991 -0.8110 -0.4688
  741TMC3    C610951   2.002   0.924  14.485  0.5839 -0.3481  0.1013
  741TMC3     C10952   2.026   1.045  14.085 -0.5561  0.6734  0.5400
  741TMC3     O10953   2.099   1.141  14.064 -0.2215 -0.0694 -0.0296
  741TMC3     H10954   1.846   0.880  14.188 -0.3256  0.3441  1.1235
  741TMC3    H110955   2.183   1.119  14.277 -2.1534  1.0295 -3.1492
  741TMC3    H210956   1.989   0.905  14.591 -0.2091 -0.8003 -0.0774
  741TMC3    C710957   2.164   1.077  14.552 -0.2659 -0.4189 -0.8652
  741TMC3    C810958   1.839   0.759  14.427  0.3504  0.7220  0.3230
  741TMC3    O110959   2.167   1.020  14.656 -0.0475  0.4519  0.2840
  741TMC3    O210960   1.775   0.717  14.328 -0.8695  0.4556  0.2261
  742TMC3    C110961   2.110   4.079  14.984 -0.6122  0.3885  0.5433
  742TMC3    C210962   2.080   4.168  14.884  0.6038 -0.2105 -0.0976
  742TMC3    C310963   2.139   4.155  14.758 -0.7886  0.4258 -0.8345
  742TMC3    C410964   2.211   3.991  14.963 -0.3712  0.3998  0.0408
  742TMC3    C510965   2.257   3.977  14.834  0.1566 -0.1726 -0.0820
  742TMC3    C610966   2.228   4.058  14.735  0.4860 -0.4885 -0.6019
  742TMC3     C10967   2.109   4.135  15.115  0.3220 -0.4509  0.0614
  742TMC3     O10968   2.139   4.251  15.122 -0.9535  0.7419  0.0033
  742TMC3     H10969   1.989   4.227  14.885 -0.2652 -1.5794  0.9599
  742TMC3    H110970   2.255   3.932  15.043  0.9636  0.5933 -0.5493
  742TMC3    H210971   2.261   4.049  14.632  0.0260  0.4203 -0.8218
  742TMC3    C710972   2.318   3.851  14.798 -0.6295 -0.0093  0.0385
  742TMC3    C810973   2.066   4.191  14.637 -0.2024 -0.8381  0.5252
  742TMC3    O110974   2.400   3.852  14.709  0.0428  0.3442  0.5416
  742TMC3    O210975   1.945   4.176  14.647  0.0622  0.2875  0.2355
  743MPD2     C10976   0.545   1.525   1.742  0.0258 -0.2698  0.5131
  743MPD2    C110977   0.512   1.447   1.634 -0.3126  0.1141  0.4155
  743MPD2    C210978   0.608   1.431   1.535 -0.1215  0.6440 -0.2534
  743MPD2    C310979   0.732   1.502   1.543 -0.3338  0.3574 -0.0797
  743MPD2    C410980   0.750   1.583   1.650  0.0219 -0.8798  0.8618
  743MPD2    C510981   0.661   1.594   1.754 -0.0901 -0.5535 -0.2198
  743MPD2     H10982   0.574   1.383   1.444  1.3992 -1.4817  0.2842
  743MPD2    H110983   0.841   1.642   1.655 -0.1114 -0.6810  0.9340
  743MPD2    H210984   0.481   1.531   1.829  0.2947  0.8633  0.6307
  743MPD2    H310985   0.687   1.661   1.836 -0.1484 -0.6620 -0.1122
  743MPD2     N10986   0.830   1.471   1.442  0.4036 -0.3007  0.3957
  743MPD2    H510987   0.794   1.421   1.361 -0.9865  0.1901  0.7205
  743MPD2    N110988   0.388   1.386   1.633 -0.3362  0.2840  0.2115
  743MPD2    H710989   0.330   1.417   1.711  0.4353  1.5522  0.2838
  744TMC3    C110990   0.198   1.267   1.547 -0.4872  0.4412 -0.0627
  744TMC3    C210991   0.111   1.341   1.619  0.4410 -0.5548 -0.3728
  744TMC3    C310992   4.707   1.307   1.613 -0.3136  0.3467 -0.0011
  744TMC3    C410993   0.159   1.166   1.463  0.2087  0.2797  0.1819
  744TMC3    C510994   0.027   1.141   1.455 -0.0424 -0.0896 -0.1521
  744TMC3    C610995   4.659   1.201   1.532 -0.4390 -0.7718 -0.2649
  744TMC3     C10996   0.339   1.303   1.536 -0.1300  0.0806 -0.1041
  744TMC3     O10997   0.400   1.253   1.440  0.3640  0.7133 -0.3150
  744TMC3     H10998   0.142   1.418   1.689  1.6103 -1.9176  0.5991
  744TMC3    H110999   0.228   1.119   1.394  1.8520 -2.5264  3.7533
  744TMC3    H211000   4.556   1.168   1.525 -0.8244  0.2588  0.5193
  744TMC3    C711001   4.701   1.040   1.362 -0.1050  0.2198  0.8447
  744TMC3    C811002   4.600   1.387   1.675 -0.0746 -0.0472 -0.1416
  744TMC3    O111003   4.595   0.990   1.389  0.0613  0.0274  0.5401
  744TMC3    O211004   4.488   1.352   1.643  0.0324  0.1460  0.2293
  745TMC3    C111005   2.445   4.129  13.879  0.1264 -0.5982  0.7825
  745TMC3    C211006   2.320   4.180  13.899  0.2776  0.6837  0.7980
  745TMC3    C311007   2.224   4.170  13.801 -0.2826  0.1429 -0.1287
  745TMC3    C411008   2.480   4.071  13.752  0.1838  0.0610 -0.0261
  745TMC3    C511009   2.378   4.071  13.652  0.3810  0.2784  1.1656
  745TMC3    C611010   2.250   4.115  13.679 -0.1376 -0.5861  0.3498
  745TMC3     C11011   2.541   4.201  13.950  0.0881 -0.1678 -0.1265
  745TMC3     O11012   2.513   4.229  14.067  0.4524 -0.3240  0.0768
  745TMC3     H11013   2.295   4.230  13.992  0.7176  0.2087  1.1714
  745TMC3    H111014   2.581   4.040  13.726  0.0649 -0.6284  0.3333
  745TMC3    H211015   2.177   4.110  13.598 -1.3119  0.4326  1.3433
  745TMC3    C711016   2.409   4.035  13.517  0.1562  0.0560 -0.3892
  745TMC3    C811017   2.150   4.289  13.794 -0.1825  0.4114 -0.5355
  745TMC3    O111018   2.313   4.033  13.445  0.2777  0.1125  0.0617
  745TMC3    O211019   2.055   4.301  13.719  0.1727  0.5246 -0.1085
  746TMC3    C111020   4.593   1.164  10.854 -0.7820 -0.0884  0.3223
  746TMC3    C211021   4.615   1.093  10.733  0.5221 -0.6500 -0.1775
  746TMC3    C311022   4.572   0.963  10.727 -0.5859 -0.4866  0.2481
  746TMC3    C411023   4.541   1.100  10.965 -0.1125  0.7066 -0.1213
  746TMC3    C511024   4.499   0.969  10.952  0.5251  0.8191 -0.1227
  746TMC3    C611025   4.512   0.901  10.836 -0.7238  0.7995  0.1127
  746TMC3     C11026   4.594   1.309  10.859  0.4033  0.2480 -0.4174
  746TMC3     O11027   4.564   1.362  10.964 -0.2723 -0.6472  0.2467
  746TMC3     H11028   4.662   1.142  10.649 -0.6401 -1.2018 -1.1565
  746TMC3    H111029   4.539   1.141  11.066 -4.1468 -1.6577  0.7379
  746TMC3    H211030   4.471   0.801  10.831  0.1610  0.4359  0.1633
  746TMC3    C711031   4.423   0.910  11.056  0.2502  0.3648  0.6079
  746TMC3    C811032   4.576   0.882  10.607 -0.2741  0.3737 -0.5442
  746TMC3    O111033   4.468   0.920  11.173  0.4525 -0.8132 -0.2476
  746TMC3    O211034   4.526   0.771  10.612  0.7656  0.2368  0.4402
  747TMC3    C111035   2.416   1.020  11.177 -0.7322 -0.6446 -0.1034
  747TMC3    C211036   2.296   0.976  11.233  0.2748  0.2747  0.0651
  747TMC3    C311037   2.253   1.039  11.348 -0.3263  0.0058 -0.4934
  747TMC3    C411038   2.487   1.114  11.245 -0.5426 -0.3239 -0.2087
  747TMC3    C511039   2.435   1.180  11.351 -0.4037 -0.0973  0.3791
  747TMC3    C611040   2.316   1.141  11.411 -0.3165 -0.1839  0.3216
  747TMC3     C11041   2.421   1.054  11.041  0.7802  0.0418  0.8557
  747TMC3     O11042   2.477   1.158  11.011  0.0498  0.4660  0.2969
  747TMC3     H11043   2.237   0.900  11.184 -1.6157  1.8862 -0.1535
  747TMC3    H111044   2.589   1.142  11.224  0.1870 -2.2749  0.6873
  747TMC3    H211045   2.286   1.198  11.498  0.6133 -0.0777  0.5774
  747TMC3    C711046   2.428   1.327  11.343  0.1718  0.6991  0.1338
  747TMC3    C811047   2.139   0.980  11.413 -0.7077  0.2472  0.4075
  747TMC3    O111048   2.400   1.404  11.434 -0.1190 -0.4978  0.3903
  747TMC3    O211049   2.120   0.858  11.409  0.1577 -0.2179  0.1870
  748MPD2     C11050   3.446   1.311   1.499 -0.3690 -0.1183 -0.5809
  748MPD2    C111051   3.449   1.430   1.569  0.4447 -0.2738 -0.3669
  748MPD2    C211052   3.517   1.536   1.512  0.1888  0.5427 -0.0198
  748MPD2    C311053   3.590   1.519   1.397  0.5018  0.1285  0.4260
  748MPD2    C411054   3.596   1.396   1.330 -1.2616  0.3976  0.4119
  748MPD2    C511055   3.516   1.294   1.381  0.2479  0.0860 -0.4441
  748MPD2     H11056   3.528   1.631   1.562  1.7546 -0.3160  1.2830
  748MPD2    H111057   3.636   1.366   1.234 -1.0595 -0.4391  0.7569
  748MPD2    H211058   3.396   1.223   1.538  0.4542  0.7268  2.3392
  748MPD2    H311059   3.504   1.205   1.320 -0.6305 -0.2534  0.2224
  748MPD2     N11060   3.658   1.624   1.343  0.5290 -0.0679  0.7025
  748MPD2    H511061   3.654   1.713   1.391 -1.9182  0.1443  0.0901
  748MPD2    N111062   3.380   1.442   1.691  0.3365 -0.1859  0.2854
  748MPD2    H711063   3.319   1.365   1.717  0.3957 -0.7307 -1.1691
  749TMC3    C111064   3.807   1.737   1.204  0.6728  0.1105  0.5049
  749TMC3    C211065   3.871   1.786   1.311 -0.3165  0.0293  0.4992
  749TMC3    C311066   3.973   1.875   1.289 -0.4230 -0.0077  0.3392
  749TMC3    C411067   3.829   1.770   1.075 -0.0449  0.0539 -0.7429
  749TMC3    C511068   3.931   1.863   1.056 -0.2937 -0.3292  0.5345
  749TMC3    C611069   4.005   1.909   1.154 -0.3448 -0.1063  0.1388
  749TMC3     C11070   3.722   1.628   1.219 -0.3599 -0.1492 -0.1593
  749TMC3     O11071   3.717   1.545   1.131 -0.1318 -0.3841 -0.1433
  749TMC3     H11072   3.872   1.739   1.409 -1.0927  3.0389  1.9386
  749TMC3    H111073   3.780   1.717   0.994 -0.1716  0.0931 -0.6918
  749TMC3    H211074   4.073   1.990   1.130 -1.9420  0.4980 -2.3419
  749TMC3    C711075   3.914   1.948   0.947 -0.2771 -0.1237 -0.2906
  749TMC3    C811076   4.074   1.888   1.393  0.4382  0.9527  0.0153
  749TMC3    O111077   4.004   2.027   0.916  0.0085 -0.5833 -0.0053
  749TMC3    O211078   4.037   1.879   1.511 -0.1923  0.0073  0.4116
  750MPD2     C11079   4.448   3.080  10.140  0.4744  0.5280 -0.0746
  750MPD2    C111080   4.399   2.988  10.224 -0.0490 -0.3705 -0.0935
  750MPD2    C211081   4.480   2.891  10.285 -0.0899 -0.8943 -0.7299
  750MPD2    C311082   4.618   2.883  10.252  0.7496 -0.0323 -0.4352
  750MPD2    C411083   4.662   2.962  10.141 -0.4077  0.3215  0.5173
  750MPD2    C511084   4.573   3.057  10.095  0.1169 -0.1921  0.3598
  750MPD2     H11085   4.437   2.823  10.359  0.6267  2.3690  2.6991
  750MPD2    H111086   0.041   2.972  10.112  0.3302 -2.3733  2.2464
  750MPD2    H211087   4.390   3.162  10.099  1.1028  1.0693  0.1221
  750MPD2    H311088   4.609   3.128  10.022 -0.8630  0.8378  0.8729
  750MPD2     N11089   4.709   2.800  10.320  0.3164 -0.0586 -0.4252
  750MPD2    H511090   0.077   2.776  10.286  0.9518  0.4404  0.9209
  750MPD2    N111091   4.266   3.008  10.261  0.1987  0.0793 -0.2469
  750MPD2    H711092   4.227   3.092  10.218 -0.7508 -1.0230 -1.5421
  751TMC3    C111093   0.050   2.632  10.475  0.4491 -0.7122  0.4669
  751TMC3    C211094   4.721   2.521  10.529  0.4657  0.2335 -0.3855
  751TMC3    C311095   0.065   2.406  10.548 -0.1014 -0.5002  1.1072
  751TMC3    C411096   0.181   2.630  10.428 -0.1522 -0.7432 -0.5990
  751TMC3    C511097   0.240   2.505  10.429 -0.0974 -0.6513 -0.1161
  751TMC3    C611098   0.188   2.398  10.500 -0.0229 -0.5708 -0.1733
  751TMC3     C11099   4.681   2.734  10.435  0.6118  0.5778 -0.3972
  751TMC3     O11100   4.584   2.748  10.509  0.1533  0.3983  0.5161
  751TMC3     H11101   4.617   2.521  10.560  0.2610  3.1225 -1.0462
  751TMC3    H111102   0.223   2.715  10.376  0.0901  0.8005  2.1228
  751TMC3    H211103   0.246   2.308  10.519  1.2843 -0.2083 -2.3446
  751TMC3    C711104   0.376   2.498  10.372  0.5340 -0.2003  0.7844
  751TMC3    C811105   0.005   2.285  10.606  0.3008 -0.0695  0.3236
  751TMC3    O111106   0.434   2.602  10.350 -0.0012 -0.3558  0.2758
  751TMC3    O211107   0.061   2.175  10.591  0.3804  0.1910  0.0855
  752TMC3    C111108   3.739   2.694  16.510 -0.0463  0.1418 -0.4193
  752TMC3    C211109   3.649   2.660  16.608 -0.4375 -0.6542  0.6961
  752TMC3    C311110   3.677   2.697  16.734 -0.4866  0.4868 -0.0147
  752TMC3    C411111   3.858   2.762  16.535 -0.1327 -0.5092  0.3874
  752TMC3    C511112   3.877   2.805  16.661  0.4242  0.6391  0.1391
  752TMC3    C611113   3.790   2.776  16.762 -0.8926 -0.0176  0.1036
  752TMC3     C11114   3.731   2.622  16.389  0.2368  0.4327 -0.3314
  752TMC3     O11115   3.833   2.561  16.352  0.2627  0.3060  0.1452
  752TMC3     H11116   3.561   2.599  16.590  1.0089 -3.3047  2.6962
  752TMC3    H111117   3.927   2.784  16.455 -0.6747  0.2858  0.1438
  752TMC3    H211118   3.805   2.815  16.862 -0.7954  0.8223 -0.2363
  752TMC3    C711119   3.985   2.900  16.674  0.0873 -0.4308  0.2386
  752TMC3    C811120   3.567   2.694  16.831  0.4619  0.3433  0.5066
  752TMC3    O111121   4.085   2.878  16.607 -0.1036  0.7796 -0.0836
  752TMC3    O211122   3.456   2.709  16.787 -0.4483  0.2823 -0.3712
  753TMC3    C111123   0.851   4.169  13.468  0.0848 -0.1187 -0.7975
  753TMC3    C211124   0.746   4.152  13.547  0.7313  0.0646 -0.7203
  753TMC3    C311125   0.658   4.045  13.528 -0.5235 -0.6053 -0.2867
  753TMC3    C411126   0.869   4.078  13.370  0.0338 -0.2354  0.4177
  753TMC3    C511127   0.777   3.983  13.345  0.0203 -0.0313 -0.1091
  753TMC3    C611128   0.668   3.958  13.432 -0.2100  0.2732  0.2154
  753TMC3     C11129   0.957   4.266  13.507  0.0985  0.2553 -0.2169
  753TMC3     O11130   0.919   4.339  13.597 -0.0688 -0.3981  0.1251
  753TMC3     H11131   0.741   4.213  13.637  4.1700 -0.7424  0.0457
  753TMC3    H111132   0.959   4.079  13.309 -0.5343  0.3115 -0.4128
  753TMC3    H211133   0.607   3.869  13.428  2.1513 -1.4044  1.3954
  753TMC3    C711134   0.785   3.896  13.232 -0.1590 -0.0772 -0.2965
  753TMC3    C811135   0.583   3.994  13.643 -0.2380  0.2501 -0.0753
  753TMC3    O111136   0.903   3.859  13.208  0.5317  0.0734 -0.4128
  753TMC3    O211137   0.495   3.915  13.615  0.0629  0.1159 -0.3080
  754MPD2     C11138   4.137   2.789  13.031  0.2343  0.0071  0.0802
  754MPD2    C111139   4.100   2.664  12.989  0.0010 -0.1395  0.6120
  754MPD2    C211140   3.971   2.652  12.948  0.0658  0.1681 -0.4290
  754MPD2    C311141   3.890   2.762  12.931  0.3246  0.4402  0.0827
  754MPD2    C411142   3.931   2.889  12.974  0.1509  0.3223 -0.6533
  754MPD2    C511143   4.051   2.899  13.034 -0.5235  0.4681 -0.8212
  754MPD2     H11144   3.939   2.549  12.935 -1.2461  0.1255  3.2220
  754MPD2    H111145   3.868   2.977  12.978 -1.7818 -1.0680 -0.5343
  754MPD2    H211146   4.241   2.807  13.058  0.0707  2.2063 -0.8186
  754MPD2    H311147   4.083   2.998  13.062 -0.9842 -0.0431  1.4639
  754MPD2     N11148   3.753   2.748  12.913 -0.1238  0.5162 -0.4866
  754MPD2    H511149   3.701   2.834  12.902  0.4562  0.9311  0.0225
  754MPD2    N111150   4.191   2.551  13.005 -0.2404 -0.0618  0.1313
  754MPD2    H711151   4.268   2.569  13.069 -1.5118  2.1367  1.0611
  755MPD2     C11152   3.202   3.314  13.185 -0.3016  0.1195  0.1003
  755MPD2    C111153   3.214   3.210  13.269  0.5857 -0.2437 -0.6535
  755MPD2    C211154   3.262   3.087  13.229  0.0405 -0.3918  0.2316
  755MPD2    C311155   3.297   3.063  13.095 -0.4628 -0.2424  0.0107
  755MPD2    C411156   3.287   3.170  13.011 -0.6443 -0.2311  0.2081
  755MPD2    C511157   3.252   3.291  13.054  0.2387 -0.4940  0.7117
  755MPD2     H11158   3.267   3.009  13.305  1.1880  0.0331  0.5852
  755MPD2    H111159   3.311   3.165  12.906 -0.9399 -0.9785  0.1768
  755MPD2    H211160   3.140   3.402  13.196 -0.8147 -0.4662  1.9055
  755MPD2    H311161   3.246   3.372  12.982  1.2843  0.7671  2.0497
  755MPD2     N11162   3.336   2.940  13.033 -1.1007  0.4693  0.1014
  755MPD2    H511163   3.366   2.942  12.937  2.5117  0.3941  1.2143
  755MPD2    N111164   3.163   3.249  13.397 -0.2991 -0.2823 -0.1193
  755MPD2    H711165   3.128   3.344  13.400  2.5497  0.8200 -1.7589
  756MPD2     C11166   1.254   1.595   9.580 -0.7840  0.2672  0.6856
  756MPD2    C111167   1.126   1.658   9.587  0.1861  0.9086 -0.5021
  756MPD2    C211168   1.018   1.576   9.631 -0.5861  0.7980  0.2266
  756MPD2    C311169   1.025   1.443   9.656 -0.1807  0.2456 -0.4662
  756MPD2    C411170   1.155   1.392   9.671  0.0721  0.4905  0.2399
  756MPD2    C511171   1.262   1.465   9.624 -0.1619  0.0481 -0.0743
  756MPD2     H11172   0.919   1.622   9.626 -1.2089 -0.5119  0.4591
  756MPD2    H111173   1.168   1.286   9.688 -0.3025  0.5916  1.1593
  756MPD2    H211174   1.344   1.644   9.544 -1.7514  2.9545  1.9012
  756MPD2    H311175   1.362   1.424   9.612  0.0033  1.2029 -2.4675
  756MPD2     N11176   0.905   1.368   9.678  0.1293 -0.2663 -0.0727
  756MPD2    H511177   0.814   1.412   9.672  0.2461  0.3333  2.3644
  756MPD2    N111178   1.102   1.789   9.539 -0.1021 -0.4657  0.0439
  756MPD2    H711179   1.011   1.833   9.548  0.0099 -0.3787  0.6857
  757MPD2     C11180   4.651   1.309   9.584  0.0959  0.0981 -0.3699
  757MPD2    C111181   4.681   1.181   9.549 -0.2091 -0.0979  0.4234
  757MPD2    C211182   0.083   1.146   9.522  0.1247  0.5510  0.1263
  757MPD2    C311183   0.183   1.242   9.542  0.8829  0.3530  0.1186
  757MPD2    C411184   0.153   1.374   9.570  0.0670  0.3536  0.5099
  757MPD2    C511185   0.019   1.400   9.589 -0.4315 -0.4472  1.6529
  757MPD2     H11186   0.115   1.044   9.502  1.0096  0.6008  1.3236
  757MPD2    H111187   0.222   1.455   9.591 -0.2283  0.8177 -0.3373
  757MPD2    H211188   4.553   1.344   9.617  0.8260  0.2881  1.5662
  757MPD2    H311189   4.715   1.500   9.619  1.2229  0.1474  1.2914
  757MPD2     N11190   0.314   1.192   9.544 -0.1519  0.1078  0.1449
  757MPD2    H511191   0.332   1.096   9.518  0.0187  0.5354 -1.3071
  757MPD2    N111192   4.571   1.097   9.548 -0.2038  0.1382 -0.2452
  757MPD2    H711193   4.488   1.140   9.586  0.2908  1.4730 -0.6658
  758MPD2     C11194   4.365   2.242  15.793 -0.0133 -0.0067 -0.0949
  758MPD2    C111195   4.409   2.147  15.883  0.1860 -0.0442  0.0320
  758MPD2    C211196   4.326   2.118  15.985  0.1103  1.0975  0.8618
  758MPD2    C311197   4.194   2.164  15.988  0.0803  0.0913  0.0731
  758MPD2    C411198   4.152   2.262  15.906  0.2066 -0.2734  0.7065
  758MPD2    C511199   4.246   2.304  15.811 -0.4249 -0.4319 -0.9992
  758MPD2     H11200   4.357   2.064  16.073 -0.0270  0.5116  0.5467
  758MPD2    H111201   4.056   2.312  15.905  1.4449  2.1097 -1.7479
  758MPD2    H211202   4.428   2.269  15.709  0.7933 -0.5865  0.3185
  758MPD2    H311203   4.212   2.384  15.745 -1.8623  0.2243  0.5284
  758MPD2     N11204   4.106   2.126  16.092 -0.8135  0.0002 -0.2815
  758MPD2    H511205   4.033   2.192  16.116 -0.1235  0.0049  1.8050
  758MPD2    N111206   4.535   2.080  15.857 -0.0260  1.1173 -0.5229
  758MPD2    H711207   4.586   2.117  15.777 -0.9746  2.0278 -0.6974
  759MPD2     C11208   2.646   0.611   9.418  0.1638 -0.4075 -0.2431
  759MPD2    C111209   2.718   0.523   9.494  0.3552  0.0968 -0.3350
  759MPD2    C211210   2.849   0.497   9.455  0.3117 -0.4075 -0.3548
  759MPD2    C311211   2.915   0.565   9.356  0.7559 -0.4831  0.5032
  759MPD2    C411212   2.838   0.665   9.287 -0.0664 -0.6863  0.3547
  759MPD2    C511213   2.709   0.677   9.317 -0.2349 -0.0078  0.5010
  759MPD2     H11214   2.910   0.425   9.508 -0.6868 -2.9014 -2.6312
  759MPD2    H111215   2.885   0.742   9.227  0.0747 -1.9850 -1.2032
  759MPD2    H211216   2.547   0.651   9.437 -0.3606 -0.3966 -2.9860
  759MPD2    H311217   2.668   0.767   9.272  2.6293  0.7439 -0.5939
  759MPD2     N11218   3.057   0.547   9.343 -0.2020  0.0761  0.1129
  759MPD2    H511219   3.109   0.491   9.409  1.0403  0.4027 -0.5761
  759MPD2    N111220   2.673   0.454   9.608 -0.3052  0.2789 -0.0627
  759MPD2    H711221   2.748   0.395   9.644  0.3118 -0.7498 -3.0052
  760MPD2     C11222   2.794   2.638  11.698 -0.2754  0.6893  0.6224
  760MPD2    C111223   2.928   2.645  11.720 -0.0432 -0.2333 -0.1336
  760MPD2    C211224   2.981   2.583  11.827 -0.0243 -0.4432 -0.1606
  760MPD2    C311225   2.905   2.495  11.903 -0.3840 -1.0820 -1.0909
  760MPD2    C411226   2.777   2.487  11.872 -0.0712  0.5131  0.0429
  760MPD2    C511227   2.715   2.568  11.782 -0.5909 -0.6262  0.8218
  760MPD2     H11228   3.085   2.600  11.854  0.0888  0.4096 -1.1345
  760MPD2    H111229   2.708   2.430  11.932  0.6952 -0.6497 -0.1981
  760MPD2    H211230   2.748   2.685  11.612 -0.2855 -1.6703 -0.6797
  760MPD2    H311231   2.608   2.558  11.769 -0.6715  1.5854 -0.2250
  760MPD2     N11232   2.957   2.422  12.010 -0.0379 -0.5423  0.0101
  760MPD2    H511233   2.892   2.359  12.055 -0.7250 -0.7759 -1.3236
  760MPD2    N111234   3.020   2.717  11.636  0.5876 -0.4685 -0.2041
  760MPD2    H711235   3.116   2.741  11.660 -0.3527 -0.4772  3.4810
  761MPD2     C11236   4.408   2.021  10.907 -0.5082  0.2705  0.0773
  761MPD2    C111237   4.472   1.979  10.796 -0.2464 -0.4004 -0.3317
  761MPD2    C211238   4.553   2.075  10.733  0.1695  0.0275  0.7826
  761MPD2    C311239   4.553   2.208  10.768  0.0791  0.4851 -0.4047
  761MPD2    C411240   4.474   2.245  10.875 -0.1449 -0.1112 -0.1045
  761MPD2    C511241   4.405   2.150  10.950  0.3071 -0.0504  0.0079
  761MPD2     H11242   4.595   2.046  10.638  1.7503  0.1215  1.4409
  761MPD2    H111243   4.464   2.346  10.913  1.4011 -0.5044  1.3703
  761MPD2    H211244   4.351   1.946  10.961  1.4085  0.1607  1.9442
  761MPD2    H311245   4.339   2.186  11.027  3.5640  0.2756  2.6458
  761MPD2     N11246   4.623   2.307  10.694  0.1747 -0.0331 -0.0924
  761MPD2    H511247   4.608   2.406  10.715  1.2545  0.4680 -1.6814
  761MPD2    N111248   4.444   1.851  10.741 -0.5883 -0.8001  0.5509
  761MPD2    H711249   4.366   1.804  10.784 -2.8277 -0.6077 -3.3249
  762MPD2     C11250   4.575   1.635  10.014 -0.8756  0.5523 -0.6367
  762MPD2    C111251   4.589   1.546  10.115  0.1159 -0.1859  0.2526
  762MPD2    C211252   4.706   1.472  10.102  0.1164  0.3636  0.6411
  762MPD2    C311253   0.067   1.470   9.996  0.2981  0.1804 -0.0798
  762MPD2    C411254   0.046   1.561   9.895 -0.1999 -0.1609 -0.2965
  762MPD2    C511255   4.660   1.645   9.904  0.4915  1.0037 -0.3261
  762MPD2     H11256   4.720   1.400  10.182  3.5179 -0.1803 -0.4356
  762MPD2    H111257   0.110   1.572   9.808  0.4712  1.2992  0.3782
  762MPD2    H211258   4.490   1.702  10.011 -1.3574  0.0365  1.3336
  762MPD2    H311259   4.651   1.711   9.819 -0.8322  1.9029  0.5026
  762MPD2     N11260   0.175   1.380  10.005  0.1974 -0.2952  0.0988
  762MPD2    H511261   0.160   1.312  10.079  0.5549 -1.0495 -0.5233
  762MPD2    N111262   4.502   1.545  10.223  0.1032  0.1085  0.5990
  762MPD2    H711263   4.427   1.612  10.224 -0.2373 -0.2451 -0.8403
  763MPD2     C11264   1.338   1.622  16.306 -0.1770  0.2507  0.2229
  763MPD2    C111265   1.372   1.728  16.221  0.7510 -0.2130 -0.1918
  763MPD2    C211266   1.384   1.858  16.280 -0.1770 -0.1663  0.0199
  763MPD2    C311267   1.325   1.886  16.406  0.3088  0.9158 -0.6010
  763MPD2    C411268   1.275   1.783  16.479 -0.0043 -0.2233 -0.6838
  763MPD2    C511269   1.292   1.652  16.429 -0.3515  0.1359 -0.0108
  763MPD2     H11270   1.423   1.940  16.222 -0.9015 -0.2635 -0.6026
  763MPD2    H111271   1.226   1.800  16.574 -1.1617 -0.6187 -1.2174
  763MPD2    H211272   1.334   1.517  16.279  0.1680  0.5072 -0.8471
  763MPD2    H311273   1.246   1.567  16.479 -0.8491  0.6171  0.3539
  763MPD2     N11274   1.332   2.017  16.458  0.1334  0.0478 -0.6854
  763MPD2    H511275   1.382   2.092  16.411 -0.0234  0.2913 -0.4695
  763MPD2    N111276   1.398   1.719  16.085 -0.4845  0.4885 -0.3586
  763MPD2    H711277   1.404   1.810  16.041  0.3376 -0.4133 -2.0989
  764MPD2     C11278   3.536   3.986  17.146  0.9351  0.0292  0.1277
  764MPD2    C111279   3.590   3.900  17.064 -0.1109 -0.1265  0.1028
  764MPD2    C211280   3.686   3.806  17.104 -0.2250 -0.2081  0.0564
  764MPD2    C311281   3.721   3.801  17.240  0.9587  0.4743 -0.0290
  764MPD2    C411282   3.661   3.893  17.324 -0.4413 -0.4303  0.7287
  764MPD2    C511283   3.567   3.984  17.279  0.5829 -0.1381  0.1218
  764MPD2     H11284   3.720   3.733  17.032  0.4411  0.5216 -0.3659
  764MPD2    H111285   3.673   3.892  17.432 -0.8448 -2.1075  0.7601
  764MPD2    H211286   3.473   4.067  17.111  1.9294  0.0125 -1.7044
  764MPD2    H311287   3.530   4.063  17.343  0.1511 -0.6245  0.4700
  764MPD2     N11288   3.828   3.713  17.283 -0.5674  0.3584  0.0238
  764MPD2    H511289   3.867   3.656  17.209 -0.4488 -2.7547  2.5113
  764MPD2    N111290   3.560   3.910  16.924  0.1964 -0.3823 -0.0246
  764MPD2    H711291   3.613   3.851  16.861  2.7654  4.2117 -2.1839
  765MPD2     C11292   3.831   1.444  15.854  0.0336 -1.2655  0.9108
  765MPD2    C111293   3.913   1.553  15.814  0.4675 -0.1125 -0.7055
  765MPD2    C211294   4.033   1.525  15.766 -0.2917  0.3447  0.0305
  765MPD2    C311295   4.086   1.400  15.759  0.1250 -0.4313  0.2472
  765MPD2    C411296   4.002   1.296  15.792 -0.1985 -0.1264 -0.1980
  765MPD2    C511297   3.877   1.313  15.847  0.8386  0.5995  0.5016
  765MPD2     H11298   4.084   1.607  15.717  0.3385 -1.0539 -1.6426
  765MPD2    H111299   4.040   1.195  15.780 -0.2126  0.0358 -1.5373
  765MPD2    H211300   3.733   1.456  15.899  0.1323 -1.9625  1.3117
  765MPD2    H311301   3.815   1.233  15.885  0.9319  0.2654 -0.0449
  765MPD2     N11302   4.211   1.391  15.703  1.0315  0.4128 -0.6646
  765MPD2    H511303   4.263   1.477  15.689  0.4087  1.2413  2.0691
  765MPD2    N111304   3.857   1.683  15.818  0.0041  0.4032 -0.5180
  765MPD2    H711305   3.759   1.692  15.840 -0.6722 -1.7565 -2.6681
  766MPD2     C11306   3.565   1.590  15.253  0.4062  0.0037 -0.2187
  766MPD2    C111307   3.620   1.717  15.270  0.0359 -0.5029 -0.2435
  766MPD2    C211308   3.680   1.772  15.158 -0.0940 -0.3324  0.3329
  766MPD2    C311309   3.659   1.717  15.035  0.5874  0.2998 -0.2509
  766MPD2    C411310   3.590   1.600  15.024  0.2110 -0.3868 -0.4504
  766MPD2    C511311   3.547   1.539  15.130  0.4018 -0.3109  0.3203
  766MPD2     H11312   3.723   1.871  15.168 -0.6549  0.0617 -1.1692
  766MPD2    H111313   3.571   1.553  14.929  1.8413  1.2648 -1.5886
  766MPD2    H211314   3.532   1.526  15.334  1.5010  1.5416  1.4332
  766MPD2    H311315   3.492   1.447  15.113  0.9335 -0.3053 -1.4047
  766MPD2     N11316   3.699   1.781  14.915 -0.1751  0.1305  0.7286
  766MPD2    H511317   3.651   1.748  14.833 -0.8283 -0.6313  1.4109
  766MPD2    N111318   3.632   1.777  15.399 -0.5651  0.3119  0.5698
  766MPD2    H711319   3.614   1.716  15.479 -0.7936  1.6766  1.5485
  767MPD2     C11320   3.419   1.950  15.025 -0.2957 -0.8556 -0.1804
  767MPD2    C111321   3.467   2.018  14.918  0.3342 -0.1483 -0.7002
  767MPD2    C211322   3.417   1.988  14.789 -0.1263 -0.0689 -0.0049
  767MPD2    C311323   3.350   1.867  14.761 -0.0413  0.7097 -0.4127
  767MPD2    C411324   3.307   1.803  14.867 -0.1773 -0.5252 -0.1682
  767MPD2    C511325   3.334   1.846  14.992  0.0056  0.6791  0.4019
  767MPD2     H11326   3.434   2.052  14.704  2.4925  0.4076  0.8874
  767MPD2    H111327   3.244   1.714  14.869 -0.8981 -0.0175 -0.5020
  767MPD2    H211328   3.445   1.971  15.128 -0.4476 -1.3019 -0.0519
  767MPD2    H311329   3.300   1.789  15.078 -0.8670  0.5040 -0.0649
  767MPD2     N11330   3.324   1.823  14.629  0.4379 -0.0162  0.6685
  767MPD2    H511331   3.370   1.875  14.555  0.4474 -1.6505 -0.4783
  767MPD2    N111332   3.564   2.114  14.953  0.0335  0.0648  0.0052
  767MPD2    H711333   3.594   2.121  15.050  1.2526 -0.3791 -0.3329
  768MPD2     C11334   3.813   0.743  10.682 -0.3095  0.9553 -0.2461
  768MPD2    C111335   3.781   0.632  10.762 -0.4939  0.3838 -0.3991
  768MPD2    C211336   3.887   0.553  10.813 -0.7700  0.5981  0.3681
  768MPD2    C311337   4.018   0.587  10.798 -0.3136 -0.1469  0.1620
  768MPD2    C411338   4.044   0.698  10.720  0.0927  0.0192  0.1735
  768MPD2    C511339   3.944   0.778  10.664 -0.1440  0.3273  0.2002
  768MPD2     H11340   3.853   0.469  10.873 -0.8628  0.1357 -0.3314
  768MPD2    H111341   4.149   0.722  10.702  0.1541 -0.9496 -0.7916
  768MPD2    H211342   3.735   0.803  10.636  1.1768  0.9086 -2.8058
  768MPD2    H311343   3.968   0.864  10.602 -0.4508  0.2614 -0.0120
  768MPD2     N11344   4.124   0.510  10.856  0.4693  0.0664 -0.3099
  768MPD2    H511345   4.222   0.532  10.841  0.4093  1.5717  1.4994
  768MPD2    N111346   3.651   0.597  10.799  0.1883  0.1895 -0.0382
  768MPD2    H711347   3.638   0.523  10.868  0.0823 -0.1468 -0.4161
  769MPD2     C11348   0.625   3.061  14.478  0.4049 -0.2934  1.4542
  769MPD2    C111349   0.499   3.113  14.510 -0.3919 -0.4307  0.6542
  769MPD2    C211350   0.492   3.213  14.610 -0.0824  0.1388 -0.1197
  769MPD2    C311351   0.598   3.241  14.694  0.4220 -0.0786 -0.0778
  769MPD2    C411352   0.721   3.198  14.651  0.3056 -0.7676  0.2736
  769MPD2    C511353   0.734   3.112  14.543  0.6884 -0.4810  0.1562
  769MPD2     H11354   0.398   3.253  14.647 -0.7537 -1.3818 -0.1409
  769MPD2    H111355   0.808   3.214  14.713  0.0184 -0.1945  0.5355
  769MPD2    H211356   0.642   2.986  14.402  0.5667  2.1544 -0.9238
  769MPD2    H311357   0.825   3.055  14.529  1.5100  1.3134 -1.6488
  769MPD2     N11358   0.577   3.308  14.811 -0.3695  0.2950 -0.4501
  769MPD2    H511359   0.479   3.333  14.826  0.2588  1.4784  1.7350
  769MPD2    N111360   0.382   3.060  14.451 -0.7087 -0.4036 -0.2959
  769MPD2    H711361   0.394   2.982  14.387 -1.1288 -0.0816 -0.7749
  770MPD2     C11362   4.713   2.206  14.243  0.0546 -0.1796 -0.0974
  770MPD2    C111363   0.034   2.266  14.367 -0.0440  0.0882  0.2703
  770MPD2    C211364   0.039   2.405  14.369 -0.6433  0.4224 -0.8217
  770MPD2    C311365   0.003   2.483  14.263  0.0605  0.5011 -0.1567
  770MPD2    C411366   4.684   2.427  14.142  0.6977  0.1674 -0.1236
  770MPD2    C511367   4.676   2.290  14.136 -0.2406  0.3259  0.0684
  770MPD2     H11368   0.049   2.440  14.472  0.2170 -0.7066 -0.5252
  770MPD2    H111369   4.651   2.495  14.063  1.4487  0.8755  0.1762
  770MPD2    H211370   4.716   2.099  14.226  1.7957 -0.3652  1.4102
  770MPD2    H311371   4.628   2.241  14.052 -0.6371 -0.4245  0.7317
  770MPD2     N11372   0.007   2.621  14.276 -0.0212 -0.0906 -0.3379
  770MPD2    H511373   4.710   2.670  14.190  2.3535  1.9182  0.1856
  770MPD2    N111374   0.067   2.184  14.475 -0.5249 -0.2459  0.3914
  770MPD2    H711375   0.057   2.083  14.466 -1.3638 -0.3475  2.3860
  771MPD2     C11376   1.578   1.445  14.166  0.6525  0.3421  0.2934
  771MPD2    C111377   1.508   1.436  14.051  0.4362  0.0511 -0.2604
  771MPD2    C211378   1.514   1.325  13.966  0.2237 -0.7052 -0.1546
  771MPD2    C311379   1.563   1.208  14.009 -1.0566  0.1705 -0.5070
  771MPD2    C411380   1.630   1.208  14.135  0.2712 -0.6960  0.0347
  771MPD2    C511381   1.640   1.327  14.211  0.7866  0.4637  0.5013
  771MPD2     H11382   1.447   1.338  13.882  0.2896 -0.5991 -0.1906
  771MPD2    H111383   1.666   1.115  14.177  0.4784 -0.3960  0.5180
  771MPD2    H211384   1.582   1.533  14.229  1.5119  0.5874 -0.1046
  771MPD2    H311385   1.708   1.330  14.295  2.2319 -0.5806 -0.6399
  771MPD2     N11386   1.544   1.095  13.927 -0.1066 -0.4841  0.7695
  771MPD2    H511387   1.488   1.109  13.843  0.6356  0.8350  0.4988
  771MPD2    N111388   1.417   1.535  14.016 -0.1273  0.2898  0.1511
  771MPD2    H711389   1.383   1.524  13.921 -2.6510  1.3270  0.9648
  772MPD2     C11390   0.710   1.823  14.123  0.2308 -0.0980 -0.4845
  772MPD2    C111391   0.743   1.842  13.994  0.2641  0.1624  0.5939
  772MPD2    C211392   0.637   1.839  13.902  0.1840  0.0141  0.1550
  772MPD2    C311393   0.496   1.837  13.934  0.3410  0.3002  0.6664
  772MPD2    C411394   0.475   1.818  14.068  0.2759 -0.9326  0.8820
  772MPD2    C511395   0.582   1.814  14.159  0.5649  0.3901  0.1437
  772MPD2     H11396   0.670   1.856  13.800  0.2030  0.3789  0.2192
  772MPD2    H111397   0.376   1.795  14.105  0.1377 -0.0897  1.0475
  772MPD2    H211398   0.786   1.821  14.200  1.2556 -0.7484 -1.5046
  772MPD2    H311399   0.553   1.802  14.263  0.2055 -3.4149 -0.4156
  772MPD2     N11400   0.379   1.830  13.849 -0.1879  0.2889 -0.1105
  772MPD2    H511401   0.289   1.831  13.896 -0.6633 -0.0487 -1.0031
  772MPD2    N111402   0.881   1.846  13.941 -0.5667  0.0552  0.1117
  772MPD2    H711403   0.898   1.828  13.842 -1.0181  1.9495 -0.3140
  773MPD2     C11404   4.520   2.700  17.580 -0.1472 -0.0524  0.1591
  773MPD2    C111405   4.442   2.619  17.497 -0.0194 -0.3323  0.5108
  773MPD2    C211406   4.371   2.513  17.544  0.7007 -0.5145  0.1198
  773MPD2    C311407   4.388   2.478  17.681 -1.2213 -0.4549 -0.3618
  773MPD2    C411408   4.489   2.544   0.053  0.8127 -0.1738  0.1589
  773MPD2    C511409   4.547   2.665   0.010 -0.6076  0.1289  0.4831
  773MPD2     H11410   4.294   2.464  17.486 -1.1694  1.7941  0.7094
  773MPD2    H111411   4.523   2.500   0.146  1.1976 -1.1169 -0.4286
  773MPD2    H211412   4.575   2.787  17.547  0.5187 -0.6484 -0.3015
  773MPD2    H311413   4.616   2.715   0.078 -1.7334  0.9851  0.9950
  773MPD2     N11414   4.326   2.357   0.024 -0.6123  0.1021 -0.3124
  773MPD2    H511415   4.294   2.295  17.652  2.2282  1.4014 -2.6195
  773MPD2    N111416   4.419   2.641  17.359  0.1174 -0.6373 -0.4376
  773MPD2    H711417   4.341   2.606  17.305  1.3150 -1.8736 -1.3751
  774MPD2     C11418   3.855   1.564  12.795  0.1701 -0.3102  0.2214
  774MPD2    C111419   3.886   1.570  12.927  0.9218  0.3103 -0.6081
  774MPD2    C211420   3.939   1.680  12.985  0.1940  0.3654 -0.5281
  774MPD2    C311421   3.981   1.788  12.909 -1.3331  0.1876  0.4281
  774MPD2    C411422   3.955   1.782  12.773 -0.6869 -0.1783 -0.4025
  774MPD2    C511423   3.894   1.668  12.718  0.4146 -0.4107 -0.0731
  774MPD2     H11424   3.947   1.683  13.093 -2.0048  1.2718 -0.3856
  774MPD2    H111425   3.980   1.861  12.703  3.2040 -0.7211  0.3599
  774MPD2    H211426   3.809   1.482  12.742  0.3131  0.7013 -1.4863
  774MPD2    H311427   3.870   1.670  12.613 -0.0540  0.3886  0.0494
  774MPD2     N11428   4.037   1.897  12.980  0.5207  0.6788 -0.3741
  774MPD2    H511429   4.038   1.892  13.081  0.8815  2.7693 -0.2728
  774MPD2    N111430   3.875   1.438  12.989 -0.2303 -0.5398 -0.1188
  774MPD2    H711431   3.842   1.366  12.924 -0.5561  0.0027 -0.5529
  775MPD2     C11432   0.647   3.201  15.477 -0.6665 -0.5552 -0.1195
  775MPD2    C111433   0.711   3.288  15.567  0.7464  0.4424  0.4320
  775MPD2    C211434   0.837   3.330  15.529 -0.4436 -0.4829 -0.6005
  775MPD2    C311435   0.906   3.283  15.420  0.0239 -0.8093  0.4916
  775MPD2    C411436   0.840   3.199  15.330 -0.2510  0.3361 -0.4979
  775MPD2    C511437   0.714   3.158  15.366 -0.0633 -0.4619  0.1873
  775MPD2     H11438   0.892   3.393  15.598  2.4597 -1.3903 -2.0691
  775MPD2    H111439   0.884   3.168  15.236  1.4329  1.6681 -0.1506
  775MPD2    H211440   0.546   3.163  15.490  0.2459 -2.1219  2.4775
  775MPD2    H311441   0.659   3.094  15.297  2.2733 -0.8891 -1.2834
  775MPD2     N11442   1.038   3.318  15.393  0.0283 -0.4656 -0.2983
  775MPD2    H511443   1.071   3.279  15.305  0.4834 -0.2394 -0.2301
  775MPD2    N111444   0.647   3.317  15.687 -0.3178  0.1393  0.6598
  775MPD2    H711445   0.557   3.272  15.699 -1.2871  1.0648 -3.2173
  776MPD2     C11446   3.983   3.666  10.639 -0.2162  0.4483  0.6773
  776MPD2    C111447   4.080   3.580  10.588  0.1369 -0.6342  0.2936
  776MPD2    C211448   4.208   3.626  10.577  0.7423 -0.0847  0.3083
  776MPD2    C311449   4.248   3.742  10.642  0.2024  0.0344  0.3260
  776MPD2    C411450   4.151   3.816  10.711  0.3532 -0.2653 -0.4885
  776MPD2    C511451   4.018   3.780  10.700 -0.3073 -0.8613  0.4172
  776MPD2     H11452   4.270   3.556  10.523 -1.0081 -3.9044  3.3269
  776MPD2    H111453   4.178   3.903  10.771 -2.4126 -0.1448  0.5940
  776MPD2    H211454   3.876   3.649  10.632 -0.1083  0.1099 -0.1584
  776MPD2    H311455   3.940   3.842  10.742 -0.5135 -1.2694  0.6350
  776MPD2     N11456   4.390   3.776  10.645 -0.3881 -0.5054  0.0888
  776MPD2    H511457   4.403   3.843  10.720  0.0651  1.6465 -1.9338
  776MPD2    N111458   4.026   3.460  10.538 -0.2830  0.0844 -0.4619
  776MPD2    H711459   3.926   3.453  10.553 -0.2096 -0.8363 -0.4053
  777MPD2     C11460   0.134   1.776   0.591 -0.0464  0.7483 -0.5752
  777MPD2    C111461   0.225   1.736   0.687  0.1821  0.1354 -0.2058
  777MPD2    C211462   0.295   1.616   0.668  0.6946  0.1705  1.1216
  777MPD2    C311463   0.270   1.545   0.546  0.4386 -0.3871  1.3550
  777MPD2    C411464   0.185   1.600   0.449  0.3652  0.3309 -0.1544
  777MPD2    C511465   0.116   1.713   0.471  0.4148  0.7391 -0.4912
  777MPD2     H11466   0.370   1.574   0.734  1.4576  1.8168  1.3097
  777MPD2    H111467   0.170   1.565   0.348 -1.8311  3.7451 -1.0397
  777MPD2    H211468   0.076   1.867   0.602 -0.9201  0.2633 -1.1279
  777MPD2    H311469   0.052   1.744   0.389  0.4880 -0.1113 -0.8793
  777MPD2     N11470   0.330   1.414   0.532  0.4469 -0.2525  0.8817
  777MPD2    H511471   0.386   1.378   0.609  0.6892 -0.0292  0.8101
  777MPD2    N111472   0.222   1.791   0.818 -0.0782 -0.0145  0.1413
  777MPD2    H711473   0.154   1.867   0.828  1.9073  1.7445  0.2331
  778MPD2     C11474   1.245   0.944  15.198  0.0154  0.1240  0.9552
  778MPD2    C111475   1.155   0.962  15.096  1.0362  0.2480  0.0171
  778MPD2    C211476   1.204   1.019  14.978 -0.0518  0.5820  0.5693
  778MPD2    C311477   1.338   1.064  14.965 -0.0924  0.0187  0.2499
  778MPD2    C411478   1.432   1.029  15.066  0.3666 -0.1913  0.1472
  778MPD2    C511479   1.382   0.975  15.185  0.2617  0.4201  0.0962
  778MPD2     H11480   1.136   1.042  14.896  1.7009 -1.1902 -1.3637
  778MPD2    H111481   1.540   1.042  15.064  0.2074  1.0706  0.2811
  778MPD2    H211482   1.211   0.901  15.292 -0.4097 -0.7268  0.4233
  778MPD2    H311483   1.439   0.947  15.273  0.4035  0.0777 -0.1058
  778MPD2     N11484   1.367   1.124  14.838  0.7574 -0.1326  0.2671
  778MPD2    H511485   1.292   1.119  14.771  1.7144 -0.1406 -0.8031
  778MPD2    N111486   1.024   0.918  15.104  0.1140 -0.2489  0.6513
  778MPD2    H711487   0.968   0.973  15.040  0.3027 -0.3852  0.3690
  779MPD2     C11488   0.690   4.504  14.589  0.5220 -0.0391  0.8900
  779MPD2    C111489   0.822   4.490  14.564 -0.1693 -0.6271  0.6342
  779MPD2    C211490   0.903   4.604  14.554  0.3717  0.1606 -0.2221
  779MPD2    C311491   0.839   0.007  14.565 -0.2612 -0.0844 -0.6729
  779MPD2    C411492   0.703   0.014  14.569  0.4788  0.2352  0.1296
  779MPD2    C511493   0.628   4.627  14.576  0.3896 -0.4511 -0.2408
  779MPD2     H11494   1.010   4.595  14.536  0.1489 -1.4209 -0.6944
  779MPD2    H111495   0.650   0.108  14.557 -0.8322 -0.5188  0.0477
  779MPD2    H211496   0.621   4.421  14.595  0.9353 -0.5649 -1.7369
  779MPD2    H311497   0.520   4.637  14.583  0.3476 -2.5686  2.3006
  779MPD2     N11498   0.918   0.127  14.561  0.1820 -0.2120  0.0107
  779MPD2    H511499   0.869   0.214  14.582 -1.2342 -1.1728  0.6995
  779MPD2    N111500   0.885   4.361  14.560  0.4397 -0.4444  0.2646
  779MPD2    H711501   0.986   4.364  14.550  0.5895 -0.8319  1.7570
  780MPD2     C11502   4.558   0.024   0.747 -0.2197 -0.2120 -0.3390
  780MPD2    C111503   4.585   4.620   0.711  0.6598  0.1436  0.0172
  780MPD2    C211504   4.700   4.599   0.638  0.9941 -0.0190 -0.4586
  780MPD2    C311505   0.057   4.699   0.593  0.1399  0.5609  0.2034
  780MPD2    C411506   0.016   0.099   0.618 -0.2836  0.2429  0.1941
  780MPD2    C511507   4.630   0.128   0.698 -0.6104 -0.2749  0.0226
  780MPD2     H11508   0.011   4.499   0.618  0.2815 -0.4444  0.3677
  780MPD2    H111509   0.061   0.181   0.562 -1.4669  2.4395  2.4474
  780MPD2    H211510   4.488   0.055   0.824  0.7864  0.2370  0.3899
  780MPD2    H311511   4.613   0.230   0.730  0.2614  0.6630 -2.4143
  780MPD2     N11512   0.166   4.668   0.510 -0.7609 -0.2628 -0.4490
  780MPD2    H511513   0.181   4.580   0.462  0.2306  0.2324 -1.0536
  780MPD2    N111514   4.503   4.513   0.755 -0.8322  0.8950 -0.3452
  780MPD2    H711515   4.425   4.541   0.813 -1.0517  2.2269 -1.2731
  781MPD2     C11516   1.631   1.920  12.106 -0.0717  0.0598  0.9720
  781MPD2    C111517   1.747   1.862  12.077  0.2562 -0.5226 -0.0610
  781MPD2    C211518   1.794   1.861  11.944  0.0108 -0.2256  0.1408
  781MPD2    C311519   1.706   1.903  11.845 -0.7600  0.2399  0.0663
  781MPD2    C411520   1.590   1.969  11.874 -0.0025 -0.1625 -0.1885
  781MPD2    C511521   1.545   1.967  12.005 -0.8515 -0.0222 -0.0532
  781MPD2     H11522   1.890   1.815  11.924 -0.6899 -1.0081 -1.3735
  781MPD2    H111523   1.527   2.013  11.797 -2.3553  0.1787  1.9625
  781MPD2    H211524   1.597   1.934  12.208 -0.9084  0.3764  0.6530
  781MPD2    H311525   1.456   2.019  12.036  0.0549  0.4358  1.7629
  781MPD2     N11526   1.748   1.919  11.709  0.0543  0.1721  0.7927
  781MPD2    H511527   1.690   1.970  11.643  1.0688 -0.1433 -0.3340
  781MPD2    N111528   1.820   1.789  12.182 -0.6753 -0.2605  0.3004
  781MPD2    H711529   1.909   1.743  12.164 -0.8571 -0.5871  0.2270
  782MPD2     C11530   1.243   1.758   9.877  0.3519  0.2961 -1.0847
  782MPD2    C111531   1.148   1.835   9.930 -0.0570  0.4146  0.7444
  782MPD2    C211532   1.161   1.974   9.953  0.2424 -0.2051  0.3567
  782MPD2    C311533   1.275   2.032   9.903  0.2317  0.1589 -0.6987
  782MPD2    C411534   1.378   1.957   9.844 -0.1866  0.2173 -0.5395
  782MPD2    C511535   1.358   1.823   9.834  0.6194  0.0825  0.3836
  782MPD2     H11536   1.073   2.025   9.991  0.2518  1.3366 -1.7004
  782MPD2    H111537   1.473   1.993   9.808  0.7915 -0.9332  0.8945
  782MPD2    H211538   1.233   1.652   9.861 -0.3530  0.1718  0.2216
  782MPD2    H311539   1.424   1.769   9.768 -0.0716 -0.7416  0.3612
  782MPD2     N11540   1.296   2.168   9.940 -0.5189 -0.2494 -0.3160
  782MPD2    H511541   1.228   2.206  10.005 -0.2157 -0.9823  0.4243
  782MPD2    N111542   1.025   1.772   9.960 -0.2508 -0.3692 -1.0446
  782MPD2    H711543   0.944   1.831   9.979 -0.9346 -1.4094 -0.7353
  783MPD2     C11544   0.649   2.413  10.263  0.5941  0.6224  0.2938
  783MPD2    C111545   0.542   2.329  10.301 -0.1538  0.5141  0.3960
  783MPD2    C211546   0.564   2.193  10.298  0.0265 -0.1791  0.2440
  783MPD2    C311547   0.673   2.134  10.236 -0.3250 -0.1088  0.0790
  783MPD2    C411548   0.769   2.218  10.191 -0.3853 -0.1366  0.5505
  783MPD2    C511549   0.759   2.356  10.202 -0.3986  0.6006  0.4072
  783MPD2     H11550   0.479   2.136  10.333 -0.1874 -0.1681 -0.2446
  783MPD2    H111551   0.858   2.180  10.142 -1.6887 -2.7050  0.1993
  783MPD2    H211552   0.649   2.519  10.289  1.1174  0.9823 -1.1494
  783MPD2    H311553   0.851   2.408  10.177 -0.6747  0.9452  0.1134
  783MPD2     N11554   0.682   1.996  10.228  0.2009  0.4431 -0.1956
  783MPD2    H511555   0.633   1.948  10.303 -3.0895 -1.1159 -3.3752
  783MPD2    N111556   0.420   2.375  10.350 -0.5588  0.9781 -0.3471
  783MPD2    H711557   0.353   2.302  10.370 -2.5829  2.8225 -0.3809
  784MPD2     C11558   2.258   2.125   0.579 -0.3778  1.0770 -0.1426
  784MPD2    C111559   2.193   2.232   0.635  0.0662 -0.9816 -0.7403
  784MPD2    C211560   2.125   2.324   0.551  0.0025 -0.3935  0.4826
  784MPD2    C311561   2.119   2.304   0.414 -0.2079 -0.5920  0.6884
  784MPD2    C411562   2.181   2.198   0.365 -0.2384  0.4012  0.0007
  784MPD2    C511563   2.251   2.111   0.445 -0.5327  0.2756 -0.0615
  784MPD2     H11564   2.079   2.409   0.600  0.8673 -0.3128  1.1541
  784MPD2    H111565   2.173   2.183   0.258  0.1417 -0.1959  0.0573
  784MPD2    H211566   2.310   2.051   0.639  0.1773 -0.0507 -2.0358
  784MPD2    H311567   2.294   2.025   0.395  0.3464  1.3988 -1.2376
  784MPD2     N11568   2.062   2.410   0.342  0.6921 -0.3547 -0.1941
  784MPD2    H511569   2.007   2.474   0.398 -1.7848 -0.5139 -2.4206
  784MPD2    N111570   2.211   2.264   0.772  0.6695  0.2023 -0.2585
  784MPD2    H711571   2.174   2.355   0.800  1.2961  0.8264 -1.4854
  785MPD2     C11572   2.620   4.624  10.313 -0.0579 -0.3767 -0.0310
  785MPD2    C111573   2.668   0.004  10.385  0.3421  0.3221 -0.1128
  785MPD2    C211574   2.590   0.109  10.413 -0.4907  0.8712 -0.6102
  785MPD2    C311575   2.461   0.112  10.373  0.3067 -0.3281 -0.0849
  785MPD2    C411576   2.409   0.006  10.304  0.2240 -0.0325 -0.3000
  785MPD2    C511577   2.495   4.628  10.268 -0.6360 -0.1601 -0.0094
  785MPD2     H11578   2.634   0.196  10.462  2.4670 -0.8605 -0.1968
  785MPD2    H111579   2.307   0.003  10.267  0.4369  1.4158 -0.9927
  785MPD2    H211580   2.680   4.538  10.285  1.5035  0.9449 -0.7487
  785MPD2    H311581   2.459   4.541  10.215  0.1143 -1.4258  1.5414
  785MPD2     N11582   2.380   0.229  10.395 -0.1785 -0.2185  0.3526
  785MPD2    H511583   2.423   0.304  10.448  1.7174 -1.0138 -0.0851
  785MPD2    N111584   2.805   0.003  10.435 -0.1762 -0.2988 -0.5884
  785MPD2    H711585   2.829   0.063  10.514  0.2298 -1.6703  0.3450
  786MPD2     C11586   2.028   4.318  14.138 -0.4350  0.0485  0.4840
  786MPD2    C111587   1.941   4.252  14.220 -0.1632  0.2018 -0.1485
  786MPD2    C211588   1.967   4.236  14.358  0.2387 -0.3524 -0.1297
  786MPD2    C311589   2.100   4.260  14.398  0.5287 -0.3980  0.2832
  786MPD2    C411590   2.193   4.322  14.313 -0.0222  0.3999  0.2071
  786MPD2    C511591   2.152   4.356  14.182 -0.1040  0.3960 -0.7004
  786MPD2     H11592   1.891   4.196  14.424 -0.1037  1.1930  0.4212
  786MPD2    H111593   2.295   4.347  14.337 -0.4845  2.2572  0.2717
  786MPD2    H211594   2.005   4.341  14.035 -0.9640  1.2667  0.8828
  786MPD2    H311595   2.216   4.399  14.106 -0.0772  0.4209 -0.6635
  786MPD2     N11596   2.144   4.230  14.530  0.0001 -0.2683  0.6122
  786MPD2    H511597   2.240   4.250  14.555 -0.1747  0.5648  0.6198
  786MPD2    N111598   1.824   4.199  14.167  0.6726 -0.7657 -0.3391
  786MPD2    H711599   1.773   4.152  14.241  0.5063 -0.5166 -0.2933
  787MPD2     C11600   1.325   3.606  14.312  0.4231 -0.5837 -0.5877
  787MPD2    C111601   1.426   3.706  14.324  0.0732  0.2958 -0.1075
  787MPD2    C211602   1.541   3.688  14.405  0.2361 -1.2670  0.3311
  787MPD2    C311603   1.557   3.572  14.481 -0.0398 -0.3989  0.1478
  787MPD2    C411604   1.446   3.483  14.482 -0.3692 -0.1857 -0.3028
  787MPD2    C511605   1.339   3.504  14.400 -0.3086 -0.1158 -0.0521
  787MPD2     H11606   1.618   3.762  14.390 -0.1934 -1.1822 -1.4448
  787MPD2    H111607   1.448   3.386  14.529 -3.4522 -1.2404 -2.3647
  787MPD2    H211608   1.245   3.611  14.240 -0.1549 -0.3457  0.0802
  787MPD2    H311609   1.260   3.430  14.396 -0.7260  0.3408 -0.3047
  787MPD2     N11610   1.685   3.551  14.544  0.3668  0.0876 -0.9648
  787MPD2    H511611   1.768   3.601  14.512 -1.1096  2.2165 -1.4173
  787MPD2    N111612   1.404   3.824  14.248 -0.2011  0.0689  0.0707
  787MPD2    H711613   1.329   3.817  14.179  0.4401 -0.8490 -0.5391
  788MPD2     C11614   2.779   1.377   1.214  0.0505 -0.1416  0.3701
  788MPD2    C111615   2.699   1.355   1.101  0.2718  0.6112 -0.1245
  788MPD2    C211616   2.710   1.444   0.994 -0.0829  0.5864  0.4923
  788MPD2    C311617   2.795   1.545   0.988 -0.6553 -0.1729  0.3781
  788MPD2    C411618   2.879   1.566   1.097  0.1358 -0.0829  0.3725
  788MPD2    C511619   2.877   1.481   1.202 -0.2839  0.4812  0.1929
  788MPD2     H11620   2.634   1.430   0.917 -0.9938  0.3362  1.4378
  788MPD2    H111621   2.954   1.645   1.090  0.1110 -0.2738 -1.8077
  788MPD2    H211622   2.767   1.324   1.308 -0.9985  0.5438  0.6163
  788MPD2    H311623   2.945   1.490   1.286 -0.3569 -1.3961  0.4535
  788MPD2     N11624   2.799   1.642   0.885  0.0616  0.4524  0.8368
  788MPD2    H511625   2.875   1.708   0.890  0.6060 -0.0548 -0.7600
  788MPD2    N111626   2.623   1.235   1.080 -0.0710  0.3120 -0.1758
  788MPD2    H711627   2.582   1.227   0.988  0.9138 -3.4604 -0.3065
  789MPD2     C11628   3.771   1.524  16.314 -0.0586  0.8740  0.6477
  789MPD2    C111629   3.711   1.521  16.438 -0.4173 -0.5873 -0.2790
  789MPD2    C211630   3.616   1.617  16.477 -0.1193  0.1293 -0.4863
  789MPD2    C311631   3.588   1.729  16.394  0.2711  0.2229 -0.2201
  789MPD2    C411632   3.649   1.723  16.269  1.1258 -1.0794  0.2097
  789MPD2    C511633   3.728   1.625  16.222 -0.1587  0.0776  0.8631
  789MPD2     H11634   3.564   1.600  16.571 -0.1968  2.2113 -0.1536
  789MPD2    H111635   3.600   1.781  16.191  3.7664  2.5446  1.2356
  789MPD2    H211636   3.841   1.456  16.267 -1.7095  1.0129 -2.0652
  789MPD2    H311637   3.770   1.622  16.122  1.0475  0.6521  1.3604
  789MPD2     N11638   3.499   1.834  16.423  0.0204  0.0733 -0.1303
  789MPD2    H511639   3.472   1.893  16.345  0.7950 -1.4003 -1.5197
  789MPD2    N111640   3.737   1.412  16.519  0.5498 -0.3256 -0.5757
  789MPD2    H711641   3.683   1.397  16.604  0.4841 -2.1968 -0.9632
  790MPD2     C11642   4.508   4.011  13.336  0.3644  1.0957  0.1735
  790MPD2    C111643   4.583   3.904  13.296 -0.5710  0.8645  0.2799
  790MPD2    C211644   4.590   3.865  13.162 -0.2740 -0.6247  0.2197
  790MPD2    C311645   4.522   3.942  13.064 -0.0731  0.2925 -0.2418
  790MPD2    C411646   4.456   4.055  13.111  0.4563  0.2166 -0.4002
  790MPD2    C511647   4.449   4.087  13.243 -0.5949  0.5107  0.4814
  790MPD2     H11648   4.641   3.772  13.138 -1.3230 -0.7410 -1.6190
  790MPD2    H111649   4.394   4.119  13.049  0.4729  2.0421  1.4744
  790MPD2    H211650   4.512   4.037  13.441 -0.5702 -1.5042  0.8696
  790MPD2    H311651   4.385   4.171  13.268  0.5526  2.3319 -2.6567
  790MPD2     N11652   4.513   3.910  12.934 -0.1447  0.0638  0.1229
  790MPD2    H511653   4.578   3.842  12.896  0.4012  0.9624 -0.5257
  790MPD2    N111654   4.646   3.826  13.400 -0.0798 -0.5490  0.6274
  790MPD2    H711655   4.615   3.842  13.495 -0.5101 -2.8553  0.8749
  791MPD2     C11656   3.836   4.008  12.556 -0.3328 -0.2111  0.0818
  791MPD2    C111657   3.923   3.942  12.465 -0.0608 -0.0295 -0.1572
  791MPD2    C211658   3.868   3.876  12.357 -0.3197  0.0015  0.0825
  791MPD2    C311659   3.733   3.868  12.332 -0.1541 -0.4883 -0.1343
  791MPD2    C411660   3.646   3.940  12.416 -0.4822  0.6180 -0.0206
  791MPD2    C511661   3.700   4.004  12.524  0.4371 -0.3038 -0.0509
  791MPD2     H11662   3.943   3.829  12.295 -1.7204 -2.4027  0.1938
  791MPD2    H111663   3.537   3.940  12.409 -0.4256 -1.7693 -0.9516
  791MPD2    H211664   3.875   4.065  12.639  0.6617 -0.8033  0.0140
  791MPD2    H311665   3.636   4.047  12.600  0.5450  1.3507 -0.9049
  791MPD2     N11666   3.681   3.771  12.238  0.0766  0.3715  0.1478
  791MPD2    H511667   3.747   3.717  12.182  1.5029  0.5048  1.7208
  791MPD2    N111668   4.064   3.948  12.497  0.3348  0.3488  0.1328
  791MPD2    H711669   4.078   4.026  12.560  0.4934 -1.1914  1.9964
  792MPD2     C11670   0.481   3.159   9.903  0.4706  0.0072  0.2321
  792MPD2    C111671   0.438   3.111  10.026 -0.0682 -0.5598  0.1166
  792MPD2    C211672   0.377   2.983  10.029 -0.8053 -0.1675 -0.3365
  792MPD2    C311673   0.345   2.911   9.914  0.5290  0.4927 -0.1849
  792MPD2    C411674   0.394   2.967   9.790  0.2522  1.1163  0.5756
  792MPD2    C511675   0.463   3.088   9.790 -0.1487  0.6880 -0.1244
  792MPD2     H11676   0.352   2.937  10.124  0.9064 -0.9958 -0.2797
  792MPD2    H111677   0.388   2.917   9.694 -0.0510  2.6218 -0.2018
  792MPD2    H211678   0.517   3.260   9.889  1.9961 -0.5668  0.0163
  792MPD2    H311679   0.492   3.123   9.691  2.1513 -0.9004 -0.0080
  792MPD2     N11680   0.292   2.778   9.912  0.2183  0.0237 -0.7216
  792MPD2    H511681   0.304   2.723   9.827  0.3708 -0.9856 -0.0513
  792MPD2    N111682   0.455   3.190  10.141  0.3830 -0.2442 -0.0108
  792MPD2    H711683   0.501   3.279  10.122 -0.2985 -0.5127 -2.8748
  793MPD2     C11684   0.544   2.157   9.349  0.0358 -0.2640 -0.1563
  793MPD2    C111685   0.614   2.199   9.463  0.5189 -0.3755  0.6740
  793MPD2    C211686   0.553   2.274   9.559 -1.0491 -0.1223 -0.7050
  793MPD2    C311687   0.414   2.288   9.556 -0.1524 -0.3503 -0.0064
  793MPD2    C411688   0.338   2.238   9.449 -0.0435 -0.0313 -0.2915
  793MPD2    C511689   0.408   2.181   9.349 -0.5647  0.3857 -0.4092
  793MPD2     H11690   0.597   2.312   9.650  0.6727  1.1150 -2.0539
  793MPD2    H111691   0.236   2.273   9.437  0.5891  1.6813 -0.8238
  793MPD2    H211692   0.588   2.100   9.267  0.6749 -0.8805  0.6151
  793MPD2    H311693   0.352   2.149   9.261 -1.1713  5.0441 -1.7379
  793MPD2     N11694   0.349   2.346   9.667 -0.2061 -0.2489 -0.1815
  793MPD2    H511695   0.406   2.380   9.744 -1.3887  0.2767  0.4642
  793MPD2    N111696   0.752   2.169   9.480 -0.1892  0.0101 -0.1757
  793MPD2    H711697   0.789   2.217   9.561 -0.8151  0.2273 -0.0117
  794MPD2     C11698   4.592   2.942  16.551  0.0389 -0.1841 -0.5117
  794MPD2    C111699   4.457   2.943  16.586 -0.8183 -0.2338  0.3705
  794MPD2    C211700   4.364   2.977  16.491  0.5200 -0.6740  0.6787
  794MPD2    C311701   4.405   3.004  16.360 -0.6833  0.3835  1.2934
  794MPD2    C411702   4.534   3.012  16.333  0.2983  0.5792 -1.3990
  794MPD2    C511703   4.629   2.982  16.424 -0.0556  0.4256  0.2669
  794MPD2     H11704   4.259   2.978  16.518 -0.1843 -0.3424 -2.0185
  794MPD2    H111705   4.563   3.055  16.237 -0.5428  0.1675 -1.8415
  794MPD2    H211706   4.668   2.924  16.626 -0.6183 -1.3744 -0.1365
  794MPD2    H311707   0.009   2.979  16.397 -0.2145 -0.4135 -0.2426
  794MPD2     N11708   4.320   3.061  16.266  0.2328  0.2233  0.3315
  794MPD2    H511709   4.349   3.069  16.169  1.4409  0.0325  0.6795
  794MPD2    N111710   4.404   2.913  16.719  0.2499  0.3781 -0.3903
  794MPD2    H711711   4.303   2.916  16.719  0.2607  0.4294  2.2325
  795MPD2     C11712   2.706   0.402  12.932  0.2049 -0.4586  0.2671
  795MPD2    C111713   2.639   0.351  13.047  0.6681  0.3716  0.1267
  795MPD2    C211714   2.710   0.267  13.137  0.3605 -0.0658 -0.4940
  795MPD2    C311715   2.842   0.247  13.120 -0.0194 -0.3648  0.6857
  795MPD2    C411716   2.912   0.308  13.015  0.1238 -0.2781 -1.2752
  795MPD2    C511717   2.840   0.376  12.920 -0.4533  0.6316 -0.6076
  795MPD2     H11718   2.661   0.223  13.224 -1.3840 -0.1768 -1.5209
  795MPD2    H111719   3.019   0.302  13.001  0.4097 -1.1495  1.3169
  795MPD2    H211720   2.660   0.465  12.858  1.2490 -0.2872 -0.2470
  795MPD2    H311721   2.905   0.419  12.844  1.1123 -1.2331 -0.3288
  795MPD2     N11722   2.907   0.178  13.227  0.1746  0.3169  0.4174
  795MPD2    H511723   2.846   0.123  13.287  0.9116  0.3921  1.2367
  795MPD2    N111724   2.502   0.379  13.073 -0.4121  0.2379 -0.2944
  795MPD2    H711725   2.467   0.347  13.163  1.6294  1.5578  0.9766
  796MPD2     C11726   2.196   1.712  15.891  0.4375 -0.3904 -0.4642
  796MPD2    C111727   2.157   1.787  15.998  0.3666 -0.3011  0.4991
  796MPD2    C211728   2.105   1.916  15.987 -0.3005 -0.7370  0.6849
  796MPD2    C311729   2.091   1.980  15.864  0.0993  0.2885  0.4426
  796MPD2    C411730   2.129   1.900  15.756 -0.3426 -0.6716  0.1696
  796MPD2    C511731   2.179   1.772  15.769  0.4496  0.0209  0.2821
  796MPD2     H11732   2.095   1.979  16.075  0.1090  1.6110 -0.9327
  796MPD2    H111733   2.112   1.939  15.657  0.6485  1.0368  0.6753
  796MPD2    H211734   2.249   1.618  15.896  4.2347  1.7679  0.2602
  796MPD2    H311735   2.214   1.731  15.675  1.2826 -1.5723  1.2930
  796MPD2     N11736   2.045   2.118  15.851  0.4547 -0.1334 -0.0080
  796MPD2    H511737   2.035   2.150  15.755  1.4623 -3.0158 -1.0585
  796MPD2    N111738   2.177   1.715  16.119  0.6578  0.6230 -0.0621
  796MPD2    H711739   2.217   1.621  16.112 -1.1298 -0.0557 -1.1921
  797MPD2     C11740   2.330   0.850  17.691  0.5308  0.1113  0.8975
  797MPD2    C111741   2.439   0.928   0.009 -0.2844 -0.2853 -0.2469
  797MPD2    C211742   2.438   1.056  17.657  0.2636 -0.7758 -0.2310
  797MPD2    C311743   2.338   1.115  17.585  0.8125  0.5707  0.9193
  797MPD2    C411744   2.231   1.032  17.567 -0.9309  0.0839 -0.0153
  797MPD2    C511745   2.227   0.899  17.611 -0.1561 -0.7599 -0.1130
  797MPD2     H11746   2.527   1.116  17.673  0.1747 -0.6407 -0.2447
  797MPD2    H111747   2.150   1.074  17.508 -1.2063  0.3100  0.5164
  797MPD2    H211748   2.330   0.743   0.008  0.0875 -0.4937 -2.5803
  797MPD2    H311749   2.145   0.836  17.578 -0.2981 -1.0949  0.8755
  797MPD2     N11750   2.357   1.244  17.540  0.9438  0.7428  0.0177
  797MPD2    H511751   2.432   1.287  17.592  0.4700 -0.3179  1.5696
  797MPD2    N111752   2.556   0.887   0.077 -0.2173 -1.0431  0.3020
  797MPD2    H711753   2.635   0.951   0.079  0.6526 -2.1237  0.8678
  798MPD2     C11754   2.926   1.527   0.103 -0.6029 -1.6080  0.5724
  798MPD2    C111755   2.814   1.456   0.063  0.0117 -0.0984  0.1323
  798MPD2    C211756   2.808   1.325   0.099  0.0954 -0.0214 -0.0400
  798MPD2    C311757   2.889   1.264   0.191  0.6378 -0.1615 -0.6426
  798MPD2    C411758   2.997   1.340   0.239  0.5563  0.3578 -0.2167
  798MPD2    C511759   3.012   1.471   0.198 -0.1563  0.4087  0.6080
  798MPD2     H11760   2.721   1.271   0.064 -0.0601  0.1736  0.0455
  798MPD2    H111761   3.074   1.304   0.306 -2.1874 -3.0279  1.0903
  798MPD2    H211762   2.923   1.635   0.088  0.1539 -1.8079 -0.9488
  798MPD2    H311763   3.079   1.545   0.242 -1.8244  2.2695  0.0434
  798MPD2     N11764   2.867   1.130   0.221 -0.0111 -0.0715  0.1353
  798MPD2    H511765   2.801   1.088   0.156  0.8399 -3.0466  1.1986
  798MPD2    N111766   2.716   1.522  17.685 -0.6136  0.4527 -0.2994
  798MPD2    H711767   2.742   1.611  17.645 -1.1414  1.0834  0.7432
  799MPD2     C11768   1.645   3.014  14.549  0.0893 -0.1218  0.5055
  799MPD2    C111769   1.557   2.913  14.526  0.3732  0.0292  0.5548
  799MPD2    C211770   1.450   2.930  14.443  0.4683  0.0164  0.0352
  799MPD2    C311771   1.438   3.043  14.369  0.1041 -0.4238  0.0446
  799MPD2    C411772   1.529   3.148  14.382  0.8171 -0.3014 -0.4215
  799MPD2    C511773   1.625   3.135  14.479  0.3530  0.3551  0.0579
  799MPD2     H11774   1.384   2.848  14.418 -0.9216  0.5429  2.0299
  799MPD2    H111775   1.526   3.237  14.321 -0.1144  0.2654  0.4453
  799MPD2    H211776   1.719   3.006  14.628  0.3577 -3.0920 -0.0595
  799MPD2    H311777   1.689   3.221  14.496 -0.3425  0.3193  2.7968
  799MPD2     N11778   1.348   3.053  14.266 -0.9516 -0.8770  0.3888
  799MPD2    H511779   1.358   3.139  14.212 -0.4987 -1.6270 -0.7136
  799MPD2    N111780   1.566   2.787  14.590 -0.5094 -0.0368 -0.0607
  799MPD2    H711781   1.489   2.721  14.581  1.3727 -2.1327 -0.9262
  800MPD2     C11782   2.143   0.064  13.914  0.4024 -0.4659 -0.1822
  800MPD2    C111783   2.271   0.019  13.928 -0.1549 -0.6198  0.7679
  800MPD2    C211784   2.305   4.615  13.891  0.0548 -0.1535  0.5903
  800MPD2    C311785   2.205   4.528  13.852  0.6070  0.5743 -0.2238
  800MPD2    C411786   2.082   4.577  13.832  0.3471  0.1991  0.5333
  800MPD2    C511787   2.058   4.708  13.861  0.1025 -0.4317 -0.4433
  800MPD2     H11788   2.404   4.571  13.883  0.3012  0.7662 -1.2720
  800MPD2    H111789   1.998   4.519  13.793 -0.5307  0.8720  1.4251
  800MPD2    H211790   2.111   0.163  13.946  0.4529 -1.2437  2.2965
  800MPD2    H311791   1.951   0.003  13.860 -0.1191 -1.4089  2.7051
  800MPD2     N11792   2.233   4.389  13.840  0.6946  0.7262 -0.6834
  800MPD2    H511793   2.328   4.361  13.863 -0.1470  0.8045  2.8636
  800MPD2    N111794   2.373   0.099  13.981  0.2834  0.0069 -0.2292
  800MPD2    H711795   2.347   0.190  14.015 -0.2680 -1.1139  2.3433
  801MPD2     C11796   2.276   0.315  14.667 -0.4181 -0.4066 -0.5333
  801MPD2    C111797   2.244   0.267  14.539  0.1783  0.3214  0.0244
  801MPD2    C211798   2.112   0.239  14.509  0.0865 -0.2491 -0.8800
  801MPD2    C311799   2.010   0.257  14.607  0.3852 -0.8998 -0.7425
  801MPD2    C411800   2.047   0.307  14.728 -0.0768 -0.3667  0.4066
  801MPD2    C511801   2.183   0.335  14.759 -0.5785  0.3051  0.4445
  801MPD2     H11802   2.082   0.200  14.413  0.7635 -0.6689 -0.9225
  801MPD2    H111803   1.979   0.333  14.809  0.5471 -1.1076  1.1718
  801MPD2    H211804   2.380   0.334  14.692 -0.9393  1.4486  0.2112
  801MPD2    H311805   2.212   0.379  14.853  1.5929 -2.0373  0.8771
  801MPD2     N11806   1.875   0.239  14.588  1.0424 -0.3423  0.3912
  801MPD2    H511807   1.822   0.248  14.674  0.8293 -2.0408  0.4350
  801MPD2    N111808   2.340   0.248  14.438 -0.4796 -0.2368 -0.6297
  801MPD2    H711809   2.302   0.203  14.355  0.3263  1.6944 -2.0520
  802MPD2     C11810   1.288   4.042  17.203  0.3510 -0.5770  0.5048
  802MPD2    C111811   1.387   4.142  17.187  0.9765 -0.1050  0.2784
  802MPD2    C211812   1.497   4.110  17.108  0.2757 -0.3335 -0.6317
  802MPD2    C311813   1.499   3.992  17.038 -0.9746 -0.7769  0.6176
  802MPD2    C411814   1.404   3.899  17.057 -0.5559  0.1879  0.2021
  802MPD2    C511815   1.303   3.919  17.146 -0.2781  0.2282  0.7353
  802MPD2     H11816   1.582   4.174  17.089  0.6315 -0.8698 -0.8456
  802MPD2    H111817   1.394   3.806  17.002  0.3412  0.4739 -0.4468
  802MPD2    H211818   1.209   4.044  17.277 -0.2923  0.3029 -0.2120
  802MPD2    H311819   1.232   3.839  17.165  1.0537 -0.9760  0.5766
  802MPD2     N11820   1.601   3.968  16.943  0.4871  0.0477 -0.2665
  802MPD2    H511821   1.675   4.035  16.922 -1.1579  2.2938  1.0534
  802MPD2    N111822   1.389   4.266  17.252 -0.1790  0.2777  0.4777
  802MPD2    H711823   1.472   4.322  17.236 -0.1848  0.3433  0.6691
  803MPD2     C11824   2.747   3.346  11.261 -0.4582 -0.9296 -0.3078
  803MPD2    C111825   2.827   3.361  11.373 -0.5312  0.3638  0.6045
  803MPD2    C211826   2.805   3.268  11.471  0.3520 -0.2454  0.5822
  803MPD2    C311827   2.698   3.173  11.469  0.3152 -0.8175  0.3084
  803MPD2    C411828   2.626   3.162  11.351 -0.1791 -0.6588  0.3211
  803MPD2    C511829   2.644   3.252  11.250  0.3761  0.1233 -0.1692
  803MPD2     H11830   2.869   3.281  11.557 -0.6996  1.7945  1.0560
  803MPD2    H111831   2.547   3.088  11.352 -2.1103  1.4195  1.9778
  803MPD2    H211832   2.752   3.411  11.174 -1.0013 -0.7331 -0.1947
  803MPD2    H311833   2.584   3.250  11.160  0.6909  2.5989 -0.4308
  803MPD2     N11834   2.674   3.089  11.568  0.1755  0.5136 -0.0689
  803MPD2    H511835   2.590   3.031  11.572  1.1639 -0.9021  0.0970
  803MPD2    N111836   2.925   3.458  11.390  0.3530  0.1016 -0.2183
  803MPD2    H711837   2.972   3.467  11.480  0.5239 -1.3947 -0.1485
  804MPD2     C11838   2.244   4.368  16.574 -0.4812 -0.3756 -0.1430
  804MPD2    C111839   2.337   4.370  16.679  0.2161 -0.0411 -0.1135
  804MPD2    C211840   2.388   4.493  16.718  0.8120  0.1596  0.3897
  804MPD2    C311841   2.340   4.605  16.653 -0.6857 -0.1426  0.0087
  804MPD2    C411842   2.258   4.602  16.541  0.2822 -0.6141  0.2615
  804MPD2    C511843   2.211   4.479  16.506 -0.0842 -1.0616  0.5085
  804MPD2     H11844   2.464   4.494  16.796  0.7389 -2.1733  0.4872
  804MPD2    H111845   2.223   4.691  16.488  0.3858 -0.4980  0.3873
  804MPD2    H211846   2.195   4.277  16.542 -0.4977 -0.4846  0.1944
  804MPD2    H311847   2.137   4.474  16.428 -0.2240 -0.6552  0.6144
  804MPD2     N11848   2.377   4.724  16.714 -0.7248 -0.9379 -0.0245
  804MPD2    H511849   2.445   4.718  16.789  0.1539  2.0718 -0.5683
  804MPD2    N111850   2.375   4.253  16.746  0.2396 -0.0348  0.1106
  804MPD2    H711851   2.436   4.260  16.827 -0.4359 -2.1081  0.8051
  805MPD2     C11852   1.328   3.053  15.567 -0.6887  0.1262 -0.3893
  805MPD2    C111853   1.423   3.076  15.472 -0.5093  0.0260  0.7608
  805MPD2    C211854   1.548   3.127  15.513 -0.1134 -0.1615  0.4657
  805MPD2    C311855   1.573   3.153  15.645  0.5747  0.4267  0.2076
  805MPD2    C411856   1.476   3.139  15.737  0.2587  0.8789  0.2767
  805MPD2    C511857   1.353   3.085  15.699 -0.3185  0.1141  0.1732
  805MPD2     H11858   1.612   3.144  15.428 -1.4166 -0.0761 -0.5042
  805MPD2    H111859   1.478   3.179  15.838  2.2874  1.1794  0.1193
  805MPD2    H211860   1.231   3.012  15.541 -1.5672  1.4609  0.7671
  805MPD2    H311861   1.272   3.073  15.769 -1.2762  1.5504 -0.6902
  805MPD2     N11862   1.703   3.183  15.678  0.2709  0.1546 -0.1099
  805MPD2    H511863   1.772   3.192  15.604  0.9344  0.0928  0.5028
  805MPD2    N111864   1.401   3.040  15.335  0.1746 -0.6037 -0.3847
  805MPD2    H711865   1.472   3.046  15.263 -1.6233 -0.5937 -2.1771
  806MPD2     C11866   1.566   2.097   0.065  0.5303 -0.0630 -0.4701
  806MPD2    C111867   1.601   2.224   0.114  0.0213  0.1394  0.0216
  806MPD2    C211868   1.715   2.289   0.064  0.5783  0.9988  0.5437
  806MPD2    C311869   1.791   2.234  17.669 -0.0697 -0.3712  0.1301
  806MPD2    C411870   1.764   2.103  17.627  0.7859  0.2075 -0.2439
  806MPD2    C511871   1.652   2.040  17.675  0.2247 -0.5404  0.2282
  806MPD2     H11872   1.724   2.394   0.091  2.7138  1.1396 -0.7795
  806MPD2    H111873   1.822   2.050  17.552 -0.7032 -3.1302  1.0077
  806MPD2    H211874   1.481   2.042   0.104 -0.2747  1.9978  0.6653
  806MPD2    H311875   1.620   1.950  17.625  0.1065  0.2980 -1.2021
  806MPD2     N11876   1.889   2.320  17.606 -0.1534 -0.0000  0.7718
  806MPD2    H511877   1.881   2.418  17.633 -0.3502 -0.3152  1.8502
  806MPD2    N111878   1.530   2.267   0.228 -0.8423  0.5970 -0.0889
  806MPD2    H711879   1.448   2.210   0.249 -1.4634  0.3760 -3.1309
  807MPD2     C11880   1.362   1.968   0.782 -0.4875 -1.0005 -0.8834
  807MPD2    C111881   1.402   2.098   0.811 -0.1641 -0.8165  0.6735
  807MPD2    C211882   1.484   2.114   0.922  0.1893  0.3175  0.2203
  807MPD2    C311883   1.525   2.010   1.002  0.0454 -0.7122  0.8680
  807MPD2    C411884   1.476   1.884   0.973 -0.3647 -0.4032 -0.5476
  807MPD2    C511885   1.392   1.861   0.866 -0.1478 -0.8089 -0.1454
  807MPD2     H11886   1.514   2.214   0.949  0.8268 -0.1533  1.2706
  807MPD2    H111887   1.511   1.801   1.034 -1.6143 -0.8115 -0.3927
  807MPD2    H211888   1.283   1.967   0.708  0.8783 -1.1286 -2.3463
  807MPD2    H311889   1.354   1.761   0.848 -1.1237  0.0035 -2.4661
  807MPD2     N11890   1.600   2.028   1.116 -0.3193 -0.4475 -0.0686
  807MPD2    H511891   1.612   2.124   1.148  2.3469 -0.4122 -1.1463
  807MPD2    N111892   1.360   2.213   0.744  0.6272 -0.0149  0.1240
  807MPD2    H711893   1.386   2.302   0.783 -2.1372 -0.1958  2.3921
  808MPD2     C11894   2.842   3.872   9.695 -0.5176  0.2348  0.2826
  808MPD2    C111895   2.823   3.840   9.562  0.1644 -0.7038 -0.0011
  808MPD2    C211896   2.741   3.924   9.488  0.0036  0.6130  0.1843
  808MPD2    C311897   2.674   4.032   9.544  0.4869  0.0380  0.1965
  808MPD2    C411898   2.694   4.053   9.678  0.3959 -0.1595  0.0231
  808MPD2    C511899   2.786   3.989   9.749 -0.7062 -0.7027 -0.1343
  808MPD2     H11900   2.713   3.888   9.390  0.7917  1.0767 -0.2100
  808MPD2    H111901   2.639   4.127   9.735  2.2885 -1.0755  3.0796
  808MPD2    H211902   2.909   3.819   9.762 -0.3591  0.6693  0.4721
  808MPD2    H311903   2.813   4.011   9.852 -0.3124  0.8692 -0.5743
  808MPD2     N11904   2.597   4.122   9.469  0.9090 -1.0987  0.3313
  808MPD2    H511905   2.570   4.205   9.521 -1.5652 -0.5186 -1.9142
  808MPD2    N111906   2.871   3.718   9.504 -0.1376  0.4978  0.0907
  808MPD2    H711907   2.867   3.699   9.404  0.2183  0.6984  0.0368
  809MPD2     C11908   2.857   0.113   8.866 -0.7098  0.4449  0.2814
  809MPD2    C111909   2.888   0.002   8.942 -0.1732 -0.0132  0.5890
  809MPD2    C211910   2.789   4.653   8.997  0.0829 -0.1649  0.1910
  809MPD2    C311911   2.656   4.670   8.970  0.2808 -0.4106  0.3490
  809MPD2    C411912   2.623   0.068   8.916  0.3614  0.1323  0.2058
  809MPD2    C511913   2.720   0.146   8.861 -0.1050 -0.6881  0.4719
  809MPD2     H11914   2.815   4.571   9.062 -0.2248 -0.2208  0.2440
  809MPD2    H111915   2.519   0.097   8.905  0.5021 -0.1337 -1.6617
  809MPD2    H211916   2.929   0.174   8.812  0.6579 -0.0368  1.5535
  809MPD2    H311917   2.699   0.238   8.807 -1.7073 -1.5734 -0.4358
  809MPD2     N11918   2.560   4.578   9.015 -0.4528  0.5633  0.3532
  809MPD2    H511919   2.472   4.623   9.035 -0.9641 -0.4468  0.3825
  809MPD2    N111920   3.018   4.687   8.974 -0.2593 -0.4676 -0.9048
  809MPD2    H711921   3.029   4.612   9.042  1.7708 -0.3511 -1.0948
  810MPD2     C11922   1.790   3.290  11.100 -0.0761  0.0932  0.4238
  810MPD2    C111923   1.857   3.337  10.995  1.1748  0.2683  0.3259
  810MPD2    C211924   1.828   3.473  10.954 -0.4462  0.5283  0.1380
  810MPD2    C311925   1.721   3.544  11.009 -0.3808 -1.0946  0.1930
  810MPD2    C411926   1.647   3.480  11.099 -0.1039 -0.3488  0.3220
  810MPD2    C511927   1.691   3.362  11.155  0.4938 -0.7662 -0.6367
  810MPD2     H11928   1.896   3.516  10.882  0.2696 -2.0447 -0.7219
  810MPD2    H111929   1.565   3.536  11.143 -0.0748 -0.2954  0.3070
  810MPD2    H211930   1.813   3.191  11.138  2.1208 -1.0203 -3.8058
  810MPD2    H311931   1.652   3.306  11.240  0.4376 -1.1825 -0.9390
  810MPD2     N11932   1.688   3.671  10.964  0.4231  1.0385  0.6634
  810MPD2    H511933   1.610   3.715  11.012 -0.3800  0.5272 -0.1739
  810MPD2    N111934   1.950   3.247  10.930  0.2934  0.5927  0.8086
  810MPD2    H711935   1.964   3.154  10.970 -0.7894  0.3817  0.7028
  811MPD2     C11936   2.399   3.051  10.167 -0.3023  0.0190 -0.6054
  811MPD2    C111937   2.376   3.136  10.266  0.5394 -0.5045  0.0972
  811MPD2    C211938   2.352   3.273  10.242  0.1794  0.0587  0.3837
  811MPD2    C311939   2.346   3.317  10.104  0.3444  0.1300  0.3178
  811MPD2    C411940   2.375   3.226  10.005  0.3746  0.5084 -0.5794
  811MPD2    C511941   2.403   3.098  10.040  0.4613  0.0601 -0.4008
  811MPD2     H11942   2.332   3.339  10.326 -0.1953  0.9225 -0.3821
  811MPD2    H111943   2.375   3.250   9.899 -1.5070 -3.1090 -1.4005
  811MPD2    H211944   2.407   2.943  10.177 -0.9713  0.0090 -0.1414
  811MPD2    H311945   2.428   3.036   9.954 -1.4886  0.3758 -1.1928
  811MPD2     N11946   2.303   3.448  10.071 -0.5709 -0.3697 -0.2107
  811MPD2    H511947   2.271   3.506  10.148 -0.8476  0.4934 -0.9695
  811MPD2    N111948   2.354   3.083  10.394  0.4167 -0.1852 -0.5050
  811MPD2    H711949   2.336   2.983  10.393 -2.6488  0.3881 -1.2154
  812MPD2     C11950   0.650   3.238  11.960 -0.2942  0.3186 -0.5152
  812MPD2    C111951   0.584   3.355  11.970  0.5184 -0.2099 -0.4496
  812MPD2    C211952   0.515   3.380  12.083 -0.0484 -0.0992 -0.1775
  812MPD2    C311953   0.521   3.296  12.195  0.2020  0.0688 -0.1090
  812MPD2    C411954   0.594   3.182  12.181  0.5633 -0.0315  0.8263
  812MPD2    C511955   0.657   3.153  12.062 -0.5708 -0.4825  0.5110
  812MPD2     H11956   0.449   3.465  12.094 -1.5855 -1.2240 -0.7924
  812MPD2    H111957   0.582   3.102  12.253  1.5841 -1.5102 -0.6278
  812MPD2    H211958   0.704   3.206  11.871 -1.3325 -2.5395 -0.1064
  812MPD2    H311959   0.703   3.058  12.040 -0.3801 -0.1045 -0.7422
  812MPD2     N11960   0.444   3.321  12.321 -0.1349 -0.6229 -0.0210
  812MPD2    H511961   0.384   3.403  12.315 -0.6182 -1.1027 -2.0615
  812MPD2    N111962   0.582   3.447  11.865  0.2586  0.1222  0.5310
  812MPD2    H711963   0.532   3.534  11.879 -0.5072  0.1863 -2.5351
  813MPD2     C11964   4.671   0.939  12.737  0.6539 -0.5037 -0.6087
  813MPD2    C111965   4.658   1.068  12.775  0.2706 -0.0953  0.8463
  813MPD2    C211966   4.595   1.092  12.898  0.1480  0.3618 -0.4399
  813MPD2    C311967   4.554   0.998  12.982 -0.6571  0.2749 -0.4444
  813MPD2    C411968   4.565   0.869  12.943  0.1953  0.4485  0.0399
  813MPD2    C511969   4.627   0.842  12.824 -0.7960  0.1376  0.2880
  813MPD2     H11970   4.586   1.195  12.928 -0.5978 -0.1007  0.9336
  813MPD2    H111971   4.539   0.782  13.002  0.5945 -0.1092 -0.6123
  813MPD2    H211972   4.698   0.910  12.636  0.3983 -0.7755 -0.6017
  813MPD2    H311973   4.637   0.739  12.790  1.8527  1.0524 -1.7464
  813MPD2     N11974   4.478   1.038  13.099  0.7656 -0.0310  0.1710
  813MPD2    H511975   4.465   1.137  13.114  0.5529  0.0983 -0.9330
  813MPD2    N111976   4.716   1.176  12.705 -0.1257  0.0955  0.2906
  813MPD2    H711977   4.701   1.263  12.755  0.7040  0.3963  0.0185
  814MPD2     C11978   0.101   1.856  12.230  0.8820 -0.1275  0.0718
  814MPD2    C111979   0.079   1.954  12.142  0.2593  0.0898  1.0131
  814MPD2    C211980   0.101   2.090  12.181  0.4853  0.1821  0.4326
  814MPD2    C311981   0.150   2.114  12.309  0.1987 -0.1680 -0.5166
  814MPD2    C411982   0.182   2.011  12.392 -0.4369  0.1751  0.4472
  814MPD2    C511983   0.146   1.883  12.357 -0.0874  0.1709  0.5926
  814MPD2     H11984   0.080   2.164  12.105 -0.8064 -2.0698 -1.4130
  814MPD2    H111985   0.224   2.028  12.491 -1.6042  4.7834  0.1460
  814MPD2    H211986   0.077   1.751  12.216 -2.2466  0.4830  0.7622
  814MPD2    H311987   0.167   1.799  12.422 -2.3928 -0.5445  0.4302
  814MPD2     N11988   0.184   2.245  12.360  0.4183  0.0156  0.1968
  814MPD2    H511989   0.192   2.249  12.461  1.2494  0.2868  0.1272
  814MPD2    N111990   0.048   1.919  12.013 -0.2724  0.5807 -0.2177
  814MPD2    H711991   0.067   1.983  11.936  0.0419  1.0190  0.2261
  815MPD2     C11992   0.729   4.659  11.808 -0.2922 -0.1674 -0.1234
  815MPD2    C111993   0.620   4.623  11.725  0.5493  0.2559 -0.1630
  815MPD2    C211994   0.492   4.631  11.769 -0.0746 -0.4867 -0.0535
  815MPD2    C311995   0.466   4.686  11.892 -0.0810 -0.0163 -0.3748
  815MPD2    C411996   0.575   4.722  11.977  0.3559  0.0176  0.5436
  815MPD2    C511997   0.700   4.699  11.932 -0.0633  0.4902 -0.1282
  815MPD2     H11998   0.416   4.601  11.697  0.6167 -1.5995 -0.3235
  815MPD2    H111999   0.573   0.033  12.079  0.0704 -2.1515  1.2925
  815MPD2    H212000   0.830   4.655  11.768  0.4375 -0.7344  1.7501
  815MPD2    H312001   0.789   0.004  11.986  0.0190 -0.8944  0.5184
  815MPD2     N12002   0.329   4.709  11.924 -0.4756  0.3622  0.3060
  815MPD2    H512003   0.266   4.682  11.849  2.2537 -0.5521 -1.6690
  815MPD2    N112004   0.646   4.548  11.610  0.2160 -0.4567  0.0532
  815MPD2    H712005   0.733   4.498  11.594 -0.1600 -0.2249 -2.6696
  816MPD2     C12006   0.403   3.691  17.208  0.2821  0.8219 -0.0629
  816MPD2    C112007   0.493   3.796  17.223 -0.8634 -0.3500 -0.8777
  816MPD2    C212008   0.628   3.778  17.201 -0.2809 -0.3771 -0.4022
  816MPD2    C312009   0.680   3.655  17.168  0.2002  0.7172 -0.2022
  816MPD2    C412010   0.596   3.549  17.160  0.3353  0.4341 -0.2548
  816MPD2    C512011   0.462   3.566  17.190  0.3710  0.2628  0.1626
  816MPD2     H12012   0.690   3.867  17.198  0.3964 -0.8649 -0.8880
  816MPD2    H112013   0.635   3.450  17.145  0.0484  0.5033 -1.4595
  816MPD2    H212014   0.296   3.706  17.216  0.2421  0.9590 -0.8902
  816MPD2    H312015   0.401   3.478  17.175  2.9004 -1.8967  2.4626
  816MPD2     N12016   0.821   3.643  17.136 -0.6686 -0.2179 -0.1435
  816MPD2    H512017   0.883   3.722  17.152 -0.7436 -0.3265  0.7170
  816MPD2    N112018   0.437   3.927  17.244 -0.1633 -0.7370  0.0238
  816MPD2    H712019   0.336   3.933  17.234 -0.3060 -1.9988  0.7281
  817MPD2     C12020   1.324   0.505   9.489  0.6905 -0.0053 -0.1944
  817MPD2    C112021   1.185   0.523   9.488  0.8370  0.0851 -0.2398
  817MPD2    C212022   1.139   0.648   9.456 -0.3459 -0.5535  0.3211
  817MPD2    C312023   1.221   0.757   9.435 -0.0853  0.6908  0.3406
  817MPD2    C412024   1.355   0.736   9.440  0.0231  0.0778  0.1715
  817MPD2    C512025   1.404   0.610   9.468  0.0484 -0.6353  0.1513
  817MPD2     H12026   1.033   0.650   9.435  0.2766 -0.7810 -2.7495
  817MPD2    H112027   1.425   0.811   9.406  0.2684  0.5165  1.6404
  817MPD2    H212028   1.375   0.410   9.502 -2.2896 -1.6983 -0.7431
  817MPD2    H312029   1.511   0.598   9.472  0.1508 -0.1641 -1.3516
  817MPD2     N12030   1.159   0.880   9.406 -0.4000 -0.5289  0.6757
  817MPD2    H512031   1.058   0.879   9.395 -0.3173 -2.2769  0.0881
  817MPD2    N112032   1.107   0.413   9.525 -0.1113 -0.2320 -0.8144
  817MPD2    H712033   1.006   0.428   9.522 -0.0967  0.3172  2.1975
  818MPD2     C12034   4.281   1.044  10.313 -0.0733  0.5309  0.4948
  818MPD2    C112035   4.150   1.038  10.342  0.1175  0.6948 -0.2144
  818MPD2    C212036   4.087   0.914  10.359 -0.4001 -0.1526  0.3089
  818MPD2    C312037   4.160   0.797  10.360  0.2554  0.6739 -0.5288
  818MPD2    C412038   4.299   0.803  10.348  0.0673  0.1035 -0.4587
  818MPD2    C512039   4.357   0.931  10.326 -0.6619  0.1994  0.2900
  818MPD2     H12040   3.979   0.905  10.366 -0.3752 -0.1134  0.7801
  818MPD2    H112041   4.367   0.720  10.342 -0.0051 -0.1399  2.2342
  818MPD2    H212042   4.332   1.133  10.279  0.2314 -0.5395 -1.8386
  818MPD2    H312043   4.462   0.940  10.300 -0.0315 -0.0270  2.7950
  818MPD2     N12044   4.115   0.663  10.380  1.1530  0.8828  0.2314
  818MPD2    H512045   4.181   0.590  10.405  2.1427  1.2562 -1.3275
  818MPD2    N112046   4.074   1.156  10.355  0.5151  0.2724 -0.1083
  818MPD2    H712047   3.986   1.147  10.405  0.6612 -1.0002 -0.0709
  819MPD2     C12048   2.013   2.604  15.588 -0.4878  0.4653  0.7877
  819MPD2    C112049   2.038   2.473  15.560  0.3621 -0.2915 -0.7707
  819MPD2    C212050   2.166   2.417  15.569  0.1665 -0.1077  0.3086
  819MPD2    C312051   2.270   2.492  15.623 -0.0868  0.4556  0.0405
  819MPD2    C412052   2.242   2.626  15.658  0.0786 -0.7398  0.6078
  819MPD2    C512053   2.115   2.677  15.631  0.5943  0.3570  0.4556
  819MPD2     H12054   2.186   2.319  15.527  1.8834  0.2826  0.2070
  819MPD2    H112055   2.319   2.690  15.699  0.2917  0.8731 -2.3064
  819MPD2    H212056   1.916   2.643  15.560  0.3216  1.6271 -0.3552
  819MPD2    H312057   2.101   2.782  15.653 -0.9161 -0.0480  1.4585
  819MPD2     N12058   2.398   2.441  15.643  0.2873 -0.3130  0.1228
  819MPD2    H512059   2.415   2.347  15.606 -1.7335 -0.8895  0.6377
  819MPD2    N112060   1.928   2.401  15.509 -0.1331  0.3144  0.2167
  819MPD2    H712061   1.845   2.459  15.505 -0.8440 -0.5319  2.6775
  820MPD2     C12062   1.210   2.486  14.847 -0.2208  0.1077  0.5035
  820MPD2    C112063   1.297   2.551  14.931  0.1110  0.8545  0.1830
  820MPD2    C212064   1.374   2.489  15.026  0.0109 -0.2377 -0.1626
  820MPD2    C312065   1.362   2.351  15.039  0.5579 -0.2342 -0.3484
  820MPD2    C412066   1.284   2.284  14.944  0.0415 -0.6911  0.0773
  820MPD2    C512067   1.212   2.352  14.846 -0.0217 -0.1994 -0.2204
  820MPD2     H12068   1.433   2.541  15.100 -0.7047 -1.4845  1.2881
  820MPD2    H112069   1.280   2.175  14.944  2.7112 -0.7888  0.7144
  820MPD2    H212070   1.151   2.543  14.777 -1.0909 -1.6359 -0.1689
  820MPD2    H312071   1.145   2.298  14.780 -1.3261  0.5088  0.5235
  820MPD2     N12072   1.435   2.278  15.140 -0.4258  0.0792 -0.6349
  820MPD2    H512073   1.432   2.177  15.132  1.2471  0.2577 -3.7109
  820MPD2    N112074   1.318   2.693  14.928 -0.4558 -0.0330 -0.1211
  820MPD2    H712075   1.245   2.748  14.885 -0.2692  1.1803  1.1233
  821MPD2     C12076   2.485   3.944  13.254  0.6457 -0.1551  0.1120
  821MPD2    C112077   2.572   3.991  13.350  0.6416 -0.0977 -0.4963
  821MPD2    C212078   2.704   3.995  13.309 -0.6743  0.1815  1.1501
  821MPD2    C312079   2.736   3.993  13.177 -0.2326  0.0027 -0.1262
  821MPD2    C412080   2.644   3.948  13.082 -0.0696 -0.5144  0.1035
  821MPD2    C512081   2.518   3.915  13.128 -0.0034  0.0221  0.3545
  821MPD2     H12082   2.777   4.024  13.384  0.1035 -1.5456  1.0424
  821MPD2    H112083   2.674   3.921  12.982  0.6430  1.3759 -0.1996
  821MPD2    H212084   2.387   3.910  13.287  0.8874 -1.7602 -0.8171
  821MPD2    H312085   2.450   3.877  13.053 -1.5331  1.8384  0.8048
  821MPD2     N12086   2.867   4.008  13.130 -0.0741  0.3366 -0.1947
  821MPD2    H512087   2.876   4.004  13.029 -0.6314  1.8353 -0.2977
  821MPD2    N112088   2.540   4.019  13.481  0.1517 -0.9721 -0.4317
  821MPD2    H712089   2.612   4.055  13.543  1.4379 -1.9909 -1.3388
  822MPD2     C12090   2.660   3.978  15.329 -0.5680  0.1078  0.7292
  822MPD2    C112091   2.772   3.977  15.404 -0.1946 -0.5502  0.4617
  822MPD2    C212092   2.780   4.067  15.510 -1.1739 -0.1561  0.0159
  822MPD2    C312093   2.667   4.129  15.559  0.2646 -0.0421 -0.1577
  822MPD2    C412094   2.546   4.106  15.489 -0.1637 -0.6206 -0.4995
  822MPD2    C512095   2.555   4.048  15.364 -0.3407  0.9109 -0.0539
  822MPD2     H12096   2.863   4.062  15.580 -1.9514 -0.1460  0.9426
  822MPD2    H112097   2.464   4.171  15.520 -0.2986 -1.0203 -0.0279
  822MPD2    H212098   2.647   3.926  15.234  0.7184 -1.0277  1.1836
  822MPD2    H312099   2.475   4.054  15.290  0.8200  2.4676 -1.1846
  822MPD2     N12100   2.667   4.214  15.669 -0.4402 -0.5841  0.3657
  822MPD2    H512101   2.577   4.244  15.707  0.2713 -1.0277  2.4144
  822MPD2    N112102   2.882   3.890  15.387  0.0122  0.4759 -0.1795
  822MPD2    H712103   2.956   3.893  15.458 -0.3672  0.7790  0.2024
  823MPD2     C12104   2.658   4.349  16.511 -0.2607  1.1206  0.5087
  823MPD2    C112105   2.630   4.265  16.407  0.2706  0.4295  0.4129
  823MPD2    C212106   2.638   4.123  16.423 -0.1816  0.5444 -0.1371
  823MPD2    C312107   2.695   4.073  16.541  0.3824 -0.0357 -0.6770
  823MPD2    C412108   2.710   4.157  16.644 -0.1228  0.5194 -0.5522
  823MPD2    C512109   2.698   4.293  16.629 -0.3270 -0.0479  0.1003
  823MPD2     H12110   2.612   4.058  16.340  0.3471  0.1780 -0.0138
  823MPD2    H112111   2.753   4.132  16.740  0.0221 -0.7693 -0.9482
  823MPD2    H212112   2.644   4.456  16.508 -1.2571  0.9530 -0.4535
  823MPD2    H312113   2.734   4.353  16.712 -0.8626  2.1679 -1.2432
  823MPD2     N12114   2.731   3.938  16.568  0.1827 -0.2622  0.2061
  823MPD2    H512115   2.768   3.921  16.661  1.1966  1.2852  0.0813
  823MPD2    N112116   2.610   4.337  16.285 -0.3287 -0.3095  0.2506
  823MPD2    H712117   2.647   4.432  16.290  1.3348 -1.0399  1.5841
  824MPD2     C12118   3.250   3.147  15.110  0.4745  0.1414  0.0915
  824MPD2    C112119   3.330   3.235  15.177  0.4309 -0.9238  0.5092
  824MPD2    C212120   3.467   3.215  15.196  0.3796 -0.0085 -0.8784
  824MPD2    C312121   3.519   3.095  15.155 -0.9046  0.6623  1.2108
  824MPD2    C412122   3.435   3.005  15.089 -0.0925 -0.7811 -0.3116
  824MPD2    C512123   3.301   3.021  15.074 -0.0019  0.3949  0.2511
  824MPD2     H12124   3.532   3.273  15.261 -1.3397  0.2832  0.5827
  824MPD2    H112125   3.464   2.907  15.055  1.1646 -0.3577 -0.4635
  824MPD2    H212126   3.146   3.168  15.090  0.5373 -0.8128 -1.2654
  824MPD2    H312127   3.235   2.947  15.031  0.0466  0.3670  0.2256
  824MPD2     N12128   3.654   3.056  15.180  0.0682  0.2287 -0.5028
  824MPD2    H512129   3.713   3.122  15.230 -0.5448  0.7793 -0.5016
  824MPD2    N112130   3.282   3.358  15.225  0.4246 -0.6555 -0.1706
  824MPD2    H712131   3.357   3.415  15.261 -2.2605  0.9831  2.8632
  825MPD2     C12132   4.367   3.059  14.744  0.1541  0.3437  0.0833
  825MPD2    C112133   4.303   3.136  14.838 -0.2946 -0.7339  0.1003
  825MPD2    C212134   4.310   3.280  14.840 -0.1062 -0.2969 -0.3547
  825MPD2    C312135   4.391   3.344  14.749  0.6934  1.2185 -0.1645
  825MPD2    C412136   4.455   3.269  14.649 -0.2852 -0.3946 -0.1117
  825MPD2    C512137   4.444   3.128  14.645  0.8944  0.6368 -0.3157
  825MPD2     H12138   4.245   3.337  14.905  0.7978  0.5347 -0.1706
  825MPD2    H112139   4.507   3.323  14.570 -0.3580 -2.1165 -1.3421
  825MPD2    H212140   4.376   2.951  14.749 -2.3651  0.0299 -1.8743
  825MPD2    H312141   4.494   3.069  14.570  1.4488 -0.6402  1.0743
  825MPD2     N12142   4.389   3.488  14.738 -0.2865  0.4906  0.2465
  825MPD2    H512143   4.434   3.521  14.653 -2.9341  0.4456 -1.1815
  825MPD2    N112144   4.218   3.070  14.926 -0.1472  0.2320 -0.0756
  825MPD2    H712145   4.215   2.969  14.922 -3.0463  0.2982  0.4770
  826MPD2     C12146   3.602   3.465  13.834 -0.0744 -0.4253  0.4438
  826MPD2    C112147   3.518   3.466  13.722  0.1458 -0.1495 -0.7202
  826MPD2    C212148   3.414   3.553  13.719  0.3540  0.5351 -0.9942
  826MPD2    C312149   3.389   3.643  13.824 -0.2290 -0.1080 -0.7295
  826MPD2    C412150   3.473   3.635  13.935 -0.1689  0.0263 -0.3660
  826MPD2    C512151   3.577   3.554  13.940 -0.0766  0.1691  0.4051
  826MPD2     H12152   3.352   3.568  13.631  0.3323 -0.4398 -1.1523
  826MPD2    H112153   3.462   3.710  14.012  0.3692  0.3905 -0.6452
  826MPD2    H212154   3.694   3.408  13.829  1.7947  2.3961  2.4766
  826MPD2    H312155   3.648   3.568  14.020  0.9269 -0.6287 -0.3471
  826MPD2     N12156   3.273   3.726  13.837 -0.6030 -0.1154  0.4407
  826MPD2    H512157   3.261   3.760  13.933  0.0684 -1.5222  1.0151
  826MPD2    N112158   3.553   3.373  13.618 -0.1755 -0.3236 -0.0743
  826MPD2    H712159   3.637   3.318  13.631 -0.5943 -0.5376  1.7386
  827MPD2     C12160   4.071   4.312  10.057 -0.4905 -0.4136  0.0770
  827MPD2    C112161   4.151   4.204  10.090 -0.5951  0.0059  0.1028
  827MPD2    C212162   4.132   4.082  10.028 -0.8575 -0.5339 -0.2264
  827MPD2    C312163   4.035   4.062   9.935 -0.0353 -0.0938 -0.1173
  827MPD2    C412164   3.949   4.167   9.909  0.1283  0.0773 -0.6507
  827MPD2    C512165   3.966   4.291   9.969  0.3450  0.4227  0.3368
  827MPD2     H12166   4.199   3.999  10.045  1.0989  1.2725  0.9243
  827MPD2    H112167   3.862   4.165   9.844  0.5384  0.2545 -1.2036
  827MPD2    H212168   4.077   4.409  10.104 -1.3730 -1.0088  1.4112
  827MPD2    H312169   3.901   4.375   9.949  0.5104  0.5349  0.2715
  827MPD2     N12170   4.030   3.935   9.879 -0.5803 -0.1680 -0.6096
  827MPD2    H512171   4.106   3.871   9.903  0.0951  1.3795  1.3612
  827MPD2    N112172   4.253   4.219  10.191  0.3072 -0.2678 -0.3841
  827MPD2    H712173   4.275   4.313  10.222 -1.5161  0.6955 -2.0784
  828MPD2     C12174   3.167   4.135  12.269  0.0823 -0.4772 -0.3301
  828MPD2    C112175   3.086   4.210  12.195 -0.1587  0.5970 -0.3533
  828MPD2    C212176   3.128   4.257  12.077  0.1542  0.0679 -0.2396
  828MPD2    C312177   3.246   4.232  12.019  0.2357  0.4182  0.2002
  828MPD2    C412178   3.329   4.144  12.087 -0.0870  0.0533 -1.2197
  828MPD2    C512179   3.293   4.112  12.216  0.6007 -0.3158 -0.1980
  828MPD2     H12180   3.054   4.316  12.025 -1.4756 -2.1883 -0.4798
  828MPD2    H112181   3.423   4.116  12.042  0.3722  0.2995 -0.4059
  828MPD2    H212182   3.135   4.088  12.361 -1.1276 -0.7788 -0.8963
  828MPD2    H312183   3.351   4.036  12.267  1.7579  0.6286 -0.0856
  828MPD2     N12184   3.287   4.291  11.896  0.0099 -0.4855  0.2795
  828MPD2    H512185   3.386   4.285  11.871 -0.0578  0.5136 -0.1956
  828MPD2    N112186   2.958   4.255  12.224 -0.8319  0.5286  0.0795
  828MPD2    H712187   2.911   4.315  12.157  1.1357 -0.0544 -1.8277
  829MPD2     C12188   2.198   4.701  11.848  0.4814  0.3010 -0.1070
  829MPD2    C112189   2.191   4.575  11.903  0.0882 -0.4805 -0.2633
  829MPD2    C212190   2.292   4.533  11.989  0.2047  0.0550  0.3247
  829MPD2    C312191   2.399   4.624  12.016 -0.5583  0.3548 -0.4217
  829MPD2    C412192   2.418   0.013  11.943  0.2083  1.0433  0.2227
  829MPD2    C512193   2.312   0.052  11.863 -0.7917 -0.5783  0.3685
  829MPD2     H12194   2.284   4.448  12.056 -3.1120  1.6661  1.9699
  829MPD2    H112195   2.497   0.085  11.964  1.0206 -0.0990  1.0577
  829MPD2    H212196   2.127   4.724  11.770  1.9436  0.6090 -1.3405
  829MPD2    H312197   2.332   0.141  11.803  0.1517 -0.8804  0.2412
  829MPD2     N12198   2.501   4.588  12.103  0.0509 -0.0227 -0.0499
  829MPD2    H512199   2.563   4.662  12.133  0.1736  0.2099 -0.8827
  829MPD2    N112200   2.074   4.504  11.883  0.1240  0.4173 -0.7311
  829MPD2    H712201   2.001   4.544  11.826 -1.0804  2.2234  2.0817
  830MPD2     C12202   2.824   1.875  15.317 -0.1929 -0.0547 -0.2668
  830MPD2    C112203   2.854   2.010  15.327 -0.1848 -0.2564 -0.1422
  830MPD2    C212204   2.909   2.069  15.215 -0.1384 -0.1062  0.3827
  830MPD2    C312205   2.961   2.001  15.102  0.2964 -0.3715  0.1600
  830MPD2    C412206   2.937   1.867  15.108 -0.5184 -0.7324 -0.7510
  830MPD2    C512207   2.868   1.805  15.209 -0.2310  0.5839 -0.6735
  830MPD2     H12208   2.920   2.177  15.218  1.4939 -0.2493 -0.4036
  830MPD2    H112209   2.968   1.799  15.029  3.4577  0.8606 -0.5829
  830MPD2    H212210   2.770   1.830  15.399  2.4774  2.2275  2.7419
  830MPD2    H312211   2.867   1.697  15.198 -0.6653  0.5255 -0.0748
  830MPD2     N12212   3.035   2.059  14.996  0.1865  0.1076  0.7402
  830MPD2    H512213   3.045   2.005  14.911  1.1301 -0.9753  1.5390
  830MPD2    N112214   2.812   2.081  15.441  0.1781  0.1060 -0.5299
  830MPD2    H712215   2.777   2.024  15.517  2.1121  2.6668  2.2785
  831MPD2     C12216   2.976   4.082  15.993  0.3093  0.2482  0.0891
  831MPD2    C112217   2.997   4.002  15.884 -0.3013 -0.7461  0.3130
  831MPD2    C212218   2.927   3.889  15.869  0.5012  0.2353 -0.1453
  831MPD2    C312219   2.834   3.857  15.969  0.0092 -0.2458  0.8119
  831MPD2    C412220   2.810   3.943  16.070 -0.4979 -0.3531  0.3252
  831MPD2    C512221   2.873   4.061  16.082 -0.3734  0.2898  0.0070
  831MPD2     H12222   2.950   3.819  15.790 -2.2899 -2.3904  1.3255
  831MPD2    H112223   2.722   3.927  16.132 -1.3700  0.1927 -0.7589
  831MPD2    H212224   3.039   4.169  16.006 -0.2619  0.6169  0.3673
  831MPD2    H312225   2.843   4.123  16.166 -0.4638 -0.1830  0.3260
  831MPD2     N12226   2.762   3.739  15.965 -0.2399  0.5796 -0.6306
  831MPD2    H512227   2.696   3.725  16.041  0.6157  1.5568  0.2830
  831MPD2    N112228   3.111   4.015  15.808 -0.0803  0.3830 -0.1872
  831MPD2    H712229   3.131   3.964  15.723  2.1396  0.4648  0.2635
  832MPD2     C12230   1.482   4.625  17.070 -0.3412  0.3903  0.1938
  832MPD2    C112231   1.482   0.038  17.076 -0.7848 -0.1331 -0.2899
  832MPD2    C212232   1.365   0.107  17.032 -0.0827 -0.7586  0.2078
  832MPD2    C312233   1.265   0.029  16.979 -0.6047  0.9189  0.5330
  832MPD2    C412234   1.276   4.613  16.963  0.1540 -0.2275 -0.4400
  832MPD2    C512235   1.386   4.560  17.014 -0.1078  0.1399  0.1474
  832MPD2     H12236   1.360   0.215  17.026 -1.5100 -0.9751 -2.1724
  832MPD2    H112237   1.206   4.550  16.909 -1.2959 -1.1262  2.5071
  832MPD2    H212238   1.567   4.568  17.106 -0.7553 -1.5306 -1.8669
  832MPD2    H312239   1.400   4.455  16.992 -0.9994  0.0762 -0.1261
  832MPD2     N12240   1.137   0.080  16.933 -0.8122  0.1410  0.1897
  832MPD2    H512241   1.071   0.009  16.902 -0.8528 -0.4965  1.7440
  832MPD2    N112242   1.598   0.112  17.124 -0.1602 -0.0911  0.2880
  832MPD2    H712243   1.675   0.048  17.143 -0.2307 -0.2124  0.1711
  833MPD2     C12244   3.254   2.186  12.757 -1.0825  1.4250 -0.4487
  833MPD2    C112245   3.311   2.270  12.670  0.5449 -0.9321  0.0629
  833MPD2    C212246   3.429   2.231  12.599 -0.2306  0.0583  0.2992
  833MPD2    C312247   3.480   2.104  12.618  0.7850  0.9742 -0.1653
  833MPD2    C412248   3.417   2.018  12.710  0.1426  0.1517  0.0215
  833MPD2    C512249   3.298   2.058  12.773 -0.1948  0.5134  0.1527
  833MPD2     H12250   3.478   2.294  12.526 -2.9636  0.5854 -1.0950
  833MPD2    H112251   3.460   1.920  12.727 -0.5505  0.0912  1.4288
  833MPD2    H212252   3.166   2.212  12.813 -0.3570 -0.8000  1.7658
  833MPD2    H312253   3.254   1.997  12.851  0.6573  2.5114  2.1823
  833MPD2     N12254   3.598   2.058  12.552 -0.2213 -0.7582  0.4343
  833MPD2    H512255   3.624   1.963  12.577 -0.3690 -0.4726  1.6754
  833MPD2    N112256   3.253   2.394  12.652 -0.4441  0.3997  0.2819
  833MPD2    H712257   3.177   2.428  12.711 -0.2537  0.7969  0.2949
  834MPD2     C12258   3.384   1.534  11.794 -0.2148  0.3281 -0.4063
  834MPD2    C112259   3.508   1.577  11.740  0.2374  0.6198  0.4190
  834MPD2    C212260   3.597   1.636  11.831 -0.3503 -0.9453  0.8662
  834MPD2    C312261   3.560   1.672  11.961 -0.3509  0.3901 -0.2774
  834MPD2    C412262   3.431   1.635  11.999  0.8902  0.7708  0.8332
  834MPD2    C512263   3.345   1.568  11.919  0.6035  0.3186  0.0581
  834MPD2     H12264   3.694   1.669  11.795 -0.9428  0.4757  0.5794
  834MPD2    H112265   3.388   1.649  12.097 -0.4490 -2.9117  0.7676
  834MPD2    H212266   3.314   1.471  11.741 -1.2178  0.3761  0.8510
  834MPD2    H312267   3.246   1.543  11.956  0.5818  2.2682  1.3238
  834MPD2     N12268   3.646   1.747  12.036 -0.0667  0.5251 -0.9610
  834MPD2    H512269   3.722   1.795  11.989 -0.4029  1.0438 -0.9742
  834MPD2    N112270   3.539   1.544  11.604 -0.4093 -0.1719 -0.3474
  834MPD2    H712271   3.466   1.501  11.548 -1.4755  0.8736  0.2331
  835MPD2     C12272   3.810   4.045  10.826  0.8532 -0.1576  0.5636
  835MPD2    C112273   3.714   4.147  10.841  0.4969 -0.3644 -0.2087
  835MPD2    C212274   3.713   4.223  10.954 -0.1196 -0.1452  0.4055
  835MPD2    C312275   3.814   4.214  11.048  0.1600  0.1209 -0.0723
  835MPD2    C412276   3.915   4.123  11.020  0.3524  0.1675 -0.7853
  835MPD2    C512277   3.904   4.030  10.917  0.2572 -0.3592 -0.1787
  835MPD2     H12278   3.632   4.293  10.971 -1.2353 -1.1242 -0.9763
  835MPD2    H112279   4.009   4.111  11.073 -1.1102  0.2773  1.8345
  835MPD2    H212280   3.804   3.979  10.740 -1.3234  0.6060  0.1329
  835MPD2    H312281   3.991   3.969  10.895 -0.2325 -1.0476 -0.2210
  835MPD2     N12282   3.825   4.303  11.157  0.5446 -0.2683 -0.0597
  835MPD2    H512283   3.897   4.283  11.226  0.9856 -1.5173 -0.8829
  835MPD2    N112284   3.623   4.167  10.729  1.0572 -0.6705 -0.3830
  835MPD2    H712285   3.619   4.090  10.663 -0.4353  0.5539 -1.7281
  836MPD2     C12286   3.417   0.264  11.507 -0.6267 -0.6025 -0.1188
  836MPD2    C112287   3.438   0.141  11.568  0.0213  0.0832  0.4406
  836MPD2    C212288   3.375   0.109  11.687 -0.3175 -0.1814 -0.1934
  836MPD2    C312289   3.280   0.190  11.745  0.6566  0.0041 -0.2883
  836MPD2    C412290   3.258   0.312  11.687 -0.4672  1.1027 -0.0945
  836MPD2    C512291   3.322   0.330  11.566 -0.1294  0.5067 -0.6891
  836MPD2     H12292   3.407   0.017  11.734 -0.1392  0.0613  0.1583
  836MPD2    H112293   3.175   0.379  11.709 -1.9548 -1.2522  1.3663
  836MPD2    H212294   3.468   0.293  11.416  0.6581 -4.9738 -0.7801
  836MPD2    H312295   3.295   0.414  11.502  1.2359  1.0594 -0.5306
  836MPD2     N12296   3.212   0.155  11.868  0.6089  0.0471  0.6252
  836MPD2    H512297   3.140   0.217  11.903  0.6211  0.5685 -0.2698
  836MPD2    N112298   3.544   0.063  11.508  0.2605  0.4269  0.1229
  836MPD2    H712299   3.569   0.104  11.419  0.7929 -0.0996  0.0348
  837MPD2     C12300   2.042   4.048  10.439  0.2826 -0.7369  0.6096
  837MPD2    C112301   2.053   4.078  10.301 -0.4044  0.0928 -0.2311
  837MPD2    C212302   1.985   4.192  10.257 -0.0768  0.2615 -0.8773
  837MPD2    C312303   1.908   4.263  10.343 -0.7621 -0.6684 -0.7036
  837MPD2    C412304   1.906   4.240  10.478 -0.2174  0.3596 -0.4125
  837MPD2    C512305   1.967   4.129  10.524 -0.1527 -0.2159  0.1503
  837MPD2     H12306   1.983   4.216  10.151 -0.9310  0.4291 -0.8207
  837MPD2    H112307   1.835   4.291  10.540  1.8616 -1.2774  3.3224
  837MPD2    H212308   2.068   3.956  10.490  0.5825  0.3574  2.4499
  837MPD2    H312309   1.977   4.119  10.632 -0.3390  0.2551  0.2083
  837MPD2     N12310   1.834   4.361  10.278  0.0140  0.1711  0.4986
  837MPD2    H512311   1.854   4.376  10.180 -0.9401 -1.1118  0.1058
  837MPD2    N112312   2.109   4.000  10.202 -0.0422 -0.3629  0.0836
  837MPD2    H712313   2.112   4.033  10.106 -2.5226 -0.5637 -0.0751
  838MPD2     C12314   0.536   3.018  11.189  0.8636  0.2638 -0.3220
  838MPD2    C112315   0.463   2.966  11.084 -0.6878 -0.4932 -0.7428
  838MPD2    C212316   0.332   2.919  11.102  0.2953  0.4020 -0.4143
  838MPD2    C312317   0.272   2.928  11.227 -0.0270 -0.7856 -0.2799
  838MPD2    C412318   0.350   2.976  11.331 -0.6967 -0.5858 -0.9223
  838MPD2    C512319   0.472   3.025  11.314  0.2497 -0.4705  0.4001
  838MPD2     H12320   0.274   2.871  11.024  0.1331  1.9010 -1.2222
  838MPD2    H112321   0.317   2.985  11.434 -1.8980  0.8282 -1.4331
  838MPD2    H212322   0.641   3.042  11.176  0.8024  1.6758  1.8217
  838MPD2    H312323   0.534   3.066  11.393  1.4563 -1.3210 -0.1043
  838MPD2     N12324   0.149   2.863  11.240 -0.2188  0.2579  0.5032
  838MPD2    H512325   0.090   2.832  11.163 -1.1579  0.5849  1.0917
  838MPD2    N112326   0.528   2.952  10.959  0.3660 -0.1848 -0.1811
  838MPD2    H712327   0.477   2.927  10.875 -1.9252  0.1881  1.0948
  839MPD2     C12328   0.020   2.632  10.908  0.7834 -0.1782 -0.1808
  839MPD2    C112329   0.126   2.544  10.907  0.5853 -0.4181 -0.6273
  839MPD2    C212330   0.231   2.582  10.822  0.6562  0.2125 -0.1364
  839MPD2    C312331   0.239   2.701  10.749  0.6474  0.3234 -0.3575
  839MPD2    C412332   0.131   2.785  10.764 -0.3080  0.2650 -0.3469
  839MPD2    C512333   0.029   2.755  10.849  0.3348  0.4843  0.0630
  839MPD2     H12334   0.318   2.519  10.809  0.0724 -0.2133 -1.9606
  839MPD2    H112335   0.125   2.884  10.721 -1.0670  1.0238  1.4889
  839MPD2    H212336   4.643   2.616  10.942  0.8796  1.0452  0.6942
  839MPD2    H312337   4.666   2.817  10.846  1.6823  2.3083 -1.1857
  839MPD2     N12338   0.350   2.735  10.671 -0.0331 -0.2446 -0.6674
  839MPD2    H512339   0.334   2.828  10.634 -1.4470 -0.2663 -0.1066
  839MPD2    N112340   0.117   2.418  10.967 -0.2042  0.1876  1.0383
  839MPD2    H712341   0.175   2.340  10.939 -1.3984 -0.3273 -0.0053
  840MPD2     C12342   4.653   4.661  10.136 -0.2326  0.2832 -1.1882
  840MPD2    C112343   4.680   4.612  10.262  0.1856 -0.3354  0.3332
  840MPD2    C212344   0.063   4.664  10.329  0.1015 -0.3004  0.5184
  840MPD2    C312345   0.128   0.056  10.287  0.1184  0.2439  0.2473
  840MPD2    C412346   0.098   0.105  10.165 -0.4307 -0.0956  0.0718
  840MPD2    C512347   4.722   0.047  10.093  0.0022 -0.0791  0.0383
  840MPD2     H12348   0.096   4.614  10.419  0.9366  1.4767  1.2031
  840MPD2    H112349   0.158   0.191  10.138  0.7992 -0.0533  3.0269
  840MPD2    H212350   4.577   4.621  10.070 -1.4248  0.4249  0.1170
  840MPD2    H312351   4.695   0.088   9.996 -2.0976  1.0035  1.0794
  840MPD2     N12352   0.216   0.128  10.367 -0.5906  0.0446 -0.1344
  840MPD2    H512353   0.242   0.220  10.331 -0.5327 -0.0928 -0.4446
  840MPD2    N112354   4.606   4.498  10.307  0.4805  0.3481  0.5037
  840MPD2    H712355   4.528   4.464  10.250  1.0751 -0.9396  0.4516
  841MPD2     C12356   4.374   4.562  14.537  0.0130 -0.6173  0.2878
  841MPD2    C112357   4.454   4.555  14.424 -0.6772  0.2550 -0.2662
  841MPD2    C212358   4.488   4.673  14.364  0.4589  0.3649 -0.1525
  841MPD2    C312359   4.474   0.070  14.421 -0.0512  0.1824  0.3110
  841MPD2    C412360   4.403   0.077  14.546 -0.3316  0.1478 -0.2546
  841MPD2    C512361   4.357   4.683  14.600  0.3749  0.0735 -0.1461
  841MPD2     H12362   4.541   4.670  14.269 -2.1007  0.7044 -1.6083
  841MPD2    H112363   4.387   0.173  14.594  1.0712 -1.3202  3.1612
  841MPD2    H212364   4.335   4.482  14.600 -0.1561 -0.1310  0.7974
  841MPD2    H312365   4.297   4.688  14.689  2.6327  0.3414  1.3620
  841MPD2     N12366   4.539   0.185  14.357  0.6001 -0.1825  0.1877
  841MPD2    H512367   4.600   0.159  14.280 -0.6928  3.1883 -1.9930
  841MPD2    N112368   4.495   4.435  14.366 -0.4003 -0.1981  0.0437
  841MPD2    H712369   4.554   4.435  14.283 -0.7607  1.9748 -0.2206
  842MPD2     C12370   0.098   0.154  16.733  0.3658  0.0710  0.1232
  842MPD2    C112371   0.184   0.259  16.717 -0.5549  0.5762 -0.4080
  842MPD2    C212372   0.290   0.287  16.809 -0.0742 -0.0384  0.4009
  842MPD2    C312373   0.293   0.219  16.928 -0.2313 -0.2851  0.1558
  842MPD2    C412374   0.200   0.112  16.945  0.0569 -0.4395  0.0152
  842MPD2    C512375   0.111   0.078  16.847 -0.2727 -0.2390  0.6707
  842MPD2     H12376   0.342   0.382  16.803 -0.8738  0.4413  0.9110
  842MPD2    H112377   0.206   0.051  17.034 -0.8602 -1.2244 -0.4615
  842MPD2    H212378   0.020   0.135  16.660  0.2141 -2.8209  1.0076
  842MPD2    H312379   0.044   4.718  16.850  0.3101 -0.7116  0.2256
  842MPD2     N12380   0.378   0.246  17.028 -0.2349  0.4332 -0.3350
  842MPD2    H512381   0.383   0.194  17.115 -0.4742 -1.0758 -1.2434
  842MPD2    N112382   0.160   0.333  16.601 -0.4167 -0.0752  0.2254
  842MPD2    H712383   0.077   0.301  16.551 -1.2065  2.9242 -0.3435
  843MPD2     C12384   1.601   0.717   0.415  0.1268  0.9273  0.1442
  843MPD2    C112385   1.711   0.703   0.499 -0.0083  0.2084 -0.0019
  843MPD2    C212386   1.837   0.739   0.455 -0.0063 -0.7255 -0.6765
  843MPD2    C312387   1.851   0.790   0.328 -0.1380 -0.0187 -0.3524
  843MPD2    C412388   1.738   0.800   0.239  0.5675 -0.1987 -0.2947
  843MPD2    C512389   1.620   0.770   0.287  1.3755  0.1777 -0.1190
  843MPD2     H12390   1.923   0.731   0.521 -1.3980 -2.6825  0.8924
  843MPD2    H112391   1.744   0.825   0.134  0.0124 -1.1121 -0.5380
  843MPD2    H212392   1.502   0.688   0.449  0.2538 -0.5565 -0.7496
  843MPD2    H312393   1.537   0.771   0.217 -0.5578  0.4572  2.2105
  843MPD2     N12394   1.968   0.856   0.294  0.9557  0.0281 -0.8914
  843MPD2    H512395   2.050   0.851   0.353  0.1568  0.4147  0.2501
  843MPD2    N112396   1.697   0.649   0.632 -0.1525  0.2243 -0.4348
  843MPD2    H712397   1.603   0.622   0.659 -0.3866  1.1372 -0.3425
  844MPD2     C12398   0.953   4.532  16.226 -0.6760  0.3560  0.1492
  844MPD2    C112399   1.045   4.446  16.281 -0.2745 -0.2269 -0.6517
  844MPD2    C212400   1.134   4.500  16.375 -0.0038  0.1959  0.0337
  844MPD2    C312401   1.120   4.629  16.427  0.0567  0.1443 -0.5522
  844MPD2    C412402   1.015   4.709  16.379 -0.1601 -0.3780 -0.1688
  844MPD2    C512403   0.934   4.663  16.272  0.9740 -0.0627  0.0016
  844MPD2     H12404   1.212   4.435  16.415 -0.3913 -0.7067 -0.6756
  844MPD2    H112405   1.006   0.087  16.409  1.1603 -1.1321  2.7977
  844MPD2    H212406   0.881   4.496  16.154  0.7630  0.2674 -1.2538
  844MPD2    H312407   0.861   0.000  16.222 -2.0800 -3.2444  0.5425
  844MPD2     N12408   1.216   4.662  16.526 -0.6833 -0.3340  0.4286
  844MPD2    H512409   1.287   4.592  16.546 -0.0553  0.6225  1.5823
  844MPD2    N112410   1.069   4.315  16.231 -0.1650 -0.3174  0.3993
  844MPD2    H712411   1.162   4.282  16.253  0.2495  0.6626  0.1326
  845MPD2     C12412   1.452   0.806  16.934  0.0295 -0.1076  0.6795
  845MPD2    C112413   1.350   0.720  16.977 -0.2895  0.0580 -0.7718
  845MPD2    C212414   1.347   0.584  16.949  0.2491  0.1051  0.4433
  845MPD2    C312415   1.462   0.535  16.887 -0.0841 -0.5821  0.7812
  845MPD2    C412416   1.570   0.621  16.849  0.0863  0.6322 -0.1426
  845MPD2    C512417   1.563   0.758  16.875  0.0262  0.2708 -0.3582
  845MPD2     H12418   1.258   0.523  16.958  1.1672 -1.4085 -0.8570
  845MPD2    H112419   1.655   0.588  16.790  0.3230  1.2957 -0.1763
  845MPD2    H212420   1.443   0.913  16.946  0.5450 -0.0582  0.6188
  845MPD2    H312421   1.637   0.822  16.831 -1.3132  0.8291 -1.8063
  845MPD2     N12422   1.462   0.397  16.852  0.2453 -0.0416  0.0030
  845MPD2    H512423   1.371   0.352  16.858  1.2103 -1.9266  0.3203
  845MPD2    N112424   1.232   0.777  17.029 -0.0151 -0.2682  0.1788
  845MPD2    H712425   1.229   0.878  17.020 -2.5156 -0.2430  1.4831
  846MPD2     C12426   2.888   1.594  13.380 -0.5723  0.2962 -0.4666
  846MPD2    C112427   2.813   1.704  13.424 -0.8859  0.0671 -0.3317
  846MPD2    C212428   2.810   1.725  13.558 -0.6892 -0.4574  0.1487
  846MPD2    C312429   2.877   1.640  13.648  0.2751 -0.1109 -0.3124
  846MPD2    C412430   2.958   1.542  13.602 -0.2205  0.3370 -0.5190
  846MPD2    C512431   2.957   1.513  13.465  0.2608  0.1625 -0.0951
  846MPD2     H12432   2.755   1.807  13.602  0.7927  1.4292 -1.5189
  846MPD2    H112433   3.013   1.471  13.662 -0.8595 -0.5560 -0.9740
  846MPD2    H212434   2.896   1.568  13.275  2.1713 -0.2642 -0.1215
  846MPD2    H312435   3.018   1.432  13.426 -0.4966 -0.6559  0.4340
  846MPD2     N12436   2.844   1.668  13.782  0.1339 -0.3318 -0.1668
  846MPD2    H512437   2.773   1.738  13.802  3.0781  2.3529  0.8463
  846MPD2    N112438   2.751   1.799  13.332 -0.4164 -0.5835  0.3394
  846MPD2    H712439   2.705   1.875  13.381 -0.3205 -0.3902  0.1306
  847MPD2     C12440   2.428   2.820  14.038 -0.3578  0.0471 -0.1744
  847MPD2    C112441   2.568   2.829  14.018 -0.2298  0.7450 -0.1631
  847MPD2    C212442   2.637   2.712  13.990  0.0360  0.7789 -0.7443
  847MPD2    C312443   2.579   2.589  14.003 -0.1748  0.9241 -0.2045
  847MPD2    C412444   2.449   2.586  14.040  0.2482  0.3021  0.9307
  847MPD2    C512445   2.374   2.699  14.050 -0.1655 -0.1217 -0.3042
  847MPD2     H12446   2.744   2.709  13.973  0.4126 -1.0777  1.7847
  847MPD2    H112447   2.393   2.494  14.051 -0.4489  0.7211  0.9251
  847MPD2    H212448   2.357   2.902  14.030 -0.3982 -0.2963 -3.2342
  847MPD2    H312449   2.267   2.677  14.057  0.5050 -3.7103 -1.0669
  847MPD2     N12450   2.671   2.485  14.005 -0.0183  0.2792  0.4801
  847MPD2    H512451   2.765   2.509  13.975  1.1835 -1.3833  2.9781
  847MPD2    N112452   2.629   2.961  14.019  0.2303 -0.1577 -0.2480
  847MPD2    H712453   2.560   3.033  14.036 -1.8246 -1.9044 -1.1689
  848MPD2     C12454   0.874   0.412  16.266  1.0793 -0.2149 -0.8091
  848MPD2    C112455   0.899   0.493  16.379 -0.1809 -0.1447 -0.6669
  848MPD2    C212456   0.924   0.629  16.358 -0.1036  0.0432  0.8671
  848MPD2    C312457   0.906   0.687  16.230  0.8998  0.5441  0.3852
  848MPD2    C412458   0.884   0.604  16.126 -0.0529 -0.1936  0.4183
  848MPD2    C512459   0.872   0.469  16.143  0.3412 -0.2179  0.5969
  848MPD2     H12460   0.949   0.687  16.446 -1.2365  0.6894  0.7616
  848MPD2    H112461   0.884   0.639  16.023  0.6943  2.1616  1.2194
  848MPD2    H212462   0.872   0.304  16.264 -0.0837 -0.2290  1.1604
  848MPD2    H312463   0.857   0.401  16.061 -0.7913 -0.0730  0.6854
  848MPD2     N12464   0.925   0.824  16.201  0.4935  0.0262  0.2234
  848MPD2    H512465   0.909   0.843  16.103 -2.2532 -0.1201  0.6352
  848MPD2    N112466   0.899   0.439  16.510  0.3476 -0.4084  0.1816
  848MPD2    H712467   0.929   0.504  16.582  2.2610 -1.7722  0.6364
  849MPD2     C12468   0.224   0.985  13.506 -0.9678  0.1907  0.0186
  849MPD2    C112469   0.291   1.056  13.595  0.2149 -0.3565  0.3399
  849MPD2    C212470   0.301   1.017  13.735 -0.0830  0.4954  0.0652
  849MPD2    C312471   0.229   0.908  13.781 -0.5193 -0.0763  0.4638
  849MPD2    C412472   0.164   0.833  13.683  0.0161 -0.0291 -0.3302
  849MPD2    C512473   0.166   0.867  13.549  0.5516  0.1717 -0.2314
  849MPD2     H12474   0.365   1.068  13.806  1.6878  1.5869 -2.3006
  849MPD2    H112475   0.100   0.748  13.706 -0.2164  0.5358  1.1215
  849MPD2    H212476   0.214   1.018  13.403 -0.4652  0.1314 -0.0465
  849MPD2    H312477   0.103   0.810  13.483  0.2835 -1.1086  1.1260
  849MPD2     N12478   0.240   0.845  13.912 -0.0500  0.4140 -0.2134
  849MPD2    H512479   0.199   0.753  13.927 -2.8605  1.6442 -0.4876
  849MPD2    N112480   0.367   1.159  13.546 -0.3879  0.5277 -0.1108
  849MPD2    H712481   0.387   1.156  13.447 -0.6613  1.4414 -0.1942
  850MPD2     C12482   3.202   3.618  14.900  0.3655 -0.3247  0.0965
  850MPD2    C112483   3.235   3.518  14.818  1.0498 -0.1735  0.1174
  850MPD2    C212484   3.362   3.454  14.829  0.4499 -0.1649  0.6006
  850MPD2    C312485   3.457   3.511  14.907 -0.2525  0.1268  0.0969
  850MPD2    C412486   3.432   3.620  14.983  0.2214 -0.2856 -0.0896
  850MPD2    C512487   3.302   3.668  14.982  0.1577  0.1685 -0.0382
  850MPD2     H12488   3.384   3.371  14.763 -2.9507 -0.5227 -0.1232
  850MPD2    H112489   3.506   3.668  15.046 -0.4883  3.3755 -2.0445
  850MPD2    H212490   3.106   3.669  14.907  0.1481 -0.6207 -0.8102
  850MPD2    H312491   3.275   3.764  15.024  1.3782  0.1786  0.6924
  850MPD2     N12492   3.586   3.456  14.916 -0.1975 -0.2556  0.3133
  850MPD2    H512493   3.641   3.496  14.992 -0.8492  0.5224  0.3737
  850MPD2    N112494   3.152   3.482  14.709  0.0308  0.0828  0.1087
  850MPD2    H712495   3.200   3.412  14.654 -0.9222 -0.5279  0.0485
  851MPD2     C12496   3.364   3.036  14.720  0.1028  0.3080  0.1767
  851MPD2    C112497   3.236   3.003  14.683 -0.0422 -0.6908 -0.5004
  851MPD2    C212498   3.211   2.865  14.701 -0.2363 -0.6358 -0.1925
  851MPD2    C312499   3.304   2.775  14.742 -0.0293  0.0214  0.3556
  851MPD2    C412500   3.428   2.812  14.775 -0.0852  0.6855  0.0299
  851MPD2    C512501   3.457   2.944  14.761 -0.1460  0.4576 -0.3577
  851MPD2     H12502   3.120   2.818  14.666 -0.8335  0.2652  0.1393
  851MPD2    H112503   3.499   2.743  14.819 -1.5922 -0.3686  0.8263
  851MPD2    H212504   3.397   3.139  14.716  4.9137 -1.2463 -0.6766
  851MPD2    H312505   3.547   2.993  14.795 -0.3407  0.0068  0.7878
  851MPD2     N12506   3.264   2.639  14.738  0.2138  0.5629 -0.2273
  851MPD2    H512507   3.173   2.620  14.697  0.1316 -0.7944  0.5644
  851MPD2    N112508   3.145   3.097  14.641  0.1581 -0.5999 -0.0729
  851MPD2    H712509   3.180   3.189  14.616  1.2619 -0.8289  0.6345
  852MPD2     C12510   2.435   0.775   9.813  0.5052  1.0456  0.1542
  852MPD2    C112511   2.514   0.711   9.905  0.0742  0.0891  0.0875
  852MPD2    C212512   2.649   0.700   9.875 -0.2080  0.3909  0.3851
  852MPD2    C312513   2.705   0.765   9.761  0.0214 -0.1010  0.0890
  852MPD2    C412514   2.624   0.833   9.674  0.5858  0.1342  0.6220
  852MPD2    C512515   2.489   0.828   9.699  0.0827  0.4058  0.2833
  852MPD2     H12516   2.714   0.647   9.945  0.9742  0.5116 -0.6259
  852MPD2    H112517   2.667   0.892   9.594  0.8644  0.6759  1.1670
  852MPD2    H212518   2.329   0.791   9.827  0.2719  0.9161 -1.4904
  852MPD2    H312519   2.432   0.872   9.618  0.8221 -1.4466 -1.2528
  852MPD2     N12520   2.841   0.740   9.735 -0.3151 -0.3489 -0.3806
  852MPD2    H512521   2.881   0.676   9.803  1.3289  2.2296  1.0921
  852MPD2    N112522   2.472   0.669  10.034 -0.1161  0.3246 -0.1849
  852MPD2    H712523   2.546   0.635  10.095 -1.6445  1.1351  2.1350
  853MPD2     C12524   0.029   1.491  12.242  0.5512  0.0499  0.2311
  853MPD2    C112525   4.621   1.502  12.198  0.5552 -0.2326  0.6050
  853MPD2    C212526   4.588   1.446  12.076 -0.0011 -0.1075 -0.3530
  853MPD2    C312527   4.690   1.405  11.991 -0.8189 -0.4391  0.2637
  853MPD2    C412528   0.096   1.402  12.034  0.4040 -0.8627 -0.1959
  853MPD2    C512529   0.131   1.447  12.162  0.7862 -0.2483  0.4561
  853MPD2     H12530   4.484   1.445  12.046  0.0312 -0.3574 -0.4541
  853MPD2    H112531   0.172   1.369  11.964  0.4122  0.8414 -0.9855
  853MPD2    H212532   0.057   1.526  12.342 -3.2138  0.9538  0.9560
  853MPD2    H312533   0.235   1.455  12.192  0.0989 -0.5843  2.9428
  853MPD2     N12534   4.673   1.357  11.859  0.2778  0.0660 -0.6057
  853MPD2    H512535   0.031   1.321  11.814  0.1705 -0.4895 -0.3687
  853MPD2    N112536   4.521   1.555  12.292 -0.2022 -0.0034 -0.3032
  853MPD2    H712537   4.550   1.585  12.385  1.5563 -1.5396 -0.3487
  854MPD2     C12538   1.288   1.166  12.782 -0.4658  0.0890 -0.7187
  854MPD2    C112539   1.318   1.298  12.793  0.3146 -0.2732  0.5500
  854MPD2    C212540   1.446   1.344  12.802  0.3130 -0.2741 -0.0703
  854MPD2    C312541   1.549   1.257  12.814  0.6598 -0.4007 -0.0608
  854MPD2    C412542   1.524   1.122  12.803 -0.3447  0.0267 -0.4857
  854MPD2    C512543   1.398   1.072  12.790 -0.3442 -0.1072 -0.7254
  854MPD2     H12544   1.468   1.450  12.795 -1.2289  0.0131 -0.5579
  854MPD2    H112545   1.607   1.052  12.807 -0.2443  0.2800  2.2458
  854MPD2    H212546   1.190   1.124  12.761 -0.7282  0.2242  0.2089
  854MPD2    H312547   1.383   0.965  12.791 -4.4754  0.4805 -0.1983
  854MPD2     N12548   1.687   1.295  12.816 -0.2433  0.5026  0.5348
  854MPD2    H512549   1.756   1.223  12.801 -0.2427  0.3083  1.4465
  854MPD2    N112550   1.217   1.395  12.809  0.1274  0.4059 -0.1138
  854MPD2    H712551   1.239   1.492  12.827 -0.0459  0.2091  1.1871
  855MPD2     C12552   2.256   1.441  13.610 -0.1336 -0.1139 -0.1809
  855MPD2    C112553   2.266   1.324  13.541 -0.2986  0.0046 -0.9497
  855MPD2    C212554   2.224   1.321  13.406  0.0134  1.1100 -0.1296
  855MPD2    C312555   2.177   1.429  13.334  0.4072 -0.5031 -0.2799
  855MPD2    C412556   2.173   1.551  13.411 -0.0934 -0.2143 -0.4549
  855MPD2    C512557   2.215   1.550  13.544 -0.2098  0.9225  0.5499
  855MPD2     H12558   2.214   1.225  13.358 -0.1544  1.5181 -0.9047
  855MPD2    H112559   2.130   1.641  13.368  0.7154  0.8826  1.0312
  855MPD2    H212560   2.275   1.449  13.716  0.6376 -1.0920 -0.2423
  855MPD2    H312561   2.207   1.645  13.596 -1.3703  0.4677  1.1948
  855MPD2     N12562   2.145   1.426  13.199  0.5042  0.5285  0.6917
  855MPD2    H512563   2.147   1.337  13.151  1.0273  0.5173  0.7336
  855MPD2    N112564   2.308   1.200  13.592 -0.2587  0.6539  0.1929
  855MPD2    H712565   2.304   1.119  13.532  1.2311 -0.7239  1.9719
  856MPD2     C12566   3.467   2.105  13.513  0.2704 -0.4862  0.1885
  856MPD2    C112567   3.443   2.125  13.649  0.2940 -0.2492  0.5662
  856MPD2    C212568   3.353   2.218  13.686 -0.3546 -0.1423  0.2022
  856MPD2    C312569   3.285   2.293  13.591  0.5260  0.4204 -0.3848
  856MPD2    C412570   3.305   2.271  13.457 -0.3712  0.8045  0.1548
  856MPD2    C512571   3.390   2.172  13.423  0.3290  0.7764 -0.6076
  856MPD2     H12572   3.335   2.219  13.793 -1.5948  0.5452 -0.0123
  856MPD2    H112573   3.250   2.325  13.382  0.8169 -0.5588 -1.7138
  856MPD2    H212574   3.530   2.027  13.471  1.7905  0.0323  1.4814
  856MPD2    H312575   3.411   2.154  13.318 -1.1764 -0.2394 -0.7272
  856MPD2     N12576   3.211   2.413  13.619  0.2822  0.3876 -0.5649
  856MPD2    H512577   3.168   2.465  13.543 -2.0925 -1.1947 -0.3090
  856MPD2    N112578   3.509   2.048  13.745  0.1872 -0.2028  0.1020
  856MPD2    H712579   3.477   2.057  13.841  0.7438 -2.2004  0.4708
  857MPD2     C12580   0.623   4.132  12.979 -0.4978 -0.3844  0.8547
  857MPD2    C112581   0.737   4.142  12.906 -0.3234  0.0000  0.2850
  857MPD2    C212582   0.829   4.244  12.943  0.4052  0.2188 -0.0200
  857MPD2    C312583   0.800   4.334  13.048 -0.4549 -0.2848 -0.4689
  857MPD2    C412584   0.681   4.314  13.118 -0.8628 -1.0791 -0.5180
  857MPD2    C512585   0.600   4.213  13.080  0.2156 -0.0198  0.1664
  857MPD2     H12586   0.919   4.253  12.883 -0.7914 -2.8886 -2.2857
  857MPD2    H112587   0.660   4.379  13.202  1.5268 -0.5367 -0.3212
  857MPD2    H212588   0.551   4.053  12.960  0.3450 -0.8485 -0.3949
  857MPD2    H312589   0.508   4.208  13.136  1.6368 -0.0412  2.5181
  857MPD2     N12590   0.910   4.419  13.084 -0.9635 -0.7589  1.3268
  857MPD2    H512591   1.004   4.405  13.048 -1.0837  1.7389  0.0590
  857MPD2    N112592   0.748   4.055  12.796 -0.7782  0.0911  0.0954
  857MPD2    H712593   0.664   4.001  12.778 -0.6404 -0.7566  1.9447
  858MPD2     C12594   0.929   2.563  16.879 -0.0190  0.1391 -0.1856
  858MPD2    C112595   1.068   2.577  16.895 -0.0149  0.4023 -0.0960
  858MPD2    C212596   1.114   2.671  16.988 -0.6102 -0.3403 -0.0688
  858MPD2    C312597   1.026   2.744  17.060  1.0770  0.5624 -0.0842
  858MPD2    C412598   0.886   2.724  17.047  0.1783  0.1926 -0.2144
  858MPD2    C512599   0.843   2.635  16.950  0.0512  0.1273 -0.5958
  858MPD2     H12600   1.218   2.684  17.016 -0.1859 -1.6521 -1.0491
  858MPD2    H112601   0.811   2.778  17.102 -2.9653 -4.2397 -0.1933
  858MPD2    H212602   0.884   2.510  16.796  0.2482  0.3309 -0.4508
  858MPD2    H312603   0.737   2.614  16.942 -0.3397  1.4091  1.2530
  858MPD2     N12604   1.070   2.835  17.162 -0.3248 -0.3116  0.4659
  858MPD2    H512605   0.993   2.870  17.218 -1.0201  0.5137 -1.0263
  858MPD2    N112606   1.151   2.503  16.806 -0.3359 -0.1252  0.5652
  858MPD2    H712607   1.107   2.465  16.723 -2.5240  2.7446  0.3961
  859MPD2     C12608   4.627   0.528  14.904 -0.1572 -0.2318 -0.0476
  859MPD2    C112609   0.024   0.502  14.965  0.3911  0.1354 -0.1983
  859MPD2    C212610   0.088   0.382  14.943 -0.0115  0.3101  0.4346
  859MPD2    C312611   0.029   0.287  14.863 -0.1173 -0.1550 -0.1807
  859MPD2    C412612   4.627   0.315  14.807 -0.6536 -0.1474 -0.3019
  859MPD2    C512613   4.565   0.436  14.820  0.2122 -0.2309  0.3523
  859MPD2     H12614   0.188   0.363  14.981  0.1790 -0.5328 -0.5001
  859MPD2    H112615   4.568   0.244  14.749 -1.8602  0.5787  0.0249
  859MPD2    H212616   4.578   0.623  14.920 -1.6808 -0.6644 -2.0285
  859MPD2    H312617   4.475   0.454  14.763  2.1843 -0.5972 -2.8447
  859MPD2     N12618   0.083   0.158  14.831 -0.0071 -0.0119 -0.3359
  859MPD2    H512619   0.024   0.096  14.778 -0.7294  1.0807 -0.7977
  859MPD2    N112620   0.076   0.620  15.034 -0.2635  0.4289 -0.2105
  859MPD2    H712621   0.023   0.707  15.030 -0.1344  0.5484  0.6821
  860MPD2     C12622   2.663   0.900  11.719 -0.2437  0.0084 -0.1316
  860MPD2    C112623   2.667   0.856  11.852  0.1575 -0.3480 -0.2194
  860MPD2    C212624   2.552   0.811  11.910 -0.3726  0.0325 -0.3019
  860MPD2    C312625   2.435   0.797  11.844 -0.4154 -0.3003  0.1242
  860MPD2    C412626   2.433   0.829  11.714 -0.8595 -0.5354  0.3059
  860MPD2    C512627   2.550   0.874  11.645 -0.4485  0.2351  0.6559
  860MPD2     H12628   2.557   0.782  12.014 -1.4937 -2.0464 -0.8276
  860MPD2    H112629   2.341   0.811  11.659 -1.3194  2.8614 -0.0768
  860MPD2    H212630   2.748   0.951  11.674 -0.4045 -0.1775 -0.6450
  860MPD2    H312631   2.538   0.901  11.541 -3.3721 -1.0119  0.6728
  860MPD2     N12632   2.327   0.756  11.918 -0.3246  0.1671 -0.1044
  860MPD2    H512633   2.335   0.731  12.016 -1.0515 -2.1422 -0.6269
  860MPD2    N112634   2.779   0.872  11.935 -0.7033 -0.0552  0.4424
  860MPD2    H712635   2.774   0.851  12.034 -2.5734  0.7476  0.5087
  861MPD2     C12636   1.351   3.236  10.918 -0.6433 -0.0838  0.4562
  861MPD2    C112637   1.276   3.343  10.968  0.0572  0.1432 -0.7909
  861MPD2    C212638   1.204   3.427  10.881 -0.4652  0.0742 -0.0507
  861MPD2    C312639   1.206   3.397  10.741  0.9761  0.0406  0.6632
  861MPD2    C412640   1.274   3.290  10.697 -0.1936 -0.1688  0.3242
  861MPD2    C512641   1.343   3.209  10.785 -0.1773  0.5524 -0.1602
  861MPD2     H12642   1.160   3.521  10.915 -2.8195 -0.6066 -1.2494
  861MPD2    H112643   1.283   3.278  10.590  0.3215 -0.5936  0.4180
  861MPD2    H212644   1.400   3.163  10.983 -1.7017 -1.3599 -0.1811
  861MPD2    H312645   1.404   3.127  10.748 -2.7290 -1.9655  1.1676
  861MPD2     N12646   1.151   3.482  10.644 -0.3043 -0.9035  0.2674
  861MPD2    H512647   1.159   3.457  10.546 -0.2097 -4.0113  1.0820
  861MPD2    N112648   1.280   3.356  11.107 -0.7574  0.7580  0.6026
  861MPD2    H712649   1.325   3.285  11.165  1.7167 -0.9815 -3.4704
  862MPD2     C12650   1.096   3.527   9.908  0.0376  0.1686 -0.1720
  862MPD2    C112651   1.169   3.503  10.024 -0.1724  0.0506 -1.5686
  862MPD2    C212652   1.269   3.405  10.033  0.0317 -0.4298  0.6808
  862MPD2    C312653   1.300   3.335   9.921 -0.5066  0.5217  0.3188
  862MPD2    C412654   1.220   3.350   9.809  0.3353 -0.2348  0.4516
  862MPD2    C512655   1.122   3.445   9.802 -0.4051 -0.2779 -0.0656
  862MPD2     H12656   1.330   3.388  10.120  1.6492  1.7922 -0.0315
  862MPD2    H112657   1.229   3.278   9.728  0.8757  1.1826 -0.7463
  862MPD2    H212658   1.027   3.610   9.898 -0.4172 -0.5473 -2.9851
  862MPD2    H312659   1.044   3.450   9.727 -0.1370  2.7735 -0.1737
  862MPD2     N12660   1.399   3.232   9.913  0.2686  0.8406 -0.1192
  862MPD2    H512661   1.397   3.157   9.844 -0.7315 -0.2719  1.1025
  862MPD2    N112662   1.147   3.569  10.147  0.1456  0.0027 -0.0850
  862MPD2    H712663   1.195   3.530  10.227 -2.4115  0.8126  1.8281
  863MPD2     C12664   3.766   1.696  16.829 -0.4282  0.0818 -0.2455
  863MPD2    C112665   3.885   1.721  16.771 -0.6744 -1.1741  0.8802
  863MPD2    C212666   3.994   1.743  16.848  0.2842  0.2879  0.0787
  863MPD2    C312667   3.984   1.733  16.988 -0.1468 -0.5461 -0.1327
  863MPD2    C412668   3.870   1.690  17.047 -0.1819 -0.3871 -0.0465
  863MPD2    C512669   3.760   1.675  16.967 -0.0385 -0.0273  0.3011
  863MPD2     H12670   4.091   1.766  16.805 -0.3272 -0.3720 -1.6581
  863MPD2    H112671   3.856   1.666  17.152 -1.5321  0.7041  0.0231
  863MPD2    H212672   3.677   1.684  16.769 -1.7699  1.7960  1.3847
  863MPD2    H312673   3.668   1.640  17.012 -0.0675  0.2931  0.4855
  863MPD2     N12674   4.089   1.770  17.078 -0.6946 -0.4361  0.0151
  863MPD2    H512675   4.064   1.760  17.176  2.8222 -0.5063  0.9061
  863MPD2    N112676   3.878   1.755  16.640 -0.0596  0.2012 -0.1336
  863MPD2    H712677   3.789   1.747  16.593  0.2200 -0.1012 -0.6175
  864MPD2     C12678   0.391   3.007  17.111  0.6460  0.5000 -0.3770
  864MPD2    C112679   0.440   2.916  17.020  0.2699 -0.0659  0.4830
  864MPD2    C212680   0.574   2.940  16.987 -0.2456  0.0355 -0.1463
  864MPD2    C312681   0.644   3.047  17.035 -0.0809 -0.1928  1.0223
  864MPD2    C412682   0.585   3.134  17.128  0.7102 -0.2084 -0.4904
  864MPD2    C512683   0.459   3.107  17.178  0.5734  0.1619 -0.3127
  864MPD2     H12684   0.617   2.873  16.913 -0.1502 -0.8662  0.7405
  864MPD2    H112685   0.621   3.234  17.149 -0.1714  0.2282 -1.0359
  864MPD2    H212686   0.289   2.991  17.145  0.0277 -2.6525 -3.8328
  864MPD2    H312687   0.412   3.167  17.254  2.0657  1.9178 -0.7785
  864MPD2     N12688   0.777   3.079  16.997 -0.4316 -0.4108 -0.3678
  864MPD2    H512689   0.802   3.170  17.034  1.2912 -0.7436 -0.7044
  864MPD2    N112690   0.350   2.820  16.970 -0.2454  0.2633  0.1744
  864MPD2    H712691   0.254   2.838  16.997 -0.5197  2.0415 -1.9539
  865MPD2     C12692   1.109   3.464  16.206 -0.7037 -0.1440  0.3987
  865MPD2    C112693   1.005   3.422  16.283 -0.4926 -0.1389  0.2371
  865MPD2    C212694   1.020   3.397  16.419  0.0508 -0.2754  0.1940
  865MPD2    C312695   1.136   3.429  16.480 -0.6083 -0.3027  0.1419
  865MPD2    C412696   1.244   3.472  16.404 -0.2246  0.2707 -0.3829
  865MPD2    C512697   1.231   3.485  16.265  0.3889 -0.1758  0.2895
  865MPD2     H12698   0.942   3.342  16.471  0.0102  0.6430  1.1113
  865MPD2    H112699   1.334   3.498  16.458 -0.7276 -0.9168  1.0489
  865MPD2    H212700   1.097   3.468  16.098  1.8785 -0.1452  0.1103
  865MPD2    H312701   1.315   3.517  16.205 -0.2105  1.4988  0.3354
  865MPD2     N12702   1.166   3.386  16.610 -0.7705  0.2662  0.6123
  865MPD2    H512703   1.264   3.377  16.635 -0.5626  0.6221 -0.0762
  865MPD2    N112704   0.886   3.384  16.214 -0.3409  0.4153 -0.0265
  865MPD2    H712705   0.894   3.401  16.114 -0.1727  0.0117 -0.0834
  866MPD2     C12706   1.738   3.675  11.549  0.4090 -0.5933 -0.7051
  866MPD2    C112707   1.747   3.711  11.416  0.2298 -0.3502  0.6768
  866MPD2    C212708   1.629   3.762  11.352 -0.9846 -0.3138 -0.0409
  866MPD2    C312709   1.513   3.788  11.422 -0.1020 -0.0079  0.3351
  866MPD2    C412710   1.514   3.753  11.558 -0.3068  0.3325 -0.1311
  866MPD2    C512711   1.625   3.697  11.617  0.3876 -0.8371 -0.3031
  866MPD2     H12712   1.636   3.788  11.247 -2.4783 -0.1150 -0.0805
  866MPD2    H112713   1.431   3.774  11.624 -1.9559 -2.2588 -1.3966
  866MPD2    H212714   1.824   3.643  11.606 -0.4811 -0.3059  0.7919
  866MPD2    H312715   1.629   3.677  11.724 -0.9782  1.7889  0.2474
  866MPD2     N12716   1.397   3.850  11.370  0.2015  0.4044 -0.5291
  866MPD2    H512717   1.323   3.875  11.434  0.4788 -0.4709  0.1426
  866MPD2    N112718   1.866   3.683  11.341 -0.0157 -0.3671  0.0757
  866MPD2    H712719   1.923   3.607  11.377  0.6426 -1.4453 -3.2184
  867MPD2     C12720   3.669   3.626  15.951 -0.6172  0.2292 -0.3299
  867MPD2    C112721   3.689   3.565  16.077  0.1103 -0.2168  0.8900
  867MPD2    C212722   3.658   3.643  16.190 -1.0687  0.0008 -0.0247
  867MPD2    C312723   3.612   3.770  16.176 -0.4398 -0.2768  0.1337
  867MPD2    C412724   3.594   3.823  16.049 -0.2237  0.2496 -0.5007
  867MPD2    C512725   3.615   3.746  15.935  0.3885  0.2331  0.6641
  867MPD2     H12726   3.675   3.594  16.286  2.1757 -2.2715 -1.7499
  867MPD2    H112727   3.549   3.920  16.031 -0.6884  0.1366  0.0265
  867MPD2    H212728   3.695   3.578  15.857  2.7479 -0.1069  0.7526
  867MPD2    H312729   3.601   3.780  15.833 -0.8549  0.9202  1.0660
  867MPD2     N12730   3.591   3.858  16.291  0.2428 -0.1507  0.2865
  867MPD2    H512731   3.575   3.954  16.264  0.9008  0.0374  0.5596
  867MPD2    N112732   3.765   3.445  16.068  0.4225 -0.1589  0.7420
  867MPD2    H712733   3.763   3.398  15.978 -3.4324  2.0969 -0.3593
  868MPD2     C12734   1.103   3.019  13.097  0.1434 -0.1065 -0.0875
  868MPD2    C112735   1.036   2.915  13.150  0.5688  0.3064 -0.7282
  868MPD2    C212736   0.970   2.935  13.274 -0.7403  0.7725  0.1187
  868MPD2    C312737   0.970   3.054  13.340 -0.2946  0.5332  0.7267
  868MPD2    C412738   1.047   3.151  13.292 -0.4479 -0.2330  0.0328
  868MPD2    C512739   1.112   3.128  13.175  0.0054 -0.0604  0.5023
  868MPD2     H12740   0.909   2.855  13.316  1.4997 -0.6071  0.7209
  868MPD2    H112741   1.065   3.251  13.329 -1.7703 -0.0739  0.2393
  868MPD2    H212742   1.155   3.004  13.003 -0.7421  0.3071 -0.6423
  868MPD2    H312743   1.178   3.206  13.138  0.9339 -2.4725 -2.9564
  868MPD2     N12744   0.910   3.059  13.466 -0.4677 -0.3554  0.3577
  868MPD2    H512745   0.846   2.983  13.489 -0.5525 -0.3297  0.2094
  868MPD2    N112746   1.045   2.792  13.081 -0.2624 -0.0147  0.0943
  868MPD2    H712747   1.110   2.791  13.003  0.6781 -0.9625  0.8933
  869MPD2     C12748   2.542   1.180   2.366 -0.0405  0.3651  0.2017
  869MPD2    C112749   2.485   1.058   2.362 -0.5362 -0.0355  1.0995
  869MPD2    C212750   2.396   1.022   2.269  0.3046  0.2985  0.2507
  869MPD2    C312751   2.351   1.115   2.172 -0.1292  0.0792  0.2915
  869MPD2    C412752   2.408   1.240   2.184 -0.1255 -0.3425 -0.1045
  869MPD2    C512753   2.504   1.276   2.277  0.0545  0.2653  0.3369
  869MPD2     H12754   2.362   0.919   2.264  0.3214  0.2796  0.5196
  869MPD2    H112755   2.373   1.319   2.118  1.6191  0.8122  0.3561
  869MPD2    H212756   2.621   1.209   2.433  0.3340 -1.2762  0.4746
  869MPD2    H312757   2.549   1.375   2.283 -0.5759  0.2896  4.4609
  869MPD2     N12758   2.251   1.098   2.075 -0.1894 -0.0373  0.5352
  869MPD2    H512759   2.235   1.175   2.011  0.1000  0.2001  0.7479
  869MPD2    N112760   2.540   0.967   2.452 -0.8592 -0.2991 -0.3930
  869MPD2    H712761   2.602   1.008   2.521  2.3925 -2.4551 -2.0216
  870MPD2     C12762   1.722   3.293   1.462 -0.2102 -0.1609  0.5007
  870MPD2    C112763   1.801   3.371   1.545 -0.1603 -0.4031 -0.6078
  870MPD2    C212764   1.841   3.493   1.488  0.1796  0.2458 -0.7163
  870MPD2    C312765   1.825   3.522   1.355  0.0480 -0.1126  0.3568
  870MPD2    C412766   1.747   3.441   1.279 -0.3159 -0.4899 -0.9796
  870MPD2    C512767   1.708   3.328   1.330  0.8418 -0.4667  0.9448
  870MPD2     H12768   1.906   3.555   1.548 -1.8200  1.7911 -0.1714
  870MPD2    H112769   1.726   3.460   1.175 -2.5036  0.1499 -0.4264
  870MPD2    H212770   1.697   3.190   1.486  0.3152 -0.8272 -1.8356
  870MPD2    H312771   1.678   3.253   1.257 -0.2559  1.5725 -0.6952
  870MPD2     N12772   1.878   3.644   1.309 -0.2000  0.7100 -0.7733
  870MPD2    H512773   1.929   3.703   1.374 -0.2580  1.0752 -1.0582
  870MPD2    N112774   1.811   3.335   1.680 -0.0802 -0.0116 -0.6863
  870MPD2    H712775   1.758   3.254   1.712 -1.6835 -0.0220 -3.3662
  871MPD2     C12776   2.957   3.405  16.025  0.9401 -0.1811 -0.2765
  871MPD2    C112777   2.924   3.343  16.145  0.4716 -0.8112 -0.2300
  871MPD2    C212778   2.891   3.207  16.142  0.5645  0.6958 -0.7205
  871MPD2    C312779   2.895   3.128  16.025  0.4158 -0.8057 -0.5944
  871MPD2    C412780   2.937   3.191  15.907 -0.4916 -0.5828 -0.3455
  871MPD2    C512781   2.960   3.329  15.913 -0.6611 -0.5737 -0.3688
  871MPD2     H12782   2.851   3.154  16.228  1.6472 -1.4361 -1.5264
  871MPD2    H112783   2.942   3.150  15.807  2.2223  0.6974 -0.7387
  871MPD2    H212784   2.984   3.510  16.016 -2.7768  0.9114  1.4480
  871MPD2    H312785   2.970   3.377  15.817  1.2490  1.0575  0.6372
  871MPD2     N12786   2.870   2.984  16.037  0.2177  0.1020  0.1283
  871MPD2    H512787   2.830   2.947  16.123  0.6100 -0.4351  0.0777
  871MPD2    N112788   2.921   3.422  16.265 -0.0681  0.1963  0.0457
  871MPD2    H712789   2.952   3.519  16.256  2.8666 -0.5584  2.2407
  872MPD2     C12790   3.350   1.697  13.545  0.1392 -0.4092  0.6767
  872MPD2    C112791   3.446   1.617  13.600 -0.4416 -0.3639 -0.6691
  872MPD2    C212792   3.419   1.553  13.723 -0.0482 -0.4307 -0.5094
  872MPD2    C312793   3.301   1.577  13.788 -0.6975  0.3374 -0.0283
  872MPD2    C412794   3.208   1.661  13.731 -0.3080 -0.2974 -0.0661
  872MPD2    C512795   3.230   1.721  13.610 -0.1895 -0.1556 -1.0135
  872MPD2     H12796   3.485   1.472  13.751 -0.8031 -1.0810 -0.6153
  872MPD2    H112797   3.118   1.687  13.785  1.1747  0.3262  2.0770
  872MPD2    H212798   3.373   1.739  13.447  2.2526 -1.3658  0.7500
  872MPD2    H312799   3.151   1.782  13.568  0.2090  1.1308  0.1212
  872MPD2     N12800   3.263   1.512  13.902 -0.3744  0.5201  0.3466
  872MPD2    H512801   3.172   1.539  13.938 -0.0246  1.4263  0.5651
  872MPD2    N112802   3.569   1.576  13.534 -0.7511  0.3439  0.4201
  872MPD2    H712803   3.625   1.502  13.575 -0.8694 -1.4611 -2.6993
  873MPD2     C12804   0.210   2.184   0.745 -0.1861  0.9423 -0.1813
  873MPD2    C112805   0.327   2.139   0.784  0.3996 -0.2232  0.3438
  873MPD2    C212806   0.406   2.068   0.694  0.8104  0.9647 -0.8288
  873MPD2    C312807   0.358   2.026   0.575 -0.9069  0.8277  0.4223
  873MPD2    C412808   0.243   2.087   0.528 -0.5775 -0.3021  0.4038
  873MPD2    C512809   0.172   2.162   0.616  0.2682 -0.0770 -0.6046
  873MPD2     H12810   0.507   2.046   0.729  1.1544 -1.2280 -3.1826
  873MPD2    H112811   0.201   2.059   0.432 -1.1979 -0.4804  0.7271
  873MPD2    H212812   0.140   2.237   0.808  0.0741 -0.7207  1.4817
  873MPD2    H312813   0.076   2.198   0.583  0.1770 -0.0644 -0.3247
  873MPD2     N12814   0.419   1.934   0.490 -0.5528 -1.1518 -0.2985
  873MPD2    H512815   0.382   1.932   0.396 -1.7148 -1.2522  0.1567
  873MPD2    N112816   0.376   2.185   0.911  0.0503  0.5168  0.0360
  873MPD2    H712817   0.308   2.240   0.964  0.5316 -0.8122  2.0265
  874MPD2     C12818   0.201   1.157  16.157  0.0841 -0.2079 -0.5442
  874MPD2    C112819   0.273   1.054  16.210  0.6729 -0.0382  0.2828
  874MPD2    C212820   0.413   1.065  16.197  0.6627  0.3127 -0.9651
  874MPD2    C312821   0.464   1.166  16.132  0.1065 -0.4842  0.1613
  874MPD2    C412822   0.391   1.270  16.073 -0.6758  0.3152 -0.3822
  874MPD2    C512823   0.257   1.258  16.085 -0.1813 -0.6624 -0.2462
  874MPD2     H12824   0.470   0.989  16.248 -0.2404  1.8502  2.3025
  874MPD2    H112825   0.435   1.361  16.035  1.2361 -0.0264  0.9758
  874MPD2    H212826   0.094   1.150  16.171 -0.1176 -0.9155 -2.4424
  874MPD2    H312827   0.194   1.335  16.043  0.1441  0.2062  0.8533
  874MPD2     N12828   0.602   1.153  16.120  0.0510  0.8490  0.0821
  874MPD2    H512829   0.633   1.071  16.171 -0.5293  1.1565  0.9275
  874MPD2    N112830   0.208   0.945  16.269  0.0450 -0.5639  0.4960
  874MPD2    H712831   0.106   0.942  16.261 -0.0875  0.0001  2.0513
  875MPD2     C12832   1.511   4.368  14.378 -0.1347  0.4723  0.1488
  875MPD2    C112833   1.450   4.317  14.491 -0.5500 -0.5051  0.5021
  875MPD2    C212834   1.512   4.337  14.609 -0.7292  0.0186  0.3895
  875MPD2    C312835   1.636   4.385  14.614  0.5227 -0.0329  0.5133
  875MPD2    C412836   1.705   4.422  14.495  0.3453 -0.3621 -0.2374
  875MPD2    C512837   1.631   4.429  14.381  0.0063 -0.1836 -0.4341
  875MPD2     H12838   1.463   4.303  14.700 -0.6598  0.1203  0.4661
  875MPD2    H112839   1.807   4.459  14.503 -0.5743  1.9978  0.4852
  875MPD2    H212840   1.463   4.365  14.281 -1.5005 -0.1625  0.8520
  875MPD2    H312841   1.683   4.442  14.286  0.3414 -0.6853 -0.3215
  875MPD2     N12842   1.700   4.404  14.744 -0.2957  1.2371  0.2566
  875MPD2    H512843   1.794   4.443  14.740 -1.2658  3.6154  0.3987
  875MPD2    N112844   1.324   4.248  14.504 -0.1524 -0.3933 -0.4383
  875MPD2    H712845   1.286   4.217  14.593  0.5563  1.4536  0.5176
  876MPD2     C12846   0.099   0.660  16.029 -0.2898  0.3723  0.1328
  876MPD2    C112847   0.238   0.660  16.043  0.1175 -0.3151  0.3224
  876MPD2    C212848   0.299   0.550  16.097  0.3176  0.3846 -0.8008
  876MPD2    C312849   0.219   0.444  16.128  0.1713 -0.2402 -0.9844
  876MPD2    C412850   0.083   0.444  16.109 -0.2342  0.2049 -1.3232
  876MPD2    C512851   0.024   0.558  16.071 -0.3216 -0.4361  0.3643
  876MPD2     H12852   0.406   0.550  16.113  0.3694 -3.2380 -1.2320
  876MPD2    H112853   0.022   0.363  16.149  0.4823  0.6947  0.7543
  876MPD2    H212854   0.050   0.739  15.974  0.7660  1.5414  0.8833
  876MPD2    H312855   4.644   0.558  16.048 -0.4667 -3.8289  1.0385
  876MPD2     N12856   0.279   0.327  16.184 -0.2500  0.6732 -0.1281
  876MPD2    H512857   0.380   0.336  16.185 -0.2499  0.7486 -1.1732
  876MPD2    N112858   0.302   0.770  15.982  0.3343 -0.1047  0.0872
  876MPD2    H712859   0.241   0.836  15.935 -0.0024 -0.1995  0.3870
  877MPD2     C12860   0.315   1.320  15.449  0.2108  0.0728  0.5360
  877MPD2    C112861   0.448   1.325  15.475 -0.4238 -0.5626  0.8902
  877MPD2    C212862   0.539   1.382  15.389  0.5101 -0.3000 -0.1980
  877MPD2    C312863   0.485   1.442  15.272  0.3541 -0.1930  0.5232
  877MPD2    C412864   0.346   1.439  15.253 -0.0410 -0.3430 -0.4695
  877MPD2    C512865   0.264   1.382  15.341  0.8319 -0.3391 -0.7008
  877MPD2     H12866   0.646   1.381  15.404  0.4700  1.9164  0.3279
  877MPD2    H112867   0.302   1.470  15.159  0.1302 -2.3988 -1.2282
  877MPD2    H212868   0.236   1.279  15.511 -1.1004  2.3908  0.3928
  877MPD2    H312869   0.158   1.385  15.320  0.5484  1.9963  1.0048
  877MPD2     N12870   0.566   1.487  15.157 -0.2302  0.2451 -1.0584
  877MPD2    H512871   0.512   1.520  15.077  1.5000  1.3913 -1.7566
  877MPD2    N112872   0.498   1.262  15.595 -0.2169  0.6597  0.3833
  877MPD2    H712873   0.598   1.266  15.615  0.1231 -0.5393 -1.0211
  878MPD2     C12874   0.683   1.106  12.789 -0.4718  0.4810  0.3225
  878MPD2    C112875   0.597   1.202  12.835  0.3493  0.2269  0.7640
  878MPD2    C212876   0.594   1.243  12.966  0.3934  0.9805  0.5378
  878MPD2    C312877   0.677   1.178  13.057  0.0058 -0.4661  0.1944
  878MPD2    C412878   0.770   1.092  13.013 -0.4258  0.7030 -0.3712
  878MPD2    C512879   0.768   1.064  12.880 -0.0824 -0.9630  0.1310
  878MPD2     H12880   0.527   1.322  12.998 -0.0966  0.4111  0.9113
  878MPD2    H112881   0.846   1.067  13.088 -0.6181 -0.3050 -0.5134
  878MPD2    H212882   0.669   1.060  12.692  2.0921  0.2367  0.0841
  878MPD2    H312883   0.839   0.989  12.848  1.7097  1.0981 -0.6664
  878MPD2     N12884   0.676   1.218  13.192 -0.0864  0.4610 -0.2266
  878MPD2    H512885   0.601   1.283  13.213  1.7158  2.9041 -1.4342
  878MPD2    N112886   0.503   1.240  12.738 -0.5619  0.6322 -0.1091
  878MPD2    H712887   0.497   1.189  12.650 -1.0174 -0.1129  0.3586
  879MPD2     C12888   0.638   1.564  17.345 -0.5566  0.4882 -0.1655
  879MPD2    C112889   0.554   1.584  17.241  1.0134  0.1227 -0.2541
  879MPD2    C212890   0.579   1.527  17.117  0.0876 -0.9493  0.1117
  879MPD2    C312891   0.707   1.477  17.087 -0.0733 -0.2501  0.8775
  879MPD2    C412892   0.785   1.438  17.199 -0.3268  0.2846  0.3085
  879MPD2    C512893   0.746   1.485  17.326  1.0498  0.3889  0.0058
  879MPD2     H12894   0.507   1.545  17.038  1.2747 -0.4800 -0.8745
  879MPD2    H112895   0.878   1.382  17.197  0.2817  1.1808  2.9439
  879MPD2    H212896   0.627   1.610  17.442 -0.2302 -0.3934  0.2821
  879MPD2    H312897   0.812   1.466  17.409 -0.7662 -1.1803  1.1017
  879MPD2     N12898   0.745   1.448  16.957 -0.0031 -0.3654  0.3520
  879MPD2    H512899   0.826   1.389  16.942 -0.0848 -0.2415 -0.5624
  879MPD2    N112900   0.431   1.651  17.260 -0.1152  0.3962 -0.5581
  879MPD2    H712901   0.425   1.691  17.353 -0.1195  1.0632 -0.8423
  880MPD2     C12902   2.566   3.270   0.104  0.1374  0.1201 -0.1587
  880MPD2    C112903   2.443   3.312   0.135 -0.8016 -0.4212  0.1115
  880MPD2    C212904   2.334   3.224   0.143 -0.2989  0.6897 -0.8550
  880MPD2    C312905   2.353   3.086   0.123 -0.1368 -0.3264  0.2241
  880MPD2    C412906   2.484   3.046   0.092  0.1042  0.2120  0.0851
  880MPD2    C512907   2.588   3.135   0.088  0.0061  0.1351 -0.2036
  880MPD2     H12908   2.234   3.247   0.180 -1.0118 -1.5041 -1.4113
  880MPD2    H112909   2.507   2.941   0.077  2.5644  0.7645 -0.0819
  880MPD2    H212910   2.647   3.342   0.110  0.4994 -0.4223  1.5858
  880MPD2    H312911   2.691   3.105   0.080  0.7875  2.3406  1.4412
  880MPD2     N12912   2.257   2.987   0.142 -0.2564  0.4562  0.0942
  880MPD2    H512913   2.178   3.009   0.202  1.0604  0.4412  1.8246
  880MPD2    N112914   2.431   3.444   0.154  0.4009  0.0837 -0.2688
  880MPD2    H712915   2.507   3.512   0.157  0.6100 -0.1838  0.5212
  881MPD2     C12916   2.497   4.301  17.340 -0.3268 -0.2059 -0.0788
  881MPD2    C112917   2.516   4.165  17.302  0.4720  0.4351  0.0905
  881MPD2    C212918   2.492   4.074  17.411 -0.3397 -0.0538  0.2186
  881MPD2    C312919   2.474   4.122  17.540  0.6788  0.2207  0.0950
  881MPD2    C412920   2.486   4.256  17.574 -0.4146  0.1663 -0.1933
  881MPD2    C512921   2.487   4.342  17.471  0.1328  0.6725 -0.3327
  881MPD2     H12922   2.478   3.968  17.393 -1.3141  0.1049  0.0052
  881MPD2    H112923   2.460   4.290  17.673 -2.8912 -0.7761 -0.5140
  881MPD2    H212924   2.512   4.377  17.264  0.4972 -1.6762 -1.3980
  881MPD2    H312925   2.473   4.446  17.499  0.0349  0.6449 -0.2793
  881MPD2     N12926   2.433   4.039  17.651 -0.1929 -0.3233  0.1291
  881MPD2    H512927   2.422   4.090   0.036 -1.1477  1.6040 -1.1213
  881MPD2    N112928   2.512   4.127  17.168 -0.0502 -0.2885 -0.7681
  881MPD2    H712929   2.491   4.195  17.096 -0.2174  1.8982  1.3768
  882MPD2     C12930   0.496   1.568  14.400 -0.4387  0.1358 -0.1464
  882MPD2    C112931   0.471   1.524  14.526 -0.4972  0.2519  0.8240
  882MPD2    C212932   0.340   1.483  14.556  0.2964  0.2434  0.0531
  882MPD2    C312933   0.247   1.472  14.454  0.3180  0.4260  0.5292
  882MPD2    C412934   0.277   1.515  14.327  0.4565  0.3494  0.2108
  882MPD2    C512935   0.401   1.548  14.305  0.3917  0.2226 -0.1728
  882MPD2     H12936   0.310   1.455  14.657 -1.4404  0.9255 -0.2800
  882MPD2    H112937   0.206   1.512  14.244 -2.0918 -0.3740  2.3988
  882MPD2    H212938   0.596   1.589  14.363 -0.9456 -0.9627 -2.1595
  882MPD2    H312939   0.424   1.577  14.203  0.6345 -0.2678 -0.2558
  882MPD2     N12940   0.112   1.429  14.477  0.9460  0.6336 -0.4865
  882MPD2    H512941   0.042   1.424  14.404 -0.8356  1.1582  1.1752
  882MPD2    N112942   0.576   1.524  14.621  0.5421  0.1111  0.2731
  882MPD2    H712943   0.670   1.543  14.588  0.6457 -1.4745 -0.3221
  883MPD2     C12944   2.300   1.037  16.316  0.3027 -0.4443  0.5795
  883MPD2    C112945   2.339   1.161  16.270  0.5206 -0.0483 -0.2087
  883MPD2    C212946   2.397   1.252  16.346  0.1566  0.4362 -0.2985
  883MPD2    C312947   2.422   1.224  16.482 -0.0055 -0.6892 -0.0611
  883MPD2    C412948   2.394   1.100  16.531  0.0031 -0.5246 -0.5240
  883MPD2    C512949   2.334   1.004  16.444  0.3243  0.0493  0.2505
  883MPD2     H12950   2.436   1.340  16.295 -0.2401  1.7975  1.7471
  883MPD2    H112951   2.418   1.074  16.633  0.3583 -1.6604 -0.9039
  883MPD2    H212952   2.233   0.972  16.260 -0.3000 -0.2346  1.0672
  883MPD2    H312953   2.305   0.909  16.488 -1.7729  0.7638  0.3863
  883MPD2     N12954   2.487   1.325  16.553 -0.1998  0.1954  0.0689
  883MPD2    H512955   2.508   1.408  16.498 -2.5848 -0.1417 -1.3616
  883MPD2    N112956   2.317   1.190  16.139  0.6219  0.4349 -0.1287
  883MPD2    H712957   2.329   1.284  16.103 -0.8120  0.2149 -1.1579
  884MPD2     C12958   4.449   1.911  15.091  0.3225 -0.2576  0.0292
  884MPD2    C112959   4.465   2.002  14.989  0.0674 -0.3443  0.3842
  884MPD2    C212960   4.367   2.099  14.985  0.4418 -0.1084 -0.2601
  884MPD2    C312961   4.263   2.109  15.080  0.3048 -0.2185 -0.1331
  884MPD2    C412962   4.256   2.026  15.185  0.1471 -0.1207  0.0213
  884MPD2    C512963   4.352   1.933  15.194  0.1927 -0.0370  0.5343
  884MPD2     H12964   4.373   2.181  14.915 -1.5243  0.1537 -0.1316
  884MPD2    H112965   4.177   2.025  15.260 -0.2715 -0.8643 -0.4369
  884MPD2    H212966   4.521   1.833  15.114  1.3226  0.1500 -1.7241
  884MPD2    H312967   4.346   1.871  15.282 -0.7897  0.1459  0.5929
  884MPD2     N12968   4.162   2.201  15.059  0.4913  0.1240  0.2614
  884MPD2    H512969   4.178   2.280  14.998 -0.7794  0.9742  1.0001
  884MPD2    N112970   4.568   2.001  14.890  0.1620 -0.5396 -0.0028
  884MPD2    H712971   4.561   2.081  14.828 -1.4377  0.6425  1.6898
  885MPD2     C12972   1.898   1.599  17.559 -0.3652  0.1063 -0.1211
  885MPD2    C112973   1.936   1.717  17.623 -0.4674 -0.4598 -0.0746
  885MPD2    C212974   2.007   1.813  17.550  0.1291 -0.1093 -0.0824
  885MPD2    C312975   2.029   1.806  17.413 -0.2849 -0.4830 -0.1994
  885MPD2    C412976   2.005   1.683  17.356  0.0814  0.1716  0.2941
  885MPD2    C512977   1.944   1.582  17.427 -0.1035  1.2140 -0.4459
  885MPD2     H12978   2.048   1.898  17.604 -0.0768 -0.2833  0.3462
  885MPD2    H112979   2.032   1.663  17.253  1.6760 -0.1480  0.7673
  885MPD2    H212980   1.836   1.528  17.613 -2.2103  0.7109 -1.4463
  885MPD2    H312981   1.922   1.489  17.376  0.9712  1.6570 -1.6972
  885MPD2     N12982   2.096   1.911  17.359 -0.2710 -0.3419  0.1483
  885MPD2    H512983   2.087   1.998  17.410 -0.6918  0.5988 -1.5269
  885MPD2    N112984   1.908   1.723   0.058  0.2019 -0.0187  0.2194
  885MPD2    H712985   1.880   1.636   0.102  2.2060 -0.4973  0.5706
  886MPD2     C12986   3.684   0.637  15.208  0.0344 -0.7991 -0.0519
  886MPD2    C112987   3.806   0.673  15.251 -0.5847 -0.1191  0.2303
  886MPD2    C212988   3.834   0.806  15.256  0.8428  0.4584 -0.5205
  886MPD2    C312989   3.741   0.905  15.229  0.3469  0.1318  0.6317
  886MPD2    C412990   3.617   0.867  15.183  0.4874 -0.1159 -0.5275
  886MPD2    C512991   3.595   0.731  15.168 -0.0193  0.9318 -0.0608
  886MPD2     H12992   3.934   0.843  15.273  1.2191 -2.0224  2.6292
  886MPD2    H112993   3.542   0.942  15.161  1.3542  0.4083 -1.7648
  886MPD2    H212994   3.663   0.537  15.174  2.1312 -1.0006 -0.7379
  886MPD2    H312995   3.497   0.694  15.139 -0.0822 -0.2206  1.5974
  886MPD2     N12996   3.769   1.043  15.236  0.6722  0.2167 -0.3026
  886MPD2    H512997   3.700   1.107  15.198  0.8815  0.2307 -0.6603
  886MPD2    N112998   3.911   0.582  15.282  0.5357  0.2827 -0.3217
  886MPD2    H712999   3.999   0.620  15.315  0.3810  1.7639 -1.6225
  887MPD2     C13000   4.616   0.628  15.319 -0.3545 -0.0576  0.5553
  887MPD2    C113001   4.493   0.676  15.296  1.7122 -0.1869 -0.3227
  887MPD2    C213002   4.469   0.810  15.313  0.1023 -0.2237  0.3430
  887MPD2    C313003   4.573   0.897  15.345  0.2682  0.4884 -0.6137
  887MPD2    C413004   4.693   0.839  15.376 -0.4341  0.0353  1.2146
  887MPD2    C513005   4.711   0.711  15.367 -0.4437 -0.9062 -0.6292
  887MPD2     H13006   4.371   0.846  15.282 -0.1473 -1.7414 -0.6340
  887MPD2    H113007   0.059   0.891  15.405  0.6215  0.4703 -2.9132
  887MPD2    H213008   4.641   0.522  15.316 -2.1343 -0.4082 -1.9396
  887MPD2    H313009   0.083   0.669  15.393  0.3747  1.6406  0.4260
  887MPD2     N13010   4.538   1.029  15.358  0.0344  0.0505  0.4153
  887MPD2    H513011   4.443   1.063  15.346 -0.6163 -1.3390  1.7675
  887MPD2    N113012   4.391   0.586  15.257  0.1708  0.1052  0.2430
  887MPD2    H713013   4.298   0.628  15.252  0.9874  1.6542 -2.2433
  888MPD2     C13014   1.444   0.862  14.519 -0.5015 -0.0342 -0.1872
  888MPD2    C113015   1.476   0.842  14.653 -0.1668 -0.1984  0.1208
  888MPD2    C213016   1.578   0.918  14.705  0.6717 -0.1310 -0.8398
  888MPD2    C313017   1.642   1.012  14.633 -0.0329 -0.0063 -0.9152
  888MPD2    C413018   1.623   1.027  14.494  0.0767  0.6213 -0.3084
  888MPD2    C513019   1.526   0.944  14.441  0.0450 -0.5583 -0.0664
  888MPD2     H13020   1.592   0.910  14.813  0.5307 -1.0405 -0.8892
  888MPD2    H113021   1.674   1.095  14.427  0.5325 -0.4511 -1.0487
  888MPD2    H213022   1.366   0.804  14.473 -1.4954  1.8085 -0.8161
  888MPD2    H313023   1.529   0.939  14.332 -1.6241 -0.9509 -0.0869
  888MPD2     N13024   1.740   1.092  14.698  0.4973  0.4629  0.0077
  888MPD2    H513025   1.760   1.088  14.797  0.6032 -1.0510 -0.0897
  888MPD2    N113026   1.399   0.768  14.748  0.4386  0.5540 -0.6707
  888MPD2    H713027   1.447   0.761  14.838 -1.8233  2.1905  0.6564
  889MPD2     C13028   0.981   0.202  13.744  0.6353 -0.0978 -0.0259
  889MPD2    C113029   1.026   0.245  13.625  0.0197  0.0451  0.5408
  889MPD2    C213030   1.116   0.356  13.629 -0.5166  0.8304 -0.6495
  889MPD2    C313031   1.138   0.434  13.739 -0.3355  0.0551  0.4181
  889MPD2    C413032   1.060   0.401  13.850  0.2634 -0.1727 -0.6268
  889MPD2    C513033   0.989   0.280  13.857  0.4637  0.2619  0.4665
  889MPD2     H13034   1.162   0.390  13.537  1.3188 -1.4122 -0.5603
  889MPD2    H113035   1.063   0.465  13.938  1.9630 -0.9692 -0.1123
  889MPD2    H213036   0.927   0.111  13.762 -1.0039  0.8286 -0.2733
  889MPD2    H313037   0.933   0.237  13.939  0.2768  3.3319  1.9604
  889MPD2     N13038   1.212   0.549  13.732  0.2773  0.1555  0.2267
  889MPD2    H513039   1.233   0.576  13.636 -0.1219 -1.2394 -0.2621
  889MPD2    N113040   1.037   0.151  13.525  1.0644 -0.6897 -0.2255
  889MPD2    H713041   0.995   0.058  13.532 -1.1816  0.3263 -0.1767
  890MPD2     C13042   0.452   1.948  14.568  0.0514 -0.4563 -0.2390
  890MPD2    C113043   0.544   2.043  14.609  0.6039 -0.3538  0.9885
  890MPD2    C213044   0.615   2.032  14.731  0.2812 -0.5794 -0.7267
  890MPD2    C313045   0.580   1.936  14.825 -0.8596 -0.5004 -0.4627
  890MPD2    C413046   0.479   1.853  14.779 -0.0334 -0.0353 -0.7033
  890MPD2    C513047   0.426   1.850  14.657 -0.4740 -0.0580 -0.0766
  890MPD2     H13048   0.695   2.098  14.761 -1.7112  1.9591 -0.9819
  890MPD2    H113049   0.442   1.774  14.843 -3.0180  1.9886  0.0627
  890MPD2    H213050   0.408   1.956  14.469 -3.4182 -0.7295  1.2854
  890MPD2    H313051   0.351   1.775  14.635  0.8497 -0.8711 -1.9001
  890MPD2     N13052   0.628   1.931  14.956  0.4007 -0.2018 -0.6039
  890MPD2    H513053   0.711   1.987  14.976 -0.6654  2.5096 -3.6021
  890MPD2    N113054   0.560   2.152  14.532 -0.3669 -0.5958 -0.0685
  890MPD2    H713055   0.498   2.165  14.452 -1.9276 -0.5088  1.1414
  891MPD2     C13056   3.504   0.552  16.412 -0.5440  0.4407 -0.0447
  891MPD2    C113057   3.378   0.551  16.474  0.2945 -0.8927 -0.4718
  891MPD2    C213058   3.353   0.439  16.550 -0.1210 -0.7853 -0.2386
  891MPD2    C313059   3.443   0.338  16.568 -0.2047  0.0965  0.1879
  891MPD2    C413060   3.559   0.339  16.494 -0.3090  0.3554 -0.1533
  891MPD2    C513061   3.591   0.448  16.420  0.8132  0.3792  0.2223
  891MPD2     H13062   3.257   0.431  16.600  0.5009  0.2104  1.0903
  891MPD2    H113063   3.618   0.250  16.479 -1.7835 -0.5195 -0.7702
  891MPD2    H213064   3.537   0.639  16.356  0.8945  0.9893  1.6282
  891MPD2    H313065   3.685   0.438  16.366 -1.1924 -1.0001 -2.9843
  891MPD2     N13066   3.412   0.228  16.650  1.0533  0.1976 -0.0331
  891MPD2    H513067   3.329   0.222  16.708  2.0609  1.3568  1.5144
  891MPD2    N113068   3.288   0.657  16.446 -0.4141 -0.1333  0.6393
  891MPD2    H713069   3.316   0.728  16.380 -0.0225 -2.1806 -1.3837
  892MPD2     C13070   4.357   2.086  14.527 -1.2099 -0.1219 -0.6879
  892MPD2    C113071   4.283   1.994  14.590  0.4199 -0.6729  0.5532
  892MPD2    C213072   4.321   1.864  14.611  0.0181 -0.1558  0.2764
  892MPD2    C313073   4.427   1.816  14.535 -0.5591 -0.1140  0.4934
  892MPD2    C413074   4.503   1.911  14.461  0.4155  0.4542  0.3334
  892MPD2    C513075   4.469   2.042  14.464 -0.6487 -0.6358 -0.1381
  892MPD2     H13076   4.264   1.806  14.682  0.1255  1.3341  1.5729
  892MPD2    H113077   4.590   1.883  14.403 -0.0058 -0.0416 -0.0522
  892MPD2    H213078   4.332   2.192  14.528  0.2281  0.2099  0.2556
  892MPD2    H313079   4.527   2.117  14.412 -0.2520 -1.3354 -0.7105
  892MPD2     N13080   4.464   1.680  14.529  0.5621  0.4997 -0.2857
  892MPD2    H513081   4.544   1.656  14.471  2.0530  0.7015  1.6849
  892MPD2    N113082   4.160   2.022  14.653 -0.1503  0.2410  0.9021
  892MPD2    H713083   4.116   1.952  14.712 -2.1881  1.4608  0.8665
  893MPD2     C13084   2.136   4.144   2.366  0.6075 -0.0674 -0.4029
  893MPD2    C113085   2.134   4.168   2.232  0.1247  0.0890  0.1139
  893MPD2    C213086   2.052   4.091   2.154  0.1636 -0.1532 -0.2167
  893MPD2    C313087   1.969   3.999   2.213  0.1230 -1.1860  0.0450
  893MPD2    C413088   1.961   3.987   2.350  0.2639 -0.3876 -0.2643
  893MPD2    C513089   2.056   4.053   2.425 -0.5023  0.7741 -0.2043
  893MPD2     H13090   2.047   4.104   2.047 -0.6125 -0.8188 -0.2614
  893MPD2    H113091   1.893   3.921   2.402 -0.6664  0.6765 -0.1352
  893MPD2    H213092   2.204   4.206   2.423  1.0348  0.6044 -1.6480
  893MPD2    H313093   2.047   4.035   2.532 -1.3370 -1.8189 -0.7016
  893MPD2     N13094   1.881   3.912   2.151 -0.0457  0.2938 -0.2890
  893MPD2    H513095   1.820   3.861   2.214 -0.4561 -1.6494 -2.2765
  893MPD2    N113096   2.220   4.268   2.190  0.1117  0.9564 -0.2176
  893MPD2    H713097   2.256   4.332   2.260 -0.9321  0.4643  0.7804
  894MPD2     C13098   3.432   2.517   0.873  0.4123  0.1020  1.2627
  894MPD2    C113099   3.526   2.515   0.966 -0.1760 -0.4857 -1.1758
  894MPD2    C213100   3.624   2.617   0.960 -0.3015 -0.2154  0.3917
  894MPD2    C313101   3.619   2.727   0.870  0.1620  0.0853  0.6713
  894MPD2    C413102   3.520   2.720   0.771  0.1912  1.0052  0.4478
  894MPD2    C513103   3.427   2.608   0.772  1.2998 -0.1363  0.1600
  894MPD2     H13104   3.694   2.611   1.043 -0.0196  1.1909  0.2652
  894MPD2    H113105   3.511   2.796   0.694 -2.0908  0.7400  0.4493
  894MPD2    H213106   3.366   2.431   0.860  0.5234  0.3011 -0.5237
  894MPD2    H313107   3.357   2.592   0.692  0.2105  3.4847  0.3904
  894MPD2     N13108   3.705   2.843   0.880  0.2886 -1.2375  0.4951
  894MPD2    H513109   3.775   2.845   0.954  1.2174 -0.5366 -0.3885
  894MPD2    N113110   3.525   2.424   1.071 -0.1921 -0.4034 -0.5960
  894MPD2    H713111   3.596   2.434   1.143 -0.1209 -0.3468 -0.6736
  895MPD2     C13112   4.247   0.905  13.695  0.1657 -0.3236 -0.4376
  895MPD2    C113113   4.167   0.856  13.592 -0.0412 -0.1077 -0.2700
  895MPD2    C213114   4.154   0.719  13.585  0.3495  0.5905  0.2520
  895MPD2    C313115   4.238   0.633  13.660 -0.0157  0.4639 -0.5196
  895MPD2    C413116   4.317   0.686  13.754 -0.3878 -0.1778  0.5580
  895MPD2    C513117   4.306   0.817  13.778 -0.6684  0.2271 -0.2408
  895MPD2     H13118   4.090   0.675  13.509  2.2070 -0.3848 -0.7484
  895MPD2    H113119   4.378   0.629  13.823  0.6628 -0.4422 -0.5929
  895MPD2    H213120   4.270   1.008  13.718 -0.0245  0.0362 -1.8797
  895MPD2    H313121   4.362   0.856  13.862  0.6748  0.8575 -1.4189
  895MPD2     N13122   4.246   0.494  13.613 -0.0988 -0.1588 -0.8940
  895MPD2    H513123   4.178   0.476  13.540 -0.2431 -1.6041 -0.4110
  895MPD2    N113124   4.093   0.939  13.503  0.3610  0.1850 -0.1922
  895MPD2    H713125   4.052   0.886  13.428 -0.5791 -0.8531  1.0470
  896MPD2     C13126   0.493   3.116   1.627  0.0686 -0.5925  0.3497
  896MPD2    C113127   0.525   3.114   1.495  0.1497  0.4873  0.4871
  896MPD2    C213128   0.427   3.100   1.400 -0.0225 -0.1443 -0.2079
  896MPD2    C313129   0.297   3.098   1.444  0.5282  0.9594 -0.3372
  896MPD2    C413130   0.265   3.111   1.580  0.3300  0.2932  1.2905
  896MPD2    C513131   0.362   3.123   1.669  0.1188 -0.5078  0.1395
  896MPD2     H13132   0.459   3.090   1.297  1.2628  0.8855  0.0939
  896MPD2    H113133   0.168   3.108   1.627  0.2762 -0.9254  1.1143
  896MPD2    H213134   0.566   3.130   1.706  0.3017  0.6024 -0.0813
  896MPD2    H313135   0.336   3.139   1.773  1.1791 -2.4276  0.7017
  896MPD2     N13136   0.195   3.106   1.346  0.5280 -0.0298 -0.0495
  896MPD2    H513137   0.214   3.074   1.251 -0.5719  0.6318 -0.4806
  896MPD2    N113138   0.658   3.120   1.460  0.5348 -0.1935  0.0101
  896MPD2    H713139   0.717   3.154   1.535  1.2605  1.5788 -1.3651
  897MPD2     C13140   1.917   0.220  10.747 -0.0948 -0.1720 -0.9173
  897MPD2    C113141   1.832   0.330  10.737 -0.0873 -0.5291 -0.1953
  897MPD2    C213142   1.721   0.342  10.822  0.8756  0.4839  0.5223
  897MPD2    C313143   1.701   0.252  10.929  0.5012 -0.2405 -0.2172
  897MPD2    C413144   1.785   0.147  10.940 -0.0393 -0.0801  0.2824
  897MPD2    C513145   1.897   0.132  10.853 -0.4472  1.1000  0.4518
  897MPD2     H13146   1.660   0.431  10.818  0.7179  0.3362 -0.3470
  897MPD2    H113147   1.756   0.065  11.005  1.2570  1.7553  3.1939
  897MPD2    H213148   1.996   0.198  10.676  0.5573 -0.2361 -0.1769
  897MPD2    H313149   1.952   0.039  10.841 -0.1911  1.3824 -0.6387
  897MPD2     N13150   1.576   0.258  10.995 -0.4468  0.5152 -0.4604
  897MPD2    H513151   1.507   0.323  10.959 -0.9630 -0.3009 -0.9305
  897MPD2    N113152   1.845   0.424  10.630 -0.8502 -0.0630  0.1495
  897MPD2    H713153   1.789   0.508  10.641  0.4075  0.8074 -0.1433
  898MPD2     C13154   3.841   0.775   0.063 -0.5932 -0.4808  0.4866
  898MPD2    C113155   3.937   0.848  17.700  0.2049 -0.5298 -0.2765
  898MPD2    C213156   3.898   0.956  17.617  0.5589 -0.7055 -0.1402
  898MPD2    C313157   3.765   0.978  17.582  0.4029  0.4776  0.5339
  898MPD2    C413158   3.674   0.892  17.634  0.4985  0.0202  0.2609
  898MPD2    C513159   3.714   0.786   0.012  0.2125  0.2912  0.4098
  898MPD2     H13160   3.972   1.032  17.598  0.0534 -0.4568 -1.1371
  898MPD2    H113161   3.575   0.890  17.591  0.7738  0.6924 -0.4062
  898MPD2    H213162   3.865   0.688   0.123 -1.3503  0.5184  2.2422
  898MPD2    H313163   3.636   0.723   0.053  1.8448 -2.2221 -0.3457
  898MPD2     N13164   3.733   1.079  17.483 -0.0785  0.2384  0.3684
  898MPD2    H513165   3.820   1.120  17.450 -0.4286  2.1311  1.7875
  898MPD2    N113166   4.077   0.824   0.024 -1.1147 -0.5432 -0.2251
  898MPD2    H713167   4.145   0.884  17.681 -1.0530  0.6423  1.4752
  899MPD2     C13168   3.773   2.099  17.493  0.3454  0.2745  0.3752
  899MPD2    C113169   3.895   2.162  17.505 -0.2362  0.3170 -0.4917
  899MPD2    C213170   3.909   2.275  17.586 -0.2134  0.9753  0.4756
  899MPD2    C313171   3.799   2.329  17.645 -0.5158  0.3368 -0.1246
  899MPD2    C413172   3.678   2.258  17.637 -0.0969  0.3584  0.8771
  899MPD2    C513173   3.664   2.147  17.553 -0.3251  0.0863 -0.9963
  899MPD2     H13174   4.002   2.330  17.595 -0.2618  1.0651  0.4352
  899MPD2    H113175   3.588   2.291  17.688 -0.8518 -1.8880  1.0058
  899MPD2    H213176   3.763   2.010  17.432 -2.0784  1.0575 -0.3575
  899MPD2    H313177   3.573   2.089  17.553 -0.5313  0.4015 -0.6438
  899MPD2     N13178   3.796   2.431   0.039 -0.2927 -0.4579 -0.0715
  899MPD2    H513179   3.705   2.451   0.079 -0.1630  1.5658 -0.8309
  899MPD2    N113180   3.998   2.102  17.432 -0.4884  0.0985 -0.3884
  899MPD2    H713181   3.974   2.031  17.363  1.6177 -0.6648 -0.3192
  900MPD2     C13182   4.188   3.962  12.114  0.2665 -0.4564 -0.1061
  900MPD2    C113183   4.141   3.844  12.074  0.0434  0.3508 -0.3553
  900MPD2    C213184   4.019   3.833  11.999 -0.4175  0.2963 -0.0249
  900MPD2    C313185   3.946   3.948  11.982  0.0999  0.1105 -0.1969
  900MPD2    C413186   3.978   4.067  12.044  0.0864 -0.1776  0.4929
  900MPD2    C513187   4.108   4.077  12.096  0.0629  0.4271  0.3326
  900MPD2     H13188   3.973   3.739  11.970 -0.9718  0.3690  0.6044
  900MPD2    H113189   3.920   4.157  12.034 -1.2793 -1.1648 -0.4853
  900MPD2    H213190   4.288   3.971  12.156  0.5043  0.2184 -0.8002
  900MPD2    H313191   4.148   4.174  12.123  3.3980 -0.6337 -0.8733
  900MPD2     N13192   3.826   3.933  11.918  0.4213  0.2343 -0.3748
  900MPD2    H513193   3.815   3.847  11.865  0.9749 -0.2803  0.3310
  900MPD2    N113194   4.228   3.736  12.100  0.1445  0.3042 -0.0201
  900MPD2    H713195   4.320   3.760  12.136 -0.2383  0.8607  0.5894
  901MPD2     C13196   4.192   2.798  12.612 -0.5030 -0.4555 -0.1631
  901MPD2    C113197   4.284   2.785  12.512  0.4071 -0.4330 -0.8635
  901MPD2    C213198   4.326   2.894  12.444 -0.1545 -0.8302 -0.3145
  901MPD2    C313199   4.277   3.023  12.470 -0.4191 -0.2749  0.3522
  901MPD2    C413200   4.177   3.033  12.567 -0.5866 -0.2469  0.0159
  901MPD2    C513201   4.142   2.921  12.639 -0.3910 -0.5634  0.0017
  901MPD2     H13202   4.394   2.882  12.361 -0.5895 -1.7489 -0.5320
  901MPD2    H113203   4.128   3.126  12.591 -0.5763 -0.0730 -0.6292
  901MPD2    H213204   4.153   2.715  12.670  0.4247 -1.1322 -0.5155
  901MPD2    H313205   4.070   2.926  12.720  1.9641 -2.2053  2.1821
  901MPD2     N13206   4.325   3.134  12.396  0.0933 -0.4051  0.1870
  901MPD2    H513207   4.389   3.120  12.319  0.9390  0.4489  0.7344
  901MPD2    N113208   4.332   2.656  12.487  0.8117  0.3955  0.3126
  901MPD2    H713209   4.302   2.582  12.549 -0.7351  3.0253  2.6767
  902MPD2     C13210   3.309   0.993  13.027 -0.9553  0.1603  0.4044
  902MPD2    C113211   3.372   1.116  13.024 -0.0882 -0.1753 -0.0440
  902MPD2    C213212   3.497   1.125  12.962 -0.2135 -0.8350  0.1226
  902MPD2    C313213   3.549   1.012  12.902  0.2519 -0.6930 -0.2699
  902MPD2    C413214   3.471   0.896  12.895 -0.5210  0.3669 -0.5514
  902MPD2    C513215   3.353   0.885  12.960  0.6606  0.2610  0.3831
  902MPD2     H13216   3.554   1.217  12.961  0.0060 -0.9617  0.8338
  902MPD2    H113217   3.517   0.807  12.854 -0.8272  0.8231 -1.8985
  902MPD2    H213218   3.225   0.972  13.092 -1.0531 -1.3359 -0.1968
  902MPD2    H313219   3.299   0.792  12.971  1.8117 -0.4625 -0.1567
  902MPD2     N13220   3.670   1.012  12.833  0.4702 -0.0246  0.5833
  902MPD2    H513221   3.686   0.926  12.781 -0.9808  0.7963 -1.2401
  902MPD2    N113222   3.300   1.228  13.066  0.5453  0.3709 -0.3208
  902MPD2    H713223   3.201   1.219  13.090  0.6758  1.0894  0.5172
  903MPD2     C13224   3.772   1.303  12.193  0.3997  0.5621 -0.0493
  903MPD2    C113225   3.749   1.187  12.255 -0.3753  0.3917  0.0700
  903MPD2    C213226   3.633   1.109  12.235 -0.1535 -0.1740  0.0589
  903MPD2    C313227   3.543   1.153  12.138 -0.3581 -0.7152 -0.4776
  903MPD2    C413228   3.576   1.259  12.068 -0.0885  0.4273 -0.3278
  903MPD2    C513229   3.683   1.345  12.095  0.4069  0.6403 -0.6288
  903MPD2     H13230   3.610   1.022  12.296 -0.3351  1.2574  2.0182
  903MPD2    H113231   3.515   1.306  11.992 -1.2148  1.0141  0.9318
  903MPD2    H213232   3.855   1.366  12.223  0.1275  1.2586 -0.7612
  903MPD2    H313233   3.674   1.445  12.055 -1.0968  0.0760 -1.7276
  903MPD2     N13234   3.424   1.092  12.137  0.1324 -1.0365 -0.2810
  903MPD2    H513235   3.403   1.030  12.215 -0.5170 -0.0868  0.3045
  903MPD2    N113236   3.846   1.151  12.352 -0.2162 -0.1096  0.2386
  903MPD2    H713237   3.911   1.227  12.367 -1.0070  0.5158  0.4611
  904MPD2     C13238   3.926   0.488  13.818 -0.0194 -0.3192 -0.1726
  904MPD2    C113239   3.925   0.622  13.837  0.9331  0.1239 -0.3255
  904MPD2    C213240   3.999   0.680  13.943  0.2542 -0.3914 -0.2811
  904MPD2    C313241   4.082   0.606  14.024 -0.0341  0.1897  0.5501
  904MPD2    C413242   4.083   0.467  14.006 -0.4655  0.0263  0.5717
  904MPD2    C513243   3.997   0.415  13.910  0.5172 -0.0046  0.3153
  904MPD2     H13244   3.987   0.787  13.952  1.6392 -0.1763 -1.0335
  904MPD2    H113245   4.141   0.397  14.065  1.2258  0.4644 -0.5838
  904MPD2    H213246   3.865   0.442  13.741 -0.2357  0.2494 -0.3410
  904MPD2    H313247   3.985   0.308  13.909  1.3590 -0.0862 -0.7702
  904MPD2     N13248   4.167   0.673  14.121  0.7460  0.5226 -0.3958
  904MPD2    H513249   4.153   0.773  14.132  0.2639  0.5524 -1.2349
  904MPD2    N113250   3.847   0.704  13.746  0.1917 -0.2503  0.7214
  904MPD2    H713251   3.791   0.644  13.687 -1.5577  1.5145  0.5900
  905MPD2     C13252   3.545   0.315  13.260 -0.1238 -0.4758 -0.2914
  905MPD2    C113253   3.629   0.380  13.337 -0.3992 -0.4651  0.0164
  905MPD2    C213254   3.761   0.339  13.357  0.3119  0.0982 -0.4728
  905MPD2    C313255   3.808   0.223  13.302  0.5677 -0.5140  0.1669
  905MPD2    C413256   3.713   0.148  13.231  0.2643 -0.3050  0.3012
  905MPD2    C513257   3.587   0.197  13.203 -0.0212  0.0210  0.0372
  905MPD2     H13258   3.832   0.388  13.423 -0.2153  0.9186 -0.5189
  905MPD2    H113259   3.750   0.055  13.189 -2.4114 -1.0893 -0.3547
  905MPD2    H213260   3.443   0.349  13.245 -0.0229 -0.1496 -0.2404
  905MPD2    H313261   3.521   0.138  13.140 -0.2068 -0.8452  1.0222
  905MPD2     N13262   3.936   0.173  13.339 -0.3244 -0.5513 -0.3452
  905MPD2    H513263   3.949   0.076  13.312  2.1285 -0.1637 -0.6250
  905MPD2    N113264   3.578   0.495  13.407  0.4108 -0.6683  0.0383
  905MPD2    H713265   3.484   0.526  13.386  1.5028  1.9961 -0.8689
  906MPD2     C13266   0.552   0.238  11.132 -0.2519 -0.2174  0.3381
  906MPD2    C113267   0.429   0.260  11.071 -0.2187  0.0771  0.4575
  906MPD2    C213268   0.315   0.251  11.148 -0.5266  0.5292  0.5734
  906MPD2    C313269   0.328   0.200  11.279  0.3549 -0.6511  0.1219
  906MPD2    C413270   0.451   0.175  11.333  0.0349  0.3523  0.5797
  906MPD2    C513271   0.562   0.194  11.255 -0.0945  0.1137  0.0636
  906MPD2     H13272   0.222   0.285  11.106  1.0118  1.7138 -1.8497
  906MPD2    H113273   0.462   0.118  11.424 -1.4435 -0.8135  0.0134
  906MPD2    H213274   0.648   0.256  11.084 -0.1883  0.7521  0.8208
  906MPD2    H313275   0.657   0.164  11.298 -0.5144 -2.2176 -0.6400
  906MPD2     N13276   0.221   0.149  11.349 -1.1286  0.2745 -0.4806
  906MPD2    H513277   0.238   0.116  11.443  0.8228 -0.1924 -0.9985
  906MPD2    N113278   0.409   0.291  10.935 -0.0626  0.7470 -0.1443
  906MPD2    H713279   0.312   0.288  10.904 -0.7613  0.7873  2.0290
  907MPD2     C13280   4.440   4.243  15.138 -0.3732 -0.4426  0.0108
  907MPD2    C113281   4.518   4.134  15.103 -0.5302 -0.9076  0.0968
  907MPD2    C213282   4.639   4.123  15.163 -0.3850  0.1359  0.1019
  907MPD2    C313283   4.690   4.221  15.252 -0.1997 -0.3979  0.0964
  907MPD2    C413284   4.619   4.337  15.272  0.1304 -0.5931  0.4938
  907MPD2    C513285   4.489   4.345  15.213  0.3587  0.1538 -0.5176
  907MPD2     H13286   4.695   4.033  15.139 -1.0549 -0.0440 -0.7627
  907MPD2    H113287   4.658   4.414  15.338  1.7094  1.2799 -2.6697
  907MPD2    H213288   4.350   4.274  15.086 -0.6978 -2.5882 -0.7013
  907MPD2    H313289   4.429   4.434  15.229  1.1927  0.7918 -0.9539
  907MPD2     N13290   0.093   4.197  15.312 -0.1177  0.3092 -0.7311
  907MPD2    H513291   0.143   4.112  15.287 -1.8535 -0.5743 -1.1870
  907MPD2    N113292   4.475   4.035  15.008  1.0567  0.2742 -0.3356
  907MPD2    H713293   4.537   3.958  14.984  0.3711 -0.1022 -0.9153
  908MPD2     C13294   1.638   0.376   9.668 -0.3918 -0.5106  0.2129
  908MPD2    C113295   1.709   0.283   9.741 -0.3523  0.1200 -0.4774
  908MPD2    C213296   1.767   0.327   9.859  0.6057  0.0648  0.0362
  908MPD2    C313297   1.756   0.459   9.904  0.1402 -0.2794 -0.3236
  908MPD2    C413298   1.673   0.546   9.837  0.1044  0.0382  0.0247
  908MPD2    C513299   1.617   0.501   9.725  0.3428  0.4336 -0.2422
  908MPD2     H13300   1.819   0.258   9.923  0.5630 -1.0970 -1.1812
  908MPD2    H113301   1.650   0.646   9.872 -1.0780  0.1872 -1.1859
  908MPD2    H213302   1.575   0.341   9.587 -1.0666  0.3269  0.3789
  908MPD2    H313303   1.546   0.570   9.680 -0.4511 -1.6178 -2.0703
  908MPD2     N13304   1.823   0.491  10.024  1.3017  0.4389 -0.2596
  908MPD2    H513305   1.858   0.414  10.080 -0.2335  1.0671  1.5609
  908MPD2    N113306   1.725   0.152   9.695 -0.1390 -0.1181 -0.2901
  908MPD2    H713307   1.680   0.138   9.605 -1.5507 -4.3451  1.1087
  909MPD2     C13308   2.541   2.252  11.574 -0.4844  0.3522  0.1203
  909MPD2    C113309   2.548   2.381  11.530 -0.3188 -0.2181  0.4890
  909MPD2    C213310   2.459   2.471  11.591 -0.4418  0.4486  0.6324
  909MPD2    C313311   2.370   2.430  11.692  0.3088  0.4497  0.2441
  909MPD2    C413312   2.371   2.296  11.733 -0.4708  0.1871  0.3658
  909MPD2    C513313   2.460   2.207  11.678  0.2153 -0.0754 -0.4071
  909MPD2     H13314   2.448   2.574  11.558  1.3521  0.6727  0.7327
  909MPD2    H113315   2.304   2.258  11.810  0.1458 -0.3782  0.6224
  909MPD2    H213316   2.614   2.180  11.538  2.0859  1.6502  2.7205
  909MPD2    H313317   2.453   2.104  11.709 -2.1661  1.0699  2.8487
  909MPD2     N13318   2.284   2.533  11.745  0.1946 -0.3166  0.1876
  909MPD2    H513319   2.287   2.630  11.715 -1.1497 -0.3257  0.0369
  909MPD2    N113320   2.630   2.425  11.426 -0.2663 -0.6536 -0.4571
  909MPD2    H713321   2.599   2.515  11.390 -0.1045 -1.5483 -2.8465
  910MPD2     C13322   3.292   4.397  15.827  0.3030 -0.7043 -0.4442
  910MPD2    C113323   3.397   4.415  15.730  0.2964 -0.3256 -0.2673
  910MPD2    C213324   3.368   4.468  15.609  0.2284  0.3062  0.0088
  910MPD2    C313325   3.234   4.513  15.580 -0.5912  0.2047  0.1483
  910MPD2    C413326   3.136   4.483  15.676 -0.0533 -0.1392  0.3184
  910MPD2    C513327   3.164   4.431  15.800  0.6453 -0.7121 -0.2863
  910MPD2     H13328   3.445   4.487  15.536  0.0714  2.6508  0.4643
  910MPD2    H113329   3.035   4.521  15.667 -0.1432 -0.5726 -0.5777
  910MPD2    H213330   3.306   4.350  15.923  1.1381 -3.8400 -2.1243
  910MPD2    H313331   3.085   4.418  15.874 -0.0445  1.1274 -0.7137
  910MPD2     N13332   3.199   4.585  15.466  0.0897  0.5067  0.1165
  910MPD2    H513333   3.104   4.618  15.451  0.3310  1.6238  1.0505
  910MPD2    N113334   3.530   4.379  15.760  0.3093 -1.0436 -0.4040
  910MPD2    H713335   3.597   4.398  15.686 -0.9890 -2.1588 -1.8715
  911MPD2     C13336   1.582   4.621  16.292  0.7081  0.4023  0.2742
  911MPD2    C113337   1.578   0.028  16.323  0.5411  0.2227 -0.4011
  911MPD2    C213338   1.464   0.104  16.288 -0.2896 -0.2624 -0.2197
  911MPD2    C313339   1.356   0.051  16.218  0.2626 -0.7336  0.8854
  911MPD2    C413340   1.371   4.641  16.186  0.5025 -0.3670  0.0551
  911MPD2    C513341   1.475   4.566  16.229 -0.1969  0.3058  0.2365
  911MPD2     H13342   1.458   0.204  16.328  0.8676  0.0597 -0.8387
  911MPD2    H113343   1.293   4.586  16.135  0.7988 -1.8587  1.2129
  911MPD2    H213344   1.660   4.552  16.325  0.9281 -0.9695 -3.1076
  911MPD2    H313345   1.481   4.459  16.211 -1.3193  0.3268 -0.2010
  911MPD2     N13346   1.242   0.120  16.172  0.4513  0.0104 -0.9251
  911MPD2    H513347   1.180   0.071  16.108  0.3128  0.4956 -1.1611
  911MPD2    N113348   1.695   0.076  16.387  0.1306  0.1615  0.0841
  911MPD2    H713349   1.764   0.003  16.399 -0.9450 -0.9188 -0.3011
  912MPD2     C13350   1.244   4.602  15.547  0.5142 -0.2241  0.1793
  912MPD2    C113351   1.186   4.618  15.675 -0.3261 -0.4444 -0.4620
  912MPD2    C213352   1.168   4.498  15.748 -0.2772  0.5121 -0.1146
  912MPD2    C313353   1.214   4.373  15.715 -0.5580 -0.7215  0.5483
  912MPD2    C413354   1.276   4.366  15.593 -0.0465  0.0554  0.3003
  912MPD2    C513355   1.285   4.477  15.509  0.2537  0.4395 -0.0415
  912MPD2     H13356   1.122   4.503  15.847  1.0148  1.1392  0.4503
  912MPD2    H113357   1.296   4.269  15.549  1.4751  0.4996  0.0093
  912MPD2    H213358   1.255   4.682  15.474  1.9008  0.4428  1.1220
  912MPD2    H313359   1.318   4.468  15.406 -1.9793 -0.7683 -0.6619
  912MPD2     N13360   1.188   4.269  15.799  0.9673  0.2019  0.6008
  912MPD2    H513361   1.131   4.290  15.880 -0.2467 -0.0925 -0.1663
  912MPD2    N113362   1.144   0.015  15.725 -0.2738 -0.5560  0.0530
  912MPD2    H713363   1.153   0.093  15.661  1.3342 -0.2089  0.7152
  913MPD2     C13364   3.471   1.393   9.594  0.6027 -0.0164  0.2955
  913MPD2    C113365   3.332   1.370   9.583 -0.4638 -0.7334 -0.1388
  913MPD2    C213366   3.258   1.454   9.496  0.5435 -0.0151 -0.2439
  913MPD2    C313367   3.312   1.553   9.425 -0.3633  0.3455 -0.3163
  913MPD2    C413368   3.450   1.571   9.434 -0.2354  0.6819 -0.8029
  913MPD2    C513369   3.526   1.494   9.515  0.3551 -0.1566 -0.0279
  913MPD2     H13370   3.150   1.448   9.504  1.0924 -2.9425  4.8258
  913MPD2    H113371   3.499   1.657   9.389  0.3684 -0.2371 -1.8887
  913MPD2    H213372   3.528   1.337   9.668  1.4431 -1.7344 -1.6546
  913MPD2    H313373   3.633   1.515   9.516  0.0118  1.5488 -0.1053
  913MPD2     N13374   3.235   1.648   9.360 -0.3827  0.2464 -0.6105
  913MPD2    H513375   3.297   1.711   9.310 -1.0934  1.6687  0.3268
  913MPD2    N113376   3.270   1.279   9.665  0.1332  0.7536  0.5305
  913MPD2    H713377   3.306   1.262   9.758  0.3257 -0.3651  0.2422
  914MPD2     C13378   4.566   2.201  11.648  0.4183 -0.3987 -0.3377
  914MPD2    C113379   4.577   2.334  11.692  0.0482  0.0230 -0.1426
  914MPD2    C213380   4.575   2.354  11.832  0.6751  0.6948  0.8476
  914MPD2    C313381   4.569   2.251  11.921  0.5711  0.4626 -0.9371
  914MPD2    C413382   4.551   2.126  11.876 -0.0735 -0.2480 -0.5035
  914MPD2    C513383   4.552   2.104  11.744  0.4460  0.1540 -0.7450
  914MPD2     H13384   4.586   2.457  11.864  2.0488  0.5247  0.9255
  914MPD2    H113385   4.551   2.037  11.938 -1.9327  0.6865  0.8346
  914MPD2    H213386   4.588   2.163  11.549 -1.1370  2.7502 -1.8785
  914MPD2    H313387   4.555   2.004  11.704  0.4865 -0.7722  1.5844
  914MPD2     N13388   4.568   2.289  12.060  0.9506 -0.1672 -1.0456
  914MPD2    H513389   4.570   2.386  12.092  0.8666 -0.9447  1.3316
  914MPD2    N113390   4.604   2.441  11.604  0.1233  0.4595  0.2576
  914MPD2    H713391   4.641   2.529  11.637 -0.0109  0.6907 -0.2208
  915MPD2     C13392   2.532   1.783  15.761  0.1127 -0.6166 -0.0406
  915MPD2    C113393   2.498   1.911  15.716  0.3313 -1.0245 -0.0767
  915MPD2    C213394   2.475   2.015  15.805 -0.2575  0.5963 -0.5429
  915MPD2    C313395   2.477   1.985  15.944 -0.0995  0.1861 -0.1621
  915MPD2    C413396   2.500   1.853  15.990 -0.0433  0.5516  0.2502
  915MPD2    C513397   2.524   1.756  15.899 -0.0619 -0.3316 -0.3485
  915MPD2     H13398   2.435   2.110  15.771 -0.1333  1.1632  0.9171
  915MPD2    H113399   2.502   1.837  16.097  1.2037  0.0446  0.1457
  915MPD2    H213400   2.554   1.703  15.691 -0.6640 -0.2756 -0.6709
  915MPD2    H313401   2.535   1.654  15.934 -1.4944  0.2185  1.6841
  915MPD2     N13402   2.448   2.075  16.038  0.2623 -0.4636  0.2354
  915MPD2    H513403   2.451   2.038  16.132  3.7243 -2.8988 -0.8058
  915MPD2    N113404   2.485   1.930  15.575 -0.2468 -0.2123 -0.6397
  915MPD2    H713405   2.489   1.841  15.525 -2.7375  0.3848 -1.8912
  916MPD2     C13406   0.744   0.260  15.811 -0.1527 -0.1923 -0.4912
  916MPD2    C113407   0.731   0.136  15.864 -0.5049 -0.6292 -0.4994
  916MPD2    C213408   0.759   0.030  15.786 -0.1773 -0.1045  0.2581
  916MPD2    C313409   0.810   0.042  15.655  0.2853 -0.2666 -0.2712
  916MPD2    C413410   0.816   0.166  15.605  0.4520  0.3098  0.2426
  916MPD2    C513411   0.789   0.273  15.682 -0.1686 -0.0159 -0.4000
  916MPD2     H13412   0.750   4.651  15.813  0.6728  0.0993  1.3218
  916MPD2    H113413   0.837   0.180  15.500  1.5471 -3.0521 -0.0035
  916MPD2    H213414   0.720   0.350  15.866  4.1712  1.1028 -0.7466
  916MPD2    H313415   0.802   0.373  15.642 -0.6718  1.1612  2.4213
  916MPD2     N13416   0.842   4.652  15.581  0.3658 -0.5456 -0.2660
  916MPD2    H513417   0.807   4.564  15.617 -0.4371  0.4076  1.2911
  916MPD2    N113418   0.659   0.121  15.984  0.0611 -0.1790 -0.4347
  916MPD2    H713419   0.640   0.210  16.030 -0.1883  0.7071 -2.2463
  917MPD2     C13420   0.781   2.454  10.941 -0.0615  0.7056  0.2153
  917MPD2    C113421   0.809   2.563  11.033 -0.5741  0.0181 -0.1906
  917MPD2    C213422   0.932   2.628  11.033 -0.1098  0.6600 -0.1234
  917MPD2    C313423   1.031   2.570  10.956  0.3328 -0.3195  0.0346
  917MPD2    C413424   1.003   2.458  10.874  0.3297  0.0024  0.2335
  917MPD2    C513425   0.881   2.405  10.859 -0.4857  0.1026  0.8533
  917MPD2     H13426   0.957   2.713  11.095 -0.6877 -0.8498  2.1870
  917MPD2    H113427   1.085   2.415  10.817 -0.5686 -0.6988 -0.5445
  917MPD2    H213428   0.685   2.403  10.943  0.2122  0.1291 -2.4253
  917MPD2    H313429   0.874   2.325  10.787  0.8089  0.0221  0.8167
  917MPD2     N13430   1.166   2.611  10.960 -0.9312  0.1817  0.2223
  917MPD2    H513431   1.218   2.562  10.889 -0.1811  0.2389  0.7394
  917MPD2    N113432   0.707   2.599  11.129  0.0284 -0.5337  0.2672
  917MPD2    H713433   0.615   2.563  11.107 -0.0430 -0.7468  0.9156
  918MPD2     C13434   0.801   2.772  12.102  0.2778 -0.0215 -0.4061
  918MPD2    C113435   0.885   2.757  11.994 -0.1202 -0.3086 -0.0428
  918MPD2    C213436   0.835   2.763  11.866  0.2291 -0.9304 -0.2457
  918MPD2    C313437   0.699   2.784  11.838  0.7324 -0.3162  0.1612
  918MPD2    C413438   0.616   2.807  11.947 -0.2778  0.3437 -0.2578
  918MPD2    C513439   0.666   2.796  12.081  0.4574  0.5258  0.1261
  918MPD2     H13440   0.907   2.744  11.787  0.4884  2.0204 -0.7286
  918MPD2    H113441   0.509   2.819  11.941 -0.4117  0.3371  2.1396
  918MPD2    H213442   0.839   2.769  12.204  0.4070 -0.2686 -0.4616
  918MPD2    H313443   0.605   2.807  12.170 -0.1456 -1.8774 -0.0151
  918MPD2     N13444   0.668   2.782  11.699 -0.1747  0.1025  0.1376
  918MPD2    H513445   0.742   2.756  11.635 -1.0642  2.3764 -1.7836
  918MPD2    N113446   1.017   2.737  12.029 -0.1624  0.0865 -0.2683
  918MPD2    H713447   1.040   2.721  12.127 -0.7183 -0.2271 -0.1908
  919MPD2     C13448   1.591   1.854  11.299 -0.0105 -0.4274 -0.0154
  919MPD2    C113449   1.647   1.732  11.351  0.6878 -0.1389 -0.1768
  919MPD2    C213450   1.734   1.660  11.269 -0.0045 -0.1713 -0.4021
  919MPD2    C313451   1.757   1.702  11.140  0.0447 -0.2698 -0.2929
  919MPD2    C413452   1.702   1.821  11.094 -0.1091  0.2252  0.5134
  919MPD2    C513453   1.612   1.886  11.169  0.2501  0.3910 -0.1802
  919MPD2     H13454   1.767   1.564  11.307  0.5167 -0.3790 -1.3605
  919MPD2    H113455   1.707   1.861  10.994  0.3883  0.3618  0.5922
  919MPD2    H213456   1.516   1.912  11.350 -0.4990 -1.5176  0.5047
  919MPD2    H313457   1.574   1.982  11.136 -0.6893  0.1205  0.1178
  919MPD2     N13458   1.851   1.637  11.049  0.3108 -0.3747  0.1350
  919MPD2    H513459   1.856   1.668  10.953  0.2581  0.8144  0.5102
  919MPD2    N113460   1.623   1.684  11.479  0.0208  0.7070  0.6245
  919MPD2    H713461   1.677   1.602  11.504  0.5372  1.0553  0.6731
  920MPD2     C13462   2.044   1.374  10.110 -0.3827 -0.2572  0.8727
  920MPD2    C113463   1.940   1.433  10.179 -0.2342  0.4197  0.1095
  920MPD2    C213464   1.945   1.429  10.313  0.9559  0.2420 -0.2719
  920MPD2    C313465   2.057   1.370  10.375  0.1529  0.0088 -0.4532
  920MPD2    C413466   2.163   1.310  10.303  0.2568 -0.5116  0.1375
  920MPD2    C513467   2.155   1.316  10.168  0.1748 -0.4123 -0.0856
  920MPD2     H13468   1.864   1.470  10.372  0.3599 -1.1044 -0.1741
  920MPD2    H113469   2.251   1.262  10.344  2.4989  0.8910 -3.1380
  920MPD2    H213470   2.043   1.369  10.002  1.4405 -1.7530  0.9410
  920MPD2    H313471   2.239   1.267  10.120 -0.9874 -2.5818  0.0960
  920MPD2     N13472   2.050   1.351  10.514  0.3490 -0.4357  0.2507
  920MPD2    H513473   2.121   1.293  10.557  1.1109  0.1938 -0.1575
  920MPD2    N113474   1.828   1.502  10.119 -0.7138  0.8353 -0.0430
  920MPD2    H713475   1.769   1.557  10.181 -0.1919 -0.9865  2.1102
  921MPD2     C13476   2.474   0.786  16.676 -0.6125 -0.1037  0.1690
  921MPD2    C113477   2.514   0.735  16.556  0.3176 -0.1526  0.4736
  921MPD2    C213478   2.437   0.640  16.493 -0.2239  0.7538 -0.8843
  921MPD2    C313479   2.315   0.604  16.551  0.0580 -0.1476  0.1964
  921MPD2    C413480   2.281   0.655  16.676 -0.8329 -0.2513  0.3538
  921MPD2    C513481   2.361   0.746  16.741  0.3021  0.3676  0.3925
  921MPD2     H13482   2.473   0.591  16.403 -0.3087 -1.5417  0.3360
  921MPD2    H113483   2.190   0.628  16.729 -0.1834 -1.3009  0.9395
  921MPD2    H213484   2.531   0.865  16.725 -2.9550  0.8479  1.3936
  921MPD2    H313485   2.334   0.781  16.840  2.0070  0.7968  0.6971
  921MPD2     N13486   2.232   0.518  16.479  0.1964  0.3303 -0.1932
  921MPD2    H513487   2.261   0.495  16.385  1.1930 -2.9485  0.9125
  921MPD2    N113488   2.639   0.768  16.509 -0.1085 -0.0896 -0.5140
  921MPD2    H713489   2.669   0.722  16.423 -0.5658  0.5133 -0.9990
  922MPD2     C13490   3.100   2.669  16.500 -0.8586 -0.1121  0.1485
  922MPD2    C113491   3.115   2.761  16.605  0.0879  0.3920 -0.1643
  922MPD2    C213492   3.035   2.768  16.718 -0.2247  0.0497 -0.0959
  922MPD2    C313493   2.944   2.670  16.729  0.4107  0.1376 -0.3886
  922MPD2    C413494   2.916   2.591  16.618 -0.1332 -0.7066 -0.5524
  922MPD2    C513495   2.987   2.591  16.504 -0.0393  0.4364 -0.0039
  922MPD2     H13496   3.058   2.833  16.801 -0.2890 -1.2368  0.9383
  922MPD2    H113497   2.826   2.530  16.622 -1.1962  0.8920 -0.3115
  922MPD2    H213498   3.165   2.667  16.414  0.2862  1.3787  0.9675
  922MPD2    H313499   2.954   2.529  16.421  0.9431 -1.8434  1.3302
  922MPD2     N13500   2.864   2.666  16.847  0.2328  0.4947 -0.3433
  922MPD2    H513501   2.886   2.735  16.918  2.8851 -1.6086  0.8698
  922MPD2    N113502   3.222   2.851  16.610  1.1072 -0.0950  0.1602
  922MPD2    H713503   3.216   2.928  16.676  0.1990 -1.0659  1.2081
  923MPD2     C13504   4.408   4.361   9.358  0.1176  0.0123  0.0254
  923MPD2    C113505   4.476   4.432   9.452 -0.3043  0.1381 -0.5130
  923MPD2    C213506   4.573   4.376   9.532  0.1934 -0.0427  0.8042
  923MPD2    C313507   4.621   4.251   9.501 -0.2103 -0.5417 -0.2973
  923MPD2    C413508   4.556   4.177   9.406  0.6402  0.2558 -0.1152
  923MPD2    C513509   4.450   4.231   9.337 -0.2301  1.1085 -0.0582
  923MPD2     H13510   4.618   4.434   9.612  0.9333 -0.5668  0.7684
  923MPD2    H113511   4.567   4.069   9.400 -2.0413 -0.0574  1.1066
  923MPD2    H213512   4.331   4.403   9.294 -0.0210  2.2105  1.6317
  923MPD2    H313513   4.407   4.182   9.250 -0.0419 -0.2509  0.6214
  923MPD2     N13514   0.013   4.200   9.561 -0.1630  0.1820  0.4104
  923MPD2    H513515   0.052   4.114   9.523  0.5276  0.0611  1.4056
  923MPD2    N113516   4.435   4.573   9.454 -0.0700 -0.1834 -0.5988
  923MPD2    H713517   4.357   4.610   9.400 -0.4942 -0.2949 -0.0681
  924MPD2     C13518   0.187   3.555  15.096 -0.3454  0.1818 -0.0715
  924MPD2    C113519   0.183   3.566  15.235  0.1129  0.1338 -0.7278
  924MPD2    C213520   0.270   3.663  15.285  0.3402 -0.1724 -0.8771
  924MPD2    C313521   0.333   3.760  15.202  0.0772 -0.5924  0.5638
  924MPD2    C413522   0.343   3.741  15.070 -0.2123 -1.0133 -0.2267
  924MPD2    C513523   0.270   3.638  15.017  0.4488 -0.4613  0.0879
  924MPD2     H13524   0.259   3.687  15.390  1.5287 -0.5677 -0.6627
  924MPD2    H113525   0.409   3.800  15.007  0.6202  1.1362  2.6809
  924MPD2    H213526   0.122   3.479  15.055 -0.2489  0.0641 -0.0082
  924MPD2    H313527   0.290   3.621  14.911 -1.5067 -0.4192 -0.2960
  924MPD2     N13528   0.391   3.880  15.256 -0.0299  0.0706 -1.0704
  924MPD2    H513529   0.447   3.949  15.207  0.8390 -0.2271 -0.5006
  924MPD2    N113530   0.088   3.495  15.310  0.3433  0.2063 -0.2365
  924MPD2    H713531   0.015   3.453  15.254 -0.0815  1.6400 -0.7453
  925MPD2     C13532   3.407   1.242  14.723  0.0970  0.3068  0.0523
  925MPD2    C113533   3.297   1.176  14.658 -0.2420 -0.2437  0.4481
  925MPD2    C213534   3.221   1.092  14.738  0.5102 -0.0744  0.0129
  925MPD2    C313535   3.258   1.064  14.877  1.2781  0.0067 -0.1898
  925MPD2    C413536   3.352   1.139  14.937 -0.0049  0.0508 -0.3701
  925MPD2    C513537   3.422   1.230  14.863  0.7598  0.1461 -0.5745
  925MPD2     H13538   3.131   1.043  14.702  1.0667 -1.4301  0.4498
  925MPD2    H113539   3.370   1.124  15.042 -3.2192  0.3892  0.2158
  925MPD2    H213540   3.477   1.303  14.667 -1.5627  2.1075 -0.0668
  925MPD2    H313541   3.492   1.293  14.917  1.0473 -0.4982 -0.1991
  925MPD2     N13542   3.188   0.978  14.961 -0.2568 -0.2211 -0.4159
  925MPD2    H513543   3.227   0.966  15.054 -0.8037 -2.3287 -0.4525
  925MPD2    N113544   3.268   1.198  14.523  0.1501  0.6071 -0.2115
  925MPD2    H713545   3.183   1.150  14.495  0.6359 -0.7774  0.6532
  926MPD2     C13546   2.505   4.571  13.334 -0.7556 -0.3298 -0.3375
  926MPD2    C113547   2.403   4.622  13.262 -1.3392 -0.0481  0.5637
  926MPD2    C213548   2.422   4.673  13.139 -0.3962  0.5965 -0.1114
  926MPD2    C313549   2.548   4.682  13.081  0.0255  0.2782 -0.0846
  926MPD2    C413550   2.655   4.648  13.163  0.1668 -0.3530 -0.4144
  926MPD2    C513551   2.634   4.597  13.284  0.2659  0.3575 -0.0353
  926MPD2     H13552   2.330   4.692  13.084  0.1253 -0.6669 -1.4258
  926MPD2    H113553   2.759   4.663  13.136  0.6768 -0.2068  1.5783
  926MPD2    H213554   2.489   4.529  13.433 -0.0756 -2.1036 -0.9980
  926MPD2    H313555   2.711   4.557  13.349 -1.0745  0.5475  1.6753
  926MPD2     N13556   2.576   0.012  12.959  0.3756  0.5743  0.5435
  926MPD2    H513557   2.674   0.007  12.934 -0.1621  1.1416 -1.6460
  926MPD2    N113558   2.269   4.637  13.310 -0.1926 -0.2993 -0.5280
  926MPD2    H713559   2.200   4.694  13.263 -1.3882 -0.6856  0.7737
  927MPD2     C13560   1.459   1.237   0.113 -0.0224  0.1282  0.0275
  927MPD2    C113561   1.396   1.355   0.080 -0.7332 -0.3160 -0.8210
  927MPD2    C213562   1.406   1.402  17.654 -0.8028 -0.1472  0.1781
  927MPD2    C313563   1.463   1.326  17.554  0.5851  0.7644  0.1546
  927MPD2    C413564   1.509   1.206  17.579  0.0710 -0.1980 -0.6935
  927MPD2    C513565   1.517   1.172   0.015 -0.7212  0.6872  0.2228
  927MPD2     H13566   1.364   1.499  17.630  0.2482 -0.5319 -3.2040
  927MPD2    H113567   1.576   1.149  17.517 -0.4809  0.1859 -1.6490
  927MPD2    H213568   1.461   1.203   0.216  1.4860  2.0256  0.6157
  927MPD2    H313569   1.579   1.084   0.031 -1.5042  0.4124  1.6602
  927MPD2     N13570   1.477   1.385  17.430 -0.2012 -0.5451 -0.0378
  927MPD2    H513571   1.463   1.485  17.433 -1.1534 -0.7398  1.8186
  927MPD2    N113572   1.343   1.431   0.187  0.1515  0.8465  0.4976
  927MPD2    H713573   1.361   1.392   0.279  0.8047 -1.9938 -0.8114
  928MPD2     C13574   4.621   0.879   1.125 -0.0585 -0.2356  0.4055
  928MPD2    C113575   0.010   0.962   1.132  1.1584  0.1036  0.2861
  928MPD2    C213576   0.083   0.980   1.021  0.2228  0.3396 -0.3324
  928MPD2    C313577   0.053   0.915   0.902 -0.3820 -0.2003  0.2657
  928MPD2    C413578   4.665   0.840   0.889 -0.1836  0.4810 -0.4720
  928MPD2    C513579   4.593   0.816   1.005 -0.4390  0.2037  0.0339
  928MPD2     H13580   0.175   1.037   1.032  1.1918 -1.9202  3.3523
  928MPD2    H113581   4.632   0.797   0.795  0.1365 -0.8836  0.0322
  928MPD2    H213582   4.563   0.849   1.212 -0.4161 -0.4269  0.1055
  928MPD2    H313583   4.505   0.753   1.002  0.2440 -0.6806 -1.7422
  928MPD2     N13584   0.128   0.932   0.785 -1.0699 -0.5939 -0.5666
  928MPD2    H513585   0.085   0.893   0.701  0.0662 -0.9956 -0.9590
  928MPD2    N113586   0.053   1.021   1.250  0.2121  0.0527 -0.1326
  928MPD2    H713587   0.137   1.077   1.252  0.6509 -0.5801 -0.9890
  929MPD2     C13588   4.420   4.569  10.836 -0.0613  0.2841  0.3035
  929MPD2    C113589   4.287   4.566  10.868  0.3715  0.2993  0.6502
  929MPD2    C213590   4.208   4.672  10.810  0.2125  0.5800 -0.2148
  929MPD2    C313591   4.259   0.029  10.720 -0.2657  0.8699 -0.0013
  929MPD2    C413592   4.395   0.022  10.681 -0.4664  0.3995 -0.0142
  929MPD2    C513593   4.473   4.650  10.741 -0.0708 -0.5439 -0.1603
  929MPD2     H13594   4.105   4.695  10.836  0.6005  1.3482  0.6471
  929MPD2    H113595   4.438   0.088  10.607 -1.4875  2.5934  1.3248
  929MPD2    H213596   4.494   4.503  10.878  0.3437  0.9251  0.6018
  929MPD2    H313597   4.575   4.637  10.708  0.4358 -1.5948  1.8205
  929MPD2     N13598   4.169   0.117  10.657  0.2639  0.0127 -0.7591
  929MPD2    H513599   4.073   0.101  10.686  1.2528 -0.3960  2.3020
  929MPD2    N113600   4.253   4.470  10.968 -0.1915 -0.3511 -0.1660
  929MPD2    H713601   4.336   4.433  11.013  0.6076  1.3565 -0.2065
  930MPD2     C13602   1.110   2.374  14.131  0.1159 -0.7367  0.3637
  930MPD2    C113603   1.242   2.369  14.109 -0.0259 -0.8133 -0.2547
  930MPD2    C213604   1.292   2.293  13.999  0.2590  0.6274 -0.0203
  930MPD2    C313605   1.197   2.237  13.911 -0.6837  0.0730  0.1946
  930MPD2    C413606   1.063   2.242  13.944 -0.6066  0.9826  0.3556
  930MPD2    C513607   1.020   2.298  14.062  0.7202 -0.1698  0.5284
  930MPD2     H13608   1.396   2.282  13.972  0.3593  0.8168  0.2976
  930MPD2    H113609   0.987   2.209  13.875 -0.8540 -1.1247  1.6373
  930MPD2    H213610   1.065   2.432  14.211 -0.5581 -1.4612  0.5105
  930MPD2    H313611   0.915   2.323  14.073 -0.0202 -2.6804 -0.7603
  930MPD2     N13612   1.236   2.200  13.777 -0.1430  0.0927 -0.0309
  930MPD2    H513613   1.165   2.183  13.707 -1.3954  0.4389  1.1598
  930MPD2    N113614   1.315   2.464  14.180  0.1925  0.0953 -0.6360
  930MPD2    H713615   1.261   2.530  14.235 -0.7845 -0.5684 -0.8055
  931MPD2     C13616   1.445   1.301   0.776  0.1383 -0.4308  0.0211
  931MPD2    C113617   1.373   1.417   0.792 -0.4971 -0.4705  0.3099
  931MPD2    C213618   1.353   1.474   0.914  0.0978 -0.3397 -0.7196
  931MPD2    C313619   1.445   1.442   1.009 -0.5163  0.2584  0.0160
  931MPD2    C413620   1.522   1.332   0.999 -0.0885  0.0440 -0.1016
  931MPD2    C513621   1.517   1.257   0.884 -0.5226 -0.2859 -0.2282
  931MPD2     H13622   1.297   1.566   0.924 -0.9815 -1.0471 -0.1282
  931MPD2    H113623   1.575   1.290   1.084 -1.2014 -0.5909  0.2858
  931MPD2    H213624   1.447   1.241   0.685 -1.4822 -1.5323  0.7320
  931MPD2    H313625   1.577   1.166   0.878  3.4975  2.3857 -0.4732
  931MPD2     N13626   1.449   1.513   1.132  0.3710 -0.8325 -0.4119
  931MPD2    H513627   1.530   1.497   1.190  1.1041 -1.2462 -1.5536
  931MPD2    N113628   1.321   1.476   0.668  0.2948 -0.0528  0.9769
  931MPD2    H713629   1.353   1.433   0.581 -0.6311  0.0690  0.5736
  932MPD2     C13630   3.754   0.871  11.477  0.1224 -0.1496 -0.0772
  932MPD2    C113631   3.642   0.948  11.493  0.3550 -0.4193 -0.2498
  932MPD2    C213632   3.545   0.901  11.580 -0.5572  0.0379  0.5633
  932MPD2    C313633   3.558   0.783  11.650 -0.1892 -0.1047  0.3535
  932MPD2    C413634   3.676   0.711  11.636  0.4386  0.2508  0.4974
  932MPD2    C513635   3.769   0.755  11.549  0.0283 -0.6349 -0.2899
  932MPD2     H13636   3.456   0.963  11.590 -0.2140  0.6911 -0.3274
  932MPD2    H113637   3.688   0.621  11.695 -2.0577 -0.6734 -0.4411
  932MPD2    H213638   3.842   0.893  11.418  0.8987 -1.2601  0.6689
  932MPD2    H313639   3.853   0.689  11.532  1.0786  0.2096  1.5669
  932MPD2     N13640   3.465   0.743  11.744 -0.3395  0.6039 -0.5208
  932MPD2    H513641   3.480   0.673  11.815  0.6733  0.8520 -0.4780
  932MPD2    N113642   3.619   1.071  11.429 -0.7042 -0.4649  0.6480
  932MPD2    H713643   3.536   1.124  11.453 -1.8437 -2.7434  1.7290
  933MPD2     C13644   4.583   1.682   1.898  0.1587 -0.2533 -0.0861
  933MPD2    C113645   4.544   1.587   1.804 -0.6171 -0.3760  0.3107
  933MPD2    C213646   4.412   1.593   1.766 -0.1355 -0.6052 -0.2572
  933MPD2    C313647   4.322   1.679   1.820 -0.4108 -0.0766 -0.3957
  933MPD2    C413648   4.358   1.763   1.930 -0.1026  0.9472  0.0304
  933MPD2    C513649   4.487   1.765   1.960  0.2760 -0.0289  0.0968
  933MPD2     H13650   4.375   1.528   1.688  1.2624 -1.8358  0.0920
  933MPD2    H113651   4.285   1.827   1.977 -1.9797  0.4387 -2.2126
  933MPD2    H213652   4.687   1.690   1.927  0.2216 -1.5384  0.0508
  933MPD2    H313653   4.512   1.831   2.042 -0.4659 -1.9983  1.8977
  933MPD2     N13654   4.191   1.665   1.773 -0.2498  0.1523  0.4888
  933MPD2    H513655   4.170   1.602   1.696 -0.6985  0.7365  0.1378
  933MPD2    N113656   4.639   1.501   1.749 -0.0991 -0.0890  0.3963
  933MPD2    H713657   0.013   1.524   1.753 -0.1255 -0.2880  2.1523
  934MPD2     C13658   0.262   2.972   2.053 -0.0372 -0.7697 -0.2493
  934MPD2    C113659   0.343   2.917   1.953  0.3422  0.3814 -0.5987
  934MPD2    C213660   0.273   2.865   1.842 -0.7555 -0.1925  0.4177
  934MPD2    C313661   0.131   2.868   1.835  0.3788 -0.6267  0.2787
  934MPD2    C413662   0.058   2.927   1.936 -0.1690 -0.1533 -0.7820
  934MPD2    C513663   0.127   2.977   2.042  0.4233  0.1470  0.5080
  934MPD2     H13664   0.333   2.823   1.763  1.0139  0.9073  1.1589
  934MPD2    H113665   4.675   2.936   1.941 -0.2255 -0.5611 -1.2518
  934MPD2    H213666   0.302   3.025   2.139 -3.0797  1.2204 -0.0627
  934MPD2    H313667   0.070   3.009   2.128  1.1805  0.3973  0.9176
  934MPD2     N13668   0.051   2.820   1.728 -0.7643 -0.7902 -0.4526
  934MPD2    H513669   4.676   2.840   1.728 -0.7836 -0.9060  0.3941
  934MPD2    N113670   0.486   2.917   1.953  0.1046 -0.6520  0.1673
  934MPD2    H713671   0.535   2.868   1.878 -0.3461  0.2208 -0.6894
  935MPD2     C13672   0.494   2.571   0.904 -0.0035 -0.2741 -0.1981
  935MPD2    C113673   0.361   2.540   0.867 -0.1362 -0.6778  0.2292
  935MPD2    C213674   0.267   2.546   0.967 -0.1471 -0.2076 -0.8054
  935MPD2    C313675   0.304   2.580   1.097  0.2387 -0.1492  0.3395
  935MPD2    C413676   0.433   2.611   1.127  0.5895  0.9340  0.5429
  935MPD2    C513677   0.532   2.607   1.032  1.1743  0.1413  0.0004
  935MPD2     H13678   0.166   2.519   0.938 -0.6530 -0.0514  0.8267
  935MPD2    H113679   0.463   2.622   1.231  2.9255 -0.1535 -0.0316
  935MPD2    H213680   0.564   2.578   0.822 -0.2434 -0.7292 -0.4403
  935MPD2    H313681   0.629   2.653   1.048  2.0134 -1.1857 -1.2795
  935MPD2     N13682   0.211   2.608   1.193 -0.4021  0.2578  0.0519
  935MPD2    H513683   0.240   2.656   1.278  0.0176 -0.7509  0.4776
  935MPD2    N113684   0.319   2.517   0.736 -0.1687 -0.4149 -0.7075
  935MPD2    H713685   0.222   2.489   0.728 -0.2069  0.1065 -2.0425
  936MPD2     C13686   3.920   4.315  12.460 -0.0993 -0.2341 -0.6391
  936MPD2    C113687   3.892   4.392  12.571 -0.7801 -0.0901 -0.1302
  936MPD2    C213688   3.809   4.496  12.565 -0.4784 -0.0757 -0.3761
  936MPD2    C313689   3.745   4.530  12.455 -0.2141 -0.5866 -0.1095
  936MPD2    C413690   3.776   4.456  12.341 -0.4563 -0.0327 -0.0474
  936MPD2    C513691   3.853   4.348  12.345 -0.0576 -0.1974  0.8924
  936MPD2     H13692   3.800   4.560  12.651  2.0276 -1.7574  1.1275
  936MPD2    H113693   3.733   4.468  12.242  0.0247 -0.4713 -0.3080
  936MPD2    H213694   3.990   4.232  12.458 -1.7280 -1.6680  1.9772
  936MPD2    H313695   3.864   4.284  12.258  0.4077 -0.9104  1.4705
  936MPD2     N13696   3.675   4.655  12.453 -0.3717 -0.1523 -0.6226
  936MPD2    H513697   3.695   4.715  12.532 -0.5956  0.1414 -0.7905
  936MPD2    N113698   3.952   4.360  12.692 -0.2679 -0.1516  0.1470
  936MPD2    H713699   3.920   4.421  12.767 -2.3784 -0.7400 -0.2554
  937MPD2     C13700   1.748   1.061  11.736 -0.8737  0.0241  1.0037
  937MPD2    C113701   1.800   1.180  11.708  0.3338  0.0068  0.6558
  937MPD2    C213702   1.909   1.185  11.624 -0.3033 -0.3033 -0.7518
  937MPD2    C313703   1.967   1.070  11.566 -0.2066 -0.0509  0.0473
  937MPD2    C413704   1.918   0.952  11.604 -0.0252 -0.0950 -0.5644
  937MPD2    C513705   1.813   0.951  11.692 -0.2666 -0.5318 -0.3493
  937MPD2     H13706   1.936   1.284  11.589 -1.7136 -0.6836 -2.9478
  937MPD2    H113707   1.965   0.858  11.579 -3.2224 -1.3566 -1.7555
  937MPD2    H213708   1.666   1.045  11.805 -0.2132 -3.4596  0.9918
  937MPD2    H313709   1.767   0.857  11.719  0.9501 -1.0395 -0.0120
  937MPD2     N13710   2.065   1.084  11.470 -0.5445 -0.2390  0.3562
  937MPD2    H513711   2.096   1.177  11.443 -0.5373 -0.8724 -1.8330
  937MPD2    N113712   1.738   1.301  11.738 -0.0052 -0.0782 -0.5363
  937MPD2    H713713   1.774   1.384  11.690  2.3862 -0.1562  1.1035
  938MPD2     C13714   3.587   2.197   0.625  0.4448  0.2259 -0.0123
  938MPD2    C113715   3.719   2.228   0.659 -0.0032  0.0108  0.3495
  938MPD2    C213716   3.784   2.144   0.754 -0.1061  0.7859  0.2684
  938MPD2    C313717   3.720   2.031   0.806 -0.1608 -0.0526 -0.4446
  938MPD2    C413718   3.587   2.008   0.774 -0.0903 -0.2982  0.7106
  938MPD2    C513719   3.526   2.090   0.684 -0.4012  0.0196 -0.6700
  938MPD2     H13720   3.891   2.155   0.763 -0.0298  0.1005  0.2158
  938MPD2    H113721   3.529   1.928   0.818 -0.5450  0.2798  1.1677
  938MPD2    H213722   3.535   2.248   0.545 -0.8044 -0.5425  0.3287
  938MPD2    H313723   3.421   2.083   0.659 -0.4059  0.3506 -0.7366
  938MPD2     N13724   3.782   1.946   0.902  0.2639  0.3676  0.5494
  938MPD2    H513725   3.720   1.882   0.952  0.0692 -2.0117 -2.7847
  938MPD2    N113726   3.780   2.353   0.618 -0.2905  0.2716 -0.0908
  938MPD2    H713727   3.867   2.374   0.667 -1.0168 -1.4422  1.9076
  939MPD2     C13728   0.837   3.501   1.409  0.2778  0.1581  0.6042
  939MPD2    C113729   0.760   3.466   1.298  0.6325  0.6072  0.3966
  939MPD2    C213730   0.814   3.465   1.167 -0.0544 -1.0631 -0.0454
  939MPD2    C313731   0.942   3.504   1.152  0.6932 -0.5022 -0.3251
  939MPD2    C413732   1.026   3.532   1.258  0.2557 -0.7119 -0.1480
  939MPD2    C513733   0.968   3.539   1.388 -0.1462  1.0330  0.9331
  939MPD2     H13734   0.750   3.448   1.081 -0.7527 -1.0963  0.4874
  939MPD2    H113735   1.127   3.570   1.258 -0.1803  0.4484  1.6656
  939MPD2    H213736   0.794   3.509   1.509 -1.2438 -3.2505  0.2168
  939MPD2    H313737   1.020   3.582   1.472  0.1795 -1.4121  1.9742
  939MPD2     N13738   0.981   3.517   1.017  0.0812 -0.0309  0.0085
  939MPD2    H513739   0.909   3.492   0.950 -0.0219 -0.8813  0.4461
  939MPD2    N113740   0.621   3.456   1.323  0.4442  0.9210 -0.3870
  939MPD2    H713741   0.589   3.472   1.418 -3.0187 -1.3397 -1.1650
  940MPD2     C13742   4.419   4.279  12.684  0.4740  0.9201 -0.5493
  940MPD2    C113743   4.552   4.278  12.729 -0.5137 -0.8925  0.0881
  940MPD2    C213744   4.655   4.237  12.646 -0.6138  0.8128 -0.1797
  940MPD2    C313745   4.626   4.205  12.516  0.9911  0.2371 -0.2208
  940MPD2    C413746   4.494   4.203  12.472 -0.8818  0.0130  0.0461
  940MPD2    C513747   4.387   4.245  12.557  0.6706  1.0096  0.5027
  940MPD2     H13748   0.032   4.233  12.681  0.0281 -1.4412 -2.3162
  940MPD2    H113749   4.466   4.183  12.370  0.3198 -0.5248 -0.1829
  940MPD2    H213750   4.337   4.306  12.749  0.2281  1.0685 -0.9241
  940MPD2    H313751   4.289   4.235  12.512  0.8918 -2.7465  0.7950
  940MPD2     N13752   4.713   4.154  12.420 -0.3502 -0.1414 -0.1561
  940MPD2    H513753   4.683   4.126  12.327  0.2645 -1.1683 -0.0533
  940MPD2    N113754   4.586   4.304  12.864 -0.5945 -0.2175  0.0547
  940MPD2    H713755   4.681   4.281  12.894 -0.5318  0.3302  0.2832
  941MPD2     C13756   4.122   2.815   9.562 -0.3441 -0.1311  0.1229
  941MPD2    C113757   4.071   2.934   9.524 -0.4070 -0.4504  1.0667
  941MPD2    C213758   3.945   2.974   9.568  0.4711 -0.2909 -0.2776
  941MPD2    C313759   3.886   2.908   9.677  0.4655  0.2890  0.0381
  941MPD2    C413760   3.942   2.788   9.721  0.5226  0.2318 -0.1334
  941MPD2    C513761   4.055   2.742   9.654  0.1780 -0.1808  0.4386
  941MPD2     H13762   3.910   3.070   9.532  3.9367  0.3711 -1.8860
  941MPD2    H113763   3.898   2.732   9.803 -0.0051 -0.9122 -1.1992
  941MPD2    H213764   4.213   2.773   9.522 -0.1387 -0.3721  0.8490
  941MPD2    H313765   4.093   2.645   9.683  2.0289  0.3902 -0.0754
  941MPD2     N13766   3.767   2.943   9.745  0.1237  0.2918  0.3787
  941MPD2    H513767   3.734   2.875   9.814 -0.5471 -0.2201 -0.4473
  941MPD2    N113768   4.144   3.031   9.453  0.5361 -0.6539 -0.2743
  941MPD2    H713769   4.106   3.124   9.440  1.5007 -0.4478 -1.5177
  942MPD2     C13770   2.755   4.706   9.330 -0.2474 -0.4112 -0.1577
  942MPD2    C113771   2.795   0.110   9.302  0.8173  0.0909  0.5255
  942MPD2    C213772   2.930   0.137   9.305 -0.3202  0.2075  0.0499
  942MPD2    C313773   3.020   0.045   9.350  0.0021 -0.6542 -0.6271
  942MPD2    C413774   2.989   4.637   9.364  0.2183  0.3623  0.2345
  942MPD2    C513775   2.853   4.615   9.352 -0.9347  0.2933 -1.2121
  942MPD2     H13776   2.961   0.240   9.292  0.9660 -0.2239 -0.2634
  942MPD2    H113777   3.056   4.557   9.394 -1.3314 -0.0941  2.4635
  942MPD2    H213778   2.653   4.669   9.321  0.7884 -2.8798 -1.8126
  942MPD2    H313779   2.824   4.512   9.371 -1.7439  1.0000  1.4097
  942MPD2     N13780   3.158   0.090   9.368  0.0342  0.3667 -0.4136
  942MPD2    H513781   3.219   0.024   9.415  1.9366  3.5890  1.6773
  942MPD2    N113782   2.706   0.206   9.278 -0.2721 -0.6042 -0.4162
  942MPD2    H713783   2.748   0.290   9.241 -1.0861  0.2794  0.6906
  943MPD2     C13784   2.752   3.354   9.365  0.1543 -0.1087  0.2737
  943MPD2    C113785   2.754   3.220   9.351 -0.2051 -0.0449  0.0824
  943MPD2    C213786   2.647   3.145   9.400 -0.2610  0.2162  0.0010
  943MPD2    C313787   2.545   3.203   9.466 -0.2414 -0.6084  0.5749
  943MPD2    C413788   2.543   3.342   9.475 -1.0594  1.0200 -0.4350
  943MPD2    C513789   2.647   3.415   9.430 -0.1702  0.0807 -0.7395
  943MPD2     H13790   2.646   3.039   9.381  1.7953  0.0615  0.6717
  943MPD2    H113791   2.462   3.397   9.522 -0.1717  1.5140  0.5216
  943MPD2    H213792   2.838   3.417   9.343  0.3148 -0.1081  0.9118
  943MPD2    H313793   2.650   3.522   9.450 -0.4247 -0.1556  0.5847
  943MPD2     N13794   2.425   3.134   9.511  0.0920  0.3052  0.3634
  943MPD2    H513795   2.345   3.190   9.541  0.7129  0.6264  1.4301
  943MPD2    N113796   2.860   3.158   9.281  0.6542  0.3793  0.0642
  943MPD2    H713797   2.930   3.211   9.228 -1.5556  2.7085 -0.5147
  944MPD2     C13798   2.538   1.704  11.413  0.1476  0.1370 -0.8488
  944MPD2    C113799   2.554   1.767  11.299  0.5813 -0.3206 -0.1596
  944MPD2    C213800   2.500   1.888  11.274 -0.7920  0.8147  0.3124
  944MPD2    C313801   2.412   1.952  11.363 -0.6555  0.1203 -0.0359
  944MPD2    C413802   2.386   1.877  11.476  0.3587 -0.1391 -0.6711
  944MPD2    C513803   2.462   1.765  11.503 -0.1527  0.4115  0.1435
  944MPD2     H13804   2.532   1.944  11.186 -3.0084  1.0066 -0.3725
  944MPD2    H113805   2.324   1.927  11.550  0.9552  1.4034 -1.2121
  944MPD2    H213806   2.585   1.610  11.442  0.5345  0.8842  0.9835
  944MPD2    H313807   2.454   1.714  11.599  1.2755  1.2727  0.7320
  944MPD2     N13808   2.365   2.085  11.344 -0.1442 -0.2834 -0.6018
  944MPD2    H513809   2.416   2.128  11.268  4.7780 -0.2935  2.6979
  944MPD2    N113810   2.622   1.695  11.196 -0.5748 -0.0911 -0.6427
  944MPD2    H713811   2.640   1.598  11.218  0.3438  0.6207  1.7111
    1TCq1    O113812   4.634   2.760  13.803  0.3662 -0.3724 -0.6009
    1TCq1    C113813   4.677   2.829  13.916 -0.1166  0.1647  1.5552
    1TCq1    O213814   4.681   2.779  14.029  0.5659 -0.0330 -0.3117
    1TCq1    C213815   0.026   2.939  13.871  0.0239  0.2852  0.8955
    1TCq1    C313816   4.709   3.009  13.756  0.7472  0.1035  0.1449
    1TCq1    C413817   0.055   3.118  13.724 -0.1259 -0.3435  0.8153
    1TCq1    C513818   0.153   3.162  13.808  0.4298 -0.3815  0.3690
    1TCq1    C613819   0.183   3.102  13.934 -0.1939 -0.4385 -0.2659
    1TCq1    C713820   0.119   2.986  13.960 -0.4368 -0.1276  0.0104
    1TCq1    C813821   0.290   3.144  14.027 -0.1568 -0.9137 -0.5799
    1TCq1    O413822   0.347   3.051  14.084  0.1771  0.1092 -0.1052
    1TCq1    C913823   0.043   3.181  13.599  0.0444  0.5044  0.0835
    1TCq1    O513824   0.146   3.228  13.543  0.0121 -0.1415  0.1392
    1TCq1    O613825   4.662   3.156  13.534 -0.7471 -0.5107  0.0234
    1TCq1    H113826   4.664   2.806  13.722  0.6745  0.2476 -0.1420
    1TCq1    H213827   4.640   2.977  13.679  1.4263  2.4525 -1.4665
    1TCq1    H313828   0.214   3.244  13.772  0.5446 -0.2610  0.8426
    1TCq1    H413829   0.129   2.926  14.050  0.6735 -2.1797 -1.4719
    2MPD2     C13830   0.469   3.485  14.357 -0.0644 -0.0360 -0.1055
    2MPD2    C113831   0.367   3.538  14.285 -0.0635 -0.0176  0.4500
    2MPD2    C213832   0.310   3.474  14.177 -0.6050 -0.5985  0.9290
    2MPD2    C313833   0.353   3.348  14.146  0.5715 -0.4465  0.3393
    2MPD2    C413834   0.462   3.296  14.214 -0.0762 -0.1162 -0.4969
    2MPD2    C513835   0.514   3.362  14.319  0.1212  0.4564  0.0847
    2MPD2     H13836   0.228   3.516  14.119 -2.1706 -2.2578  1.9649
    2MPD2    H113837   0.503   3.205  14.173 -2.9770 -1.4614 -0.4421
    2MPD2    H213838   0.489   3.525  14.455  0.0461 -0.1899 -0.0650
    2MPD2    H313839   0.592   3.317  14.380 -0.5969 -0.4301  0.3471
    2MPD2     N13840   0.283   3.280  14.042  0.8587  0.5893 -1.0795
    2MPD2    H513841   0.213   3.330  13.987 -0.7474 -0.1602  0.3090
    2MPD2    N113842   0.311   3.655  14.343  0.2943 -0.4589 -0.1775
    2MPD2    H713843   0.336   3.677  14.438 -0.3695  1.9386 -0.5660
    3TMC2    C113844   0.198   3.847  14.366 -0.9644 -0.6684  0.5797
    3TMC2    C213845   0.158   3.826  14.494 -0.3272  0.2201  0.1538
    3TMC2    C313846   0.144   3.932  14.583  0.0764 -0.7263 -0.3451
    3TMC2    C413847   0.224   3.972  14.320  0.1215 -0.3481 -0.2456
    3TMC2    C513848   0.222   4.073  14.415 -0.1541 -0.2919  0.7807
    3TMC2    C613849   0.187   4.052  14.546  0.2262 -0.0555  0.8735
    3TMC2     C13850   0.226   3.738  14.278  0.4407 -0.6907  0.1139
    3TMC2     O13851   0.200   3.752  14.163 -0.3067  0.6265 -0.3379
    3TMC2     H13852   0.130   3.725  14.524  0.9053 -0.4214 -0.8878
    3TMC2    H113853   0.273   3.980  14.224  0.6260  0.6354  0.0904
    3TMC2    H213854   0.190   4.140  14.609 -0.9700 -0.0677  0.9478
    3TMC2    C713855   0.309   4.190  14.401 -0.5040  0.6122 -0.8489
    3TMC2    C813856   0.079   3.909  14.712  0.1265  0.3138 -0.5025
    3TMC2    O113857   0.384   4.229  14.494  0.3084 -0.7312 -0.1091
    3TMC2    O213858   0.099   3.991  14.802  0.0876 -0.0667  0.7772
    3TMC2    O513859   4.686   3.853  14.690 -0.2226 -0.5096 -0.1579
    3TMC2    H513860   4.669   3.819  14.599 -1.9149 -1.4655  0.5234
    4MPD2     C13861   4.574   0.574  13.515  0.2501  0.3817  0.0976
    4MPD2    C113862   4.549   0.485  13.412 -0.0868 -0.8864  0.1373
    4MPD2    C213863   4.584   0.360  13.436 -0.0653 -0.1561  0.0457
    4MPD2    C313864   4.669   0.323  13.544 -0.2672 -0.5222  0.3113
    4MPD2    C413865   4.680   0.410  13.652  0.1067 -0.2674  0.0455
    4MPD2    C513866   4.639   0.537  13.635 -0.1173  0.3548 -0.1899
    4MPD2     H13867   4.557   0.278  13.370 -0.3909 -1.5778  1.9378
    4MPD2    H113868   0.009   0.391  13.744  1.6931  3.8647  0.0048
    4MPD2    H213869   4.528   0.672  13.510 -0.7298  0.0324  2.2751
    4MPD2    H313870   4.655   0.616  13.708 -1.9569 -0.1585  0.7752
    4MPD2     N13871   4.724   0.193  13.552 -0.1498 -0.3845  0.3252
    4MPD2    H513872   4.705   0.133  13.472 -0.7824  0.7242 -0.3435
    4MPD2    N113873   4.485   0.540  13.297  0.1874 -0.2160  0.3156
    4MPD2    H713874   4.459   0.638  13.290 -2.7878 -1.1202 -1.5175
    5TCq2    C113875   0.078   0.147  13.653 -0.2182 -0.1070  0.1559
    5TCq2    O213876   0.093   0.191  13.766  0.3301 -0.2303 -0.4197
    5TCq2    C213877   0.158   0.032  13.618 -0.3519 -0.3848 -0.4659
    5TCq2    C313878   0.173   4.715  13.487  0.1398 -1.0133  0.4125
    5TCq2    C413879   0.242   4.599  13.469 -0.4509  0.7560 -0.1896
    5TCq2    C513880   0.274   4.522  13.576 -0.1229 -0.5140 -0.1399
    5TCq2    C613881   0.241   4.560  13.705 -0.1510 -0.0341  0.4705
    5TCq2    C713882   0.189   4.682  13.720  0.2605 -0.4225  0.2704
    5TCq2    C813883   0.278   4.476  13.821 -0.0437 -0.4168  0.4918
    5TCq2    O413884   0.279   4.355  13.809 -0.3731  0.2228  0.0007
    5TCq2    C913885   0.291   4.564  13.333 -0.4265  1.0272  0.0801
    5TCq2    O513886   0.400   4.505  13.327  0.5813 -0.5570  0.1054
    5TCq2    O613887   0.226   4.618  13.236  0.3310 -0.3457  0.3675
    5TCq2    H213888   0.163   0.059  13.404  1.8809 -1.3104 -0.0414
    5TCq2    H313889   0.298   4.421  13.543 -0.2259  0.0642 -2.0213
    5TCq2    H413890   0.172   0.004  13.816  0.4581  2.6399 -1.2221
    6MPD1     C13891   4.125   0.981  11.534 -0.1638  0.1967 -0.2569
    6MPD1    C113892   4.089   1.094  11.604 -0.3748  0.2392  0.6486
    6MPD1    C213893   4.162   1.126  11.722 -0.2235  0.1235  0.1049
    6MPD1    C313894   4.265   1.043  11.775  0.3309 -0.8201  0.5640
    6MPD1    C413895   4.297   0.933  11.701  0.2179 -0.0771  0.0189
    6MPD1    C513896   4.229   0.909  11.582  0.3501  0.6015 -0.3333
    6MPD1     H13897   4.134   1.220  11.769  0.1158 -0.5599  1.6719
    6MPD1    H113898   4.370   0.857  11.728  2.3374  1.5848 -1.0218
    6MPD1    H213899   4.081   0.944  11.442 -1.4936 -0.4623  0.6307
    6MPD1    H313900   4.261   0.827  11.519 -1.4541  0.5063 -1.1347
    6MPD1     N13901   4.335   1.075  11.900  0.2452 -0.2445 -0.0611
    6MPD1    H513902   4.410   1.010  11.922 -0.3609 -0.9751 -0.1647
    6MPD1    N113903   4.007   1.193  11.553 -0.1652  0.4905  0.5429
    6MPD1    H613904   3.941   1.166  11.481  1.2055  0.9068 -0.8743
    6MPD1    H713905   3.957   1.250  11.621  0.1300  0.1658  1.0311
    7MPD2     C13906   4.200   1.257  12.729 -0.4647  0.2549  0.0539
    7MPD2    C113907   4.266   1.154  12.668 -0.5411 -0.5345 -0.1529
    7MPD2    C213908   4.268   1.028  12.728  0.0906  0.0041 -0.6464
    7MPD2    C313909   4.210   1.006  12.848 -0.6448 -0.2919  1.0681
    7MPD2    C413910   4.147   1.109  12.918  0.0974  0.5919  0.3613
    7MPD2    C513911   4.147   1.233  12.855  0.0891  0.0314  0.4055
    7MPD2     H13912   4.332   0.953  12.683  1.6245  1.5479 -1.0788
    7MPD2    H113913   4.092   1.103  13.011  0.2263 -0.2539  0.3875
    7MPD2    H213914   4.200   1.358  12.690  0.4806  0.5028  0.6860
    7MPD2    H313915   4.110   1.319  12.909  1.7183  1.1169 -0.2220
    7MPD2     N13916   4.209   0.873  12.899  0.5651 -0.2046 -0.2608
    7MPD2    H513917   4.245   0.801  12.837  0.5614 -1.4737  1.2174
    7MPD2    N113918   4.345   1.166  12.555  0.5089  0.5254  0.0709
    7MPD2    H713919   4.390   1.079  12.528 -1.2671 -0.5329  0.5628
    8TMC3    C113920   4.198   0.677  13.026  0.0781  0.6088 -0.0598
    8TMC3    C213921   4.298   0.645  13.115 -0.0588  0.4510 -0.7538
    8TMC3    C313922   4.385   0.545  13.087 -0.2638  0.9281  0.4225
    8TMC3    C413923   4.211   0.622  12.901 -0.7444 -0.6099  0.5930
    8TMC3    C513924   4.310   0.533  12.864  0.5277  0.2720  0.6570
    8TMC3    C613925   4.400   0.499  12.960  0.0214 -0.2000  0.1802
    8TMC3     C13926   4.164   0.821  13.016  0.3694  0.3436  0.1405
    8TMC3     O13927   4.133   0.879  13.117 -0.1519 -0.1176 -0.4593
    8TMC3     H13928   4.294   0.701  13.207 -0.6794  1.4695 -1.3888
    8TMC3    H113929   4.128   0.646  12.836 -0.0118  1.4322  0.4223
    8TMC3    H213930   4.480   0.427  12.955  0.1114 -0.1166  0.4546
    8TMC3    C713931   4.360   0.576  12.735  0.3139  0.5195  0.1111
    8TMC3    C813932   4.458   0.473  13.184  0.2204  0.1013 -0.4203
    8TMC3    O113933   4.287   0.651  12.675 -0.3421 -0.3656 -0.4833
    8TMC3    O213934   4.457   0.353  13.171  0.3768  0.0643  0.1289
    9TMC3    C113935   4.389   1.169  12.110  0.6754 -0.2895 -0.4373
    9TMC3    C213936   4.492   1.073  12.113  0.6679 -0.7388  0.5922
    9TMC3    C313937   4.542   1.055  12.239  0.7416 -0.6240 -0.0813
    9TMC3    C413938   4.354   1.252  12.215 -0.6750  0.0354 -0.2647
    9TMC3    C513939   4.414   1.220  12.341  0.1036  0.3672 -0.6085
    9TMC3    C613940   4.502   1.119  12.352 -0.0316  0.0647 -0.0799
    9TMC3     C13941   4.294   1.170  11.996  0.5240 -0.5610 -0.3624
    9TMC3     O13942   4.198   1.242  12.001  0.0815 -0.4716  0.2576
    9TMC3     H13943   4.530   1.015  12.029 -0.3715  1.1658 -1.2099
    9TMC3    H113944   4.270   1.320  12.199 -1.3358 -0.7985 -0.3112
    9TMC3    H213945   4.547   1.104  12.449 -1.2836 -1.1468  0.3153
    9TMC3    C713946   4.333   1.258  12.453  0.4981 -0.1448 -0.4339
    9TMC3    C813947   4.620   0.938  12.261 -0.3454 -0.1427 -0.2647
    9TMC3    O113948   4.247   1.343  12.432  0.2741 -0.0684 -0.1691
    9TMC3    O213949   4.705   0.900  12.180 -0.0334 -0.2817 -0.4956
   10MPD2     C13950   4.685   0.506  12.570 -0.1516  0.0688  0.7390
   10MPD2    C113951   4.571   0.575  12.604  0.1010  0.4408  0.1124
   10MPD2    C213952   4.534   0.689  12.530 -0.2303 -0.3081 -0.1395
   10MPD2    C313953   4.607   0.736  12.422 -0.6748 -0.3068  0.0159
   10MPD2    C413954   4.711   0.656  12.384  0.2684  0.0303  0.2312
   10MPD2    C513955   0.030   0.547  12.460  0.5489  0.5238 -0.2729
   10MPD2     H13956   4.450   0.754  12.555 -0.8856 -0.8743 -0.8635
   10MPD2    H113957   0.049   0.685  12.301  0.8132 -3.0723 -0.4420
   10MPD2    H213958   4.715   0.417  12.624 -1.4534  1.2973  3.5320
   10MPD2    H313959   0.120   0.496  12.426  0.1229 -2.0182  2.3867
   10MPD2     N13960   4.573   0.863  12.371  0.4551 -0.4314 -0.4562
   10MPD2    H513961   4.491   0.896  12.421  0.4444  0.9255 -1.3600
   10MPD2    N113962   4.493   0.535  12.711 -0.0697 -0.3891 -0.1471
   10MPD2    H713963   4.531   0.454  12.759 -0.5661  0.5092  1.7507
   11MPD2     C13964   0.441   4.451  14.328  0.3794 -0.2714 -0.3205
   11MPD2    C113965   0.371   4.362  14.241 -0.0120  0.2044 -0.2515
   11MPD2    C213966   0.338   4.398  14.109  0.3042 -0.2682 -0.5909
   11MPD2    C313967   0.372   4.513  14.056  0.2671  0.2352  0.0057
   11MPD2    C413968   0.440   4.608  14.139  0.1286  0.4315 -0.2593
   11MPD2    C513969   0.470   4.573  14.271 -0.2360  0.0513 -0.3010
   11MPD2     H13970   0.283   4.326  14.048 -0.0229  0.3609 -1.0403
   11MPD2    H113971   0.467   4.705  14.102 -0.8468  0.9191  0.2949
   11MPD2    H213972   0.459   4.440  14.434 -0.4319  3.9399  0.2733
   11MPD2    H313973   0.525   4.635  14.341 -1.7893  0.8704  0.1724
   11MPD2     N13974   0.334   4.554  13.923  0.1827 -0.1403 -0.0741
   11MPD2    H513975   0.347   4.654  13.910 -1.5843  0.1765  0.4543
   11MPD2    N113976   0.315   4.241  14.276  0.0384  0.4764 -0.3469
   11MPD2    H713977   0.270   4.188  14.203  0.3616  0.3592 -0.4625
    1MPD1     C13978   2.730   0.476  17.593  0.1781 -0.0394 -0.0623
    1MPD1    C113979   2.701   0.591  17.531  0.4379 -0.3220 -0.2198
    1MPD1    C213980   2.802   0.638  17.452 -0.2782 -0.4601 -0.0278
    1MPD1    C313981   2.926   0.572  17.438 -0.0402  0.3603 -0.7665
    1MPD1    C413982   2.954   0.462  17.505  0.3206  0.1719  0.2877
    1MPD1    C513983   2.852   0.412  17.584 -0.3660 -0.1707  0.1357
    1MPD1     H13984   2.783   0.727  17.395  0.4361 -0.3239 -0.0518
    1MPD1    H113985   3.038   0.395  17.494  0.7382  0.3887  2.1310
    1MPD1    H213986   2.650   0.417  17.638 -1.0994  1.5538 -0.2453
    1MPD1    H313987   2.869   0.324  17.644 -1.3131  0.2371  1.0032
    1MPD1     N13988   3.024   0.624  17.352 -0.2913 -0.1687 -0.4088
    1MPD1    H513989   3.120   0.591  17.355 -0.4682 -0.6620 -0.1957
    1MPD1    N113990   2.570   0.638  17.512  0.1059  0.3153 -0.6453
    1MPD1    H613991   2.511   0.617  17.593 -0.1177 -1.7158 -1.3288
    1MPD1    H713992   2.569   0.738  17.495 -0.7262  0.0864 -1.9151
    2MPD1     C13993   3.987   0.751  17.333  0.4499  0.7178  0.3256
    2MPD1    C113994   3.961   0.832  17.223  0.5226  0.1025  0.3969
    2MPD1    C213995   3.834   0.852  17.166 -0.0485 -0.5671  0.6203
    2MPD1    C313996   3.726   0.783  17.228 -0.1405  0.3175  0.3106
    2MPD1    C413997   3.757   0.695  17.334  0.0370 -0.7291  0.3039
    2MPD1    C513998   3.884   0.679  17.385  0.1482 -1.1323 -0.0427
    2MPD1     H13999   3.811   0.932  17.097  2.6094  1.5048  2.1455
    2MPD1    H114000   3.685   0.630  17.383  1.6687 -1.7268  1.3850
    2MPD1    H214001   4.083   0.740  17.381 -0.1193 -1.0928  1.0628
    2MPD1    H314002   3.901   0.606  17.463 -0.1238 -2.2126 -0.9973
    2MPD1     N14003   3.596   0.792  17.171  0.6951  0.1719 -0.5599
    2MPD1    H514004   3.592   0.830  17.077 -2.6005  1.2368  0.0282
    2MPD1    N114005   4.062   0.916  17.176 -0.1456  0.2081 -0.0845
    2MPD1    H614006   4.152   0.870  17.190  0.6123  2.4546  2.4045
    2MPD1    H714007   4.057   0.909  17.075 -0.1509  0.6468 -0.1152
    3TMC3    C114008   3.363   0.759  17.156  0.2165  0.5900 -0.3353
    3TMC3    C214009   3.364   0.785  17.019  0.3057 -0.2483  0.0083
    3TMC3    C314010   3.231   0.807  16.976 -0.8296 -0.0810 -0.8458
    3TMC3    C414011   3.248   0.738  17.231  0.2248  0.0896 -0.2567
    3TMC3    C514012   3.128   0.745  17.176 -0.4518 -0.7329 -0.2422
    3TMC3    C614013   3.117   0.790  17.053  0.1868  0.1937 -0.7048
    3TMC3     C14014   3.480   0.743  17.230 -0.2060  0.1829 -0.0057
    3TMC3     O14015   3.466   0.708  17.349 -0.4468  0.0303 -0.2051
    3TMC3     H14016   3.447   0.810  16.955 -0.8400  0.5691 -1.1453
    3TMC3    H114017   3.262   0.717  17.337 -1.1415  0.7334  0.0475
    3TMC3    H214018   3.021   0.795  17.004 -0.7107 -1.1523  0.9198
    3TMC3    C714019   3.010   0.714  17.248  0.1476  0.7255 -0.3313
    3TMC3    C814020   3.219   0.875  16.851  0.5862 -0.2435  0.0405
    3TMC3    O114021   2.906   0.761  17.202 -0.2116  0.2778  0.4634
    3TMC3    O214022   3.111   0.937  16.840 -0.3860 -0.1068 -0.6408
    4MPD1     C14023   3.419   1.103  16.425  0.0144 -0.2742 -0.1108
    4MPD1    C114024   3.502   0.998  16.463  0.2273 -0.0621 -0.4434
    4MPD1    C214025   3.469   0.922  16.579  0.1368  0.2239 -1.2774
    4MPD1    C314026   3.354   0.938  16.652 -0.0127  0.1594 -0.0229
    4MPD1    C414027   3.268   1.039  16.604  0.3146 -0.3613 -0.0095
    4MPD1    C514028   3.300   1.122  16.496  0.1707 -0.0079  0.8700
    4MPD1     H14029   3.530   0.835  16.605 -1.1708 -0.5652 -0.8600
    4MPD1    H114030   3.171   1.050  16.651 -0.1942 -1.8901 -0.6971
    4MPD1    H214031   3.437   1.160  16.334  0.5708 -0.9689 -0.4306
    4MPD1    H314032   3.236   1.200  16.458  0.4488 -0.1614  0.0853
    4MPD1     N14033   3.325   0.856  16.764 -0.2361  0.2642 -0.2236
    4MPD1    H514034   3.387   0.780  16.787 -0.3095  0.8672  1.8946
    4MPD1    N114035   3.607   0.959  16.378  0.3613  0.0432 -0.1796
    4MPD1    H614036   3.682   0.911  16.428  0.9996 -1.7546 -2.9028
    4MPD1    H714037   3.651   1.042  16.339 -1.2274  0.4983 -0.9680
    1TCq1    O114038   4.240   0.909  12.210  0.4664  0.0174 -0.4191
    1TCq1    C114039   4.252   0.842  12.325  0.1780  0.6020  0.1652
    1TCq1    O214040   4.292   0.890  12.430  0.1373 -0.5093  0.1617
    1TCq1    C214041   4.243   0.698  12.292  0.2659  0.5287 -0.6048
    1TCq1    C314042   4.304   0.658  12.173 -0.0919 -0.5286  0.0010
    1TCq1    C414043   4.330   0.522  12.157  0.6810  0.5703 -0.1001
    1TCq1    C514044   4.312   0.431  12.254 -0.2519  0.6259 -0.0782
    1TCq1    C614045   4.231   0.475  12.358  0.2545 -0.1398  0.2729
    1TCq1    C714046   4.189   0.604  12.378 -0.1046 -0.0347  0.2592
    1TCq1    C814047   4.234   0.393  12.474 -0.6852  0.0672 -0.1452
    1TCq1    O414048   4.147   0.412  12.560 -0.0522 -0.3191  0.5153
    1TCq1    C914049   4.423   0.488  12.048  0.1989 -0.2837 -0.2277
    1TCq1    O514050   4.476   0.372  12.056 -0.8308  0.1297  0.5478
    1TCq1    O614051   4.420   0.555  11.940  0.4179  0.2049 -0.2010
    1TCq1    H114052   4.207   0.855  12.135  0.6285 -0.9259  0.1893
    1TCq1    H214053   4.374   0.727  12.127  1.3188 -1.1705  1.1629
    1TCq1    H314054   4.342   0.328  12.242 -0.3675  0.3109  2.3642
    1TCq1    H414055   4.149   0.639  12.473  1.7283  1.5198  0.4450
    2MPD1     C14056   4.478   0.059  12.770  0.3415  0.1259 -0.0199
    2MPD1    C114057   4.547   0.068  12.654 -0.2283 -0.3711 -0.3282
    2MPD1    C214058   4.502   0.156  12.564  0.0440  0.7577  1.0576
    2MPD1    C314059   4.384   0.228  12.585  0.4587  0.1329 -0.1812
    2MPD1    C414060   4.300   0.197  12.689  0.1550  0.2030  0.5119
    2MPD1    C514061   4.346   0.115  12.786  0.4700  0.3592 -0.3001
    2MPD1     H14062   4.566   0.173  12.479  0.1775 -2.4201  0.5335
    2MPD1    H114063   4.199   0.236  12.700  0.0032  0.5793 -2.3391
    2MPD1    H214064   4.499   0.002  12.860 -0.6645  0.8063  0.6528
    2MPD1    H314065   4.287   0.099  12.876 -0.4429  1.0817 -0.7675
    2MPD1     N14066   4.355   0.321  12.480  0.1137  0.0469  0.4909
    2MPD1    H514067   4.428   0.326  12.410 -1.4134  0.8632 -1.0682
    2MPD1    N114068   4.675   0.015  12.639  0.0257 -0.2136 -0.1617
    2MPD1    H614069   4.697   4.656  12.693  0.2604 -0.9310 -1.3682
    2MPD1    H714070   4.706   4.720  12.544  1.3203  1.7066 -0.1483
    1TCq1    O114071   3.047   0.003   1.368 -0.1236  0.1267  0.4420
    1TCq1    C114072   3.049   4.689   1.236 -0.2891 -0.0851 -0.1667
    1TCq1    O214073   3.071   0.043   1.143  0.4938 -0.1277  0.3426
    1TCq1    C214074   3.071   4.548   1.221  0.1946 -0.1525 -0.6600
    1TCq1    C314075   3.031   4.463   1.322  0.7052 -0.1133  0.0611
    1TCq1    C414076   3.061   4.323   1.306  0.0170 -0.4693  0.0945
    1TCq1    C514077   3.114   4.286   1.178 -0.7038 -0.1672 -0.4556
    1TCq1    C614078   3.159   4.380   1.090  0.2253 -0.2774  0.4592
    1TCq1    C714079   3.138   4.509   1.110  0.1062 -0.2076  0.2134
    1TCq1    C814080   3.217   4.327   0.964 -0.7238 -0.2441  0.9059
    1TCq1    O414081   3.243   4.207   0.955 -0.0955  0.7626 -0.3625
    1TCq1    C914082   2.985   4.228   1.381  0.1259  0.0104 -0.4966
    1TCq1    O514083   3.001   4.115   1.345 -0.3421 -0.4731 -0.0905
    1TCq1    O614084   2.897   4.270   1.456 -0.1749  0.2102  0.5076
    1TCq1    H114085   3.067   4.662   1.437 -1.1549  0.5669  1.1623
    1TCq1    H214086   2.947   4.502   1.377 -1.2987  0.6714 -3.5719
    1TCq1    H314087   3.118   4.183   1.144  1.4016 -0.9255  2.0434
    1TCq1    H414088   3.152   4.581   1.030 -0.5220  0.1006  0.3838
    2MPD1     C14089   3.374   4.357   0.472  0.1384 -0.1554  0.4763
    2MPD1    C114090   3.371   4.478   0.525 -0.0685  0.1502  0.6721
    2MPD1    C214091   3.323   4.495   0.653  0.1967  0.4558 -0.3520
    2MPD1    C314092   3.276   4.386   0.734  0.6268 -0.3433  0.4111
    2MPD1    C414093   3.288   4.258   0.678 -0.5891 -1.1629 -0.1735
    2MPD1    C514094   3.344   4.247   0.555 -0.4346  0.4166 -0.7803
    2MPD1     H14095   3.314   4.600   0.680 -1.4941 -0.3113  2.1466
    2MPD1    H114096   3.253   4.168   0.728 -1.9304  0.6985  2.2706
    2MPD1    H214097   3.412   4.327   0.375  1.3345 -0.2752  0.9824
    2MPD1    H314098   3.345   4.149   0.508 -1.0068  1.1964 -2.4551
    2MPD1     N14099   3.229   4.418   0.863  0.5354 -0.2394 -0.1754
    2MPD1    H514100   3.210   4.514   0.890  1.5876 -0.1964  0.4390
    2MPD1    N114101   3.438   4.583   0.458  0.5202  0.1976 -0.2385
    2MPD1    H614102   3.428   4.579   0.357  1.9925  0.0734 -0.3786
    2MPD1    H714103   3.396   4.673   0.484 -0.9817 -0.4807 -0.3450
    1MPD1     C14104   0.384   1.657  10.978  0.0046  0.4068 -0.1285
    1MPD1    C114105   0.455   1.771  10.988 -0.3860  0.1026  0.7840
    1MPD1    C214106   0.570   1.770  11.065 -0.3912 -0.3901 -0.6474
    1MPD1    C314107   0.606   1.649  11.133 -0.1064 -0.9055  1.0790
    1MPD1    C414108   0.524   1.540  11.134  0.8206  0.4551 -0.4073
    1MPD1    C514109   0.416   1.544  11.050  0.3460  0.6292  0.4029
    1MPD1     H14110   0.631   1.858  11.079 -0.6250 -0.3190 -0.0617
    1MPD1    H114111   0.566   1.444  11.163 -1.9667 -0.2103  1.5228
    1MPD1    H214112   0.292   1.656  10.920 -0.9656 -1.5621  1.4432
    1MPD1    H314113   0.350   1.459  11.049  0.4382  0.5299  2.7447
    1MPD1     N14114   0.738   1.650  11.186 -0.1947 -0.3062  0.1606
    1MPD1    H514115   0.787   1.737  11.169 -0.0710 -0.5818 -0.8708
    1MPD1    N114116   0.439   1.880  10.898 -0.0707  0.4774 -0.0690
    1MPD1    H614117   0.347   1.890  10.856  0.3831  0.3954 -1.0853
    1MPD1    H714118   0.472   1.966  10.943  1.7419 -0.0718 -0.3600
    2MPD1     C14119   0.521   0.358  11.813  0.5811  0.0627  0.5146
    2MPD1    C114120   0.455   0.443  11.726 -0.1707 -0.0615  0.0606
    2MPD1    C214121   0.499   0.459  11.596 -0.4734 -0.5555 -0.1150
    2MPD1    C314122   0.620   0.400  11.556  0.1332 -0.1601 -0.4057
    2MPD1    C414123   0.683   0.309  11.639  0.1215 -0.2071 -0.0280
    2MPD1    C514124   0.634   0.296  11.769 -0.7353  0.2457 -0.0649
    2MPD1     H14125   0.454   0.539  11.539 -0.3686 -0.8880 -0.6651
    2MPD1    H114126   0.783   0.276  11.615  0.1764  0.5916 -0.9160
    2MPD1    H214127   0.485   0.347  11.914 -2.1891 -0.4394 -0.5152
    2MPD1    H314128   0.693   0.242  11.842 -1.8383 -0.3475  0.3862
    2MPD1     N14129   0.687   0.435  11.437  1.0301 -0.4360 -0.0891
    2MPD1    H514130   0.765   0.380  11.402  0.3678  0.1142 -2.4423
    2MPD1    N114131   0.333   0.493  11.758  0.2494 -0.4891 -0.1523
    2MPD1    H614132   0.322   0.492  11.859  0.5986 -0.7483 -0.1205
    2MPD1    H714133   0.325   0.591  11.731  3.1636 -1.0678 -3.1776
    3MPD1     C14134   0.285   0.696  10.570  0.5401 -0.2968 -0.4136
    3MPD1    C114135   0.227   0.660  10.690  0.5319 -1.2348 -0.4384
    3MPD1    C214136   0.319   0.635  10.790 -0.6637 -0.5916  0.0108
    3MPD1    C314137   0.458   0.645  10.770 -0.0967  0.6939 -0.2411
    3MPD1    C414138   0.503   0.699  10.655 -0.2281  0.4898  1.0092
    3MPD1    C514139   0.416   0.709  10.547  0.0573 -0.7813  0.0456
    3MPD1     H14140   0.282   0.592  10.882 -1.5330  0.6714  0.2429
    3MPD1    H114141   0.608   0.722  10.642 -0.4624  0.8782 -0.2020
    3MPD1    H214142   0.220   0.692  10.484  0.1415 -0.4487 -0.1031
    3MPD1    H314143   0.460   0.762  10.464 -2.0187  0.2561 -0.3815
    3MPD1     N14144   0.546   0.615  10.875 -0.3827 -0.2103 -0.4934
    3MPD1    H514145   0.509   0.601  10.968 -0.5013  1.9018 -0.2216
    3MPD1    N114146   0.092   0.629  10.703 -0.2727 -0.5476  0.5785
    3MPD1    H614147   0.061   0.641  10.799  1.4778  1.6415  0.8543
    3MPD1    H714148   0.027   0.685  10.649  0.3033  0.5537  1.0390
    4MPD2     C14149   1.429   1.625  10.932 -0.5118 -1.2018 -0.6333
    4MPD2    C114150   1.420   1.587  11.063 -0.2358  0.5968  0.1226
    4MPD2    C214151   1.484   1.477  11.104 -0.2993  0.9717  0.2694
    4MPD2    C314152   1.572   1.403  11.025  0.0224 -0.7495  0.1091
    4MPD2    C414153   1.588   1.445  10.894 -0.0359 -0.1252 -0.4296
    4MPD2    C514154   1.519   1.550  10.849  0.2058 -0.4565 -0.4079
    4MPD2     H14155   1.480   1.462  11.211 -1.4984  2.8687  0.4879
    4MPD2    H114156   1.636   1.390  10.814  3.4725 -0.8256  2.1534
    4MPD2    H214157   1.378   1.706  10.882 -0.1133  0.6175  1.8968
    4MPD2    H314158   1.538   1.574  10.745 -1.6654  1.7277 -0.2517
    4MPD2     N14159   1.628   1.287  11.080  0.2750  0.2965 -0.1233
    4MPD2    H514160   1.609   1.272  11.179 -0.1599 -2.2276 -0.5828
    4MPD2    N114161   1.329   1.641  11.156  0.1475  0.1210 -0.0418
    4MPD2    H714162   1.332   1.600  11.249 -0.3628  0.2683  0.0367
    5TMC3    C114163   1.124   1.729  11.226  0.1669 -0.0726 -0.1174
    5TMC3    C214164   1.004   1.671  11.184 -0.3523 -0.1294  0.3984
    5TMC3    C314165   0.940   1.586  11.274  0.3962  0.2807  0.0769
    5TMC3    C414166   1.175   1.704  11.348 -0.2350 -0.4223 -0.8051
    5TMC3    C514167   1.116   1.618  11.436  1.0327  0.3036 -0.0101
    5TMC3    C614168   0.995   1.563  11.401  0.5187  0.4681  0.1502
    5TMC3     C14169   1.220   1.722  11.118 -0.2623  0.7118  0.6438
    5TMC3     O14170   1.185   1.757  11.008  0.6242 -0.1641 -0.0712
    5TMC3     H14171   0.969   1.679  11.082  0.1656  0.8317  0.3023
    5TMC3    H114172   1.270   1.753  11.366 -1.3624  1.1935  0.6306
    5TMC3    H214173   0.953   1.491  11.470  1.8579  0.7176  1.2243
    5TMC3    C714174   1.222   1.529  11.474  0.0907 -0.3746  0.4212
    5TMC3    C814175   0.803   1.555  11.263  0.3394  0.4751 -0.2137
    5TMC3    O114176   1.321   1.526  11.409  0.0502 -0.1767  0.2857
    5TMC3    O214177   0.760   1.454  11.312  0.3599 -0.5208  0.0701
    6TMC3    C114178   0.719   0.518  11.225 -0.6830  0.3660  0.5726
    6TMC3    C214179   0.657   0.557  11.109  0.3676  0.1975  0.4760
    6TMC3    C314180   0.740   0.574  10.998 -0.0098 -0.1678  0.4645
    6TMC3    C414181   0.852   0.535  11.245 -0.5196 -0.1588  0.1056
    6TMC3    C514182   0.923   0.568  11.138  0.2921 -0.5613 -0.4714
    6TMC3    C614183   0.871   0.567  11.011 -0.1758 -0.2491 -0.1038
    6TMC3     C14184   0.639   0.519  11.344 -0.8364  0.0676  0.3280
    6TMC3     O14185   0.537   0.592  11.340  0.3746  0.1276  0.3820
    6TMC3     H14186   0.550   0.538  11.109  0.2731  0.7437  0.1921
    6TMC3    H114187   0.894   0.536  11.346  0.8878  0.3668 -0.4764
    6TMC3    H214188   0.929   0.580  10.921 -1.5930 -0.9371 -1.1258
    6TMC3    C714189   1.066   0.566  11.148  0.2792 -0.2182 -0.5331
    6TMC3    C814190   0.683   0.627  10.873  0.4068  0.3530 -0.2111
    6TMC3    O114191   1.123   0.609  11.052  0.4026  0.3464  0.5137
    6TMC3    O214192   0.763   0.639  10.777 -0.4009  0.4235  0.1899
    7MPD2     C14193   1.372   1.102  11.706 -0.4706 -0.6465 -0.2963
    7MPD2    C114194   1.418   1.163  11.593  0.3295  0.6521  0.0275
    7MPD2    C214195   1.363   1.288  11.560 -0.0217 -0.3731 -0.3856
    7MPD2    C314196   1.259   1.344  11.629 -0.3444 -0.5009  0.7946
    7MPD2    C414197   1.215   1.283  11.746  0.2832  0.2226  0.4722
    7MPD2    C514198   1.270   1.162  11.783  0.2829  0.2123 -0.1980
    7MPD2     H14199   1.404   1.337  11.473  0.3880 -3.6241 -2.0119
    7MPD2    H114200   1.125   1.317  11.796  0.0095  2.9438 -1.9213
    7MPD2    H214201   1.415   1.008  11.739 -0.8065 -0.1636  1.5482
    7MPD2    H314202   1.245   1.116  11.878  1.0858 -0.0857 -0.1266
    7MPD2     N14203   1.186   1.455  11.582  0.3861  0.3639 -0.6862
    7MPD2    H514204   1.106   1.484  11.637  1.0276  1.1533 -0.1691
    7MPD2    N114205   1.519   1.104  11.517 -0.1743 -0.3256 -0.0943
    7MPD2    H714206   1.529   1.005  11.538  0.4895 -0.1466  0.4244
    8TMC3    C114207   1.678   1.063  11.342  0.2381  0.0284 -1.0414
    8TMC3    C214208   1.621   0.944  11.313  0.3138  0.3950 -0.9450
    8TMC3    C314209   1.618   0.895  11.190  0.2534 -0.2442  0.0710
    8TMC3    C414210   1.740   1.135  11.244 -0.6571  0.0089 -1.0670
    8TMC3    C514211   1.724   1.081  11.113  0.1839  0.6943 -0.4925
    8TMC3    C614212   1.676   0.960  11.088 -0.2969 -0.1456 -0.2302
    8TMC3     C14213   1.595   1.155  11.411 -0.2128  0.0241  0.5028
    8TMC3     O14214   1.581   1.263  11.360  0.2998 -0.1654 -0.2429
    8TMC3     H14215   1.566   0.891  11.390  0.8198 -1.1133 -1.6177
    8TMC3    H114216   1.790   1.228  11.267  3.0523 -1.6359 -2.5424
    8TMC3    H214217   1.652   0.932  10.986  0.2874 -0.5474 -0.2595
    8TMC3    C714218   1.682   1.178  11.016  0.3713  0.0216 -0.0806
    8TMC3    C814219   1.552   0.767  11.157 -0.7128  0.7085 -0.5289
    8TMC3    O114220   1.705   1.168  10.897  1.0040 -0.2797  0.4646
    8TMC3    O214221   1.489   0.752  11.056  0.5431  0.5239 -0.3829
    9MPD2     C14222   1.508   0.488  11.376  0.3797 -1.0921 -0.2785
    9MPD2    C114223   1.478   0.572  11.278  0.5581 -0.0719 -0.6410
    9MPD2    C214224   1.344   0.577  11.233 -0.1733  0.5208  0.0914
    9MPD2    C314225   1.253   0.492  11.287  0.0956 -0.5065 -0.1656
    9MPD2    C414226   1.291   0.406  11.392  0.2512  0.3930 -0.3695
    9MPD2    C514227   1.417   0.412  11.440  0.4272 -0.6719  0.2025
    9MPD2     H14228   1.314   0.665  11.177 -2.9798 -1.0830 -0.9436
    9MPD2    H114229   1.217   0.366  11.460  0.5839  0.7219  0.1886
    9MPD2    H214230   1.607   0.477  11.420  0.6155  0.3590 -0.4280
    9MPD2    H314231   1.447   0.362  11.532 -2.3002 -1.1096  0.8666
    9MPD2     N14232   1.114   0.494  11.253  0.6084  0.1498  0.3606
    9MPD2    H514233   1.056   0.425  11.299 -0.9172 -0.7811 -3.0302
    9MPD2    N114234   1.575   0.674  11.250  0.1224 -0.4750  0.2982
    9MPD2    H714235   1.654   0.693  11.311 -0.5769 -1.0699  1.3856
    1MPD1     C14236   4.652   3.396  16.303 -0.1350 -0.4510  0.6081
    1MPD1    C114237   0.020   3.498  16.309 -0.6570  0.2547  0.0073
    1MPD1    C214238   0.001   3.608  16.230  0.6121 -0.5656 -0.0619
    1MPD1    C314239   4.610   3.631  16.164 -0.3313 -0.6361 -0.6523
    1MPD1    C414240   4.520   3.531  16.163  0.0556  0.0432  0.7854
    1MPD1    C514241   4.537   3.417  16.235 -0.4359 -0.1257 -0.2483
    1MPD1     H14242   0.080   3.683  16.233  1.0020 -1.0620  2.3548
    1MPD1    H114243   4.426   3.543  16.110  0.2909 -3.1145 -0.2840
    1MPD1    H214244   4.681   3.303  16.352  2.7882 -0.4486 -1.0656
    1MPD1    H314245   4.467   3.334  16.229 -1.7919  0.7304  3.8450
    1MPD1     N14246   4.582   3.748  16.092 -0.1230  0.0184  0.4807
    1MPD1    H514247   4.504   3.750  16.027  0.0459  0.5375  0.2901
    1MPD1    N114248   0.143   3.483  16.374  0.4740 -0.4094  0.3068
    1MPD1    H614249   0.146   3.435  16.464  1.5054 -1.7938 -0.4660
    1MPD1    H714250   0.199   3.567  16.381 -1.1523  0.6799  0.2235
    2MPD1     C14251   0.398   4.561  15.842 -0.5981  0.5600  0.3871
    2MPD1    C114252   0.438   4.442  15.903  0.2380  1.0776  0.2959
    2MPD1    C214253   0.333   4.354  15.922 -0.3861  0.3450 -0.1469
    2MPD1    C314254   0.203   4.398  15.905 -0.2628 -0.5340  0.5001
    2MPD1    C414255   0.169   4.520  15.862 -0.6595  0.9555  0.5363
    2MPD1    C514256   0.269   4.604  15.824 -0.7996  0.1248 -0.0584
    2MPD1     H14257   0.351   4.249  15.944 -1.3717 -0.6713 -4.1434
    2MPD1    H114258   0.069   4.552  15.834 -1.6686 -1.0543  1.8869
    2MPD1    H214259   0.471   4.641  15.831  1.0758 -0.8810  1.1169
    2MPD1    H314260   0.254   4.705  15.788  1.2933  0.7844  0.9133
    2MPD1     N14261   0.107   4.299  15.926  0.3149  0.4998 -0.0548
    2MPD1    H514262   0.139   4.205  15.947  0.2120  0.2735 -0.8893
    2MPD1    N114263   0.570   4.397  15.898  0.3451  0.2561  0.3817
    2MPD1    H614264   0.583   4.340  15.981  0.6558 -1.9600 -1.1832
    2MPD1    H714265   0.644   4.466  15.911  1.4716 -0.7439 -0.6133
    3TCq2    C114266   4.696   4.310  15.903  0.1597 -0.2803 -0.7275
    3TCq2    O214267   4.638   4.412  15.873  0.1174  0.6851  0.0362
    3TCq2    C214268   4.619   4.184  15.919  0.6887 -0.4649  0.3048
    3TCq2    C314269   4.486   4.180  15.899 -0.2641  1.0646 -0.1005
    3TCq2    C414270   4.413   4.067  15.921  0.3541 -0.1991  0.7417
    3TCq2    C514271   4.476   3.959  15.972  0.3474 -0.2468 -0.0264
    3TCq2    C614272   4.614   3.960  15.986  0.6093 -0.1221 -0.0445
    3TCq2    C714273   4.682   4.078  15.980 -0.0211 -0.2122  0.1005
    3TCq2    C814274   4.666   3.858  16.082  0.5758 -0.2503  0.6480
    3TCq2    O414275   0.041   3.895  16.145  0.1534 -0.0441 -0.5199
    3TCq2    C914276   4.272   4.073  15.902 -0.4225  0.4804 -0.2710
    3TCq2    O514277   4.218   4.186  15.879 -0.0350  0.8190 -0.4427
    3TCq2    O614278   4.207   3.967  15.919  0.1473  0.1067  0.3228
    3TCq2    H214279   4.447   4.270  15.852 -1.0340 -0.0241 -1.5056
    3TCq2    H314280   4.414   3.870  15.977 -0.5046  0.3175 -0.6997
    3TCq2    H414281   0.058   4.083  16.018 -0.1235  0.9659  0.2345
    1TCq1    O114282   2.588   3.520  13.385 -0.0836 -0.1227 -0.2758
    1TCq1    C114283   2.703   3.599  13.382  0.0272  0.4416  0.2904
    1TCq1    O214284   2.789   3.615  13.467  0.0493  0.7075  0.8079
    1TCq1    C214285   2.742   3.624  13.244 -0.5051 -0.3774 -0.0299
    1TCq1    C314286   2.651   3.605  13.147 -0.3981 -0.8320  0.1081
    1TCq1    C414287   2.690   3.610  13.017 -0.3422  0.0619 -0.1186
    1TCq1    C514288   2.813   3.642  12.984 -0.0382  0.3199 -0.5415
    1TCq1    C614289   2.907   3.658  13.081  0.2288 -0.2019 -0.4459
    1TCq1    C714290   2.871   3.638  13.216  0.1794 -0.3098 -0.7615
    1TCq1    C814291   3.041   3.688  13.032  0.7467 -0.0199  0.3939
    1TCq1    O414292   3.066   3.668  12.913 -0.2255  0.4478  0.2471
    1TCq1    C914293   2.596   3.599  12.908  0.1248  0.6596  0.0947
    1TCq1    O514294   2.482   3.562  12.944 -0.3732 -0.3299 -0.1659
    1TCq1    O614295   2.623   3.631  12.790 -0.3793  0.1607 -0.5903
    1TCq1    H114296   2.543   3.506  13.298  0.7122  0.8192 -0.8374
    1TCq1    H214297   2.544   3.607  13.162 -0.2392 -0.2538  1.1404
    1TCq1    H314298   2.828   3.674  12.881 -1.4148  3.4515  0.2396
    1TCq1    H414299   2.952   3.629  13.288 -1.1574  2.6867  1.1226
    2MPD2     C14300   3.342   3.714  13.023 -0.1616  0.1509 -0.3390
    2MPD2    C114301   3.267   3.728  13.135  0.0267 -0.4736 -0.3511
    2MPD2    C214302   3.328   3.757  13.255  0.5493  0.2640  0.2432
    2MPD2    C314303   3.468   3.759  13.268  0.3205 -0.0623  0.2834
    2MPD2    C414304   3.547   3.741  13.151  0.8924  0.5588  0.2275
    2MPD2    C514305   3.481   3.728  13.029 -0.5714 -0.4415  0.1382
    2MPD2     H14306   3.267   3.750  13.345 -0.9233  0.3241 -0.7589
    2MPD2    H114307   3.655   3.742  13.144  1.0156  0.8178  2.0826
    2MPD2    H214308   3.308   3.697  12.922  0.1264 -2.3511 -0.0108
    2MPD2    H314309   3.549   3.713  12.946 -0.5476 -0.2113  0.1142
    2MPD2     N14310   3.523   3.780  13.396 -0.4694 -0.3049  0.1461
    2MPD2    H514311   3.464   3.810  13.474 -1.1127 -2.6527  0.5729
    2MPD2    N114312   3.125   3.715  13.139 -0.1214 -0.1778  0.1156
    2MPD2    H714313   3.081   3.718  13.230  0.1257 -1.8528  0.2801
    3TCq1    O114314   3.708   4.040  13.897 -0.5263 -0.5229 -0.2208
    3TCq1    C114315   3.607   3.961  13.856 -0.0975  0.0041 -0.0924
    3TCq1    O214316   3.495   4.005  13.827 -0.3944  0.3370 -0.0512
    3TCq1    C214317   3.664   3.852  13.777 -0.0641  0.2541  0.0401
    3TCq1    C314318   3.775   3.779  13.815  0.1775 -0.6530  0.5071
    3TCq1    C414319   3.830   3.698  13.721  0.5266 -0.3571  0.9997
    3TCq1    C514320   3.793   3.691  13.590  0.1985  0.6261  0.1890
    3TCq1    C614321   3.680   3.758  13.562  0.0251  0.3565 -0.8989
    3TCq1    C714322   3.614   3.838  13.645  0.6943 -0.2136  0.2887
    3TCq1    C814323   3.649   3.760  13.423  0.7860  0.3176  0.3564
    3TCq1    O414324   3.743   3.736  13.351  0.0090 -0.2906  0.1568
    3TCq1    C914325   3.942   3.619  13.749 -0.8770 -0.1061  0.4322
    3TCq1    O514326   3.976   3.523  13.674  0.1820 -0.6040 -0.5230
    3TCq1    O614327   4.010   3.646  13.850 -0.0553 -0.4246 -0.0555
    3TCq1    H114328   3.787   3.982  13.908  1.2836  1.9336 -0.3530
    3TCq1    H214329   3.816   3.784  13.915  1.1376  1.2141  0.0012
    3TCq1    H314330   3.844   3.630  13.516 -1.6655 -1.0446  0.2978
    3TCq1    H414331   3.527   3.896  13.616  1.3966  0.3301 -0.7221
    1MPD2     C14332   3.390   0.075  14.795 -0.3155 -0.4192  0.0454
    1MPD2    C114333   3.453   4.692  14.857 -0.4711 -0.1809 -0.3034
    1MPD2    C214334   3.588   4.666  14.825 -0.9547  0.5005  0.3193
    1MPD2    C314335   3.659   0.008  14.725 -1.2951  0.0578 -0.1081
    1MPD2    C414336   3.593   0.118  14.672 -0.2346 -0.1719 -0.1369
    1MPD2    C514337   3.463   0.149  14.704  0.8709 -0.2516 -0.8144
    1MPD2     H14338   3.651   4.598  14.880  0.5695  1.3689 -0.3269
    1MPD2    H114339   3.652   0.178  14.603  1.4844 -2.0776 -0.3470
    1MPD2    H214340   3.287   0.101  14.817 -0.8467 -1.0014 -1.7469
    1MPD2    H314341   3.418   0.232  14.650 -0.0190 -0.9917 -1.2238
    1MPD2     N14342   3.793   4.711  14.694 -0.1986  0.3961  0.7478
    1MPD2    H514343   3.852   0.059  14.658 -1.5275  0.3445 -1.5478
    1MPD2    N114344   3.382   4.613  14.953 -0.2695 -0.1886  0.0821
    1MPD2    H714345   3.281   4.615  14.966 -0.5053 -1.3459 -1.4971
    2TMC3    C114346   3.353   4.397  15.062  0.0282 -0.3038 -0.9671
    2TMC3    C214347   3.425   4.304  15.140  0.6011  0.1898  0.0387
    2TMC3    C314348   3.401   4.177  15.107  0.0043  0.1394 -0.2035
    2TMC3    C414349   3.256   4.364  14.976  0.3004  0.3539  0.3084
    2TMC3    C514350   3.227   4.226  14.963 -0.2015 -0.2018 -0.9396
    2TMC3    C614351   3.303   4.134  15.029 -0.4869  0.2057  0.0658
    2TMC3     C14352   3.440   4.505  15.019 -0.2695  0.7783 -0.2195
    2TMC3     O14353   3.560   4.472  15.027  0.2185  0.4369 -0.0788
    2TMC3     H14354   3.498   4.331  15.215  1.9057  0.7974 -1.4511
    2TMC3    H114355   3.214   4.435  14.905 -1.7287  0.9677  2.1121
    2TMC3    H214356   3.298   4.028  15.006 -2.6809  0.4544 -0.6969
    2TMC3    C714357   3.127   4.181  14.875 -0.1082 -0.2507 -0.3417
    2TMC3    C814358   3.515   4.084  15.090  0.0824 -0.1867 -0.3218
    2TMC3    O114359   3.129   4.061  14.848  0.1571  0.4287 -0.2410
    2TMC3    O214360   3.501   3.963  15.099 -0.1807  0.1764  0.2755
    3TCq1    O114361   1.978   4.647  14.730  0.4589 -0.4001 -0.2114
    3TCq1    C114362   2.072   4.663  14.639 -0.4368  0.1749  0.1521
    3TCq1    O214363   2.067   4.623  14.527 -0.1952  0.1337 -0.2960
    3TCq1    C214364   2.201   4.645  14.713 -0.3059  0.4546  0.0574
    3TCq1    C314365   2.247   4.724  14.814 -0.6716  0.2732 -0.1270
    3TCq1    C414366   2.363   4.698  14.875 -0.6939 -0.3722 -0.8061
    3TCq1    C514367   2.431   4.582  14.850  0.5129 -0.8950 -0.3640
    3TCq1    C614368   2.380   4.497  14.751  0.1223  1.0590  0.4472
    3TCq1    C714369   2.270   4.527  14.685  0.1219  0.0037 -0.2796
    3TCq1    C814370   2.464   4.398  14.682 -0.0335  0.3240 -0.0440
    3TCq1    O414371   2.411   4.323  14.597 -0.0506 -0.2471  0.0471
    3TCq1    C914372   2.413   0.053  14.984 -0.2211 -0.4561  0.5604
    3TCq1    O514373   2.531   0.023  15.020 -0.3573  0.2017  0.0654
    3TCq1    O614374   2.354   0.163  15.004 -0.0882 -0.2671  0.5066
    3TCq1    H114375   2.010   4.685  14.815 -1.5693  0.4614  0.1537
    3TCq1    H214376   2.185   0.079  14.852 -0.8625 -0.9343  2.1405
    3TCq1    H314377   2.524   4.565  14.903 -1.2723 -3.7577  1.8553
    3TCq1    H414378   2.218   4.460  14.618  0.6181 -0.0535 -0.6014
    4MPD2     C14379   2.681   4.209  14.614 -0.2557 -0.8580 -0.2969
    4MPD2    C114380   2.697   4.321  14.697  1.0788  0.1426  0.0749
    4MPD2    C214381   2.818   4.340  14.765  0.2708  0.1551 -0.4755
    4MPD2    C314382   2.921   4.249  14.761 -0.0892  0.4992 -0.2464
    4MPD2    C414383   2.911   4.149  14.667 -1.6282 -0.1596 -0.2151
    4MPD2    C514384   2.795   4.132  14.605  0.1738 -0.0538 -0.5049
    4MPD2     H14385   2.831   4.420  14.837 -3.9277  1.6303 -1.3522
    4MPD2    H114386   2.994   4.082  14.651 -1.3315  0.1923 -0.1632
    4MPD2    H214387   2.590   4.185  14.560 -0.2186 -2.6113  0.4256
    4MPD2    H314388   2.788   4.040  14.548 -1.4067 -0.4710  0.3618
    4MPD2     N14389   3.034   4.276  14.845  0.0110  0.6673 -0.5226
    4MPD2    H514390   3.024   4.366  14.891  0.0812 -0.2491  1.2457
    4MPD2    N114391   2.592   4.413  14.727 -0.2208  0.0057 -0.5646
    4MPD2    H714392   2.618   4.497  14.777 -0.6857 -1.2895  1.8771
    5TMC2    C114393   4.141   4.496  14.897 -0.2660  0.3547  0.0897
    5TMC2    C214394   4.185   4.606  14.970 -0.1635  0.0272  0.2886
    5TMC2    C314395   4.119   4.719  14.938 -0.4419  0.7461 -1.1461
    5TMC2    C414396   4.068   4.508  14.787 -0.7876  0.1386  0.1973
    5TMC2    C514397   4.004   4.625  14.754  0.1603 -0.1509 -1.0147
    5TMC2    C614398   4.027   0.004  14.833  0.1871  0.2997  0.4725
    5TMC2     C14399   4.079   4.410  14.995 -0.0300  0.4273  0.1659
    5TMC2     O14400   4.005   4.467  15.073  0.0974 -0.4930 -0.4423
    5TMC2     H14401   4.241   4.596  15.062  0.5428  1.5500  0.0278
    5TMC2    H114402   4.052   4.413  14.737 -3.8205  0.7918 -0.0657
    5TMC2    H214403   3.997   0.100  14.793  1.2034  1.2003  1.8740
    5TMC2    C714404   3.864   4.601  14.738 -0.3841  0.1080  0.2257
    5TMC2    C814405   4.174   0.125  14.990  0.2030 -0.0382 -0.5819
    5TMC2    O114406   3.829   4.488  14.764  0.1771  0.3480 -0.6133
    5TMC2    O214407   4.126   0.229  14.944 -0.1613  0.1697  0.1236
    5TMC2    O514408   4.304   0.101  14.971  0.1355 -0.4567 -0.5261
    5TMC2    H514409   4.329   0.010  15.000  1.8060 -0.1943 -1.1480
    6MPD2     C14410   3.793   3.985  15.012  0.4832  0.1693  0.6846
    6MPD2    C114411   3.756   4.114  15.013  0.0962  0.2390  0.1401
    6MPD2    C214412   3.855   4.208  14.997  0.0881 -0.2601 -0.0575
    6MPD2    C314413   3.990   4.178  14.975  0.2031  0.1447 -0.1577
    6MPD2    C414414   4.021   4.047  14.945 -0.9562  0.2225 -0.6011
    6MPD2    C514415   3.917   3.954  14.963  0.6090  0.1940  0.1464
    6MPD2     H14416   3.825   4.312  15.008 -0.1682 -0.1530 -1.7297
    6MPD2    H114417   4.119   4.010  14.919 -1.1879 -0.9946  0.2602
    6MPD2    H214418   3.728   3.901  15.036  0.7895 -0.1652  0.3444
    6MPD2    H314419   3.938   3.849  14.950  0.6979  0.2843 -0.4436
    6MPD2     N14420   4.086   4.279  14.953 -0.1677  0.8584  0.0105
    6MPD2    H514421   4.163   4.248  14.894 -1.1998 -1.9902  0.1518
    6MPD2    N114422   3.625   4.161  15.059  0.8420 -0.0841 -1.0087
    6MPD2    H714423   3.609   4.261  15.062  0.1533 -0.2521  0.8399
  945NH4     N114424   1.198   2.933   7.700  0.2736 -0.0999 -0.6438
  945NH4     H214425   1.219   3.035   7.708  1.7974 -0.3656 -1.2712
  945NH4     H314426   1.195   2.913   7.598 -0.3865  1.8006 -1.0063
  945NH4     H414427   1.107   2.917   7.746  1.2158 -2.7435  0.2751
  945NH4     H514428   1.277   2.879   7.741  0.1779 -0.0941 -0.4508
  946SOD     NA14429   1.924   1.533   1.361  0.0001  0.1066 -0.0243
  947SOD     NA14430   3.406   3.364   9.046 -0.1707 -0.1463  0.2326
  948SOD     NA14431   4.298   2.475   8.694 -0.3181  0.7678  0.2200
  949SOD     NA14432   1.644   3.966   6.530  0.0971 -0.2335  1.2139
  950SOD     NA14433   0.793   2.696   2.308 -0.8383  0.4276 -0.0405
  951SOD     NA14434   2.665   1.960   5.715 -0.3731  0.2326 -0.1899
  952SOD     NA14435   2.175   1.705   1.712 -0.1479 -0.0823 -0.0219
  953SOD     NA14436   2.903   1.049  11.154  0.2052  0.1331 -0.1695
  954SOD     NA14437   3.895   3.491  11.634  0.2958  0.3190  0.0702
  955SOD     NA14438   2.503   3.450   1.923 -0.1554 -0.2323 -0.2652
  956SOD     NA14439   4.343   3.490  13.245 -0.1968  0.0469 -0.3531
  957SOD     NA14440   3.502   4.074  11.143 -0.2116  0.1510  0.3363
  958SOD     NA14441   2.719   3.796  14.983 -0.2102 -0.4162 -0.3129
  959SOD     NA14442   2.207   1.615   1.361  0.4756  0.5646  0.2686
  960SOD     NA14443   2.943   1.519  11.443 -0.2239  0.0112 -0.1222
  961SOD     NA14444   3.467   3.250   0.180 -0.0644 -0.3647 -0.0714
  962SOD     NA14445   3.059   3.592   1.681 -0.1719  0.4629 -0.9188
  963SOD     NA14446   1.701   2.789  17.217 -0.2896  0.2610  0.4564
  964SOD     NA14447   1.078   4.710  14.289  0.3049  0.1658 -0.5502
  965SOD     NA14448   2.980   2.592   3.991  0.0554 -0.1290 -0.2162
  966SOD     NA14449   1.810   0.293   1.575  0.3337  0.5619 -0.3694
  967SOD     NA14450   1.126   0.220   0.980  0.0208 -0.2406 -0.4879
  968SOD     NA14451   2.701   1.261   9.290 -0.4975 -0.4942  0.7697
  969SOD     NA14452   0.021   3.141  13.328 -0.3944  0.3093  0.7536
  970SOD     NA14453   2.338   4.555  11.120  0.0170 -0.2202 -0.8620
  971SOD     NA14454   3.486   2.652  10.134 -0.0018 -0.0100  0.1212
  972SOD     NA14455   4.644   0.224  15.681 -0.2363  0.5630 -0.1860
  973SOD     NA14456   2.780   3.455   9.829 -0.2998 -0.2611  0.0234
  974SOD     NA14457   3.778   2.337  10.923 -0.1838 -0.1395  0.2473
  975SOD     NA14458   1.836   4.239  13.678 -0.7569 -0.4033  0.1245
  976SOD     NA14459   4.246   3.236  11.025 -0.3303 -0.4904  0.5115
  977SOD     NA14460   0.160   4.138   1.673  0.3732  0.6860  0.2450
  978SOD     NA14461   3.868   1.098  13.955  0.0349 -0.2323 -0.4921
  979SOD     NA14462   3.735   0.864   8.959  0.4663 -0.5302  0.3339
  980SOD     NA14463   4.530   3.689  14.046  0.5612 -0.5114 -0.0882
  981SOD     NA14464   3.131   3.336   8.940  0.3574 -0.2907 -0.1559
  982SOD     NA14465   2.628   3.607  10.599 -0.4921 -0.1830 -0.7674
  983SOD     NA14466   2.217   1.141  17.046  0.0708  0.0880 -0.0938
  984SOD     NA14467   1.889   3.713   0.451 -0.5046  0.0127  0.0425
  985SOD     NA14468   1.664   0.416  13.491  0.2890  0.1793 -0.6058
  986SOD     NA14469   2.617   0.192  15.103  0.3013 -0.2570 -0.4312
  987SOD     NA14470   4.162   3.500  13.781  0.1941 -0.5762 -0.3030
  988SOD     NA14471   4.395   1.774  16.086  0.1568 -0.4485 -0.0739
  989SOD     NA14472   4.003   0.988   0.555 -0.2950 -0.3744  0.1783
  990SOD     NA14473   1.804   4.094  11.191  0.0728  0.3100 -0.2110
  991SOD     NA14474   3.114   1.421  12.354  0.2212 -0.3588 -0.0915
  992SOD     NA14475   0.674   1.278  11.448  0.3343  0.5774 -0.2595
  993SOD     NA14476   0.509   4.162  14.667  0.0779 -0.0698 -0.2359
  994SOD     NA14477   2.425   3.345  13.009 -0.2239 -0.4630 -0.0193
  995SOD     NA14478   4.688   2.318  17.445 -0.1585 -0.0263 -0.2362
  996SOD     NA14479   1.905   2.993  13.225 -0.8003  0.1298  0.4385
  997SOD     NA14480   4.186   2.065   2.450  0.5904  0.6248 -0.3052
  998SOD     NA14481   3.694   3.239  11.663 -0.2832 -0.1523 -0.4505
  999SOD     NA14482   3.829   0.250  11.364 -0.5260  0.1019  0.1377
 1000SOD     NA14483   2.412   3.334  12.190 -0.0651 -0.2225 -0.3339
 1001SOD     NA14484   1.325   1.492  15.192  0.0645  0.0373 -0.3896
 1002SOD     NA14485   3.141   2.425  15.252 -0.5277  0.0920 -0.1758
 1003SOD     NA14486   1.478   2.367   9.491 -0.2110 -0.1075  0.7846
 1004SOD     NA14487   1.215   1.172  15.887  0.2270  0.3145 -0.2787
 1005SOD     NA14488   3.404   0.687  10.438 -0.1273 -0.4056  0.3296
 1006SOD     NA14489   1.924   2.846  14.839 -0.2827 -0.3706 -0.1713
 1007SOD     NA14490   1.092   4.268   7.724 -0.1138 -0.1859 -0.4555
 1008SOD     NA14491   0.582   4.250  15.017  0.1493 -0.4206 -0.6160
 1009SOD     NA14492   0.102   4.337  10.688 -0.4320 -0.2818  0.3447
 1010SOD     NA14493   1.062   1.968  10.585  0.0790 -0.2755  0.1020
 1011SOL     OW14494   2.152   3.407  16.445  0.3027 -0.2898 -0.3827
 1011SOL    HW114495   2.242   3.393  16.474  1.1565  2.1733 -1.8410
 1011SOL    HW214496   2.154   3.369  16.357 -0.5874  0.6267 -0.8072
 1012SOL     OW14497   4.424   3.880  13.949 -0.1387  0.4879 -0.0205
 1012SOL    HW114498   4.399   3.961  13.904  0.3364  1.5639  1.6262
 1012SOL    HW214499   4.346   3.852  13.997 -1.2877  1.0123 -1.5938
 1013SOL     OW14500   2.133   3.045   5.078  0.0642  0.1341 -0.2322
 1013SOL    HW114501   2.113   3.131   5.040 -1.5552  0.6134  1.6598
 1013SOL    HW214502   2.081   3.067   5.156  2.3420  1.2326  0.9666
 1014SOL     OW14503   2.625   0.426   4.304  0.3255  0.1250  0.1339
 1014SOL    HW114504   2.703   0.371   4.307  0.0102 -0.3126  0.3828
 1014SOL    HW214505   2.577   0.389   4.378 -2.7274 -1.1236 -2.4571
 1015SOL     OW14506   1.173   1.210  17.486 -0.0239  0.4226 -0.0858
 1015SOL    HW114507   1.083   1.184  17.466 -0.6677  1.9291  0.8563
 1015SOL    HW214508   1.156   1.297  17.520  0.1501 -0.9142  3.4107
 1016SOL     OW14509   0.193   3.847   9.123  0.0259  0.5400 -0.2018
 1016SOL    HW114510   0.243   3.897   9.187 -0.3442  1.2407 -0.4554
 1016SOL    HW214511   0.164   3.768   9.167  0.3270 -0.2586 -1.4374
 1017SOL     OW14512   4.698   2.474   2.026 -0.2071  0.3605 -0.1374
 1017SOL    HW114513   4.616   2.428   2.007  0.2444 -0.5932  0.2085
 1017SOL    HW214514   0.018   2.468   1.941 -0.3118  0.2673 -0.1865
 1018SOL     OW14515   1.655   2.431   7.576  0.2787  0.0423  0.5360
 1018SOL    HW114516   1.735   2.382   7.561  0.2251 -0.4678  1.8787
 1018SOL    HW214517   1.615   2.371   7.639  2.4675 -2.9532 -0.9495
 1019SOL     OW14518   0.661   3.156   0.325  0.1077  0.0344 -0.4732
 1019SOL    HW114519   0.687   3.135   0.414  1.3920 -3.2120 -1.6183
 1019SOL    HW214520   0.685   3.071   0.288  0.3750  0.2196 -0.7312
 1020SOL     OW14521   2.207   0.267   0.075 -0.3493 -0.0832 -0.1932
 1020SOL    HW114522   2.156   0.187   0.087 -0.7016  0.2895  0.7722
 1020SOL    HW214523   2.140   0.334   0.068  1.3552  1.6281 -0.2815
 1021SOL     OW14524   1.066   1.031  13.546  0.0559  0.2042 -0.0981
 1021SOL    HW114525   1.106   1.002  13.464 -0.8082 -1.2264 -0.0118
 1021SOL    HW214526   1.143   1.057  13.597 -0.1637  3.5763 -1.4282
 1022SOL     OW14527   3.187   2.262   8.101  0.0674 -0.2767 -0.1445
 1022SOL    HW114528   3.275   2.288   8.127  1.0160 -0.8125 -2.8299
 1022SOL    HW214529   3.161   2.315   8.026  1.7207  0.4906 -0.1798
 1023SOL     OW14530   4.432   1.031   7.040 -0.0202 -0.3808  0.4160
 1023SOL    HW114531   4.520   0.994   7.046 -0.7559 -2.1184  0.5165
 1023SOL    HW214532   4.391   0.985   6.966  0.6831 -0.2216 -0.0733
 1024SOL     OW14533   2.493   4.011   2.977  0.6470  0.1905 -0.0865
 1024SOL    HW114534   2.454   3.967   3.052  0.2019  1.4763  0.4435
 1024SOL    HW214535   2.416   4.057   2.942 -1.2660 -1.3458  2.0866
 1025SOL     OW14536   0.652   1.449  10.412  0.2898  0.8775 -0.2634
 1025SOL    HW114537   0.584   1.444  10.480 -1.9261 -1.4156 -2.6520
 1025SOL    HW214538   0.610   1.514  10.355 -1.8842  0.8258  1.2571
 1026SOL     OW14539   2.501   3.730   6.201 -0.0888 -0.3865 -0.1857
 1026SOL    HW114540   2.433   3.664   6.208  0.2770 -0.6692  0.7190
 1026SOL    HW214541   2.517   3.729   6.107  0.4775 -2.3859 -0.0827
 1027SOL     OW14542   0.719   1.009   3.566  0.2077  0.2676  0.2743
 1027SOL    HW114543   0.733   0.930   3.514  0.7109 -1.1949  2.6134
 1027SOL    HW214544   0.804   1.054   3.563 -0.9154  2.4196  0.5348
 1028SOL     OW14545   3.036   4.636   4.518 -0.1670 -0.1018 -0.1494
 1028SOL    HW114546   2.945   4.665   4.512 -0.7226 -1.5378  1.3118
 1028SOL    HW214547   3.028   4.544   4.492 -1.0740 -0.2787  0.7814
 1029SOL     OW14548   2.970   2.575  14.836  0.5003 -0.6528 -0.0847
 1029SOL    HW114549   2.909   2.647  14.820 -0.0880 -1.3262 -0.9108
 1029SOL    HW214550   2.914   2.498  14.847 -0.4495  0.0156 -0.2360
 1030SOL     OW14551   2.622   2.805   2.065 -0.5298 -0.0026 -0.0822
 1030SOL    HW114552   2.631   2.898   2.047 -0.5645  0.5505  2.8543
 1030SOL    HW214553   2.702   2.768   2.026 -1.6157 -3.3992  0.9027
 1031SOL     OW14554   0.498   4.474   7.406 -0.4104  0.3437  0.2613
 1031SOL    HW114555   0.572   4.493   7.348  1.2455 -0.4201  2.1651
 1031SOL    HW214556   0.515   4.543   7.470  0.6544 -2.0174  2.4734
 1032SOL     OW14557   3.047   1.092   6.828  0.7436 -0.3713 -0.2045
 1032SOL    HW114558   2.966   1.107   6.780  0.4080  1.9206  1.0945
 1032SOL    HW214559   3.017   1.041   6.904 -0.3106  1.1775  0.4059
 1033SOL     OW14560   3.341   1.980   4.161 -0.4297 -0.3971 -0.0186
 1033SOL    HW114561   3.319   2.073   4.152 -1.8900 -0.7254  0.2085
 1033SOL    HW214562   3.285   1.948   4.232 -0.3110 -0.8417 -0.1240
 1034SOL     OW14563   2.951   3.361   4.268  0.3130 -0.0744  0.2907
 1034SOL    HW114564   2.995   3.444   4.286 -2.2541  1.3657 -0.1663
 1034SOL    HW214565   2.876   3.402   4.225 -0.5613  0.8277  2.6805
 1035SOL     OW14566   0.354   0.812   3.054  0.4146 -0.3954 -0.1196
 1035SOL    HW114567   0.290   0.881   3.037  0.7132 -0.2647 -0.7184
 1035SOL    HW214568   0.419   0.832   2.986 -0.7343  1.9211 -0.5495
 1036SOL     OW14569   2.957   1.867   4.566 -0.1452  0.0634 -0.3712
 1036SOL    HW114570   2.878   1.815   4.581  0.9126 -1.6582 -0.8582
 1036SOL    HW214571   3.004   1.814   4.503 -1.4652  1.6562 -2.6827
 1037SOL     OW14572   0.050   1.661   2.934 -0.5845 -0.6178  0.0186
 1037SOL    HW114573   0.075   1.698   2.850  2.6753 -1.1894  0.7295
 1037SOL    HW214574   0.075   1.731   2.994  1.6391  0.1140 -1.7904
 1038SOL     OW14575   1.916   2.954  13.006 -0.9601 -0.1569  0.0182
 1038SOL    HW114576   2.005   2.940  12.975 -0.6653  1.6214  0.0883
 1038SOL    HW214577   1.868   2.937  12.925 -0.6831 -1.9983  0.2234
 1039SOL     OW14578   1.162   0.588   0.010 -0.4341 -0.5452  0.0417
 1039SOL    HW114579   1.125   0.567   0.096 -2.2793  1.7237 -0.2136
 1039SOL    HW214580   1.157   0.683   0.013 -2.9389 -0.7806  2.9299
 1040SOL     OW14581   3.109   2.914   5.156 -0.6519 -0.3335  0.0201
 1040SOL    HW114582   3.155   2.829   5.152 -0.3441 -0.0976 -1.4456
 1040SOL    HW214583   3.148   2.964   5.084  0.9165 -2.8685 -0.8926
 1041SOL     OW14584   2.196   4.474  10.008 -0.7004 -0.0337 -0.4182
 1041SOL    HW114585   2.174   4.566   9.996 -1.9753 -0.1692  0.9047
 1041SOL    HW214586   2.177   4.455   9.916  0.1892 -0.9563 -0.4079
 1042SOL     OW14587   2.268   1.586   6.372  0.4679  0.4680  0.3935
 1042SOL    HW114588   2.301   1.543   6.293 -0.6873  0.0444  0.1492
 1042SOL    HW214589   2.257   1.510   6.429 -0.7565  1.0977  1.0036
 1043SOL     OW14590   1.786   4.011  14.989  0.1073 -0.1205  0.0606
 1043SOL    HW114591   1.793   3.916  14.997 -1.2616 -0.2309 -0.0619
 1043SOL    HW214592   1.824   4.020  14.901  0.7935 -3.1278  0.0454
 1044SOL     OW14593   3.253   3.617   9.713 -0.2112 -0.0554  0.3452
 1044SOL    HW114594   3.296   3.532   9.728 -2.0457 -1.0405 -0.0336
 1044SOL    HW214595   3.171   3.604   9.760 -0.2109 -0.4460  0.2424
 1045SOL     OW14596   4.545   0.598   1.592  0.1074  0.3721  0.6201
 1045SOL    HW114597   4.565   0.575   1.501 -1.9684 -0.2320  0.3140
 1045SOL    HW214598   4.628   0.581   1.634  0.8779  1.6791 -0.3487
 1046SOL     OW14599   0.727   0.024   4.351 -0.4780 -0.1682 -0.2383
 1046SOL    HW114600   0.646   0.025   4.402 -0.2069  0.2395  0.1806
 1046SOL    HW214601   0.797   4.724   4.411 -0.2608 -1.0914 -0.8675
 1047SOL     OW14602   1.807   3.474   6.466  0.3256 -0.0117 -1.0558
 1047SOL    HW114603   1.778   3.443   6.552 -0.9541  0.5305 -1.2975
 1047SOL    HW214604   1.902   3.483   6.473  0.6009 -1.4477 -3.1472
 1048SOL     OW14605   1.402   0.290   0.022  0.0266 -0.2180 -0.0711
 1048SOL    HW114606   1.412   0.366  17.666 -0.4398 -0.4775 -0.4883
 1048SOL    HW214607   1.479   0.308   0.076  0.2582  0.3660 -0.5890
 1049SOL     OW14608   3.933   0.446   6.532 -0.1265  0.4050  0.2712
 1049SOL    HW114609   3.841   0.423   6.544 -0.4702  0.1841 -2.8164
 1049SOL    HW214610   3.959   0.356   6.510 -0.8924  0.2199  0.1231
 1050SOL     OW14611   3.116   0.223  16.743  0.0999 -0.0953  0.0739
 1050SOL    HW114612   3.066   0.239  16.663  2.0455  0.1405 -1.0870
 1050SOL    HW214613   3.104   0.311  16.780  0.2544 -0.1468  0.2461
 1051SOL     OW14614   0.377   0.819  16.645 -0.3747 -0.0664 -1.3250
 1051SOL    HW114615   0.374   0.723  16.651 -1.7218  0.0718  0.0914
 1051SOL    HW214616   0.408   0.834  16.555 -0.1071  1.7276 -0.9304
 1052SOL     OW14617   4.118   1.944   3.549 -0.3684 -0.3538  0.2367
 1052SOL    HW114618   4.036   1.923   3.505  0.0591 -0.9745 -0.2637
 1052SOL    HW214619   4.173   1.873   3.516  0.3480  0.4434 -0.2656
 1053SOL     OW14620   3.624   4.534   2.773  0.3013  0.5279  0.2256
 1053SOL    HW114621   3.577   4.519   2.855 -0.5867  0.1780 -0.3569
 1053SOL    HW214622   3.701   4.575   2.815  1.8047 -0.3814 -1.6475
 1054SOL     OW14623   1.935   0.797   4.164  0.2309 -0.1896 -0.3999
 1054SOL    HW114624   2.028   0.778   4.157 -0.1309 -1.6314 -1.3656
 1054SOL    HW214625   1.896   0.710   4.149 -1.1302  0.7403 -2.3104
 1055SOL     OW14626   3.698   0.142   7.753  0.3800  0.3489  0.8189
 1055SOL    HW114627   3.766   0.165   7.815  1.1683  1.5567 -0.4950
 1055SOL    HW214628   3.664   0.227   7.724 -1.4550 -0.9017 -0.6955
 1056SOL     OW14629   0.595   1.061   2.467  0.2158 -0.0937 -0.8443
 1056SOL    HW114630   0.593   1.155   2.452 -0.2438  0.1285  0.5569
 1056SOL    HW214631   0.607   1.048   2.562 -0.6543 -1.5613 -0.9413
 1057SOL     OW14632   1.498   4.177   7.232  0.1776  0.3067 -0.1468
 1057SOL    HW114633   1.552   4.099   7.221  0.0643  0.0177  1.3643
 1057SOL    HW214634   1.484   4.217   7.146 -0.0093 -0.1087 -0.3079
 1058SOL     OW14635   3.838   1.594   8.063  0.1561  0.4423 -0.0845
 1058SOL    HW114636   3.848   1.575   8.156  0.1705 -2.5679 -0.7081
 1058SOL    HW214637   3.753   1.552   8.050  0.1004  0.5469 -0.0570
 1059SOL     OW14638   3.372   3.289   7.396 -0.2219 -0.3543 -0.6816
 1059SOL    HW114639   3.295   3.231   7.394 -0.8657  0.4525  0.6730
 1059SOL    HW214640   3.438   3.228   7.364 -1.2184 -1.9369  0.2560
 1060SOL     OW14641   3.144   0.818   5.425 -0.0953  0.8752  0.1664
 1060SOL    HW114642   3.067   0.763   5.442  0.5045 -0.0805 -0.2070
 1060SOL    HW214643   3.201   0.764   5.370  0.9265  0.0335  2.0540
 1061SOL     OW14644   3.037   1.605  12.267  0.1299 -0.4363  0.4475
 1061SOL    HW114645   2.960   1.633  12.218  0.1062  1.2902  1.4878
 1061SOL    HW214646   3.090   1.685  12.265 -2.4936  1.3050  0.6535
 1062SOL     OW14647   3.338   1.051  16.089 -0.3453  0.6942 -0.2983
 1062SOL    HW114648   3.346   0.968  16.137  2.4707  0.6067 -0.9012
 1062SOL    HW214649   3.382   1.035  16.006  0.7509  1.2810  0.1659
 1063SOL     OW14650   4.425   4.262   2.003  0.4467 -0.2561  0.1265
 1063SOL    HW114651   4.381   4.289   1.923  1.6643 -1.0323 -0.7980
 1063SOL    HW214652   4.454   4.343   2.046  3.0670 -0.5358 -1.1316
 1064SOL     OW14653   4.188   2.580   5.052  0.3378  0.0455 -0.2901
 1064SOL    HW114654   4.110   2.529   5.072  0.5426 -0.2180 -0.1589
 1064SOL    HW214655   4.230   2.540   4.975  1.1158  0.7852 -0.2429
 1065SOL     OW14656   0.735   2.294   7.482  0.0036  0.5002 -0.2936
 1065SOL    HW114657   0.816   2.319   7.527 -0.2727 -0.7500  0.8902
 1065SOL    HW214658   0.767   2.227   7.421  2.6118 -0.1771  1.8257
 1066SOL     OW14659   3.103   0.973  17.434 -0.1860  0.3588  0.4556
 1066SOL    HW114660   3.029   1.028  17.407  0.6875  1.2959 -0.0216
 1066SOL    HW214661   3.059   0.921  17.501 -0.2084 -0.5244 -0.2503
 1067SOL     OW14662   0.962   0.231  12.881  0.1115 -0.4757  0.1247
 1067SOL    HW114663   1.000   0.145  12.860  0.2207 -0.3503 -0.2021
 1067SOL    HW214664   1.048   0.264  12.907 -0.1338  0.7241 -0.6022
 1068SOL     OW14665   2.939   3.346   2.709  0.6353  0.1679  0.3339
 1068SOL    HW114666   2.923   3.390   2.625  2.4725 -0.0418 -0.1183
 1068SOL    HW214667   2.860   3.385   2.748  1.5896  2.0614  0.4022
 1069SOL     OW14668   3.314   1.027   5.703 -0.2379 -0.3244  0.0094
 1069SOL    HW114669   3.356   1.084   5.640  0.9583 -1.3190 -0.0857
 1069SOL    HW214670   3.238   1.080   5.728 -0.8848 -1.0360 -0.4425
 1070SOL     OW14671   3.168   1.200   9.290 -0.2226  0.1675  0.4246
 1070SOL    HW114672   3.124   1.214   9.374 -1.1197  1.3201 -0.2584
 1070SOL    HW214673   3.207   1.117   9.320  1.6665  2.0654  3.2840
 1071SOL     OW14674   4.190   2.407   4.266 -0.0133  0.2603  0.2412
 1071SOL    HW114675   4.098   2.410   4.238  0.2580  3.1840 -0.2894
 1071SOL    HW214676   4.214   2.314   4.263 -1.3302  0.0004 -2.8642
 1072SOL     OW14677   3.929   1.138   4.259  0.4448  0.0807  0.3369
 1072SOL    HW114678   3.962   1.049   4.261  3.7399  1.3566  2.2194
 1072SOL    HW214679   3.956   1.162   4.170  0.2537  0.2026  0.3100
 1073SOL     OW14680   4.567   1.243   6.691 -0.2615 -0.1969 -0.4631
 1073SOL    HW114681   4.486   1.192   6.689 -0.3260 -0.1120 -0.0263
 1073SOL    HW214682   4.622   1.167   6.714 -1.1461 -0.9232 -0.7432
 1074SOL     OW14683   0.442   4.209   4.203  0.0125 -0.7103  0.0640
 1074SOL    HW114684   0.537   4.217   4.198 -0.2216  2.6291  1.1905
 1074SOL    HW214685   0.428   4.152   4.127 -2.9828 -1.7178  1.3614
 1075SOL     OW14686   3.099   0.922  11.045  0.8332  0.0774 -0.9620
 1075SOL    HW114687   3.186   0.904  11.081  0.4782 -0.5229 -0.3866
 1075SOL    HW214688   3.062   0.834  11.036  1.7721 -0.3474 -0.6844
 1076SOL     OW14689   0.364   3.037   9.408 -0.0411  0.3586  0.1234
 1076SOL    HW114690   0.451   3.033   9.447 -0.7688 -2.0432  1.4921
 1076SOL    HW214691   0.351   2.943   9.400 -0.1595  0.3443  0.5080
 1077SOL     OW14692   3.663   1.876   3.113  0.3100  0.1867 -0.0260
 1077SOL    HW114693   3.753   1.850   3.130  0.3710  0.1903 -0.3416
 1077SOL    HW214694   3.625   1.789   3.127  0.8496  0.1792  1.4500
 1078SOL     OW14695   2.484   1.822   9.703 -0.1062 -0.1011 -0.2323
 1078SOL    HW114696   2.493   1.743   9.756 -1.5711 -0.6769 -0.8425
 1078SOL    HW214697   2.526   1.879   9.768  0.7360 -0.0443 -0.8169
 1079SOL     OW14698   2.238   0.514   6.113 -0.2696 -0.0084  0.3368
 1079SOL    HW114699   2.318   0.461   6.117  0.3352  0.9942  1.7159
 1079SOL    HW214700   2.162   0.469   6.150 -0.5261 -1.1449 -1.5998
 1080SOL     OW14701   4.570   0.107   2.939  0.2030  0.2248 -0.4384
 1080SOL    HW114702   4.633   0.073   2.875 -0.1623 -1.2825  0.0078
 1080SOL    HW214703   4.621   0.162   2.999  0.1079 -1.7491  1.4473
 1081SOL     OW14704   2.740   2.760   5.970  0.5931  0.6635 -0.4044
 1081SOL    HW114705   2.796   2.832   5.941  0.6453  1.3361  1.3547
 1081SOL    HW214706   2.711   2.719   5.889 -1.2370 -1.4992  1.3405
 1082SOL     OW14707   3.201   1.540   2.569  0.5628  0.2450 -0.1985
 1082SOL    HW114708   3.295   1.557   2.566  0.8756 -1.4642 -0.0292
 1082SOL    HW214709   3.176   1.559   2.479 -2.2910  1.3132  0.8253
 1083SOL     OW14710   0.968   0.612   2.987  0.1854 -1.2497 -0.3648
 1083SOL    HW114711   0.965   0.574   3.075  4.3544  0.5801  0.5438
 1083SOL    HW214712   1.015   0.545   2.937  2.8753  0.6150 -0.3048
 1084SOL     OW14713   2.009   4.167   5.421 -0.1466 -0.5408  0.1832
 1084SOL    HW114714   1.973   4.079   5.426  1.5176 -1.2996 -0.9205
 1084SOL    HW214715   1.953   4.227   5.470 -0.4368 -3.2016  3.0741
 1085SOL     OW14716   2.516   3.769  12.329  0.1780  0.5180  0.2393
 1085SOL    HW114717   2.595   3.784  12.381  0.7036  3.0106 -1.2983
 1085SOL    HW214718   2.535   3.677  12.308  1.4660  0.9455 -0.4482
 1086SOL     OW14719   3.356   3.935   8.862 -0.4216  0.4140 -0.0332
 1086SOL    HW114720   3.299   3.984   8.803 -0.4180 -0.9476 -1.1515
 1086SOL    HW214721   3.297   3.924   8.937  1.6185  1.1844  1.7100
 1087SOL     OW14722   0.574   0.189   1.451  0.5782 -0.0192  0.1375
 1087SOL    HW114723   0.562   0.142   1.534 -0.5879  0.1014  0.0412
 1087SOL    HW214724   0.509   0.143   1.398 -2.9154  0.9728  3.5421
 1088SOL     OW14725   0.646   3.671  12.079  0.4846  0.1834 -0.1114
 1088SOL    HW114726   0.613   3.757  12.102  1.9670  0.4196  1.1191
 1088SOL    HW214727   0.659   3.627  12.163  0.1909 -0.3156 -0.3227
 1089SOL     OW14728   2.097   4.098   3.843  0.3242  0.1731  0.0826
 1089SOL    HW114729   2.040   4.128   3.772 -1.3545 -0.3864  1.1939
 1089SOL    HW214730   2.040   4.119   3.917 -1.1093  1.9718 -1.5579
 1090SOL     OW14731   0.522   0.258  17.502  0.1248  0.2081  0.0861
 1090SOL    HW114732   0.570   0.194  17.554 -0.8121 -0.5815 -0.0157
 1090SOL    HW214733   0.566   0.240  17.419  0.5809 -0.3784  0.4544
 1091SOL     OW14734   2.395   4.415  11.329 -0.0051 -0.2654  0.0643
 1091SOL    HW114735   2.450   4.460  11.392  1.3623 -2.8975  0.7508
 1091SOL    HW214736   2.456   4.360  11.280 -0.2759  0.3175 -0.9350
 1092SOL     OW14737   3.650   1.179  16.140  0.1597  0.2407 -0.6559
 1092SOL    HW114738   3.631   1.136  16.057 -0.2327 -2.6460  0.9329
 1092SOL    HW214739   3.577   1.242  16.137 -0.6849 -0.6690  0.6062
 1093SOL     OW14740   2.125   1.403  14.007 -0.8912  0.3027 -0.6437
 1093SOL    HW114741   2.097   1.311  14.015 -0.1283  0.1020 -0.2994
 1093SOL    HW214742   2.042   1.436  14.042 -0.7301 -0.7054  0.6828
 1094SOL     OW14743   1.512   1.249   9.160 -0.3652  0.1637  0.2251
 1094SOL    HW114744   1.479   1.328   9.116 -0.6233 -0.2316 -0.2858
 1094SOL    HW214745   1.464   1.183   9.112 -0.0408 -0.3746  0.6385
 1095SOL     OW14746   3.827   4.681   0.296  0.6557  0.3423 -0.6690
 1095SOL    HW114747   3.917   4.707   0.276  1.4291 -3.0555 -1.6699
 1095SOL    HW214748   3.851   4.628   0.372  0.7360 -0.1185 -1.0146
 1096SOL     OW14749   1.013   1.944  16.808 -0.3498  0.0239  0.1702
 1096SOL    HW114750   0.968   2.029  16.812  0.0349  0.2201  0.2627
 1096SOL    HW214751   1.085   1.965  16.749 -2.1330 -1.4255 -2.5494
 1097SOL     OW14752   4.107   2.505   6.023  0.1640  0.3876 -0.2002
 1097SOL    HW114753   4.093   2.430   6.081  0.3591  0.3773 -0.1679
 1097SOL    HW214754   4.199   2.497   5.996  0.5006 -1.1512  1.4777
 1098SOL     OW14755   2.688   2.695   6.613 -0.1109 -0.9712 -0.1836
 1098SOL    HW114756   2.649   2.664   6.694 -2.7091 -1.2812 -1.5522
 1098SOL    HW214757   2.780   2.698   6.642 -0.1934 -1.3727  0.1181
 1099SOL     OW14758   2.543   0.717   6.048  0.1960 -0.5912  0.4352
 1099SOL    HW114759   2.479   0.696   5.979  1.5580 -0.3764 -0.9088
 1099SOL    HW214760   2.530   0.810   6.070 -0.2225 -0.4772 -0.2874
 1100SOL     OW14761   0.246   3.898  11.035 -0.3509 -0.2961 -0.1384
 1100SOL    HW114762   0.319   3.957  11.015 -1.1532  0.4020 -1.0068
 1100SOL    HW214763   0.171   3.954  11.014 -0.8989 -1.4367 -1.2547
 1101SOL     OW14764   3.334   0.884  12.608  0.3662  0.5848 -0.4589
 1101SOL    HW114765   3.277   0.926  12.671  1.2170  1.5404 -0.3255
 1101SOL    HW214766   3.267   0.858  12.544  0.8156 -2.8455  0.4640
 1102SOL     OW14767   1.020   4.466   1.372 -0.2769 -0.0067 -0.2478
 1102SOL    HW114768   1.065   4.517   1.305  0.3546  1.2010  1.1019
 1102SOL    HW214769   1.034   4.528   1.444 -1.1949  0.7991 -0.7770
 1103SOL     OW14770   1.638   2.088   4.051 -0.0599  0.1942  0.6501
 1103SOL    HW114771   1.560   2.071   4.103 -0.4878  0.3627  0.0581
 1103SOL    HW214772   1.714   2.086   4.110  2.4634 -0.9721 -2.6654
 1104SOL     OW14773   1.122   3.352   6.517 -0.1510 -0.1854 -0.2939
 1104SOL    HW114774   1.035   3.315   6.503  0.1536 -0.9327 -0.1944
 1104SOL    HW214775   1.103   3.425   6.576  0.1830  0.0972 -0.5373
 1105SOL     OW14776   2.266   3.735   5.460  0.7334  0.0414  0.8754
 1105SOL    HW114777   2.261   3.831   5.466 -1.4651  0.0104 -0.5822
 1105SOL    HW214778   2.292   3.728   5.368  1.3725 -1.1086  1.1404
 1106SOL     OW14779   1.750   2.663  13.789  0.0744 -0.1921  0.0379
 1106SOL    HW114780   1.722   2.737  13.844  0.5059 -1.4363  1.9384
 1106SOL    HW214781   1.672   2.608  13.792 -0.8420  1.0510 -1.1002
 1107SOL     OW14782   2.591   0.767   3.395  0.3974 -0.4315  0.1614
 1107SOL    HW114783   2.661   0.702   3.388  0.3493 -0.3862 -0.8277
 1107SOL    HW214784   2.598   0.787   3.488  1.2053  0.3510 -0.0735
 1108SOL     OW14785   0.531   2.217   8.333 -0.0798 -0.2888  0.3833
 1108SOL    HW114786   0.533   2.134   8.285 -4.6111  0.8787 -1.8749
 1108SOL    HW214787   0.477   2.179   8.402 -1.5890  2.8029  0.9017
 1109SOL     OW14788   4.722   2.480  13.165  0.1826  0.3661  0.0177
 1109SOL    HW114789   0.079   2.451  13.126  1.6950  1.2607  2.5404
 1109SOL    HW214790   4.666   2.449  13.094 -1.7817  1.0048  1.2687
 1110SOL     OW14791   2.433   1.080   5.924  0.3786  0.3265  0.6669
 1110SOL    HW114792   2.439   1.138   6.000  1.3181 -0.9318  1.5623
 1110SOL    HW214793   2.338   1.066   5.920  0.6244 -1.4549  0.9583
 1111SOL     OW14794   3.865   1.375   4.868 -0.6638  0.3246 -0.5176
 1111SOL    HW114795   3.950   1.348   4.832 -0.1673  0.5048  0.5095
 1111SOL    HW214796   3.809   1.354   4.794  2.3231  0.0849 -2.6762
 1112SOL     OW14797   0.093   3.741   7.889  0.3362 -0.0512  0.6702
 1112SOL    HW114798   0.036   3.685   7.943 -2.0350 -0.0621 -1.8256
 1112SOL    HW214799   0.029   3.807   7.862  0.1793  0.2273  1.7380
 1113SOL     OW14800   2.562   2.765  17.257 -0.1098 -0.0367  0.6442
 1113SOL    HW114801   2.532   2.688  17.208 -0.9503 -0.9512  2.6121
 1113SOL    HW214802   2.548   2.749  17.350  1.9909  0.3577  1.0190
 1114SOL     OW14803   0.516   1.166  11.830  0.0028 -0.0616 -0.3290
 1114SOL    HW114804   0.594   1.110  11.834  0.3386  0.3363 -1.2920
 1114SOL    HW214805   0.498   1.136  11.741 -1.4429 -1.5448  0.4699
 1115SOL     OW14806   0.709   1.160   1.357 -0.0318 -0.6162  0.0268
 1115SOL    HW114807   0.617   1.179   1.370 -0.2271 -0.0481 -2.1519
 1115SOL    HW214808   0.737   1.132   1.444  1.4850  0.5051 -0.0892
 1116SOL     OW14809   4.345   1.537   2.890  0.1465  0.2816  0.3355
 1116SOL    HW114810   4.421   1.536   2.832 -0.7835 -0.2897 -0.8663
 1116SOL    HW214811   4.272   1.540   2.829 -0.8819 -0.6752  1.5052
 1117SOL     OW14812   4.240   2.004   5.817  0.0011 -0.0656  0.1044
 1117SOL    HW114813   4.182   1.973   5.748 -0.1983  0.5988 -0.0321
 1117SOL    HW214814   4.307   2.024   5.752 -0.7001  1.0428 -0.2765
 1118SOL     OW14815   3.696   0.326  11.001 -0.5151 -0.7034 -0.0559
 1118SOL    HW114816   3.616   0.297  11.045 -1.9136  1.8918 -0.8249
 1118SOL    HW214817   3.765   0.277  11.045 -0.6743 -1.3546 -0.5339
 1119SOL     OW14818   1.141   4.301   7.494  0.1332  0.2261  0.2228
 1119SOL    HW114819   1.226   4.332   7.463 -0.5149 -0.6887 -2.4651
 1119SOL    HW214820   1.127   4.229   7.432 -0.4751 -0.1117  0.7553
 1120SOL     OW14821   0.032   2.747  15.035  0.3958 -0.3396  0.0002
 1120SOL    HW114822   0.067   2.708  15.116  0.8339 -0.7790 -0.3986
 1120SOL    HW214823   0.120   2.752  14.998  0.6281 -0.7031  0.4941
 1121SOL     OW14824   1.599   4.719   3.280  1.3978  0.2095  0.1521
 1121SOL    HW114825   1.607   0.072   3.334  2.2066  0.8271 -0.8739
 1121SOL    HW214826   1.511   4.691   3.305  2.3071 -1.5471  1.3962
 1122SOL     OW14827   0.315   2.285   4.585  0.1718  0.5382  0.1197
 1122SOL    HW114828   0.286   2.219   4.522  0.4595 -0.6777  1.2838
 1122SOL    HW214829   0.240   2.345   4.590 -0.5448 -0.3080 -0.3519
 1123SOL     OW14830   0.528   0.068   5.487  0.0106 -0.0726  0.0835
 1123SOL    HW114831   0.609   0.111   5.513  2.1719 -1.5586 -4.0759
 1123SOL    HW214832   0.546   4.699   5.494 -0.2003 -0.2976 -2.4467
 1124SOL     OW14833   1.859   1.588   4.260  0.0999  0.9298 -0.5376
 1124SOL    HW114834   1.929   1.636   4.214  0.9816  2.3069  2.2568
 1124SOL    HW214835   1.913   1.540   4.322 -1.7598  0.0894  0.4128
 1125SOL     OW14836   3.527   3.364   5.893 -0.2866 -0.0310 -0.5713
 1125SOL    HW114837   3.554   3.331   5.979  1.0743  0.2124 -0.9136
 1125SOL    HW214838   3.506   3.281   5.850  3.1177 -1.3847  0.4066
 1126SOL     OW14839   4.271   3.309   6.407 -0.4995  0.1934 -0.2182
 1126SOL    HW114840   4.254   3.339   6.496  1.4676 -0.6113  0.4238
 1126SOL    HW214841   4.333   3.375   6.377 -1.9383  1.6816  0.1003
 1127SOL     OW14842   2.986   0.264   2.675  0.1069  0.1095  0.1895
 1127SOL    HW114843   2.955   0.184   2.719 -0.4983  0.7226  0.8713
 1127SOL    HW214844   2.905   0.316   2.679  1.0784  1.8171 -2.1786
 1128SOL     OW14845   3.126   0.326   1.164 -0.0383 -0.7681 -0.0007
 1128SOL    HW114846   3.042   0.372   1.158 -0.8845 -2.2236  0.7321
 1128SOL    HW214847   3.093   0.237   1.168  1.7030 -1.4219 -0.1648
 1129SOL     OW14848   3.808   1.643   0.377  0.1739 -0.4404  0.2428
 1129SOL    HW114849   3.884   1.605   0.421  1.2856  1.5862  0.1075
 1129SOL    HW214850   3.787   1.721   0.428 -1.8828 -0.3915 -0.6933
 1130SOL     OW14851   1.566   0.258   0.558  0.3215  0.6567 -0.0469
 1130SOL    HW114852   1.557   0.243   0.652 -2.0459 -2.0838 -0.7028
 1130SOL    HW214853   1.661   0.264   0.545  0.5705 -2.7808 -0.0404
 1131SOL     OW14854   0.588   1.127   8.248 -0.5403 -0.2396 -0.7020
 1131SOL    HW114855   0.629   1.062   8.305 -0.8962  0.6421  0.5359
 1131SOL    HW214856   0.599   1.199   8.309  1.7041 -1.7336  0.6572
 1132SOL     OW14857   0.618   4.136   7.732 -0.0405 -0.9566 -0.4909
 1132SOL    HW114858   0.568   4.175   7.660 -0.3200  0.4179  0.4664
 1132SOL    HW214859   0.608   4.204   7.798 -1.9020 -1.0692 -0.6592
 1133SOL     OW14860   4.465   0.393  14.032 -0.0161  0.0336 -0.2433
 1133SOL    HW114861   4.400   0.435  14.088  2.0664  1.5299  1.0192
 1133SOL    HW214862   4.425   0.399  13.946 -1.0386  1.9124  0.3704
 1134SOL     OW14863   0.811   3.530   7.204  0.3056  0.3134 -0.8623
 1134SOL    HW114864   0.781   3.455   7.151  2.1282  0.8225 -2.6418
 1134SOL    HW214865   0.770   3.612   7.177 -0.6401 -0.2703 -1.2039
 1135SOL     OW14866   0.567   2.620  10.007 -0.0677 -0.3028  0.2816
 1135SOL    HW114867   0.576   2.678   9.931 -0.6764 -0.4408  0.1030
 1135SOL    HW214868   0.546   2.682  10.077 -0.7402 -1.4478  1.0927
 1136SOL     OW14869   2.795   1.675   6.240 -0.0469 -0.2954 -0.2137
 1136SOL    HW114870   2.778   1.767   6.258 -0.0013 -0.4003  0.3405
 1136SOL    HW214871   2.890   1.680   6.253  0.2052  1.0745 -2.5480
 1137SOL     OW14872   2.100   0.802   3.329  0.1718  1.0239  0.4158
 1137SOL    HW114873   2.097   0.755   3.246  2.8092  0.6684  0.5497
 1137SOL    HW214874   2.029   0.864   3.316  1.0354  1.9629  0.2544
 1138SOL     OW14875   3.529   1.457   0.729  0.1610 -0.0782  0.0842
 1138SOL    HW114876   3.614   1.499   0.724  0.8732 -1.4371  0.5704
 1138SOL    HW214877   3.474   1.535   0.726 -1.4115 -1.1418  1.0534
 1139SOL     OW14878   2.798   3.514  12.377 -0.0301 -0.0807  0.7681
 1139SOL    HW114879   2.800   3.595  12.325 -0.7039  0.3169  1.3649
 1139SOL    HW214880   2.824   3.561  12.456 -0.2914 -0.3429  1.0067
 1140SOL     OW14881   2.844   1.972   6.321  0.1388 -0.0064 -0.2527
 1140SOL    HW114882   2.877   2.013   6.240 -1.9007  0.6220 -0.7769
 1140SOL    HW214883   2.834   2.053   6.371 -1.0294 -0.8100  0.8013
 1141SOL     OW14884   1.100   2.479   4.684  0.3363 -0.7262  0.3638
 1141SOL    HW114885   1.011   2.476   4.648  1.2648 -0.3051 -1.9539
 1141SOL    HW214886   1.097   2.556   4.741 -0.6345  0.5801 -1.4721
 1142SOL     OW14887   4.361   3.799   2.992 -0.4822 -0.5317 -0.1527
 1142SOL    HW114888   4.309   3.880   2.987 -1.7401 -1.3430 -0.0429
 1142SOL    HW214889   4.426   3.840   3.049 -0.0418  0.1662 -1.1652
 1143SOL     OW14890   2.460   2.851   5.337  0.0785  0.9713  0.4508
 1143SOL    HW114891   2.516   2.774   5.324 -1.3777 -0.1649  0.9516
 1143SOL    HW214892   2.501   2.891   5.413  0.0183 -1.1557  1.6236
 1144SOL     OW14893   3.041   3.060   3.924 -0.0684 -0.0282 -0.1544
 1144SOL    HW114894   3.095   3.112   3.865 -0.8142 -1.0931 -1.7781
 1144SOL    HW214895   3.027   3.120   3.997  0.8420 -0.0880  0.0709
 1145SOL     OW14896   3.507   4.178   6.847  0.3348 -0.0353  0.1240
 1145SOL    HW114897   3.469   4.213   6.928  3.2474  0.1712  1.4142
 1145SOL    HW214898   3.594   4.156   6.881  0.2419  0.1485  0.4837
 1146SOL     OW14899   0.906   2.935  11.230 -0.4428  0.0636 -0.0021
 1146SOL    HW114900   0.903   2.844  11.259 -0.4885 -0.0935 -0.5087
 1146SOL    HW214901   0.854   2.934  11.150 -0.4710  0.4829  0.0098
 1147SOL     OW14902   2.846   3.742   7.493 -0.1342 -0.6293 -0.2559
 1147SOL    HW114903   2.941   3.745   7.497 -0.2307  1.2974  0.7633
 1147SOL    HW214904   2.836   3.800   7.418 -0.2384 -0.5747 -0.2006
 1148SOL     OW14905   0.823   3.008   3.774 -0.4399 -0.0238 -0.3967
 1148SOL    HW114906   0.912   3.036   3.751 -0.7270  0.2630 -1.1639
 1148SOL    HW214907   0.843   2.957   3.852 -0.2420  0.6182 -0.0298
 1149SOL     OW14908   3.209   3.807   6.344  0.3136  0.6760 -0.1114
 1149SOL    HW114909   3.247   3.888   6.310  0.4514  0.4304 -0.5472
 1149SOL    HW214910   3.115   3.818   6.354  0.1918 -0.2160 -0.2842
 1150SOL     OW14911   2.271   2.141   6.461 -0.0801 -0.0757  0.0480
 1150SOL    HW114912   2.363   2.132   6.437 -0.2541  0.8298 -0.9631
 1150SOL    HW214913   2.224   2.094   6.392  1.0969 -1.7623  0.3966
 1151SOL     OW14914   1.445   0.062   2.398  0.4655 -0.2325 -0.0849
 1151SOL    HW114915   1.511   0.041   2.464  1.3229 -1.2140 -1.2575
 1151SOL    HW214916   1.371   0.007   2.426 -0.7746 -0.5042 -3.9681
 1152SOL     OW14917   2.274   1.791   3.083 -0.1927  0.3552  0.2082
 1152SOL    HW114918   2.339   1.738   3.130  0.8038  1.4559  0.0526
 1152SOL    HW214919   2.238   1.854   3.145 -0.6112  1.0427 -0.7413
 1153SOL     OW14920   3.559   2.036   4.810  0.0265  0.4261 -0.2046
 1153SOL    HW114921   3.491   2.104   4.816 -0.5432 -0.0307 -1.3120
 1153SOL    HW214922   3.509   1.964   4.770 -0.3238  0.5785 -0.0429
 1154SOL     OW14923   4.060   4.354   2.694  0.4642 -0.2089 -0.6462
 1154SOL    HW114924   4.030   4.292   2.628 -2.9585 -0.7376  1.4752
 1154SOL    HW214925   4.029   4.309   2.772  0.5392  2.2439  0.8243
 1155SOL     OW14926   3.175   4.130   1.769 -0.1302 -0.5875  0.1263
 1155SOL    HW114927   3.118   4.195   1.726 -1.1979 -1.0454  0.8444
 1155SOL    HW214928   3.115   4.058   1.753  1.2662 -1.2664 -2.0198
 1156SOL     OW14929   0.970   4.385  12.325 -0.0649  0.1426  0.3496
 1156SOL    HW114930   1.007   4.303  12.291  0.2705  0.3947  0.1116
 1156SOL    HW214931   1.041   4.408  12.384  1.6145  0.3040 -1.7253
 1157SOL     OW14932   3.887   4.340   6.952 -0.1675  0.0177  0.4506
 1157SOL    HW114933   3.905   4.399   6.879 -0.4456  0.5912  0.8429
 1157SOL    HW214934   3.948   4.380   7.013 -0.4809 -1.0146  1.4350
 1158SOL     OW14935   4.224   2.788  14.864  0.2139  0.5499 -0.7493
 1158SOL    HW114936   4.307   2.749  14.890  0.4855  0.8583 -1.1530
 1158SOL    HW214937   4.169   2.725  14.911 -1.9908  0.9788 -2.7106
 1159SOL     OW14938   4.689   2.552   9.191  0.0970  0.1805  0.4080
 1159SOL    HW114939   4.712   2.542   9.284 -1.0626 -1.1465  0.5472
 1159SOL    HW214940   4.659   2.643   9.192  2.6293  1.0276 -0.1299
 1160SOL     OW14941   3.055   1.330   1.439 -0.5217  0.4370  0.0281
 1160SOL    HW114942   3.123   1.263   1.436 -0.1350  0.8080  0.6163
 1160SOL    HW214943   2.974   1.285   1.464 -0.7660  0.1651 -1.2464
 1161SOL     OW14944   1.045   3.127   4.146 -0.2057  0.0842  0.7808
 1161SOL    HW114945   1.047   3.210   4.098 -0.0667 -0.1700  0.3597
 1161SOL    HW214946   1.133   3.113   4.180 -0.1008  1.6676  1.1847
 1162SOL     OW14947   0.020   1.486   5.712 -0.2955  0.2734 -0.2075
 1162SOL    HW114948   0.045   1.430   5.638 -0.9948 -1.1128  0.5894
 1162SOL    HW214949   4.652   1.504   5.697 -0.4041 -0.9903 -1.1019
 1163SOL     OW14950   2.353   2.628  13.369  0.1902 -0.6425  0.0776
 1163SOL    HW114951   2.372   2.617  13.462 -0.5087  1.6381  0.5045
 1163SOL    HW214952   2.336   2.722  13.364  2.1765 -0.2293  1.2227
 1164SOL     OW14953   4.663   2.810   9.224  0.5800  0.0646  0.2883
 1164SOL    HW114954   4.630   2.826   9.313 -3.1974  1.6575 -1.3762
 1164SOL    HW214955   4.633   2.892   9.185 -0.7070 -0.9080 -0.7776
 1165SOL     OW14956   2.320   0.009   5.844  0.1543  0.1260 -0.3943
 1165SOL    HW114957   2.387   0.074   5.819  1.0694 -0.4581  0.5377
 1165SOL    HW214958   2.310   4.689   5.760 -0.6935  1.0469 -0.7914
 1166SOL     OW14959   2.605   3.962  10.239  0.4946  0.2145 -0.2689
 1166SOL    HW114960   2.604   3.866  10.237 -1.6548  0.2163  1.9183
 1166SOL    HW214961   2.698   3.984  10.246  0.1601  1.4869  0.0786
 1167SOL     OW14962   4.392   4.393  12.172  0.4141 -0.2197  0.1496
 1167SOL    HW114963   4.304   4.409  12.138  1.2545  0.4371 -1.7046
 1167SOL    HW214964   4.396   4.458  12.242 -0.6989 -0.0587  0.0723
 1168SOL     OW14965   0.697   0.314  14.715  0.9787 -0.1433  0.4903
 1168SOL    HW114966   0.643   0.268  14.779 -0.0172  3.3593  2.1844
 1168SOL    HW214967   0.782   0.304  14.758 -0.4864 -0.8187  3.2878
 1169SOL     OW14968   4.299   2.936   2.258 -0.2180  0.7332  0.0348
 1169SOL    HW114969   4.219   2.988   2.267 -1.9020 -1.9258  0.2502
 1169SOL    HW214970   4.319   2.922   2.351  0.3305  0.7596 -0.0760
 1170SOL     OW14971   1.045   0.003   6.845  0.1153 -0.3879 -0.6217
 1170SOL    HW114972   1.075   4.696   6.930 -2.0176  0.0424  0.3123
 1170SOL    HW214973   0.951   4.712   6.858 -0.1651  0.8006 -1.1704
 1171SOL     OW14974   3.190   0.643  12.756 -0.2952 -0.2661  0.0794
 1171SOL    HW114975   3.259   0.686  12.705  0.4472 -0.7162  0.6997
 1171SOL    HW214976   3.149   0.588  12.689  0.5220  1.3815 -1.7821
 1172SOL     OW14977   2.312   1.267   3.828 -0.4563 -0.0183  0.1747
 1172SOL    HW114978   2.279   1.190   3.782  0.5381 -0.4212  0.1523
 1172SOL    HW214979   2.256   1.262   3.906 -1.2825  1.3543 -0.3230
 1173SOL     OW14980   4.007   0.801   3.538  0.8375  0.4132  0.4252
 1173SOL    HW114981   3.928   0.798   3.485  1.0483  1.6756  0.0428
 1173SOL    HW214982   4.073   0.752   3.489  2.2477  2.7287  0.0131
 1174SOL     OW14983   0.309   0.113  13.118 -0.2395 -0.2088  0.3735
 1174SOL    HW114984   0.283   0.029  13.156  1.2875 -0.2632  1.2926
 1174SOL    HW214985   0.388   0.138  13.166 -1.7486 -0.5033  3.0136
 1175SOL     OW14986   4.018   0.466  12.101  0.1733  0.2526  0.0157
 1175SOL    HW114987   4.098   0.516  12.115 -0.5753  1.8009 -1.2011
 1175SOL    HW214988   4.036   0.378  12.134 -2.3727 -0.1649  0.3631
 1176SOL     OW14989   4.162   2.677   1.192  0.3188 -0.4161 -0.1402
 1176SOL    HW114990   4.227   2.635   1.134  1.5808 -0.9740  1.6707
 1176SOL    HW214991   4.213   2.751   1.224  0.8449 -0.9655  0.3003
 1177SOL     OW14992   4.338   3.706   3.922  0.2700  0.3038  0.3137
 1177SOL    HW114993   4.325   3.634   3.859  0.4933 -0.3328  0.9959
 1177SOL    HW214994   4.273   3.768   3.889  1.5458  1.0706 -0.7711
 1178SOL     OW14995   2.757   1.735   5.215 -0.1211 -0.8057  0.3593
 1178SOL    HW114996   2.739   1.696   5.301  0.5406 -2.8046 -0.4056
 1178SOL    HW214997   2.788   1.658   5.166  2.5542 -0.7991  2.0564
 1179SOL     OW14998   0.150   3.823   3.585  0.1005  0.2848 -0.4241
 1179SOL    HW114999   0.208   3.766   3.634 -1.4403 -0.7445  0.1984
 1179SOL    HW215000   0.065   3.785   3.607 -0.4246  1.2714 -0.7459
 1180SOL     OW15001   1.960   1.292   9.178  0.1059  0.3429 -0.2964
 1180SOL    HW115002   1.999   1.229   9.117 -0.6530 -0.2680 -0.1575
 1180SOL    HW215003   2.044   1.309   9.220 -1.7956  2.3731  2.6801
 1181SOL     OW15004   1.199   2.470   3.471  0.9977  0.2651 -0.6591
 1181SOL    HW115005   1.269   2.418   3.430  0.3683 -1.2038  0.1145
 1181SOL    HW215006   1.132   2.405   3.492  0.0291  1.9174  1.3041
 1182SOL     OW15007   3.379   2.636   5.528  0.4291  0.2668 -0.0023
 1182SOL    HW115008   3.367   2.706   5.464  0.9323 -0.2431 -0.6456
 1182SOL    HW215009   3.442   2.579   5.484  0.5282  0.8031 -0.5523
 1183SOL     OW15010   1.328   2.670   8.066 -0.7904 -0.6857 -0.5506
 1183SOL    HW115011   1.243   2.628   8.082 -0.2686  0.0943  4.3073
 1183SOL    HW215012   1.327   2.730   8.141  0.6077  0.4242 -1.4338
 1184SOL     OW15013   3.996   4.596   4.097 -0.1354 -0.1301  0.1393
 1184SOL    HW115014   4.077   4.646   4.108 -0.0133 -0.9896  3.0053
 1184SOL    HW215015   4.029   4.510   4.121 -1.3969  0.0004  2.2498
 1185SOL     OW15016   0.038   4.068   3.668 -0.0276 -0.2682  0.3041
 1185SOL    HW115017   0.064   3.985   3.628 -0.6394 -2.1204  3.7574
 1185SOL    HW215018   0.119   4.091   3.716  0.4861  1.5174 -1.4398
 1186SOL     OW15019   0.140   0.006   3.878 -0.0607  0.2253 -0.1788
 1186SOL    HW115020   0.214   4.675   3.855 -1.6465 -1.0657 -2.0410
 1186SOL    HW215021   0.182   0.082   3.920  0.4364 -0.9405  1.4032
 1187SOL     OW15022   3.868   3.778   3.082 -0.4164  0.6317  0.0809
 1187SOL    HW115023   3.846   3.713   3.016  0.5061 -0.3772  0.7699
 1187SOL    HW215024   3.798   3.767   3.147  0.5428  2.6556  1.4565
 1188SOL     OW15025   2.068   2.409  10.056 -0.8235 -0.8841  0.6397
 1188SOL    HW115026   2.160   2.405  10.030 -1.0282 -1.3048  0.0120
 1188SOL    HW215027   2.045   2.501  10.039  0.9554 -0.9039 -1.7993
 1189SOL     OW15028   2.317   0.130   8.753  0.0576 -0.0016  0.3579
 1189SOL    HW115029   2.368   0.066   8.704 -0.8626 -0.6128  0.1851
 1189SOL    HW215030   2.319   0.205   8.693 -2.7122  0.2404  0.5726
 1190SOL     OW15031   3.608   3.294  12.220 -0.1234  0.1698 -0.5368
 1190SOL    HW115032   3.622   3.341  12.302  2.4976 -0.6183 -0.5286
 1190SOL    HW215033   3.578   3.212  12.260  0.0717 -1.2693 -3.3257
 1191SOL     OW15034   4.133   3.189  14.125 -0.4892 -0.9815  0.2506
 1191SOL    HW115035   4.162   3.112  14.077  2.1395  0.4240 -0.4585
 1191SOL    HW215036   4.189   3.264  14.103 -3.6854  1.4394  0.3306
 1192SOL     OW15037   2.728   4.678  11.238 -0.1755  0.2832 -0.4822
 1192SOL    HW115038   2.752   4.695  11.329  0.6080 -0.0322 -0.6202
 1192SOL    HW215039   2.763   4.590  11.220  0.2799  0.2960  0.3181
 1193SOL     OW15040   4.354   2.919  14.442  0.4698  0.3979 -0.4599
 1193SOL    HW115041   4.304   2.872  14.509  0.4354  0.5282 -0.3920
 1193SOL    HW215042   4.308   3.002  14.459 -0.6974 -0.1258 -1.1321
 1194SOL     OW15043   0.197   3.709   7.363 -0.1803  0.3076  0.0291
 1194SOL    HW115044   0.270   3.647   7.365 -0.9526 -0.6802 -1.9495
 1194SOL    HW215045   0.213   3.754   7.446  3.4142  0.5256 -0.7990
 1195SOL     OW15046   3.872   1.695   3.144 -0.5019 -0.6876  0.4606
 1195SOL    HW115047   3.959   1.718   3.112 -1.9075  2.3458 -1.1716
 1195SOL    HW215048   3.894   1.707   3.236  2.2156  2.6016 -0.5975
 1196SOL     OW15049   1.939   3.810   6.529  0.1420  0.3245 -0.4865
 1196SOL    HW115050   2.018   3.778   6.485  2.2910  3.8559  0.7919
 1196SOL    HW215051   1.868   3.760   6.489 -0.0682 -0.7712  1.2322
 1197SOL     OW15052   4.381   2.049   5.608  0.1431  0.0586  0.1964
 1197SOL    HW115053   4.368   1.987   5.536 -0.9763  1.2411 -0.6289
 1197SOL    HW215054   4.456   2.086   5.562  0.3137  0.7879  1.0787
 1198SOL     OW15055   3.251   0.698   5.661 -1.0006  0.4508  0.1755
 1198SOL    HW115056   3.224   0.758   5.592  1.5389  1.0400 -0.2824
 1198SOL    HW215057   3.343   0.722   5.663 -0.9404  0.2420 -0.2323
 1199SOL     OW15058   0.863   3.980   8.407 -0.0042  0.5444 -0.3226
 1199SOL    HW115059   0.803   4.050   8.381 -0.1551 -0.5276 -2.9218
 1199SOL    HW215060   0.947   4.017   8.380  0.9906  0.2303  2.4118
 1200SOL     OW15061   4.005   3.797   5.238  0.2779  0.4139  0.5082
 1200SOL    HW115062   4.071   3.731   5.257  0.0326  0.4173  1.3738
 1200SOL    HW215063   4.017   3.811   5.144 -2.9664  0.9217  0.1697
 1201SOL     OW15064   4.174   2.510  13.980  0.2492 -0.2033  0.4865
 1201SOL    HW115065   4.170   2.540  13.889 -0.8030  1.0677  0.9519
 1201SOL    HW215066   4.224   2.428  13.975 -0.6005 -0.8395  2.3296
 1202SOL     OW15067   0.566   0.198  14.912 -0.3246  0.1148  0.6798
 1202SOL    HW115068   0.607   0.133  14.969  2.2583 -0.3328 -1.6882
 1202SOL    HW215069   0.473   0.173  14.914 -0.3041  0.1501  2.2405
 1203SOL     OW15070   4.591   3.043   8.815 -0.3834 -0.1393  0.4791
 1203SOL    HW115071   4.643   3.121   8.797 -0.8199 -0.4036 -1.8477
 1203SOL    HW215072   4.628   3.031   8.903 -0.5995  2.2612  0.9014
 1204SOL     OW15073   2.600   0.090   8.020  0.4661  0.2543  0.1334
 1204SOL    HW115074   2.667   0.033   8.058  0.1089 -0.0826  0.2497
 1204SOL    HW215075   2.641   0.110   7.935  0.4445  0.8726  0.2695
 1205SOL     OW15076   3.395   4.048   1.155  0.9609 -0.1297 -0.1638
 1205SOL    HW115077   3.304   4.020   1.143  1.0351 -0.5788  0.3289
 1205SOL    HW215078   3.417   4.015   1.243  0.4426  0.7303  0.2831
 1206SOL     OW15079   0.081   2.620   5.272  0.1735  0.3542 -0.0712
 1206SOL    HW115080   0.161   2.585   5.312 -0.7661 -1.2465  0.3807
 1206SOL    HW215081   0.107   2.622   5.180 -0.3580 -0.4309 -0.2313
 1207SOL     OW15082   4.288   3.247   5.925  0.1989  0.1629 -0.3165
 1207SOL    HW115083   4.363   3.300   5.953 -1.2499  0.7171  2.5859
 1207SOL    HW215084   4.342   3.168   5.920  0.1906  0.2244 -1.3486
 1208SOL     OW15085   1.786   1.155   4.263  0.2868  0.4862  0.3447
 1208SOL    HW115086   1.794   1.102   4.342 -0.4516 -0.3268 -0.1249
 1208SOL    HW215087   1.749   1.235   4.300  1.2742  1.8723 -1.6353
 1209SOL     OW15088   2.889   2.896   5.503  0.3222  0.3681 -0.0120
 1209SOL    HW115089   2.894   2.954   5.427  1.1211  0.6119  0.2342
 1209SOL    HW215090   2.836   2.944   5.567  2.0236  0.5877  1.2166
 1210SOL     OW15091   2.450   0.810  12.217  0.4243  0.4906  0.2147
 1210SOL    HW115092   2.483   0.751  12.285 -0.6831 -0.7731 -0.3261
 1210SOL    HW215093   2.378   0.855  12.262 -0.1163  0.5280 -0.6814
 1211SOL     OW15094   1.475   1.975   1.821  0.5546 -0.2489 -0.5640
 1211SOL    HW115095   1.394   1.934   1.789 -0.3496  2.2983 -1.5635
 1211SOL    HW215096   1.466   1.951   1.913  1.4161 -0.8049 -0.6289
 1212SOL     OW15097   1.281   1.505   4.808  0.1003 -0.5490  0.3554
 1212SOL    HW115098   1.211   1.563   4.836  0.7392  0.6440 -0.5280
 1212SOL    HW215099   1.304   1.534   4.720  1.1135 -0.1518  0.7581
 1213SOL     OW15100   4.271   1.059   9.934  0.5619 -0.8452 -0.1694
 1213SOL    HW115101   4.282   1.107   9.851 -0.9153 -1.0085 -0.4612
 1213SOL    HW215102   4.253   1.142   9.978  0.2068 -0.3302 -1.2752
 1214SOL     OW15103   2.471   3.955   5.966 -0.4945  0.3614 -0.6670
 1214SOL    HW115104   2.503   3.876   5.923 -0.2717 -0.5927  1.2290
 1214SOL    HW215105   2.390   3.924   6.007  0.0917 -2.7765 -1.8991
 1215SOL     OW15106   2.809   0.242  11.808 -0.0304  0.5525  0.1869
 1215SOL    HW115107   2.726   0.279  11.840  0.7070  3.0286 -0.7273
 1215SOL    HW215108   2.864   0.319  11.822  0.0926  0.5227 -0.1322
 1216SOL     OW15109   0.012   0.104  10.720 -0.4844 -0.0262 -0.5122
 1216SOL    HW115110   0.069   0.047  10.668  0.3740 -0.6263  1.0640
 1216SOL    HW215111   0.052   0.099  10.807  1.2560  1.0811 -1.2264
 1217SOL     OW15112   3.392   3.736   7.477  0.5397 -0.0888 -0.2600
 1217SOL    HW115113   3.458   3.695   7.533 -1.2815 -0.0923  1.8945
 1217SOL    HW215114   3.390   3.675   7.402 -1.8309 -0.4556  0.0907
 1218SOL     OW15115   1.715   4.091   0.927 -0.2408  0.3082  0.2844
 1218SOL    HW115116   1.658   4.115   1.000 -1.0853  1.7495 -0.8458
 1218SOL    HW215117   1.684   4.000   0.919 -1.7427  0.9457 -1.1976
 1219SOL     OW15118   3.783   3.422   1.952 -0.3532 -0.0948  0.4959
 1219SOL    HW115119   3.795   3.336   1.992  1.2388  0.1683  0.5623
 1219SOL    HW215120   3.771   3.400   1.859 -1.0727 -0.3556  0.6525
 1220SOL     OW15121   1.806   1.752   8.129  0.0481 -0.3489 -0.1636
 1220SOL    HW115122   1.739   1.687   8.106 -2.4705  2.7198 -1.4167
 1220SOL    HW215123   1.806   1.732   8.222 -0.5875  1.8800  0.3172
 1221SOL     OW15124   1.954   4.168   9.058  0.2471  0.3318  0.1627
 1221SOL    HW115125   1.904   4.195   8.981  0.0739  1.8308  0.7930
 1221SOL    HW215126   1.983   4.084   9.023  1.1791  1.4079 -1.6656
 1222SOL     OW15127   2.408   2.115   9.612  0.0117  0.6302 -0.1170
 1222SOL    HW115128   2.394   2.021   9.623  0.3790  0.6371  0.4200
 1222SOL    HW215129   2.426   2.113   9.518 -1.5926 -0.2646 -0.4024
 1223SOL     OW15130   1.972   0.425   6.158  0.3488  0.5885 -0.0745
 1223SOL    HW115131   1.885   0.408   6.195  0.0308  1.2057 -0.5385
 1223SOL    HW215132   2.002   0.478   6.231  0.5258  1.1366 -0.5462
 1224SOL     OW15133   1.174   3.007  10.239 -0.4046  0.2252 -0.1348
 1224SOL    HW115134   1.227   2.933  10.208  0.1206 -0.8323  3.2995
 1224SOL    HW215135   1.133   2.958  10.310 -0.6413  2.2129  1.0901
 1225SOL     OW15136   0.696   1.933   1.872 -0.3558 -0.3663 -0.0912
 1225SOL    HW115137   0.684   1.897   1.784 -0.2627  1.0546 -0.6972
 1225SOL    HW215138   0.791   1.940   1.878 -0.1617 -2.1123 -1.3700
 1226SOL     OW15139   4.238   0.621   3.161 -0.2703 -0.3489 -0.3391
 1226SOL    HW115140   4.188   0.540   3.168 -1.2769  0.3901  0.8709
 1226SOL    HW215141   4.288   0.604   3.081 -0.8484  0.9419 -0.9714
 1227SOL     OW15142   4.072   2.252   2.527  0.0773  0.2878  0.0643
 1227SOL    HW115143   4.080   2.289   2.615  2.0420  0.7288 -0.2863
 1227SOL    HW215144   4.080   2.336   2.480  1.1282 -0.9616 -1.9815
 1228SOL     OW15145   2.563   0.936   5.712  0.1903 -0.3014  0.2909
 1228SOL    HW115146   2.640   0.954   5.658  0.0232  3.1169  1.1559
 1228SOL    HW215147   2.582   0.991   5.788  0.8351 -0.0236 -0.0727
 1229SOL     OW15148   4.631   0.186   4.466 -0.4049 -0.5022 -0.4956
 1229SOL    HW115149   4.559   0.129   4.441  2.2055 -3.3217 -1.5166
 1229SOL    HW215150   4.595   0.230   4.543 -0.3058 -1.6356  0.1973
 1230SOL     OW15151   0.435   4.261   9.231 -0.1347 -0.6138 -0.2670
 1230SOL    HW115152   0.341   4.275   9.216  0.0954  0.8331 -0.4184
 1230SOL    HW215153   0.456   4.347   9.269 -0.2225 -0.7125  0.0084
 1231SOL     OW15154   0.377   3.843   6.502 -0.3139 -0.0590  0.3882
 1231SOL    HW115155   0.301   3.892   6.534 -0.1105  0.5451 -0.0395
 1231SOL    HW215156   0.385   3.765   6.557  0.6452  0.1510  0.5500
 1232SOL     OW15157   3.882   3.242  11.302 -0.3263 -0.2100 -0.0775
 1232SOL    HW115158   3.800   3.205  11.272  0.3647 -1.1553 -0.7940
 1232SOL    HW215159   3.886   3.324  11.252 -0.6230 -0.8166 -1.0722
 1233SOL     OW15160   0.754   3.480   5.026  0.4559  0.3700  0.2061
 1233SOL    HW115161   0.717   3.420   5.090 -1.8927 -0.5601 -1.9913
 1233SOL    HW215162   0.771   3.416   4.956  0.1335  0.5089 -0.0024
 1234SOL     OW15163   4.559   1.662  16.951 -0.2031  0.1353 -0.4488
 1234SOL    HW115164   4.619   1.685  16.880  2.9201 -3.0199  1.1684
 1234SOL    HW215165   4.490   1.632  16.892  1.6542 -1.6560 -1.6744
 1235SOL     OW15166   1.290   1.538   4.158 -0.2141  0.8224 -0.1201
 1235SOL    HW115167   1.300   1.634   4.159 -2.6461  1.0669  0.9178
 1235SOL    HW215168   1.253   1.523   4.245 -2.2714 -0.7971 -1.2760
 1236SOL     OW15169   0.558   1.319   5.596 -0.3355 -0.6801  0.2603
 1236SOL    HW115170   0.623   1.387   5.579 -0.5218 -0.6822 -0.4872
 1236SOL    HW215171   0.557   1.328   5.691 -0.9829  2.1706 -0.0124
 1237SOL     OW15172   3.442   3.201   6.871  0.2978  0.4263  0.0022
 1237SOL    HW115173   3.433   3.176   6.779  1.5800  2.5301 -0.6885
 1237SOL    HW215174   3.521   3.155   6.897 -2.2451 -3.3708  1.0354
 1238SOL     OW15175   2.577   4.409   6.354 -0.6450  0.9098 -0.0509
 1238SOL    HW115176   2.587   4.372   6.441 -1.4613 -1.0094 -0.7680
 1238SOL    HW215177   2.663   4.387   6.318 -0.1779  0.5999  1.2575
 1239SOL     OW15178   0.620   3.300   5.190 -0.2002 -0.0845 -0.0344
 1239SOL    HW115179   0.689   3.266   5.247 -0.8187 -2.1961 -0.5238
 1239SOL    HW215180   0.558   3.298   5.264  0.8174  0.1930  0.8260
 1240SOL     OW15181   4.118   1.314   9.305  0.4263 -0.0266 -0.4956
 1240SOL    HW115182   4.213   1.326   9.314  0.6866 -2.4357 -0.0383
 1240SOL    HW215183   4.094   1.261   9.382 -2.1809  0.7169 -0.8141
 1241SOL     OW15184   0.836   3.010  15.788 -0.1585  0.1177 -0.0896
 1241SOL    HW115185   0.921   3.028  15.749  0.3226  0.9650  1.3423
 1241SOL    HW215186   0.838   3.042  15.879  1.6003  1.9598 -0.7901
 1242SOL     OW15187   3.442   2.523   5.890 -0.4762  0.3086 -0.4844
 1242SOL    HW115188   3.509   2.455   5.878 -0.3366  0.3817 -0.1066
 1242SOL    HW215189   3.444   2.537   5.985 -0.5893 -0.3821 -0.3770
 1243SOL     OW15190   0.865   0.730  12.748  0.4932 -0.0219 -0.2268
 1243SOL    HW115191   0.770   0.731  12.760  0.7650  0.9449  1.9133
 1243SOL    HW215192   0.879   0.636  12.735 -0.5249 -0.5465  2.5483
 1244SOL     OW15193   1.918   2.379   3.722 -0.4036 -0.1943  0.3364
 1244SOL    HW115194   1.924   2.370   3.817  0.8956 -1.0161  0.1772
 1244SOL    HW215195   1.918   2.287   3.695 -0.3204 -0.5940  1.7348
 1245SOL     OW15196   2.387   1.171   9.677  0.4498 -0.0199  0.8040
 1245SOL    HW115197   2.319   1.135   9.735  0.3330  1.0243  1.3188
 1245SOL    HW215198   2.416   1.248   9.725 -1.3313  0.4046  1.1883
 1246SOL     OW15199   3.413   1.556   7.655 -0.0573 -0.3497 -0.0273
 1246SOL    HW115200   3.410   1.460   7.658  0.3119 -0.3778 -0.7456
 1246SOL    HW215201   3.322   1.585   7.648 -0.8195 -2.8274 -0.4922
 1247SOL     OW15202   3.283   1.871  15.722 -0.1621 -0.9077 -0.0472
 1247SOL    HW115203   3.370   1.908  15.707 -0.2297 -1.2939 -1.4002
 1247SOL    HW215204   3.303   1.819  15.799  2.5677 -1.0768 -0.8690
 1248SOL     OW15205   4.148   3.105   0.744 -0.4704 -0.6425 -0.5160
 1248SOL    HW115206   4.149   3.019   0.702 -0.3717 -0.7112 -0.3702
 1248SOL    HW215207   4.141   3.166   0.670  0.2758  1.9023  1.5137
 1249SOL     OW15208   1.497   2.879   7.772  0.0085 -0.4228 -0.0820
 1249SOL    HW115209   1.486   2.949   7.836  0.0599 -0.5275  0.0428
 1249SOL    HW215210   1.581   2.901   7.732  0.7436  0.7738  2.0964
 1250SOL     OW15211   3.300   0.510   7.953 -0.0337 -0.2857 -0.5439
 1250SOL    HW115212   3.211   0.498   7.920  0.7582 -0.6061 -2.5733
 1250SOL    HW215213   3.329   0.561   7.877 -1.9446  1.2272 -0.2706
 1251SOL     OW15214   0.777   2.832   7.138 -0.2356  0.0766 -0.1033
 1251SOL    HW115215   0.846   2.767   7.125  0.5592  1.1057 -1.0429
 1251SOL    HW215216   0.710   2.784   7.090 -0.5066 -0.2476  0.6014
 1252SOL     OW15217   0.723   0.130  13.127 -0.1051  0.1369 -0.3841
 1252SOL    HW115218   0.693   0.083  13.205  1.5164  2.0430  1.3646
 1252SOL    HW215219   0.743   0.053  13.074 -0.1785 -1.1525  1.4591
 1253SOL     OW15220   0.899   2.885   8.989 -0.5683  0.3378  0.1679
 1253SOL    HW115221   0.906   2.849   9.077  0.7617  0.1263 -0.0221
 1253SOL    HW215222   0.945   2.969   8.994 -0.0187  0.0689 -0.3116
 1254SOL     OW15223   1.468   2.985   4.983  0.3209 -0.1569 -0.4827
 1254SOL    HW115224   1.508   3.028   4.908  0.7685  1.1883  0.5282
 1254SOL    HW215225   1.406   3.056   4.996 -1.2480 -1.3573 -1.2641
 1255SOL     OW15226   3.012   3.387  12.831 -0.0590 -0.2933 -0.3180
 1255SOL    HW115227   3.086   3.371  12.772  0.6131 -2.4557  1.0923
 1255SOL    HW215228   3.008   3.483  12.833  0.8864 -0.2636  0.2058
 1256SOL     OW15229   0.593   1.964  17.174 -0.0999 -0.3289  0.3703
 1256SOL    HW115230   0.679   1.943  17.210 -0.2185 -0.9821  0.2734
 1256SOL    HW215231   0.598   1.905  17.099 -0.3570  0.7050 -0.4513
 1257SOL     OW15232   0.509   0.463   6.110  0.2880  0.4249 -0.2791
 1257SOL    HW115233   0.578   0.523   6.139  0.2863 -0.6906  2.0446
 1257SOL    HW215234   0.437   0.513   6.071  1.1579  0.0232 -2.3775
 1258SOL     OW15235   4.309   3.147   2.101  0.0284  0.4194  0.0938
 1258SOL    HW115236   4.260   3.173   2.178  0.8262  1.0526  0.3864
 1258SOL    HW215237   4.334   3.065   2.145 -3.8219 -0.1206  1.2677
 1259SOL     OW15238   0.229   1.291   3.908  0.1082  0.6358 -0.4876
 1259SOL    HW115239   0.284   1.366   3.932 -1.0659  1.2938  0.1315
 1259SOL    HW215240   0.281   1.220   3.946  1.9586  2.1310 -0.2650
 1260SOL     OW15241   0.456   4.492   6.514 -0.6499 -0.2049  0.4855
 1260SOL    HW115242   0.366   4.469   6.536  0.3969 -2.4977  2.3569
 1260SOL    HW215243   0.439   4.584   6.494  0.3057 -0.3485 -0.9670
 1261SOL     OW15244   2.045   0.494   0.089 -0.6423 -0.6592 -0.3525
 1261SOL    HW115245   2.024   0.566   0.030  0.3849  0.2964  0.4319
 1261SOL    HW215246   2.122   0.531   0.133 -1.7274  0.2270  0.7887
 1262SOL     OW15247   0.022   0.747   7.510  0.7335 -0.2680  0.3952
 1262SOL    HW115248   0.073   0.827   7.522  0.5510 -0.2647  1.1302
 1262SOL    HW215249   0.084   0.687   7.469  0.6685 -0.4334  0.5428
 1263SOL     OW15250   2.621   0.072   6.797  0.3311  0.4091  0.3292
 1263SOL    HW115251   2.573   0.015   6.737  0.8785 -0.5863  0.8439
 1263SOL    HW215252   2.708   0.042   6.771  0.7205  3.0466 -1.4275
 1264SOL     OW15253   4.615   2.237   7.218  0.0982  0.1531  0.1780
 1264SOL    HW115254   4.605   2.330   7.236 -2.6458 -0.3866  1.5617
 1264SOL    HW215255   4.657   2.207   7.298  2.8717  1.4986 -0.7936
 1265SOL     OW15256   3.609   2.608   2.221 -0.1718  0.1195  0.3835
 1265SOL    HW115257   3.533   2.617   2.164  0.6791 -0.0686 -0.7582
 1265SOL    HW215258   3.569   2.614   2.308 -2.3877  0.2204 -0.6522
 1266SOL     OW15259   1.351   4.377   3.660  0.7018  0.7841 -0.0454
 1266SOL    HW115260   1.291   4.316   3.701  3.1094 -1.5275  0.0397
 1266SOL    HW215261   1.343   4.355   3.567 -0.4577  0.2601  0.1836
 1267SOL     OW15262   3.992   2.885   1.517 -0.0965  0.9208 -0.6883
 1267SOL    HW115263   4.004   2.952   1.585 -1.4449  0.9178 -0.4485
 1267SOL    HW215264   3.979   2.941   1.440 -2.0313  4.3510  2.1091
 1268SOL     OW15265   0.645   2.226   0.150  0.1317  0.5889 -0.3262
 1268SOL    HW115266   0.553   2.219   0.177  0.5871 -0.5559  0.9264
 1268SOL    HW215267   0.658   2.321   0.158  2.5560  0.3194 -1.2409
 1269SOL     OW15268   1.989   1.757   9.833  0.3292  0.2589  0.4494
 1269SOL    HW115269   2.029   1.844   9.833  2.8292 -0.8805  0.5144
 1269SOL    HW215270   1.904   1.780   9.797 -1.4190 -3.0534  2.4603
 1270SOL     OW15271   2.433   1.419  15.809 -0.1310 -0.9277  0.3336
 1270SOL    HW115272   2.408   1.470  15.732  0.4624 -1.1886 -0.0296
 1270SOL    HW215273   2.515   1.379  15.781  0.8159 -0.4025  2.3369
 1271SOL     OW15274   4.199   3.826   1.238 -0.0245  0.0545  0.2082
 1271SOL    HW115275   4.275   3.776   1.209 -0.4081  0.6436 -1.8010
 1271SOL    HW215276   4.127   3.778   1.198  0.3310 -2.2485  2.3782
 1272SOL     OW15277   2.122   3.135   7.546  0.0880  0.4489 -0.4466
 1272SOL    HW115278   2.212   3.107   7.566 -0.6028 -0.5352  1.2515
 1272SOL    HW215279   2.110   3.204   7.610 -1.5948 -0.3317  0.0821
 1273SOL     OW15280   3.188   3.343   4.776 -0.3755  0.0215 -0.0586
 1273SOL    HW115281   3.137   3.268   4.806 -0.9453  1.2041  1.8856
 1273SOL    HW215282   3.146   3.360   4.692  0.2512  1.1204 -0.1622
 1274SOL     OW15283   3.914   0.946   8.866 -0.3070 -0.0017  0.3681
 1274SOL    HW115284   3.970   0.903   8.802 -0.8774  1.0637 -0.8512
 1274SOL    HW215285   3.887   1.016   8.807  1.5482  0.6372  0.2865
 1275SOL     OW15286   4.071   0.910   5.361 -0.0542  0.2416  0.4774
 1275SOL    HW115287   4.152   0.913   5.411 -0.0344 -0.7483  0.5032
 1275SOL    HW215288   4.009   0.904   5.435  0.1365 -0.8491  0.5453
 1276SOL     OW15289   1.167   2.984   8.005  0.3077 -0.1169  0.0579
 1276SOL    HW115290   1.223   2.931   8.062  2.4747  1.3940 -0.6381
 1276SOL    HW215291   1.085   2.989   8.053 -0.0290 -0.6559 -0.4558
 1277SOL     OW15292   0.864   0.451   5.309  0.6860 -0.3360  0.0920
 1277SOL    HW115293   0.933   0.453   5.243  2.3641  1.3004  1.8688
 1277SOL    HW215294   0.889   0.379   5.367 -1.6444 -1.0094  0.2622
 1278SOL     OW15295   1.102   1.890  16.003 -0.0537  0.1914 -0.4222
 1278SOL    HW115296   1.038   1.874  15.934  1.0676  1.0866 -1.6832
 1278SOL    HW215297   1.069   1.824  16.063  0.6041  1.9066  1.8000
 1279SOL     OW15298   0.122   1.331   7.137  0.2361  0.6090  0.3253
 1279SOL    HW115299   0.209   1.291   7.135 -0.0230  0.0680 -0.4985
 1279SOL    HW215300   0.080   1.276   7.203 -0.1027 -1.5486 -1.6875
 1280SOL     OW15301   2.123   3.723   3.355  0.7518  0.3692 -1.0709
 1280SOL    HW115302   2.052   3.677   3.400 -0.3133  0.8712 -2.2236
 1280SOL    HW215303   2.102   3.721   3.261  0.3322  0.6523 -0.9839
 1281SOL     OW15304   0.273   4.253   6.642  0.1170 -0.5423  0.4615
 1281SOL    HW115305   0.231   4.307   6.575 -0.9343  0.1731  1.6666
 1281SOL    HW215306   0.268   4.317   6.713 -0.0138  1.0180 -0.9616
 1282SOL     OW15307   3.433   4.282  13.849  0.1844 -0.5409  0.2315
 1282SOL    HW115308   3.482   4.339  13.908 -1.6762  1.7078 -0.4076
 1282SOL    HW215309   3.473   4.197  13.866  0.0207 -0.5859  0.3860
 1283SOL     OW15310   1.530   3.926   3.795  0.4748  0.3103 -0.1661
 1283SOL    HW115311   1.573   4.008   3.772  2.0780 -0.8935 -1.5080
 1283SOL    HW215312   1.578   3.919   3.877 -0.4411  0.0340  0.3400
 1284SOL     OW15313   4.385   2.610  14.125  0.1319  0.0683 -0.0267
 1284SOL    HW115314   4.314   2.612  14.061  0.2680  1.1495 -0.1461
 1284SOL    HW215315   4.435   2.685  14.093 -1.1644  0.3440 -1.4113
 1285SOL     OW15316   0.059   3.246   4.065 -0.6875 -0.0309  0.2261
 1285SOL    HW115317   0.127   3.181   4.046 -1.5989 -0.4995 -1.4210
 1285SOL    HW215318   4.712   3.190   4.094 -1.5050  1.0469  0.2560
 1286SOL     OW15319   1.026   2.088   8.022 -0.5677 -0.4169  0.0180
 1286SOL    HW115320   0.996   2.004   7.989 -1.7751 -0.2397  0.6531
 1286SOL    HW215321   0.945   2.125   8.059 -1.0748 -2.5352  1.0327
 1287SOL     OW15322   0.983   1.817   6.164  0.4603 -0.0605  0.1216
 1287SOL    HW115323   0.924   1.845   6.094 -1.3410 -0.7691  1.3484
 1287SOL    HW215324   0.943   1.857   6.241 -1.9981  0.2545 -1.3108
 1288SOL     OW15325   4.254   3.644   8.270  0.0075 -0.9524  0.2144
 1288SOL    HW115326   4.212   3.701   8.335  0.5769 -1.0268  0.6478
 1288SOL    HW215327   4.340   3.630   8.309 -2.2121 -5.1174  3.5851
 1289SOL     OW15328   1.677   4.598   1.893 -0.2788  0.3436  0.2444
 1289SOL    HW115329   1.601   4.545   1.872  1.1872 -0.9490 -1.7457
 1289SOL    HW215330   1.643   4.684   1.869  0.6257  0.9713  1.1721
 1290SOL     OW15331   2.925   2.161   3.934  0.4620 -0.0673  0.1526
 1290SOL    HW115332   2.989   2.100   3.899 -0.8249 -1.3454  0.0142
 1290SOL    HW215333   2.855   2.170   3.869 -0.5640 -2.4329  0.9530
 1291SOL     OW15334   4.594   2.550   4.684 -0.6028 -0.7265  0.2873
 1291SOL    HW115335   4.562   2.464   4.655  0.9973 -0.7847 -1.3068
 1291SOL    HW215336   4.682   2.516   4.700  0.6667  1.2040 -2.6486
 1292SOL     OW15337   4.338   1.511   9.523  0.1147 -0.1282  0.0303
 1292SOL    HW115338   4.353   1.584   9.463  0.3800 -1.7247 -1.8403
 1292SOL    HW215339   4.350   1.443   9.457  0.5071  0.4077 -0.4514
 1293SOL     OW15340   4.487   1.727   0.359 -0.9519 -0.0762 -0.0309
 1293SOL    HW115341   4.534   1.805   0.330 -1.6076 -0.1832 -1.4067
 1293SOL    HW215342   4.524   1.663   0.299 -0.0307 -0.2193  0.6897
 1294SOL     OW15343   3.516   1.920   1.707  0.1946 -0.2299  0.6750
 1294SOL    HW115344   3.605   1.940   1.677  1.1408 -3.7515  1.0430
 1294SOL    HW215345   3.501   1.826   1.692  0.7056 -0.2822  0.4794
 1295SOL     OW15346   0.268   2.823   8.480  0.2380  0.0722 -0.0395
 1295SOL    HW115347   0.244   2.734   8.504 -1.1568  0.4377 -0.0964
 1295SOL    HW215348   0.357   2.819   8.514  0.6317  2.2400 -0.7932
 1296SOL     OW15349   3.833   0.082  17.668 -0.5144 -0.2501 -0.2030
 1296SOL    HW115350   3.873   0.091  17.581  0.7881 -1.6236  0.2647
 1296SOL    HW215351   3.831   4.713  17.687 -0.3780 -0.2670 -0.2751
 1297SOL     OW15352   0.839   2.956   2.907  0.0025 -0.0298  0.8013
 1297SOL    HW115353   0.834   2.876   2.854  0.2630  0.7434 -0.3984
 1297SOL    HW215354   0.792   3.021   2.855  1.0856 -0.2279 -0.4262
 1298SOL     OW15355   3.711   0.505   5.392  0.4671 -0.4889 -0.1493
 1298SOL    HW115356   3.682   0.421   5.357  0.0199  0.0420 -1.0854
 1298SOL    HW215357   3.634   0.535   5.441  0.4513  0.6791 -0.8763
 1299SOL     OW15358   3.045   0.730   4.306 -0.6558  0.0438 -0.2602
 1299SOL    HW115359   2.959   0.703   4.274 -0.9750  0.2684  0.4140
 1299SOL    HW215360   3.039   0.821   4.276 -0.5640  0.2475  0.3416
 1300SOL     OW15361   0.615   1.535   7.026  0.1890  0.0934  0.2751
 1300SOL    HW115362   0.617   1.620   7.068 -1.3583  0.7687 -1.0151
 1300SOL    HW215363   0.681   1.547   6.958  1.7538  2.0607  2.1524
 1301SOL     OW15364   3.071   1.842   2.449  0.1290  0.4357  0.2623
 1301SOL    HW115365   3.166   1.828   2.441 -0.0925 -2.0506  1.9782
 1301SOL    HW215366   3.053   1.758   2.409  1.1041 -0.1613  1.0575
 1302SOL     OW15367   1.930   3.561   7.935  0.3587 -0.2138 -0.7916
 1302SOL    HW115368   2.024   3.576   7.923  0.5713 -0.2555  0.7970
 1302SOL    HW215369   1.922   3.547   8.030 -0.4082 -1.4111 -1.0404
 1303SOL     OW15370   0.923   1.870  17.064  0.5075  0.2124  0.3372
 1303SOL    HW115371   0.966   1.907  16.986  0.1278  1.5741  0.7796
 1303SOL    HW215372   0.840   1.846  17.023 -0.9499 -1.7021  4.4502
 1304SOL     OW15373   4.379   2.699   8.664  0.3315  0.3798  0.0331
 1304SOL    HW115374   4.382   2.736   8.576 -1.5590  2.9433  1.0228
 1304SOL    HW215375   4.467   2.711   8.698  0.6068  1.3981 -1.0734
 1305SOL     OW15376   1.259   1.006  16.755  0.5078 -0.7679 -0.2360
 1305SOL    HW115377   1.327   0.984  16.693 -0.6438 -1.1627 -1.3603
 1305SOL    HW215378   1.185   0.958  16.718  0.4870 -1.0791  0.2145
 1306SOL     OW15379   1.521   3.318   5.823 -0.0978 -0.0908  0.1090
 1306SOL    HW115380   1.554   3.399   5.860 -0.9110  1.5818 -2.8148
 1306SOL    HW215381   1.570   3.297   5.743  2.9698  3.6330  1.0233
 1307SOL     OW15382   2.299   3.698  12.137 -0.1048 -0.8085 -0.1494
 1307SOL    HW115383   2.309   3.740  12.222 -3.1573 -1.5336  0.5772
 1307SOL    HW215384   2.211   3.731  12.116  0.4290  0.2499 -0.7612
 1308SOL     OW15385   2.834   3.016  13.220  0.4603 -0.2087 -0.3287
 1308SOL    HW115386   2.899   2.946  13.212  1.4687  1.1563 -3.9057
 1308SOL    HW215387   2.875   3.080  13.162 -0.5687  1.2987  0.5824
 1309SOL     OW15388   3.194   0.139   6.612 -1.0246  0.2973 -0.1080
 1309SOL    HW115389   3.125   0.201   6.637  1.5604  1.9707  2.8069
 1309SOL    HW215390   3.239   0.188   6.544  2.1221 -0.7089  1.2459
 1310SOL     OW15391   4.349   3.932   4.438 -0.6498 -0.0199  0.1669
 1310SOL    HW115392   4.318   3.848   4.472  1.5501 -0.9406 -0.1352
 1310SOL    HW215393   4.399   3.912   4.360 -0.6596 -0.4343  0.2659
 1311SOL     OW15394   1.649   3.423   5.436  0.9350  0.3032  0.0342
 1311SOL    HW115395   1.628   3.343   5.389 -0.0321  0.9485 -0.6448
 1311SOL    HW215396   1.562   3.443   5.469 -0.0998 -1.3781 -1.7044
 1312SOL     OW15397   3.396   3.825   7.995  0.6402  0.1470 -0.2716
 1312SOL    HW115398   3.479   3.864   8.021  0.9121  0.2180 -1.2693
 1312SOL    HW215399   3.378   3.756   8.059 -0.9101  0.3211 -0.5181
 1313SOL     OW15400   2.140   0.443  11.109 -0.0843 -0.0726  0.8017
 1313SOL    HW115401   2.074   0.382  11.144 -2.2684  1.2023 -1.1027
 1313SOL    HW215402   2.131   0.512  11.174 -0.2667 -1.3412  2.1190
 1314SOL     OW15403   3.512   1.417  16.744  0.0972 -0.0651  0.1660
 1314SOL    HW115404   3.581   1.415  16.811  0.9491  2.1141 -0.6592
 1314SOL    HW215405   3.470   1.494  16.783  1.9139 -0.1575  2.2769
 1315SOL     OW15406   0.658   2.196   2.470  0.3336  0.5725  0.1910
 1315SOL    HW115407   0.718   2.124   2.490  0.8738  0.3590 -2.1282
 1315SOL    HW215408   0.687   2.267   2.527 -0.2245  0.8543  0.1170
 1316SOL     OW15409   0.884   1.325   8.595 -0.5833  0.1926  0.3941
 1316SOL    HW115410   0.971   1.365   8.599 -0.6082  0.2820  0.0894
 1316SOL    HW215411   0.904   1.271   8.671  0.8643  1.6481  1.0703
 1317SOL     OW15412   0.517   2.062   7.162  0.5418  0.2976 -0.0765
 1317SOL    HW115413   0.486   2.117   7.234  2.3916 -0.5333  1.3628
 1317SOL    HW215414   0.604   2.041   7.195 -1.0719 -0.2722  3.7830
 1318SOL     OW15415   3.913   0.069   6.870  0.0628  0.2569 -0.2337
 1318SOL    HW115416   3.866   0.084   6.952 -0.3161 -2.0298 -0.0497
 1318SOL    HW215417   3.867   0.125   6.807  1.1558 -1.0728 -2.2194
 1319SOL     OW15418   2.458   2.364  12.963  0.3286  0.0554 -0.2081
 1319SOL    HW115419   2.383   2.353  12.904  0.9245  1.2187 -1.1831
 1319SOL    HW215420   2.419   2.376  13.050 -1.5237 -0.6511 -0.9396
 1320SOL     OW15421   1.966   2.713   8.058 -0.2282  0.5343 -0.1973
 1320SOL    HW115422   1.918   2.772   8.116 -0.1493  0.0176  0.3854
 1320SOL    HW215423   1.906   2.640   8.047  1.3246 -0.8866  0.7845
 1321SOL     OW15424   0.068   4.017   4.462  0.0480 -0.4216  0.4981
 1321SOL    HW115425   0.135   4.084   4.445 -0.1496 -0.5260 -0.6353
 1321SOL    HW215426   4.714   4.069   4.446 -1.6171 -2.9291  0.6789
 1322SOL     OW15427   2.192   2.217   1.775 -0.5977 -0.8497 -0.3457
 1322SOL    HW115428   2.220   2.167   1.851 -0.7853 -1.3944 -0.6387
 1322SOL    HW215429   2.218   2.164   1.700  0.8014 -0.0689 -0.4117
 1323SOL     OW15430   2.902   0.503  11.586  0.6643  0.2254 -0.0881
 1323SOL    HW115431   2.979   0.554  11.562  0.7184 -0.3422 -1.1478
 1323SOL    HW215432   2.925   0.478  11.675  1.5745  0.4178 -0.2673
 1324SOL     OW15433   1.888   1.270  17.596  0.9832  0.0609 -0.7878
 1324SOL    HW115434   1.845   1.311  17.671 -1.1790 -1.3117 -1.2793
 1324SOL    HW215435   1.968   1.322  17.587  0.3742  1.3434  1.1401
 1325SOL     OW15436   1.267   2.273   4.728  0.3462  0.7790 -0.4420
 1325SOL    HW115437   1.316   2.288   4.809 -0.6296  0.8898  0.1242
 1325SOL    HW215438   1.244   2.361   4.698 -1.7644 -0.4035 -2.2393
 1326SOL     OW15439   1.013   2.254   3.575  0.1931  0.1534  0.5003
 1326SOL    HW115440   1.067   2.182   3.544 -0.2881 -0.8005  1.8870
 1326SOL    HW215441   0.930   2.216   3.545  1.5132  0.2573 -3.2765
 1327SOL     OW15442   1.815   0.682  11.380  0.0379 -0.0757 -0.1614
 1327SOL    HW115443   1.848   0.663  11.468  0.0096 -1.2181 -0.3987
 1327SOL    HW215444   1.892   0.704  11.328 -0.1465  0.8326 -0.0530
 1328SOL     OW15445   2.558   3.027   2.752 -0.1302 -0.6610 -0.1454
 1328SOL    HW115446   2.626   2.966   2.780 -1.0289 -2.1050 -1.0547
 1328SOL    HW215447   2.573   3.038   2.658  2.7431  1.0205  0.5069
 1329SOL     OW15448   2.484   3.426   3.276  0.1616 -0.2237 -0.3845
 1329SOL    HW115449   2.558   3.467   3.323 -0.5465 -2.3230  2.5286
 1329SOL    HW215450   2.504   3.444   3.184  1.0620 -0.7979 -0.2984
 1330SOL     OW15451   3.826   3.352   8.793 -0.1854  0.1015  0.3635
 1330SOL    HW115452   3.892   3.294   8.831  0.5684 -0.1900 -1.4224
 1330SOL    HW215453   3.877   3.415   8.743 -3.2199  1.6579 -0.8000
 1331SOL     OW15454   2.012   1.121   6.826  0.1047  0.0426  0.2170
 1331SOL    HW115455   2.004   1.164   6.741 -2.0096  0.7398  0.7591
 1331SOL    HW215456   2.084   1.061   6.810 -2.8478 -2.9699 -1.9357
 1332SOL     OW15457   0.877   2.787   8.088  0.1138  0.8370  0.0669
 1332SOL    HW115458   0.832   2.846   8.028 -0.0335 -0.0429 -0.6874
 1332SOL    HW215459   0.809   2.740   8.135 -0.6960  1.8561 -0.1005
 1333SOL     OW15460   4.162   2.154   7.665 -0.2538 -0.0471 -0.0619
 1333SOL    HW115461   4.162   2.070   7.711 -1.4790 -0.1257 -0.2067
 1333SOL    HW215462   4.249   2.183   7.694  0.0697  1.0999 -2.2033
 1334SOL     OW15463   2.413   1.567   3.178 -0.0224  0.3579  0.1712
 1334SOL    HW115464   2.383   1.497   3.119 -1.4679 -0.9048  2.4049
 1334SOL    HW215465   2.507   1.555   3.171 -0.0431 -0.0620  0.5963
 1335SOL     OW15466   1.912   4.633   7.553 -0.1070 -0.3214 -0.4204
 1335SOL    HW115467   1.823   4.635   7.590  0.0215 -1.5243 -0.0490
 1335SOL    HW215468   1.963   4.662   7.628 -1.7220 -1.4073  1.0899
 1336SOL     OW15469   3.981   4.631   1.070 -0.4187  0.1609 -0.4570
 1336SOL    HW115470   4.058   4.637   1.126  0.2371 -0.0740 -1.3202
 1336SOL    HW215471   3.911   4.663   1.127  1.0092  0.4129  1.1316
 1337SOL     OW15472   1.854   1.421  13.586  0.4516  0.0161  0.2697
 1337SOL    HW115473   1.814   1.487  13.643  1.5027 -0.2197  1.2742
 1337SOL    HW215474   1.945   1.408  13.612  0.0881 -1.5964  0.7103
 1338SOL     OW15475   4.538   3.427   4.206 -0.1469 -0.1125  0.5100
 1338SOL    HW115476   4.498   3.475   4.134  1.5961 -1.6762 -1.5147
 1338SOL    HW215477   4.502   3.339   4.191 -0.0168 -0.1662  0.5091
 1339SOL     OW15478   3.327   3.458   3.894 -0.1548 -0.4120  0.6288
 1339SOL    HW115479   3.343   3.513   3.818  0.8724 -1.6682 -0.0627
 1339SOL    HW215480   3.253   3.508   3.928  1.5996  2.0238  0.7941
 1340SOL     OW15481   2.576   1.935  17.409  0.2498 -0.0558  0.0122
 1340SOL    HW115482   2.511   1.943  17.478  0.4526 -5.2206  0.7289
 1340SOL    HW215483   2.624   2.017  17.425 -0.5341  0.7580 -1.6818
 1341SOL     OW15484   0.089   2.408   8.986 -0.1012  0.1632 -0.1601
 1341SOL    HW115485   0.030   2.446   9.050  0.8960  2.8823 -0.8633
 1341SOL    HW215486   0.176   2.423   9.024 -1.1666  3.2337  0.9965
 1342SOL     OW15487   1.530   4.384   6.247 -0.2328  0.1204 -0.3797
 1342SOL    HW115488   1.451   4.395   6.299  0.1422  0.2430  0.1605
 1342SOL    HW215489   1.497   4.355   6.162  0.3777 -1.6038 -0.0233
 1343SOL     OW15490   0.877   2.712   3.828  0.2191 -0.7242 -0.0819
 1343SOL    HW115491   0.920   2.648   3.884  0.0185  0.5734  1.5751
 1343SOL    HW215492   0.855   2.657   3.753  0.0197 -0.8176  0.0433
 1344SOL     OW15493   3.347   2.214   5.411 -0.4044  0.0023 -0.1189
 1344SOL    HW115494   3.278   2.219   5.477  0.3857  2.1398  0.5488
 1344SOL    HW215495   3.411   2.283   5.433 -0.3477 -0.3365  0.7914
 1345SOL     OW15496   0.571   0.678  16.298 -0.0704 -0.6684 -0.5474
 1345SOL    HW115497   0.511   0.741  16.338  0.5180 -0.8567  0.6336
 1345SOL    HW215498   0.581   0.711  16.209 -3.5481  1.3986 -0.1733
 1346SOL     OW15499   1.491   4.061   8.222  0.2942  0.1297  0.3785
 1346SOL    HW115500   1.507   3.979   8.270  3.3155 -1.0377 -2.6176
 1346SOL    HW215501   1.575   4.087   8.186  0.4435 -1.0684 -0.1408
 1347SOL     OW15502   3.445   3.658   5.874  0.4706 -0.0699 -0.0838
 1347SOL    HW115503   3.478   3.605   5.947  1.3990 -2.5096 -2.2925
 1347SOL    HW215504   3.364   3.697   5.908 -0.0167  0.7627 -2.2466
 1348SOL     OW15505   2.300   0.093   3.229  0.3468 -0.0977 -0.5773
 1348SOL    HW115506   2.380   0.043   3.242  0.2578 -0.4532 -1.4064
 1348SOL    HW215507   2.250   0.047   3.161 -1.2616  1.7134 -0.6140
 1349SOL     OW15508   0.086   3.974   0.598  0.0402  0.0441  0.3262
 1349SOL    HW115509   0.180   3.959   0.609 -0.1469 -2.5567 -1.5139
 1349SOL    HW215510   0.064   3.891   0.556 -1.6262  0.4595  0.3661
 1350SOL     OW15511   2.580   2.035  10.838 -0.5071  0.3403 -0.3131
 1350SOL    HW115512   2.630   1.970  10.887  1.4723  0.9920 -1.4694
 1350SOL    HW215513   2.544   1.982  10.766 -0.4527  1.7161 -1.3378
 1351SOL     OW15514   4.052   1.658   0.226  0.2982 -0.3491 -0.0615
 1351SOL    HW115515   3.971   1.707   0.210  1.2592  1.4691  0.5814
 1351SOL    HW215516   4.035   1.607   0.305 -3.1670  0.2777 -0.4019
 1352SOL     OW15517   0.551   2.440  12.861  0.3604 -0.4744  0.5104
 1352SOL    HW115518   0.533   2.533  12.853  0.9454 -0.3431  0.7841
 1352SOL    HW215519   0.542   2.430  12.956 -0.4680 -1.2932  0.3473
 1353SOL     OW15520   2.709   2.171   0.765  0.6903  0.0163 -0.0754
 1353SOL    HW115521   2.759   2.231   0.820 -0.0682  1.3362 -0.8338
 1353SOL    HW215522   2.652   2.133   0.832 -1.2978  1.6705 -0.8516
 1354SOL     OW15523   4.647   2.109   8.643 -0.2305 -0.0171  0.1927
 1354SOL    HW115524   4.643   2.028   8.694 -1.4473 -0.4359 -0.5798
 1354SOL    HW215525   4.693   2.154   8.714 -0.7465 -2.0227  1.8023
 1355SOL     OW15526   4.222   0.000   2.069  0.3666  0.2151 -0.7034
 1355SOL    HW115527   4.194   4.655   2.128 -4.2856  0.2083 -2.9460
 1355SOL    HW215528   4.245   4.685   1.986  2.9236 -1.9565  1.0371
 1356SOL     OW15529   0.194   3.673   5.489  0.2254 -0.1155  0.0369
 1356SOL    HW115530   0.104   3.682   5.520  0.5189 -1.8446  1.4248
 1356SOL    HW215531   0.244   3.688   5.569 -0.1986 -1.0108  0.4748
 1357SOL     OW15532   4.679   2.183   7.485  0.3108  0.2747  0.0367
 1357SOL    HW115533   0.037   2.166   7.529 -0.3363  0.6859  1.4076
 1357SOL    HW215534   4.645   2.095   7.496  1.5755  0.2775  3.9754
 1358SOL     OW15535   3.678   3.510   3.572  0.1150 -0.0861 -0.5371
 1358SOL    HW115536   3.736   3.447   3.615  0.9470  0.5812 -0.6932
 1358SOL    HW215537   3.605   3.518   3.634  0.2680  1.8081 -0.5816
 1359SOL     OW15538   4.463   3.711   1.176  0.3556 -0.1812  0.4135
 1359SOL    HW115539   4.522   3.648   1.216  2.0371  0.5010 -0.9920
 1359SOL    HW215540   4.498   3.691   1.089 -0.2929 -1.4915  0.4505
 1360SOL     OW15541   0.765   2.249  12.528  0.5088 -0.0677  0.0063
 1360SOL    HW115542   0.734   2.201  12.451 -0.5644 -1.3863  1.2695
 1360SOL    HW215543   0.680   2.269  12.566  0.4176  2.9685 -1.8201
 1361SOL     OW15544   3.228   1.300  15.438 -0.2225 -0.1294 -0.1531
 1361SOL    HW115545   3.185   1.215  15.444  1.1028 -0.6410  2.0760
 1361SOL    HW215546   3.315   1.279  15.470 -0.1078  4.5269  2.6996
 1362SOL     OW15547   1.578   4.318  11.281 -0.1685  0.1964 -0.1786
 1362SOL    HW115548   1.656   4.303  11.334  0.7468  0.5143 -1.4297
 1362SOL    HW215549   1.591   4.257  11.209  0.6695  0.4374 -0.2363
 1363SOL     OW15550   3.404   0.475   7.349  0.1162 -0.1927 -0.5028
 1363SOL    HW115551   3.480   0.468   7.290  0.0283  1.7342 -0.8228
 1363SOL    HW215552   3.440   0.428   7.425  0.1927 -0.8952 -0.9713
 1364SOL     OW15553   4.233   0.236  16.145  0.6390  0.0433  0.8009
 1364SOL    HW115554   4.225   0.183  16.225  0.2567  0.2727  0.9162
 1364SOL    HW215555   4.213   0.180  16.070  0.9977  0.6208  0.2852
 1365SOL     OW15556   0.088   2.835   0.189  0.1174 -0.3637  0.8557
 1365SOL    HW115557   0.010   2.890   0.180  1.4714  1.1068 -1.7528
 1365SOL    HW215558   0.086   2.817   0.283 -0.0621  1.0972  1.1297
 1366SOL     OW15559   1.291   2.830  12.859  0.4042 -0.1902 -0.0379
 1366SOL    HW115560   1.307   2.881  12.779  2.4029  0.6207  0.8983
 1366SOL    HW215561   1.303   2.743  12.822  1.2162  0.3668 -1.1003
 1367SOL     OW15562   0.309   2.779   2.819  0.2948  0.0388  0.0688
 1367SOL    HW115563   0.343   2.701   2.863  0.6472 -0.4841 -1.1424
 1367SOL    HW215564   0.311   2.851   2.883  0.2417 -0.5283  0.7090
 1368SOL     OW15565   1.663   0.273   4.700 -0.1007 -0.5012 -0.3520
 1368SOL    HW115566   1.637   0.217   4.627  1.2848 -1.1457 -0.3406
 1368SOL    HW215567   1.745   0.230   4.724 -0.4832 -0.6157  0.7724
 1369SOL     OW15568   3.690   4.494   8.671 -0.5229  0.3352  0.4491
 1369SOL    HW115569   3.732   4.574   8.638 -1.9462  1.9158  2.4927
 1369SOL    HW215570   3.678   4.532   8.758 -0.0648 -1.5709  1.3457
 1370SOL     OW15571   0.892   0.890   1.805  0.1937 -0.6926 -0.3734
 1370SOL    HW115572   0.925   0.952   1.870 -0.3920 -3.2901  2.3911
 1370SOL    HW215573   0.957   0.819   1.808  0.5490 -0.2825  1.2109
 1371SOL     OW15574   4.708   0.324  17.231  0.0849 -0.5134  0.0079
 1371SOL    HW115575   4.624   0.339  17.274  0.6580  1.4435  0.4306
 1371SOL    HW215576   0.049   0.368  17.284 -0.3985 -0.4633  0.5728
 1372SOL     OW15577   3.000   2.239   8.668  0.2496  1.1825  0.3205
 1372SOL    HW115578   2.913   2.221   8.704 -0.5185  3.3982 -0.4619
 1372SOL    HW215579   3.036   2.151   8.661 -2.9872 -0.2096  0.8857
 1373SOL     OW15580   0.002   3.472   8.012  0.3173 -0.4296  0.2201
 1373SOL    HW115581   0.053   3.520   8.078  0.5684 -2.6087  1.6323
 1373SOL    HW215582   0.075   3.429   7.967  0.7118 -0.2475  0.6809
 1374SOL     OW15583   1.662   4.547   5.046 -0.2199 -0.0324 -0.0901
 1374SOL    HW115584   1.669   4.606   5.121  0.8526 -1.4906  0.9552
 1374SOL    HW215585   1.737   4.489   5.063 -0.1058  0.6090  1.6650
 1375SOL     OW15586   2.737   1.475  12.274  0.2804  0.0820  0.2048
 1375SOL    HW115587   2.753   1.401  12.216  3.1899  0.3471  0.6673
 1375SOL    HW215588   2.677   1.446  12.343  0.8833 -0.1794  0.6117
 1376SOL     OW15589   3.885   4.380  11.944 -0.6508 -0.7214  0.7023
 1376SOL    HW115590   3.907   4.345  11.857  0.0332 -0.4804  0.7766
 1376SOL    HW215591   3.824   4.314  11.977 -1.2629  1.0284  3.0099
 1377SOL     OW15592   4.084   3.146  11.830 -0.7978  0.1284  0.7262
 1377SOL    HW115593   4.124   3.127  11.915  1.5778  1.2598 -0.1377
 1377SOL    HW215594   4.129   3.090  11.767 -0.2357  1.5275 -0.1220
 1378SOL     OW15595   4.712   4.356   7.191 -0.3685  0.3697 -0.0020
 1378SOL    HW115596   4.635   4.392   7.149  0.2400 -1.3409 -2.5973
 1378SOL    HW215597   0.017   4.417   7.259 -1.2723  3.2633 -2.2124
 1379SOL     OW15598   2.820   3.790   7.772  0.0967  0.0857 -0.4051
 1379SOL    HW115599   2.911   3.763   7.780 -0.0011  0.0241  0.5462
 1379SOL    HW215600   2.812   3.788   7.677  0.3356 -0.2470 -0.4174
 1380SOL     OW15601   1.095   0.945   6.148  0.6480 -0.4919 -0.3779
 1380SOL    HW115602   1.127   0.974   6.063 -1.4223  0.6487 -0.7907
 1380SOL    HW215603   1.003   0.966   6.133  0.8152  1.3314  1.0029
 1381SOL     OW15604   3.349   2.010   7.218  0.3454  0.1067  0.4247
 1381SOL    HW115605   3.289   2.012   7.293  2.2102 -2.2905  1.9716
 1381SOL    HW215606   3.391   1.927   7.239 -1.0101 -0.8110 -0.4968
 1382SOL     OW15607   0.173   4.259   8.380  0.1373  0.4797  0.0273
 1382SOL    HW115608   0.262   4.225   8.375  0.3317  1.0093 -0.1704
 1382SOL    HW215609   0.147   4.234   8.468  1.3356  0.3991  0.3563
 1383SOL     OW15610   4.282   4.711   4.822  0.0252 -0.5746 -0.0817
 1383SOL    HW115611   4.213   4.719   4.756  0.3403 -1.2754 -0.5018
 1383SOL    HW215612   4.291   0.078   4.844 -0.5129 -0.6583  0.4991
 1384SOL     OW15613   3.049   2.132   0.789 -0.1214  0.3098  0.3222
 1384SOL    HW115614   3.103   2.186   0.731 -0.5787  1.2678  0.7919
 1384SOL    HW215615   2.961   2.158   0.762 -0.0027  1.0148  0.6298
 1385SOL     OW15616   1.815   4.135  15.898  0.0801 -0.0133 -0.5414
 1385SOL    HW115617   1.844   4.197  15.831  0.6608  1.6894  1.3167
 1385SOL    HW215618   1.737   4.093  15.860 -1.0472  0.8311  0.8685
 1386SOL     OW15619   3.828   3.327   7.623 -0.5269 -0.1641  0.3328
 1386SOL    HW115620   3.809   3.415   7.588 -1.7687 -0.3018  0.6668
 1386SOL    HW215621   3.769   3.322   7.697  0.6716 -2.4896  1.1047
 1387SOL     OW15622   2.408   3.824   3.421  0.2768  0.4387  0.2882
 1387SOL    HW115623   2.317   3.805   3.399  0.6997  0.5254 -1.5614
 1387SOL    HW215624   2.401   3.917   3.443 -0.1548  0.3691  0.4480
 1388SOL     OW15625   2.683   1.033  10.840  0.5562  0.0660  0.2331
 1388SOL    HW115626   2.753   1.088  10.876  0.2108  1.2931 -0.9647
 1388SOL    HW215627   2.603   1.079  10.866 -0.7942 -1.1152 -1.8623
 1389SOL     OW15628   0.302   1.343  16.945  0.5253 -0.0374 -0.0231
 1389SOL    HW115629   0.275   1.349  16.853 -1.0657 -0.2621  0.4385
 1389SOL    HW215630   0.288   1.431  16.979  1.2785  0.3387 -0.6813
 1390SOL     OW15631   1.945   3.882   4.228 -0.5494 -0.0279  0.0337
 1390SOL    HW115632   1.892   3.863   4.151 -1.6208  0.1025  0.7355
 1390SOL    HW215633   1.924   3.974   4.242 -1.5181  0.0389 -1.8616
 1391SOL     OW15634   1.620   0.207   0.307 -0.1433 -0.1563  0.1376
 1391SOL    HW115635   1.598   0.211   0.400 -0.9814 -0.1682 -0.0594
 1391SOL    HW215636   1.631   0.299   0.283 -0.2637 -0.2252 -0.1778
 1392SOL     OW15637   4.455   2.549   3.592 -0.6094 -0.4161 -0.4286
 1392SOL    HW115638   4.414   2.519   3.673  0.9200  0.3919  0.6415
 1392SOL    HW215639   4.493   2.467   3.563 -1.0743 -1.0707  0.7887
 1393SOL     OW15640   3.605   1.266  15.348  0.2089 -0.0412  0.4042
 1393SOL    HW115641   3.571   1.228  15.429  2.8727  0.8728  1.9188
 1393SOL    HW215642   3.657   1.336  15.386  0.3407  0.6314 -0.9996
 1394SOL     OW15643   1.250   2.216   9.209  0.0293  0.2555 -0.2212
 1394SOL    HW115644   1.183   2.176   9.152  0.5731 -1.8771  0.6213
 1394SOL    HW215645   1.331   2.168   9.190 -0.1933 -0.1257 -0.2055
 1395SOL     OW15646   2.730   1.267  15.119  0.3843  0.1792  0.1972
 1395SOL    HW115647   2.800   1.205  15.139  0.3660  0.3941  0.9195
 1395SOL    HW215648   2.774   1.348  15.095 -1.4895  0.7204 -1.3953
 1396SOL     OW15649   3.318   1.238   3.045 -0.5164  0.6653 -0.3900
 1396SOL    HW115650   3.296   1.147   3.023  0.0619  0.3305  0.4076
 1396SOL    HW215651   3.330   1.270   2.955 -0.6756  2.0260  0.0860
 1397SOL     OW15652   4.310   4.229   6.763  0.2503 -0.1269  0.1250
 1397SOL    HW115653   4.267   4.248   6.679  0.9792  0.0834 -0.2062
 1397SOL    HW215654   4.355   4.307   6.794  1.2364 -0.7537  0.2913
 1398SOL     OW15655   1.197   2.477   9.315  0.4392  0.5529  0.2120
 1398SOL    HW115656   1.288   2.507   9.324  1.0257 -0.9067 -0.9534
 1398SOL    HW215657   1.212   2.390   9.279 -2.1809  0.3395 -0.3268
 1399SOL     OW15658   4.435   2.322   4.610  0.4755  0.7681  0.0489
 1399SOL    HW115659   4.437   2.344   4.517 -1.1764  0.4634 -0.0515
 1399SOL    HW215660   4.372   2.251   4.619  1.8703 -0.7334 -2.0651
 1400SOL     OW15661   2.100   3.818   2.799  0.5770 -0.9111  0.4429
 1400SOL    HW115662   2.167   3.753   2.779  1.4172 -0.3520  1.4395
 1400SOL    HW215663   2.082   3.790   2.889 -0.4295 -0.5585  0.3478
 1401SOL     OW15664   3.960   1.714   4.638  0.3592  0.3666 -0.3812
 1401SOL    HW115665   3.971   1.744   4.728  1.2872 -0.9575 -0.0570
 1401SOL    HW215666   3.869   1.727   4.608  0.2349  0.4310  0.0229
 1402SOL     OW15667   2.014   2.799   5.305 -0.2419  0.0620 -0.0767
 1402SOL    HW115668   2.046   2.799   5.395  0.8824  2.7318 -0.4838
 1402SOL    HW215669   2.096   2.783   5.257  0.7477 -0.3613  1.7500
 1403SOL     OW15670   0.086   1.044  14.327 -0.1351  0.4307 -0.0207
 1403SOL    HW115671   0.057   1.105  14.260  2.6459  2.2397  0.4477
 1403SOL    HW215672   0.166   1.090  14.353  0.3462 -1.8719  2.5508
 1404SOL     OW15673   3.581   0.534   2.610 -0.6504  0.3550 -0.4110
 1404SOL    HW115674   3.515   0.491   2.555  0.0304  0.1323 -1.0590
 1404SOL    HW215675   3.663   0.492   2.580 -1.1815  0.6437 -2.2660
 1405SOL     OW15676   3.014   0.945  10.312 -0.0154  0.4729  0.4015
 1405SOL    HW115677   2.969   1.008  10.368  1.4293  1.5362  0.3712
 1405SOL    HW215678   3.090   0.994  10.281 -0.8415  2.3377  1.3557
 1406SOL     OW15679   3.487   1.225   7.292 -0.4901 -0.6363 -0.1520
 1406SOL    HW115680   3.544   1.302   7.294 -0.7298 -0.5054  1.5380
 1406SOL    HW215681   3.406   1.276   7.297 -0.7877 -1.1741  0.6006
 1407SOL     OW15682   0.714   4.034   6.207  0.1004  0.5862  0.4163
 1407SOL    HW115683   0.622   4.040   6.229  0.6693 -0.3472  3.0101
 1407SOL    HW215684   0.704   3.948   6.166 -1.0854  1.0433 -0.2312
 1408SOL     OW15685   0.031   3.508   8.433 -0.3452 -0.4143 -0.1343
 1408SOL    HW115686   0.091   3.443   8.396  1.4998  0.4673  1.3216
 1408SOL    HW215687   4.716   3.453   8.501 -0.6401  1.2978  1.0713
 1409SOL     OW15688   4.040   2.795   4.458  0.0630  0.3292  0.0151
 1409SOL    HW115689   4.111   2.743   4.420 -0.9936 -1.0374 -0.0968
 1409SOL    HW215690   4.073   2.884   4.446  1.5570  0.1593  2.8020
 1410SOL     OW15691   3.603   0.056   2.007  0.8069  0.3389 -0.4305
 1410SOL    HW115692   3.528   0.086   1.956  1.5253 -0.4454 -1.9545
 1410SOL    HW215693   3.559   4.719   2.064 -0.6897  1.7360 -0.0779
 1411SOL     OW15694   1.432   0.875   1.073 -0.5917 -0.0808 -0.0188
 1411SOL    HW115695   1.401   0.950   1.125  3.0713  0.7996  0.8943
 1411SOL    HW215696   1.514   0.856   1.117 -1.1237 -0.5078  0.7909
 1412SOL     OW15697   3.152   2.911  17.423 -1.1100  0.3353 -0.5552
 1412SOL    HW115698   3.226   2.899  17.482 -0.3818  0.9728 -1.3360
 1412SOL    HW215699   3.086   2.864  17.475  1.2678 -2.0465  0.2802
 1413SOL     OW15700   0.228   4.129   7.413 -0.4888 -0.0354 -0.2143
 1413SOL    HW115701   0.163   4.195   7.436 -1.8286 -1.1711 -0.8090
 1413SOL    HW215702   0.180   4.059   7.370 -2.1323  0.8052  0.2718
 1414SOL     OW15703   4.021   2.989   6.241 -0.1235  0.0942 -0.0330
 1414SOL    HW115704   4.054   3.072   6.206  1.9975 -0.8418 -0.2786
 1414SOL    HW215705   4.086   2.925   6.212  1.0229  1.7288 -1.0056
 1415SOL     OW15706   2.315   3.886  16.257  0.0211 -0.0749 -0.2446
 1415SOL    HW115707   2.250   3.887  16.187  0.6791  1.1062 -0.8416
 1415SOL    HW215708   2.305   3.974  16.294  2.1090  0.9188 -2.0597
 1416SOL     OW15709   1.499   0.907  10.230  0.4070 -0.3606  0.4835
 1416SOL    HW115710   1.438   0.906  10.304 -1.2803  0.4236 -0.8996
 1416SOL    HW215711   1.532   0.996  10.242 -2.5439  0.6978  0.5960
 1417SOL     OW15712   2.113   0.469   7.551 -0.3277 -0.0260  0.0116
 1417SOL    HW115713   2.147   0.408   7.485 -0.0538  0.7821 -0.5889
 1417SOL    HW215714   2.193   0.515   7.576  0.4814 -1.7209  0.5023
 1418SOL     OW15715   2.264   0.987  13.354 -0.4357 -0.1046  0.0340
 1418SOL    HW115716   2.201   1.037  13.302 -0.6810  0.4633  0.8663
 1418SOL    HW215717   2.312   0.956  13.278  0.4228  0.1733  0.4703
 1419SOL     OW15718   0.042   1.211   4.134  0.2783  0.1419 -0.3444
 1419SOL    HW115719   0.059   1.156   4.211 -1.5855 -2.7942 -2.0034
 1419SOL    HW215720   0.062   1.292   4.181  0.7160 -0.4106  0.4311
 1420SOL     OW15721   0.420   0.281  13.616 -0.1639 -0.2019 -0.3471
 1420SOL    HW115722   0.483   0.352  13.624 -1.2394  0.8232 -0.9778
 1420SOL    HW215723   0.360   0.309  13.547 -0.7283 -1.9569 -0.5734
 1421SOL     OW15724   1.360   0.606   3.887  0.4471 -0.2876  0.1702
 1421SOL    HW115725   1.386   0.673   3.950  0.0326  0.0131  0.0265
 1421SOL    HW215726   1.306   0.550   3.942 -2.0474  0.6647 -1.2913
 1422SOL     OW15727   3.457   1.771   7.402  0.3089  0.6480  0.8253
 1422SOL    HW115728   3.429   1.730   7.484  1.2302  1.3461  1.4930
 1422SOL    HW215729   3.550   1.750   7.408  0.0798 -1.1425 -1.8688
 1423SOL     OW15730   2.994   4.497   5.483 -0.2089 -0.2761  1.0355
 1423SOL    HW115731   3.038   4.416   5.456 -0.1372  0.0611  0.1493
 1423SOL    HW215732   3.024   4.563   5.420 -1.1410 -1.9461 -1.1552
 1424SOL     OW15733   3.419   1.608   5.762  0.3463 -0.5289  0.3071
 1424SOL    HW115734   3.446   1.599   5.670  2.1786 -3.5989  1.1461
 1424SOL    HW215735   3.440   1.521   5.794 -2.1324 -1.0557  0.4738
 1425SOL     OW15736   4.101   4.491   9.415 -0.3362  0.0072 -0.5025
 1425SOL    HW115737   4.146   4.535   9.342 -0.4989  1.6143  0.3640
 1425SOL    HW215738   4.078   4.407   9.376 -0.5473  0.3317 -1.0804
 1426SOL     OW15739   4.385   2.698   9.989 -0.1977  0.2995  0.3111
 1426SOL    HW115740   4.406   2.622  10.043 -0.2232 -1.6370 -2.3880
 1426SOL    HW215741   4.290   2.687   9.986 -0.4139  1.9592  1.3109
 1427SOL     OW15742   0.908   3.770   3.859  0.8505  0.2693  0.1737
 1427SOL    HW115743   0.883   3.847   3.808  0.2279 -0.1392 -0.1469
 1427SOL    HW215744   0.898   3.700   3.795  1.3689  0.8502 -0.5259
 1428SOL     OW15745   0.804   3.170   5.363  0.6975 -0.4014 -0.6398
 1428SOL    HW115746   0.809   3.190   5.457 -3.7292  1.7644 -0.8245
 1428SOL    HW215747   0.845   3.084   5.370 -0.8038 -1.0962 -0.3970
 1429SOL     OW15748   1.651   4.078   2.505 -0.7258  0.7319  0.1210
 1429SOL    HW115749   1.611   4.004   2.550  1.2056 -0.3015  0.1755
 1429SOL    HW215750   1.617   4.065   2.417  0.4905 -0.0016 -0.2481
 1430SOL     OW15751   1.404   0.682   9.124  0.3512  0.1414 -0.0810
 1430SOL    HW115752   1.478   0.667   9.183 -0.3008 -0.3200  0.6057
 1430SOL    HW215753   1.447   0.733   9.054  0.8495 -1.0961 -0.6769
 1431SOL     OW15754   2.643   2.809  11.430 -0.0791  0.1453 -0.5895
 1431SOL    HW115755   2.633   2.802  11.335 -1.5610 -0.3324 -0.3934
 1431SOL    HW215756   2.737   2.798  11.441 -0.1746 -1.4759 -1.3624
 1432SOL     OW15757   4.428   4.500   3.687 -0.5203 -0.0577 -0.2797
 1432SOL    HW115758   4.468   4.414   3.700 -0.8093 -0.5280 -2.3866
 1432SOL    HW215759   4.448   4.515   3.594  0.3774  0.9845  0.0856
 1433SOL     OW15760   3.258   4.593   5.754  0.1173 -0.2724  0.1297
 1433SOL    HW115761   3.334   4.644   5.726 -0.1913  0.1019 -0.0229
 1433SOL    HW215762   3.302   4.508   5.746  3.1438  1.2328  0.6434
 1434SOL     OW15763   0.185   1.969   6.804  0.2239 -0.3146 -0.0514
 1434SOL    HW115764   0.098   2.010   6.802  0.6541  0.5919 -0.0698
 1434SOL    HW215765   0.205   1.971   6.897 -1.3031 -1.1017  0.3012
 1435SOL     OW15766   0.139   2.455   2.626 -0.2225 -0.0428  0.4536
 1435SOL    HW115767   0.057   2.501   2.642 -0.7501 -0.8071 -0.0429
 1435SOL    HW215768   0.117   2.399   2.551  1.1182  1.2562 -0.9126
 1436SOL     OW15769   2.849   3.261   7.347  0.1318  0.4262 -0.0476
 1436SOL    HW115770   2.817   3.340   7.303 -0.8876 -0.1186 -0.2923
 1436SOL    HW215771   2.929   3.257   7.295 -0.7814  2.5337 -1.6031
 1437SOL     OW15772   1.004   1.182   4.724  0.2167  0.4479 -0.2394
 1437SOL    HW115773   1.062   1.222   4.659 -1.0950  1.2221 -0.9323
 1437SOL    HW215774   1.071   1.152   4.785 -1.3319 -1.5193  0.4665
 1438SOL     OW15775   3.384   1.163  11.205  0.5647  0.5577 -0.1760
 1438SOL    HW115776   3.319   1.095  11.223  3.1903 -1.5157  1.4567
 1438SOL    HW215777   3.366   1.237  11.263  2.3768  0.2402  0.7890
 1439SOL     OW15778   0.290   0.651   5.978  0.3955 -0.1935  0.2557
 1439SOL    HW115779   0.366   0.697   5.942 -0.7081 -0.7708 -2.8348
 1439SOL    HW215780   0.247   0.648   5.893 -0.8609 -1.2490  0.9243
 1440SOL     OW15781   2.625   1.274   3.748 -1.0614  0.1837  0.1078
 1440SOL    HW115782   2.534   1.273   3.776 -1.3399 -0.2336 -0.8168
 1440SOL    HW215783   2.627   1.178   3.747  0.4663  0.2271 -1.4745
 1441SOL     OW15784   4.653   0.868   3.216  0.0471 -0.1202  0.4093
 1441SOL    HW115785   4.661   0.924   3.293  0.1055 -0.1587  0.4321
 1441SOL    HW215786   0.011   0.869   3.168 -0.5464 -1.0344 -0.6209
 1442SOL     OW15787   2.656   0.301   3.468  0.3578 -0.5684  0.4517
 1442SOL    HW115788   2.565   0.329   3.479  0.6371  0.2257  0.7574
 1442SOL    HW215789   2.660   0.239   3.396  1.0733  0.7369 -0.6309
 1443SOL     OW15790   0.008   3.406  14.771  0.3950 -0.1880 -0.1251
 1443SOL    HW115791   4.694   3.492  14.755 -3.6824 -1.5077  2.8203
 1443SOL    HW215792   4.663   3.341  14.766 -1.1599  1.4922 -0.2341
 1444SOL     OW15793   1.511   1.205   9.602  0.0361  0.8246 -0.8575
 1444SOL    HW115794   1.562   1.127   9.625 -1.6080 -0.0212 -0.1513
 1444SOL    HW215795   1.427   1.168   9.575 -0.1706  0.7888 -0.1496
 1445SOL     OW15796   4.103   3.059   8.028  0.0596 -0.4352  0.1422
 1445SOL    HW115797   4.021   3.081   7.983  0.2066  0.0183  0.0979
 1445SOL    HW215798   4.095   2.970   8.063 -1.1580 -0.0357  0.8990
 1446SOL     OW15799   3.663   3.676   7.328  0.0932  0.1730 -0.1577
 1446SOL    HW115800   3.590   3.624   7.294 -1.4124  2.4559 -0.3957
 1446SOL    HW215801   3.678   3.739   7.258 -3.5711  0.8381 -0.3283
 1447SOL     OW15802   3.723   0.428  14.480  0.0934  0.4192 -0.2063
 1447SOL    HW115803   3.815   0.454  14.470  0.6405 -1.1101  0.9667
 1447SOL    HW215804   3.719   0.360  14.413 -0.2761  0.8314 -0.6024
 1448SOL     OW15805   3.227   2.556   1.562 -0.1852  0.2770 -0.7152
 1448SOL    HW115806   3.283   2.585   1.489  0.3158 -0.3578 -0.5822
 1448SOL    HW215807   3.138   2.556   1.527 -0.9945 -0.4079  1.3469
 1449SOL     OW15808   3.717   2.673   9.947  0.0895  0.0604  0.8990
 1449SOL    HW115809   3.712   2.580   9.926  0.4917  0.5170 -1.2124
 1449SOL    HW215810   3.714   2.658  10.041 -2.0497  2.3963  1.2157
 1450SOL     OW15811   1.830   1.666   8.937  0.0498  0.6447 -0.6797
 1450SOL    HW115812   1.749   1.623   8.961  0.8340  0.0173  0.8299
 1450SOL    HW215813   1.887   1.622   9.000 -0.6322 -0.3113 -0.7336
 1451SOL     OW15814   2.201   2.199   4.960  0.1253  0.6947  0.0060
 1451SOL    HW115815   2.202   2.287   4.921  0.3785 -0.4716 -2.6283
 1451SOL    HW215816   2.140   2.158   4.899  0.0908  1.9582 -0.8054
 1452SOL     OW15817   0.384   4.117  14.989  0.7058  0.2566  0.7472
 1452SOL    HW115818   0.353   4.195  14.942 -0.1417  0.6044  1.8738
 1452SOL    HW215819   0.302   4.069  14.993  0.5166  0.5807  0.7959
 1453SOL     OW15820   1.832   3.393   7.761 -0.3956 -0.0970  0.2848
 1453SOL    HW115821   1.912   3.344   7.740 -0.3688  0.0783 -0.0316
 1453SOL    HW215822   1.866   3.466   7.813  1.1021  0.0143 -0.8578
 1454SOL     OW15823   1.163   2.148   1.752  0.1678  0.1012 -0.6190
 1454SOL    HW115824   1.182   2.138   1.845 -2.4080 -1.7493 -0.2707
 1454SOL    HW215825   1.162   2.054   1.736  1.7833  0.2417 -1.4962
 1455SOL     OW15826   4.077   2.548   3.339 -0.4320 -0.1222  0.2238
 1455SOL    HW115827   4.040   2.562   3.252  0.2143  0.4482  0.0474
 1455SOL    HW215828   4.156   2.602   3.336  0.1116 -1.0136 -1.3722
 1456SOL     OW15829   1.642   0.101   8.209 -0.1442  0.4142 -0.2583
 1456SOL    HW115830   1.646   0.006   8.206  0.2715  0.4244  0.0055
 1456SOL    HW215831   1.694   0.133   8.135 -1.6313  2.1906 -0.5433
 1457SOL     OW15832   2.477   2.849   1.435 -0.2599  0.1870 -0.2540
 1457SOL    HW115833   2.429   2.921   1.395  1.3839  2.2368  1.4881
 1457SOL    HW215834   2.489   2.884   1.523 -1.8435  0.4625 -0.1509
 1458SOL     OW15835   4.528   4.266  11.555 -0.0084  0.9807 -0.6006
 1458SOL    HW115836   4.581   4.241  11.631 -0.6335  0.4762 -0.3258
 1458SOL    HW215837   4.452   4.214  11.581  0.8132 -0.2830 -0.6800
 1459SOL     OW15838   3.515   3.164   3.369 -0.4855 -0.0940 -0.3130
 1459SOL    HW115839   3.434   3.196   3.409 -1.4373  1.1785 -3.2463
 1459SOL    HW215840   3.506   3.208   3.284  2.4534 -0.6512 -0.8981
 1460SOL     OW15841   1.523   1.525  12.546 -0.2577 -0.1466 -0.4450
 1460SOL    HW115842   1.555   1.586  12.612 -0.1402  1.8346 -2.3103
 1460SOL    HW215843   1.432   1.553  12.558 -0.3651 -0.3999 -0.6638
 1461SOL     OW15844   0.674   3.565   7.893  0.6118  0.7950 -0.0220
 1461SOL    HW115845   0.707   3.554   7.983 -2.4735  1.0208  1.1321
 1461SOL    HW215846   0.690   3.658   7.880 -1.6270  0.7728 -2.7893
 1462SOL     OW15847   3.010   3.931  12.539  0.3324 -0.1298  0.1784
 1462SOL    HW115848   2.993   4.021  12.511 -0.5859 -0.6307 -0.9188
 1462SOL    HW215849   3.061   3.942  12.619 -0.4369 -2.2473  0.9552
 1463SOL     OW15850   2.035   0.427  13.736 -0.2566  0.1683 -0.3044
 1463SOL    HW115851   1.995   0.341  13.751  0.0282  0.1681  0.4783
 1463SOL    HW215852   2.119   0.401  13.699  0.8968  2.4255  0.6822
 1464SOL     OW15853   0.754   3.544   8.155 -0.3787  0.1313  0.2585
 1464SOL    HW115854   0.723   3.553   8.245 -3.9616 -2.9339 -0.7182
 1464SOL    HW215855   0.787   3.455   8.160 -3.4676 -0.9252  1.6077
 1465SOL     OW15856   1.265   0.956  11.195  0.4037 -0.1005 -0.0373
 1465SOL    HW115857   1.288   0.932  11.106  2.1215  1.1369  0.0904
 1465SOL    HW215858   1.258   1.051  11.195 -0.5721 -0.1721 -0.7921
 1466SOL     OW15859   0.935   1.554   7.530  0.3661  0.2810 -0.1187
 1466SOL    HW115860   0.975   1.545   7.443 -1.0375 -2.0133 -0.5419
 1466SOL    HW215861   0.904   1.644   7.525 -1.5155 -0.4550 -1.5931
 1467SOL     OW15862   0.612   3.175   7.254  0.2802 -0.1388 -0.0892
 1467SOL    HW115863   0.532   3.145   7.210 -0.7126 -0.7314  2.0663
 1467SOL    HW215864   0.575   3.199   7.340 -2.4027  0.8782 -1.5317
 1468SOL     OW15865   1.741   2.124  13.767 -0.1099  0.2415  0.0494
 1468SOL    HW115866   1.786   2.113  13.851  0.5573  1.5596 -0.1196
 1468SOL    HW215867   1.653   2.149  13.795 -0.5462 -0.0759 -1.0436
 1469SOL     OW15868   2.748   1.017   4.572 -0.0538 -0.0835 -0.0831
 1469SOL    HW115869   2.819   0.958   4.547  0.4915 -0.5028  2.4558
 1469SOL    HW215870   2.686   0.956   4.613 -1.7619  1.9815  0.4175
 1470SOL     OW15871   3.483   2.108  15.767 -0.2442  0.6631  0.4282
 1470SOL    HW115872   3.541   2.076  15.836 -2.5968 -2.6841  0.8612
 1470SOL    HW215873   3.392   2.095  15.796 -0.8341  0.5950 -1.4310
 1471SOL     OW15874   1.022   1.922   2.890 -0.7758 -0.2418 -0.2881
 1471SOL    HW115875   0.984   1.877   2.815  1.5661 -1.1290 -0.9365
 1471SOL    HW215876   1.029   2.011   2.854  0.2636  0.5970  1.9356
 1472SOL     OW15877   0.836   2.063  11.770  0.2696  0.0409 -0.1388
 1472SOL    HW115878   0.884   2.128  11.820  0.2905 -0.5236  0.5647
 1472SOL    HW215879   0.846   1.985  11.825  0.2959 -0.3441 -0.6792
 1473SOL     OW15880   3.159   2.979   3.562  0.1830  0.4215  0.5489
 1473SOL    HW115881   3.103   3.056   3.573  0.4783  0.6400  0.5320
 1473SOL    HW215882   3.245   3.019   3.548  1.1208 -0.7732  2.9861
 1474SOL     OW15883   2.052   2.551  12.471  0.0254  0.3108  0.1354
 1474SOL    HW115884   2.018   2.582  12.387 -1.9103 -0.2753  0.6865
 1474SOL    HW215885   2.090   2.636  12.496  1.3535 -0.7378  1.6658
 1475SOL     OW15886   0.182   3.928  13.143 -0.3567 -0.3920 -0.1387
 1475SOL    HW115887   0.116   3.997  13.150  0.3083  0.0095  2.1493
 1475SOL    HW215888   0.130   3.847  13.145 -0.9871  0.0029 -0.5591
 1476SOL     OW15889   1.068   0.763   2.061 -0.1448  0.0395 -0.2773
 1476SOL    HW115890   1.160   0.764   2.035  0.0713  2.3902  0.5867
 1476SOL    HW215891   1.046   0.675   2.030  0.1066  0.7639 -2.4815
 1477SOL     OW15892   0.210   3.903   4.152 -0.2676  0.0283  0.0521
 1477SOL    HW115893   0.159   3.983   4.137 -1.8778 -1.1568 -0.9266
 1477SOL    HW215894   0.186   3.860   4.070  1.2342 -0.3845 -0.1499
 1478SOL     OW15895   1.954   0.733   5.393 -0.0982  0.0241  0.5669
 1478SOL    HW115896   1.859   0.735   5.382  0.1642 -0.2825 -1.8234
 1478SOL    HW215897   1.966   0.711   5.485 -0.7541 -2.4662  0.0692
 1479SOL     OW15898   0.475   4.117  11.250 -0.2981 -0.4199  0.0911
 1479SOL    HW115899   0.470   4.072  11.165 -2.5747  0.8582 -0.4566
 1479SOL    HW215900   0.410   4.063  11.294 -0.7614 -0.3480 -0.5041
 1480SOL     OW15901   1.675   3.111  15.148 -0.2426 -0.2790  0.4529
 1480SOL    HW115902   1.748   3.163  15.114 -2.1518  1.5150 -0.9769
 1480SOL    HW215903   1.612   3.183  15.136 -0.4115 -0.3669  0.8273
 1481SOL     OW15904   2.002   1.882   5.173  0.1820  0.5336 -0.1584
 1481SOL    HW115905   1.983   1.791   5.193 -2.1350  0.9549 -0.4404
 1481SOL    HW215906   2.083   1.868   5.125  0.0759  0.5663 -0.3485
 1482SOL     OW15907   0.112   1.741   7.028  0.2669 -0.5400  0.7167
 1482SOL    HW115908   0.161   1.701   6.957  0.0986 -1.2995  1.0257
 1482SOL    HW215909   0.176   1.806   7.056 -0.1445 -0.9957  2.7188
 1483SOL     OW15910   4.134   0.359   1.874  0.3001 -0.1513  0.3705
 1483SOL    HW115911   4.110   0.293   1.809 -0.1138 -0.1131  0.4812
 1483SOL    HW215912   4.209   0.410   1.842 -1.0223  1.4565 -0.2098
 1484SOL     OW15913   1.576   2.471   8.812  0.0600 -0.0152 -0.0282
 1484SOL    HW115914   1.650   2.531   8.824  1.2680 -1.1488 -1.8746
 1484SOL    HW215915   1.606   2.400   8.869 -2.1968 -2.5032 -1.9649
 1485SOL     OW15916   3.526   1.174   3.213  0.0753  0.7333 -0.1335
 1485SOL    HW115917   3.583   1.190   3.137 -3.1560  1.0153 -2.4939
 1485SOL    HW215918   3.443   1.197   3.170  0.4793  5.8484  1.8733
 1486SOL     OW15919   1.865   2.386   1.281 -0.2863 -0.3906 -0.2727
 1486SOL    HW115920   1.777   2.373   1.245 -0.7449 -0.2747  0.8310
 1486SOL    HW215921   1.859   2.455   1.346 -1.2672 -1.5214  0.8376
 1487SOL     OW15922   1.644   3.155   7.792 -0.3511  0.1461  0.3512
 1487SOL    HW115923   1.562   3.203   7.800  0.3376  1.4817 -0.6331
 1487SOL    HW215924   1.710   3.221   7.815  0.6226 -0.2401 -1.3014
 1488SOL     OW15925   2.646   0.831   6.685  0.2060 -0.2675 -0.1793
 1488SOL    HW115926   2.628   0.800   6.774 -1.3372  0.3617 -0.2747
 1488SOL    HW215927   2.682   0.752   6.644  1.4594  1.5735 -2.5970
 1489SOL     OW15928   4.590   0.824   8.829 -0.3240  0.1891  0.3137
 1489SOL    HW115929   4.685   0.818   8.833 -0.3301  0.1765  0.4546
 1489SOL    HW215930   4.583   0.919   8.821 -0.2919 -0.0047 -2.1086
 1490SOL     OW15931   1.269   2.679   6.649  0.5939  0.2258  0.2172
 1490SOL    HW115932   1.309   2.592   6.655  1.0948  0.3595 -1.2285
 1490SOL    HW215933   1.215   2.686   6.729  0.7719 -1.6542  0.5026
 1491SOL     OW15934   3.453   4.051   0.864 -0.1316  0.5456  0.0889
 1491SOL    HW115935   3.380   4.101   0.901 -0.0929  1.1955 -0.7072
 1491SOL    HW215936   3.469   3.999   0.943 -0.6350 -0.9291 -0.7899
 1492SOL     OW15937   4.066   3.508  16.680  0.1871 -0.4594 -0.7940
 1492SOL    HW115938   4.010   3.435  16.653 -1.2939  0.0059  1.0035
 1492SOL    HW215939   4.074   3.473  16.769 -0.4994 -0.4342 -0.7261
 1493SOL     OW15940   2.126   4.721   8.199 -0.2309 -0.5098 -0.4228
 1493SOL    HW115941   2.171   0.002   8.284  0.4295  1.7988 -0.9381
 1493SOL    HW215942   2.192   4.672   8.151  1.8839 -0.1354  2.0786
 1494SOL     OW15943   3.424   2.625   1.376 -0.0582 -0.0667  0.1959
 1494SOL    HW115944   3.466   2.696   1.424 -0.1068 -0.3531  0.6603
 1494SOL    HW215945   3.509   2.584   1.360  1.0709  0.6383  4.3431
 1495SOL     OW15946   3.009   2.731   0.833 -0.0563 -0.1564  0.4131
 1495SOL    HW115947   3.018   2.826   0.826 -0.8176 -0.2118 -1.4874
 1495SOL    HW215948   3.047   2.705   0.917 -1.3321  1.3374  1.4291
 1496SOL     OW15949   4.247   2.901   7.153 -0.3104 -0.1801  0.0900
 1496SOL    HW115950   4.228   2.817   7.112  1.4894  0.3405 -1.8364
 1496SOL    HW215951   4.175   2.955   7.119  1.1279  1.3892 -0.5157
 1497SOL     OW15952   2.087   3.518  15.326  0.0645  0.1235 -0.1949
 1497SOL    HW115953   2.113   3.503  15.417  0.6760 -0.2495 -0.4321
 1497SOL    HW215954   2.083   3.428  15.296  2.5870  0.1369 -0.5360
 1498SOL     OW15955   4.608   1.716   3.448  0.7037 -0.3252 -0.3345
 1498SOL    HW115956   4.644   1.750   3.366 -0.1866  1.6336  0.0811
 1498SOL    HW215957   4.575   1.630   3.420  0.7412 -0.0560 -1.2261
 1499SOL     OW15958   3.799   1.990   4.321  0.3179  0.0559  0.7676
 1499SOL    HW115959   3.793   1.993   4.226  0.6502  0.4594  0.7578
 1499SOL    HW215960   3.894   1.993   4.334  0.1746  0.1265  1.8072
 1500SOL     OW15961   2.588   1.900   1.921 -0.3163  0.0177 -0.5546
 1500SOL    HW115962   2.661   1.916   1.981 -1.2398 -3.6314  1.5210
 1500SOL    HW215963   2.637   1.868   1.845 -0.5209  0.7881 -1.0131
 1501SOL     OW15964   0.981   2.377  10.410  0.2107 -0.1643 -0.5402
 1501SOL    HW115965   1.062   2.410  10.371  0.3705 -0.0910 -0.1482
 1501SOL    HW215966   0.938   2.458  10.436 -1.9164 -0.7046 -2.3863
 1502SOL     OW15967   4.126   0.413   3.735 -0.4180 -0.0525  0.1631
 1502SOL    HW115968   4.105   0.409   3.642  0.0692  1.4971 -0.0093
 1502SOL    HW215969   4.175   0.495   3.739 -0.7602  0.2043 -0.7382
 1503SOL     OW15970   3.564   4.294  11.838 -0.0022  0.0691 -0.1330
 1503SOL    HW115971   3.558   4.374  11.889 -1.3845 -1.2475  1.7814
 1503SOL    HW215972   3.624   4.244  11.893  0.8596  0.6515 -0.5479
 1504SOL     OW15973   3.814   4.677  16.642 -0.8092 -0.2918  0.3985
 1504SOL    HW115974   3.886   0.014  16.635 -0.1465 -1.3330 -1.9561
 1504SOL    HW215975   3.734   0.004  16.637  0.3523  1.4485  0.0440
 1505SOL     OW15976   0.804   1.523   6.829 -0.1525 -0.3682  0.1776
 1505SOL    HW115977   0.886   1.545   6.873 -0.6740  3.0842 -0.5724
 1505SOL    HW215978   0.823   1.520   6.735  1.2335 -1.0686  0.4825
 1506SOL     OW15979   0.216   0.773   3.769  0.0171 -0.7705 -0.0066
 1506SOL    HW115980   0.281   0.831   3.730 -0.4955  0.4685  0.9860
 1506SOL    HW215981   0.245   0.780   3.860  1.3299 -0.8403 -0.4110
 1507SOL     OW15982   1.567   2.426   4.638  0.2758  0.4305 -0.5081
 1507SOL    HW115983   1.600   2.337   4.645  0.4175  0.4338 -1.1270
 1507SOL    HW215984   1.518   2.435   4.720 -0.3668 -2.3757 -0.6084
 1508SOL     OW15985   1.847   4.400  17.547  0.4774  0.2902  0.4276
 1508SOL    HW115986   1.783   4.346  17.500  2.1937  0.6135 -2.2825
 1508SOL    HW215987   1.816   4.480  17.505 -0.2473  0.2699  0.9188
 1509SOL     OW15988   2.638   1.069  16.208  0.0457  0.0610 -0.5647
 1509SOL    HW115989   2.642   1.153  16.161  1.2598  0.7396  0.7359
 1509SOL    HW215990   2.562   1.025  16.173  1.3561 -1.1339 -1.9000
 1510SOL     OW15991   3.033   1.311  16.576 -0.2543 -0.2183 -0.2621
 1510SOL    HW115992   2.983   1.230  16.571  2.1400 -1.5345 -2.6206
 1510SOL    HW215993   3.001   1.355  16.497 -1.0788  1.1731  0.8418
 1511SOL     OW15994   0.837   0.450  12.769  0.3778  0.0368 -0.4080
 1511SOL    HW115995   0.896   0.375  12.761 -0.7846 -0.8342 -0.6954
 1511SOL    HW215996   0.791   0.428  12.850  0.3197  3.2167  0.4132
 1512SOL     OW15997   0.690   2.572  15.591 -0.2430 -0.0067 -0.6266
 1512SOL    HW115998   0.760   2.510  15.611 -0.6353 -0.2846 -0.0934
 1512SOL    HW215999   0.745   2.648  15.613  0.3357 -0.3002 -1.0678
 1513SOL     OW16000   4.009   4.262   4.411 -0.4596  0.4265  0.3109
 1513SOL    HW116001   4.072   4.199   4.447 -1.3811 -0.1434  0.9160
 1513SOL    HW216002   4.053   4.284   4.329 -2.0061 -1.4040 -1.0284
 1514SOL     OW16003   2.063   1.900   4.490  0.1106 -0.2666  0.2471
 1514SOL    HW116004   2.114   1.976   4.461  0.0622 -0.1335  0.5094
 1514SOL    HW216005   2.121   1.825   4.482  0.2001 -0.1686 -0.0546
 1515SOL     OW16006   0.801   3.811   1.488 -0.0197 -0.4274 -0.0188
 1515SOL    HW116007   0.762   3.792   1.403  1.5052  1.7210 -1.1907
 1515SOL    HW216008   0.804   3.906   1.495 -1.6329 -0.4425  1.0059
 1516SOL     OW16009   1.522   1.271   5.445 -0.1889 -0.1260  0.9565
 1516SOL    HW116010   1.473   1.346   5.479 -0.7220 -1.5869  3.4597
 1516SOL    HW216011   1.457   1.237   5.384  1.0456  1.2580 -1.1013
 1517SOL     OW16012   2.409   4.195   0.212  0.7693 -0.2663 -0.2539
 1517SOL    HW116013   2.362   4.268   0.172 -1.6767 -0.8256  1.5696
 1517SOL    HW216014   2.479   4.241   0.257  1.0791 -0.3786 -0.6183
 1518SOL     OW16015   4.031   0.656   1.173 -0.8923  0.3815 -0.1647
 1518SOL    HW116016   3.944   0.624   1.149  0.1476 -2.1161 -0.5584
 1518SOL    HW216017   4.017   0.705   1.255  0.5092 -1.2323  1.0283
 1519SOL     OW16018   2.225   2.494   1.773 -0.1503  0.6131  0.0676
 1519SOL    HW116019   2.236   2.400   1.762 -0.4991  0.5634  0.1436
 1519SOL    HW216020   2.129   2.500   1.777 -0.0878  0.5497  1.4235
 1520SOL     OW16021   1.825   2.088   4.233  0.0738 -0.2585 -0.0813
 1520SOL    HW116022   1.888   2.114   4.300 -0.1281  0.0236 -0.0018
 1520SOL    HW216023   1.756   2.054   4.291  0.6027  1.7957  1.7517
 1521SOL     OW16024   0.360   4.535   6.166 -0.1598 -0.3697 -0.1443
 1521SOL    HW116025   0.413   4.585   6.104 -2.3280  0.6364 -1.1825
 1521SOL    HW216026   0.426   4.534   6.236 -1.9702 -0.1099  1.5392
 1522SOL     OW16027   2.016   0.909   4.910  0.6029  0.2332  0.2416
 1522SOL    HW116028   2.050   0.849   4.977 -0.7623  0.0882  0.8250
 1522SOL    HW216029   2.050   0.993   4.939  2.1068 -0.0485 -0.7171
 1523SOL     OW16030   4.259   1.676   7.185  0.4324  0.1008 -0.9215
 1523SOL    HW116031   4.167   1.701   7.180 -0.0219 -1.3091  0.7314
 1523SOL    HW216032   4.249   1.593   7.231  1.5278  1.6353  2.0516
 1524SOL     OW16033   2.507   0.153  10.786  0.1718  0.3506 -0.3640
 1524SOL    HW116034   2.507   0.187  10.697  0.0602 -2.7111 -1.5339
 1524SOL    HW216035   2.458   0.216  10.839 -0.0097  0.1620 -0.3042
 1525SOL     OW16036   1.685   2.540  15.502 -0.2464 -0.3051 -0.4431
 1525SOL    HW116037   1.629   2.498  15.437 -0.6886 -4.5194  2.6549
 1525SOL    HW216038   1.688   2.627  15.464  3.9672 -0.2617 -0.1081
 1526SOL     OW16039   0.872   4.588   8.276 -0.1924  0.1485 -0.0321
 1526SOL    HW116040   0.905   4.631   8.197  0.5343 -0.9498 -0.3253
 1526SOL    HW216041   0.784   4.624   8.284 -0.0366  0.2767  1.2392
 1527SOL     OW16042   2.861   1.155   4.042  0.3425  0.3026  0.5002
 1527SOL    HW116043   2.878   1.169   4.135 -0.0230  0.3916  0.5556
 1527SOL    HW216044   2.913   1.223   3.999  0.3787 -0.2798 -0.3903
 1528SOL     OW16045   0.406   0.797  11.675  0.0529  0.1013 -0.4590
 1528SOL    HW116046   0.438   0.882  11.646  0.8650  0.2294  0.8362
 1528SOL    HW216047   0.464   0.750  11.615 -0.2242 -1.2643  0.3333
 1529SOL     OW16048   1.757   3.416   6.724  0.3485 -0.5443 -0.6993
 1529SOL    HW116049   1.713   3.456   6.799  0.0809  0.6169 -1.4764
 1529SOL    HW216050   1.754   3.324   6.749  0.8905 -0.0492  1.1964
 1530SOL     OW16051   0.750   0.971   7.867  0.0294  0.6678  0.0799
 1530SOL    HW116052   0.716   0.887   7.899  2.5138 -0.0102  0.9484
 1530SOL    HW216053   0.743   0.958   7.772  0.7109 -0.2559  0.1521
 1531SOL     OW16054   1.260   1.788   6.531 -0.1729 -0.4530 -0.1340
 1531SOL    HW116055   1.238   1.697   6.510  1.6298 -1.4326  2.2442
 1531SOL    HW216056   1.350   1.795   6.500 -0.1254  2.1260  0.6602
 1532SOL     OW16057   2.985   4.590   2.647  0.4906 -0.1171 -0.0423
 1532SOL    HW116058   3.077   4.591   2.619 -0.1379  0.1578 -2.0940
 1532SOL    HW216059   2.967   4.498   2.665  0.5886 -0.3427 -1.1090
 1533SOL     OW16060   2.787   3.510   8.453 -0.2797  0.0510  0.1330
 1533SOL    HW116061   2.836   3.501   8.371  1.3029  1.6427  0.8996
 1533SOL    HW216062   2.830   3.448   8.513  1.7013  0.2884 -1.0169
 1534SOL     OW16063   0.174   2.487   6.492  0.4689 -0.4333 -0.1662
 1534SOL    HW116064   0.123   2.460   6.416 -0.8475  0.9246  0.2511
 1534SOL    HW216065   0.162   2.415   6.555  1.0445 -1.2054 -0.9332
 1535SOL     OW16066   1.215   2.042   3.534 -0.0226 -0.8405  0.5793
 1535SOL    HW116067   1.272   2.041   3.457 -0.1362  0.6269  0.4794
 1535SOL    HW216068   1.219   1.951   3.563 -2.9291 -0.8903  0.7879
 1536SOL     OW16069   0.828   4.407   4.771  0.2084 -0.0946 -0.4319
 1536SOL    HW116070   0.766   4.446   4.710  0.9019  0.9602 -0.4587
 1536SOL    HW216071   0.789   4.322   4.791  1.9142 -0.1589  2.5774
 1537SOL     OW16072   0.903   4.265   7.063  0.5368  0.7913  0.0719
 1537SOL    HW116073   0.974   4.207   7.089 -1.2697 -1.6886 -0.5585
 1537SOL    HW216074   0.830   4.204   7.056  0.6707  0.5406  0.8659
 1538SOL     OW16075   0.043   1.462   7.566 -0.3551  0.2452 -0.6464
 1538SOL    HW116076   0.093   1.382   7.550 -0.3676  0.3455 -1.1846
 1538SOL    HW216077   0.104   1.500   7.629  0.5628  0.5068 -1.7079
 1539SOL     OW16078   4.679   1.219   2.842  0.1063 -0.0845  0.4001
 1539SOL    HW116079   4.614   1.218   2.772  1.5557  1.1467 -0.9312
 1539SOL    HW216080   4.619   1.233   2.916  0.2807 -3.4349  1.2015
 1540SOL     OW16081   0.239   1.767   9.049  0.0490 -0.4181  0.1242
 1540SOL    HW116082   0.323   1.777   9.004  0.6505 -0.5100  1.2309
 1540SOL    HW216083   0.277   1.743   9.134  0.9570 -1.2590 -0.5071
 1541SOL     OW16084   3.565   1.710  12.633 -0.5532  0.1619 -0.3407
 1541SOL    HW116085   3.573   1.636  12.694  1.6891  2.2751  1.9165
 1541SOL    HW216086   3.617   1.678  12.559 -1.6618 -1.5067 -0.4159
 1542SOL     OW16087   1.508   3.027   8.311 -0.1191  0.1994  0.3599
 1542SOL    HW116088   1.602   3.026   8.331 -0.2321  0.9584  0.9190
 1542SOL    HW216089   1.502   3.031   8.215  3.7216 -0.7955  0.0803
 1543SOL     OW16090   0.081   0.145   1.532  0.0721  0.4989 -0.2392
 1543SOL    HW116091   0.054   0.088   1.605  1.3503 -0.4415 -0.5070
 1543SOL    HW216092   0.004   0.124   1.479 -1.0280  1.9492  0.7740
 1544SOL     OW16093   1.779   0.161   5.558 -0.4494 -0.4471  0.2920
 1544SOL    HW116094   1.846   0.114   5.608  1.2761  2.0979  0.3817
 1544SOL    HW216095   1.833   0.205   5.492 -0.5010 -0.6563  0.1080
 1545SOL     OW16096   2.457   2.140   2.514  0.2041 -0.1253 -0.2396
 1545SOL    HW116097   2.394   2.074   2.487 -0.2847 -0.8448  2.6384
 1545SOL    HW216098   2.442   2.202   2.442  0.0309  0.2387  0.1072
 1546SOL     OW16099   1.522   3.210  13.789  0.1503 -0.0046 -0.1317
 1546SOL    HW116100   1.496   3.269  13.718  1.3960  2.6238  1.5786
 1546SOL    HW216101   1.593   3.163  13.745 -0.5809 -2.1721  1.0253
 1547SOL     OW16102   3.431   4.681   6.746 -0.8811  0.3744 -0.3898
 1547SOL    HW116103   3.390   0.039   6.771 -0.3558  0.6231 -0.3503
 1547SOL    HW216104   3.369   4.616   6.778 -1.1093  0.3213 -0.9304
 1548SOL     OW16105   3.428   2.261   4.946 -0.4574  0.7326  0.0178
 1548SOL    HW116106   3.371   2.184   4.940  0.1863  0.4935 -2.7427
 1548SOL    HW216107   3.406   2.297   5.032  0.1024 -0.9896  0.8746
 1549SOL     OW16108   2.667   1.852  16.284 -0.1979  0.1493  0.3078
 1549SOL    HW116109   2.718   1.875  16.207 -0.9170  0.8846  0.0567
 1549SOL    HW216110   2.722   1.783  16.323 -0.4216 -0.2954 -0.1722
 1550SOL     OW16111   4.352   3.470   2.588 -0.0128 -0.5689 -0.5936
 1550SOL    HW116112   4.284   3.489   2.653 -1.7993 -2.4005 -1.9561
 1550SOL    HW216113   4.428   3.525   2.606 -0.7118  0.8210 -1.8371
 1551SOL     OW16114   4.669   0.917  16.176  0.0138  0.0148  0.8689
 1551SOL    HW116115   0.007   0.932  16.106 -2.5816 -0.3422 -1.5417
 1551SOL    HW216116   4.600   0.877  16.123 -1.2000  0.1999  2.2990
 1552SOL     OW16117   3.438   3.791  15.288 -0.2647  0.2650  0.0094
 1552SOL    HW116118   3.475   3.821  15.205  0.8695  1.1956  0.8659
 1552SOL    HW216119   3.382   3.865  15.310  0.0611  0.5373 -0.0869
 1553SOL     OW16120   1.054   3.772  12.785  0.3123  0.3504  0.2805
 1553SOL    HW116121   1.120   3.842  12.780  1.8705 -1.0866  0.5467
 1553SOL    HW216122   1.089   3.706  12.725 -0.8896 -1.3750  1.4903
 1554SOL     OW16123   3.664   0.126   4.478  0.1481 -0.3883  0.4697
 1554SOL    HW116124   3.627   0.214   4.463  0.3384 -0.5033 -0.6820
 1554SOL    HW216125   3.629   0.085   4.399 -3.0998  1.2551  1.0248
 1555SOL     OW16126   3.870   3.240   6.557 -0.3314  0.2291  0.0408
 1555SOL    HW116127   3.961   3.215   6.574 -0.6081 -0.5887  0.3496
 1555SOL    HW216128   3.822   3.163   6.589  0.5680  0.0269  0.9010
 1556SOL     OW16129   0.903   1.255   7.337 -0.0194  0.2541 -0.0918
 1556SOL    HW116130   0.902   1.178   7.281  2.0803  1.2754 -1.5643
 1556SOL    HW216131   0.990   1.290   7.317 -0.6528  1.6642 -0.3475
 1557SOL     OW16132   0.742   1.065   2.242  0.0409 -0.1408 -0.1111
 1557SOL    HW116133   0.679   1.005   2.202 -0.2098  0.6080 -0.8299
 1557SOL    HW216134   0.696   1.065   2.326 -0.4006 -1.3362 -0.3515
 1558SOL     OW16135   0.694   0.846   0.546  0.1336  0.4299 -0.0102
 1558SOL    HW116136   0.658   0.820   0.461 -0.1658 -2.9861  1.1576
 1558SOL    HW216137   0.664   0.936   0.554  0.1701  0.4415 -0.0039
 1559SOL     OW16138   3.710   2.198   5.456 -0.5870 -0.2166 -0.2539
 1559SOL    HW116139   3.770   2.195   5.382  0.7941 -0.0039  0.8498
 1559SOL    HW216140   3.749   2.135   5.518 -0.6593  1.4918  1.5251
 1560SOL     OW16141   1.771   0.311   6.290 -0.2405  0.4847 -0.0487
 1560SOL    HW116142   1.781   0.233   6.345 -0.4626 -0.4682 -1.3600
 1560SOL    HW216143   1.681   0.298   6.261 -0.2651  0.0600  0.2166
 1561SOL     OW16144   0.355   0.551   3.058  0.3147 -0.1151  0.6658
 1561SOL    HW116145   0.360   0.647   3.056  2.5152 -0.2740 -1.5642
 1561SOL    HW216146   0.446   0.523   3.070  0.0769 -2.3647 -2.8048
 1562SOL     OW16147   2.039   3.949  16.446 -0.2444  0.3317  0.3695
 1562SOL    HW116148   2.131   3.971  16.437  0.4203 -1.8494  1.6139
 1562SOL    HW216149   2.000   4.029  16.412  0.2747  0.8500  1.0056
 1563SOL     OW16150   1.340   3.360  12.022 -0.1490  0.4848 -0.2171
 1563SOL    HW116151   1.245   3.374  12.028 -0.4891 -1.8527  0.0184
 1563SOL    HW216152   1.359   3.419  11.949  0.0094  2.2436  1.2800
 1564SOL     OW16153   3.822   2.625   7.959  0.2991  0.3960  0.4855
 1564SOL    HW116154   3.750   2.563   7.970  1.5493 -0.8667  1.5013
 1564SOL    HW216155   3.895   2.574   7.925 -1.7130 -0.7548 -2.1394
 1565SOL     OW16156   3.203   0.131   4.109 -0.5015  0.2663  0.1174
 1565SOL    HW116157   3.115   0.143   4.143 -0.0629 -1.1024  1.7072
 1565SOL    HW216158   3.232   0.057   4.162 -0.1899  0.2729 -0.0437
 1566SOL     OW16159   1.573   3.747   0.793 -0.4142  0.0425  0.3027
 1566SOL    HW116160   1.546   3.796   0.871 -1.2644  1.4833 -0.9131
 1566SOL    HW216161   1.497   3.739   0.735  1.2554  0.1908 -1.8905
 1567SOL     OW16162   4.545   3.447   8.935  0.2569  0.0079  0.3996
 1567SOL    HW116163   4.460   3.406   8.922  1.0478 -1.4184 -0.2114
 1567SOL    HW216164   4.604   3.380   8.969 -1.2839 -0.9644  1.1206
 1568SOL     OW16165   2.794   2.638   9.504  0.0176 -0.1899 -0.1651
 1568SOL    HW116166   2.831   2.648   9.592 -1.2280 -0.4957  0.3891
 1568SOL    HW216167   2.801   2.546   9.478 -1.5219 -0.3437 -0.0232
 1569SOL     OW16168   0.243   4.150   5.348 -0.2155 -0.1898 -0.4300
 1569SOL    HW116169   0.205   4.192   5.270 -0.4772  0.0765 -0.1596
 1569SOL    HW216170   0.297   4.224   5.374 -0.8187  0.0328  0.1907
 1570SOL     OW16171   3.410   4.601   7.973  0.5257  0.2421  0.1038
 1570SOL    HW116172   3.474   4.632   7.909  0.5971 -2.3288 -1.0553
 1570SOL    HW216173   3.328   4.646   7.951  1.5596  0.8547 -2.5216
 1571SOL     OW16174   0.970   4.559  16.934  0.5509 -0.0841  0.6826
 1571SOL    HW116175   0.909   4.533  16.865  0.8668  1.6646 -0.2383
 1571SOL    HW216176   0.994   4.468  16.954  2.0025 -0.0312 -0.9200
 1572SOL     OW16177   4.029   0.306   4.885  0.5427  0.0080  0.3371
 1572SOL    HW116178   3.997   0.226   4.843  0.3763 -0.4634  1.3627
 1572SOL    HW216179   4.102   0.268   4.933  0.8857  0.1815 -0.0453
 1573SOL     OW16180   1.852   0.073   4.774 -0.3578 -0.4207  0.0246
 1573SOL    HW116181   1.926   0.064   4.834 -0.1835  2.2653  0.2129
 1573SOL    HW216182   1.803   4.721   4.801 -2.6204  0.4816 -1.5299
 1574SOL     OW16183   0.823   3.803   0.153  0.5041  0.2085 -0.0027
 1574SOL    HW116184   0.842   3.713   0.177 -1.7006  0.2999  2.1056
 1574SOL    HW216185   0.908   3.816   0.110 -1.4293  1.5462 -3.4607
 1575SOL     OW16186   2.595   1.381  10.496  0.2295 -0.5164 -0.1218
 1575SOL    HW116187   2.632   1.370  10.409  1.1024 -0.8137  0.2783
 1575SOL    HW216188   2.608   1.297  10.541 -2.7314 -0.4770  0.8101
 1576SOL     OW16189   0.089   0.411   5.881 -0.0698  0.6080 -0.2375
 1576SOL    HW116190   0.102   0.506   5.873  0.0880  0.5498 -0.6966
 1576SOL    HW216191   0.166   0.378   5.834  0.7828  0.5641  1.2040
 1577SOL     OW16192   2.266   1.053   3.109  0.0069 -0.2787  0.2600
 1577SOL    HW116193   2.359   1.071   3.123 -0.5447  0.5356  2.8852
 1577SOL    HW216194   2.236   1.021   3.194  1.0578 -0.6052  0.5154
 1578SOL     OW16195   1.162   0.495   1.578  0.1483 -0.4379  0.5008
 1578SOL    HW116196   1.096   0.439   1.538  0.9403  0.1518 -1.5993
 1578SOL    HW216197   1.207   0.520   1.498  0.1087 -0.9198  0.3298
 1579SOL     OW16198   0.383   0.012   6.436 -0.1648 -0.2054 -0.2867
 1579SOL    HW116199   0.297   0.053   6.438  0.3893  0.9754 -0.5887
 1579SOL    HW216200   0.438   0.074   6.387 -0.2788 -1.0386 -1.4801
 1580SOL     OW16201   0.978   0.084   1.549 -0.0664  0.2694  0.0528
 1580SOL    HW116202   0.992   4.724   1.590 -0.2417  1.4609  2.5813
 1580SOL    HW216203   1.071   0.106   1.553 -0.3330  1.7303 -1.6804
 1581SOL     OW16204   1.952   0.923   7.932 -0.4264 -0.3636  0.1885
 1581SOL    HW116205   1.966   0.953   8.022 -1.9507  2.2519 -0.4474
 1581SOL    HW216206   1.879   0.978   7.903  1.4204  1.8724 -0.2107
 1582SOL     OW16207   1.839   2.912   2.269 -0.0435 -0.3306 -0.2840
 1582SOL    HW116208   1.762   2.876   2.314 -1.0876  0.7060 -1.2180
 1582SOL    HW216209   1.903   2.846   2.293 -1.8293 -2.0564 -0.2039
 1583SOL     OW16210   1.708   2.010   5.328  0.1440  0.2333 -0.0764
 1583SOL    HW116211   1.777   2.066   5.293  0.1014  0.5328  0.3212
 1583SOL    HW216212   1.685   1.941   5.266  1.6383 -0.2774 -0.0595
 1584SOL     OW16213   2.220   4.028  12.209  0.1799  0.0939 -0.2983
 1584SOL    HW116214   2.225   3.972  12.286 -1.3977  0.4512  0.0695
 1584SOL    HW216215   2.312   4.035  12.184 -0.4934  2.3895 -2.2007
 1585SOL     OW16216   0.908   1.562   8.927 -0.1118 -0.5679 -0.1617
 1585SOL    HW116217   1.001   1.553   8.906 -0.1417  2.2803 -1.5246
 1585SOL    HW216218   0.888   1.639   8.873 -1.1157 -0.1550  0.8091
 1586SOL     OW16219   0.497   2.474   8.347 -0.2415 -0.2397 -0.1440
 1586SOL    HW116220   0.514   2.380   8.347  0.9509 -0.0239  1.8371
 1586SOL    HW216221   0.411   2.466   8.307 -0.5970  1.8587  0.2086
 1587SOL     OW16222   4.587   4.660  15.961 -0.2381  0.1907 -0.1138
 1587SOL    HW116223   4.526   4.634  16.030  2.2342  0.0870  2.0411
 1587SOL    HW216224   4.595   4.576  15.916 -1.4524 -0.0892  0.1881
 1588SOL     OW16225   3.203   3.526  14.323 -0.4016 -0.5401  0.0542
 1588SOL    HW116226   3.292   3.493  14.330 -0.7917 -1.4465  0.6258
 1588SOL    HW216227   3.183   3.526  14.229 -0.1687 -0.9945  0.0081
 1589SOL     OW16228   2.242   3.079   8.270  0.6120  0.0363  0.5115
 1589SOL    HW116229   2.256   3.171   8.291 -1.8932  0.1062  1.8338
 1589SOL    HW216230   2.203   3.064   8.356  0.3924 -1.6114  0.1375
 1590SOL     OW16231   2.373   3.854   7.258 -0.8561  0.1051 -0.1204
 1590SOL    HW116232   2.398   3.788   7.322  2.3371  1.2938 -0.1024
 1590SOL    HW216233   2.404   3.812   7.177  2.8532 -0.0034  1.3364
 1591SOL     OW16234   0.575   3.526   2.483  0.0913  0.0133 -0.1958
 1591SOL    HW116235   0.524   3.564   2.410 -1.2168 -2.3745 -0.5187
 1591SOL    HW216236   0.503   3.499   2.539  2.5261  1.7239  3.7388
 1592SOL     OW16237   0.313   4.460   4.343 -0.1341  0.2750  0.0812
 1592SOL    HW116238   0.312   4.540   4.290  1.5119 -0.0817 -0.4829
 1592SOL    HW216239   0.406   4.445   4.331 -0.3888 -1.1779  0.0058
 1593SOL     OW16240   3.221   0.673   1.246  0.2615  0.2197 -0.1169
 1593SOL    HW116241   3.257   0.704   1.163  0.2991 -0.9203 -0.5340
 1593SOL    HW216242   3.253   0.583   1.249 -0.9933 -0.2257 -0.0045
 1594SOL     OW16243   1.761   0.622  13.949 -0.4229 -0.3124 -0.3591
 1594SOL    HW116244   1.697   0.551  13.937 -0.0451 -0.6808 -0.2048
 1594SOL    HW216245   1.715   0.669  14.018 -1.2055 -0.6129 -0.6707
 1595SOL     OW16246   3.283   3.954   3.177  0.1152 -0.0864  0.1069
 1595SOL    HW116247   3.346   3.970   3.106 -0.9418  1.5053 -0.4626
 1595SOL    HW216248   3.290   4.035   3.226 -1.5954  0.0239  0.1674
 1596SOL     OW16249   0.851   4.440   9.315  0.3052 -0.5878  0.0530
 1596SOL    HW116250   0.922   4.498   9.342 -1.3954  1.7716 -0.6119
 1596SOL    HW216251   0.844   4.389   9.396 -2.4085 -0.1832  0.0732
 1597SOL     OW16252   3.729   4.479   1.891 -0.2954 -0.1661 -0.3835
 1597SOL    HW116253   3.746   4.509   1.980  2.3888 -1.2490 -0.5358
 1597SOL    HW216254   3.728   4.563   1.844  0.2114  0.4521  0.7284
 1598SOL     OW16255   3.222   2.375   8.782 -0.0220 -0.0633  0.3137
 1598SOL    HW116256   3.151   2.324   8.743  1.3307 -1.8601  0.2020
 1598SOL    HW216257   3.168   2.435   8.833 -2.0345 -1.7399  0.1278
 1599SOL     OW16258   2.443   4.560   7.615 -0.2399  0.3408  0.1589
 1599SOL    HW116259   2.429   4.572   7.709  1.0609 -0.6522  0.4795
 1599SOL    HW216260   2.519   4.502   7.619  0.0462  0.7662  0.9425
 1600SOL     OW16261   1.988   0.720   9.167  0.3229 -0.1650  0.5625
 1600SOL    HW116262   2.007   0.628   9.187 -1.4857 -0.5246  0.6570
 1600SOL    HW216263   1.981   0.759   9.254  1.0635  1.1696  0.0198
 1601SOL     OW16264   1.244   2.862   0.918  0.5620 -0.2062 -0.1574
 1601SOL    HW116265   1.246   2.793   0.984 -1.6043  1.2914  1.4721
 1601SOL    HW216266   1.189   2.928   0.961 -1.6673 -0.3516 -2.7167
 1602SOL     OW16267   0.860   0.360  13.133  0.3143 -0.0598  0.7083
 1602SOL    HW116268   0.900   0.321  13.055  2.1107  1.0584  1.0651
 1602SOL    HW216269   0.802   0.289  13.160  0.7158 -0.8478 -0.5066
 1603SOL     OW16270   1.897   3.505  12.482  0.3771 -0.4537 -0.0323
 1603SOL    HW116271   1.988   3.500  12.511  0.4452  0.4994 -0.0903
 1603SOL    HW216272   1.842   3.488  12.559 -0.9168 -1.0210 -1.0856
 1604SOL     OW16273   1.226   1.307  16.076  0.8911 -0.4166 -0.6316
 1604SOL    HW116274   1.252   1.266  16.159 -0.1640  0.3709  0.0893
 1604SOL    HW216275   1.289   1.378  16.067 -0.2836  0.8468  1.1097
 1605SOL     OW16276   1.579   1.369  16.236  0.9746 -0.3770 -0.1441
 1605SOL    HW116277   1.514   1.386  16.168 -1.7066 -3.1390  1.7330
 1605SOL    HW216278   1.529   1.349  16.315  1.3798 -1.2122 -0.0979
 1606SOL     OW16279   0.917   2.028   3.755 -0.1867 -0.0206  0.1155
 1606SOL    HW116280   0.965   1.947   3.772 -0.5379 -0.8543 -2.8733
 1606SOL    HW216281   0.834   1.995   3.722  0.2007 -1.2828  0.4054
 1607SOL     OW16282   2.743   3.088   4.148 -0.2802 -0.1798  0.1880
 1607SOL    HW116283   2.651   3.113   4.143 -0.2467 -0.4083 -1.4691
 1607SOL    HW216284   2.745   3.016   4.086 -1.3494 -0.3007  0.2942
 1608SOL     OW16285   1.595   0.484   4.086  0.0954  0.2084 -0.1165
 1608SOL    HW116286   1.605   0.422   4.015  2.1105 -1.5096  1.6637
 1608SOL    HW216287   1.514   0.441   4.114 -0.3652  1.0367 -0.1715
 1609SOL     OW16288   0.439   0.957   9.379 -0.0131  0.4172  0.1242
 1609SOL    HW116289   0.468   0.959   9.288 -2.9693  1.0778 -0.8127
 1609SOL    HW216290   0.488   0.887   9.422 -0.1623  0.9750  1.1879
 1610SOL     OW16291   4.108   1.264   4.816  0.3214  0.0298  0.1731
 1610SOL    HW116292   4.078   1.174   4.833  3.2896 -0.9429  0.2799
 1610SOL    HW216293   4.173   1.240   4.750 -0.1468  0.0895 -0.3129
 1611SOL     OW16294   0.532   3.073   3.072 -0.0581 -0.1099 -0.7556
 1611SOL    HW116295   0.564   3.122   3.148  0.9751 -0.9838 -0.6248
 1611SOL    HW216296   0.532   2.991   3.121  2.4170  1.7930  2.4329
 1612SOL     OW16297   2.798   2.416   0.162 -0.0156 -0.0898  0.0232
 1612SOL    HW116298   2.740   2.485   0.129  0.3647  1.3701  2.3714
 1612SOL    HW216299   2.844   2.466   0.229 -2.0955  1.6386  0.1682
 1613SOL     OW16300   2.725   3.396   1.173  0.0093 -0.0213  0.5072
 1613SOL    HW116301   2.818   3.411   1.159 -0.4017  3.0879  1.1413
 1613SOL    HW216302   2.681   3.444   1.103 -1.0171 -1.2013  0.3546
 1614SOL     OW16303   0.090   4.402   3.131  0.0023  0.2179  0.4239
 1614SOL    HW116304   0.094   4.479   3.188  0.7344  1.0065 -0.6829
 1614SOL    HW216305   0.137   4.432   3.052  2.8624 -2.5952  1.0417
 1615SOL     OW16306   3.849   0.201  11.601 -0.0682  0.2205 -0.5160
 1615SOL    HW116307   3.909   0.272  11.625 -0.4258  0.5309 -0.5194
 1615SOL    HW216308   3.907   0.126  11.611 -0.0882  0.3946  0.9798
 1616SOL     OW16309   0.365   3.142  13.430  0.2023  0.7921  0.0367
 1616SOL    HW116310   0.298   3.176  13.488  0.1429 -0.6366  0.8006
 1616SOL    HW216311   0.310   3.128  13.353  1.3144  0.2432 -0.6586
 1617SOL     OW16312   1.381   4.661   3.713  0.2127  0.5197  0.8582
 1617SOL    HW116313   1.397   4.581   3.663 -1.3885  0.5668  0.2469
 1617SOL    HW216314   1.328   4.709   3.649 -1.1637 -3.4688 -1.0272
 1618SOL     OW16315   4.262   3.992   5.398 -0.1355 -0.0350 -0.2956
 1618SOL    HW116316   4.268   3.900   5.422 -0.1482 -0.0306 -0.2756
 1618SOL    HW216317   4.285   3.987   5.305  2.4604 -3.1768  0.5249
 1619SOL     OW16318   1.441   1.135  15.891 -0.5391  0.0792  0.3252
 1619SOL    HW116319   1.495   1.129  15.970  2.2125  0.2082 -1.5113
 1619SOL    HW216320   1.513   1.167  15.836 -0.5884  1.2973  0.9822
 1620SOL     OW16321   3.721   1.773   4.509  0.7751  0.4455 -0.6157
 1620SOL    HW116322   3.756   1.852   4.468  1.3476  1.5549  2.0133
 1620SOL    HW216323   3.733   1.712   4.436 -0.1995 -1.7264  1.0210
 1621SOL     OW16324   2.465   4.683   6.603  0.2390  0.3053  0.0643
 1621SOL    HW116325   2.420   4.601   6.583  0.3665  0.2572 -0.0234
 1621SOL    HW216326   2.388   0.008   6.631 -0.7786 -0.4990 -1.3132
 1622SOL     OW16327   0.207   2.670   8.023  0.1635  0.4380 -0.3749
 1622SOL    HW116328   0.210   2.740   8.088 -0.5271  2.6821 -2.7438
 1622SOL    HW216329   0.300   2.645   8.027 -0.3070 -1.1957  0.1187
 1623SOL     OW16330   2.419   3.299   2.978  0.4598  0.4869 -0.5951
 1623SOL    HW116331   2.481   3.327   2.911  0.5069  1.3948 -0.1656
 1623SOL    HW216332   2.428   3.204   2.984 -2.5716  0.2761  0.3314
 1624SOL     OW16333   0.982   0.334   0.842 -0.2626 -0.3810  0.0455
 1624SOL    HW116334   1.029   0.367   0.765  0.0715  0.7688  0.7444
 1624SOL    HW216335   0.927   0.411   0.855  1.9204  1.0197  0.8716
 1625SOL     OW16336   1.748   4.063  11.401 -0.8997 -0.2925 -0.5844
 1625SOL    HW116337   1.676   4.087  11.460  0.3692  2.3358 -0.0998
 1625SOL    HW216338   1.818   4.041  11.463 -1.2065  1.3545  0.3656
 1626SOL     OW16339   3.083   2.553   2.691  0.3132  0.1188 -0.4302
 1626SOL    HW116340   3.022   2.556   2.765  2.0523 -0.3219  0.9983
 1626SOL    HW216341   3.107   2.460   2.689 -1.0886 -0.2824  0.8850
 1627SOL     OW16342   3.732   2.737   3.204  0.3720 -0.1700 -0.5926
 1627SOL    HW116343   3.665   2.683   3.161 -1.3189 -0.5883  2.6360
 1627SOL    HW216344   3.737   2.706   3.294 -1.6792  0.3086 -0.3298
 1628SOL     OW16345   2.370   0.297   3.444 -0.4830  0.0103  0.4107
 1628SOL    HW116346   2.296   0.237   3.444 -1.6934  1.5166  1.6457
 1628SOL    HW216347   2.386   0.305   3.350 -0.8946 -1.6035  0.2002
 1629SOL     OW16348   1.550   2.778  17.039  0.0300  1.2451  0.1861
 1629SOL    HW116349   1.483   2.846  17.044 -0.6087  0.8420 -2.6885
 1629SOL    HW216350   1.508   2.708  16.988  0.1115  1.6451 -0.4373
 1630SOL     OW16351   0.742   0.025   3.108 -0.0324 -0.0386 -0.7300
 1630SOL    HW116352   0.682   4.713   3.173 -0.5672  3.0508  0.5597
 1630SOL    HW216353   0.702   0.112   3.102 -0.0156  0.0393  0.1762
 1631SOL     OW16354   4.506   3.502   8.290  0.0445 -0.8733  0.0061
 1631SOL    HW116355   4.549   3.462   8.214  1.7508 -0.9099  0.9865
 1631SOL    HW216356   4.575   3.508   8.356 -0.7262  1.4340  0.6129
 1632SOL     OW16357   2.778   3.643   0.999 -0.1836 -0.1581 -0.4038
 1632SOL    HW116358   2.818   3.669   0.916 -1.4042  1.2321 -0.5365
 1632SOL    HW216359   2.864   3.613   1.030  0.2139  1.9092  0.4595
 1633SOL     OW16360   4.543   0.340  10.679  0.6516  0.3250 -0.3708
 1633SOL    HW116361   4.590   0.258  10.693 -0.7085 -0.4823 -0.5829
 1633SOL    HW216362   4.456   0.316  10.646  0.3681  0.5499  0.2113
 1634SOL     OW16363   1.217   3.797   6.348  0.6475 -0.0225 -0.5601
 1634SOL    HW116364   1.218   3.705   6.321 -0.3117  0.1878 -1.3508
 1634SOL    HW216365   1.167   3.829   6.272 -2.2295 -2.2953  0.3964
 1635SOL     OW16366   3.261   1.049  17.627  0.1290  0.4116 -0.3854
 1635SOL    HW116367   3.351   1.054  17.596 -0.9169  0.5814 -3.3866
 1635SOL    HW216368   3.213   1.005  17.557  2.5202 -3.5333  0.4503
 1636SOL     OW16369   4.101   4.372   7.165 -0.5108 -0.3188  0.4064
 1636SOL    HW116370   4.124   4.322   7.087  2.4231 -1.5483  2.0314
 1636SOL    HW216371   4.155   4.324   7.228  0.6988  1.4627  0.7431
 1637SOL     OW16372   0.129   0.767   8.767  0.3184 -0.3882 -0.0586
 1637SOL    HW116373   0.095   0.728   8.686  1.3624 -0.9770 -0.2166
 1637SOL    HW216374   0.208   0.715   8.782  1.9168  1.6296 -1.4311
 1638SOL     OW16375   0.780   4.482   5.782  0.5343 -0.2086 -0.0318
 1638SOL    HW116376   0.842   4.475   5.854  0.9193  1.9495 -0.1412
 1638SOL    HW216377   0.759   4.389   5.776  0.0187 -0.0604 -0.5076
 1639SOL     OW16378   1.253   0.415  16.487 -0.0941  0.2440 -0.0160
 1639SOL    HW116379   1.222   0.325  16.496 -0.8959  0.3323 -1.7903
 1639SOL    HW216380   1.272   0.416  16.393  3.0264  0.4941  0.6137
 1640SOL     OW16381   0.400   1.646  16.618  0.5272 -0.1611  0.2255
 1640SOL    HW116382   0.440   1.697  16.688  2.5732  0.9071 -1.6972
 1640SOL    HW216383   0.351   1.575  16.658 -0.9939  1.4924  1.3077
 1641SOL     OW16384   1.291   2.028   6.984 -0.1668 -0.2091 -0.4021
 1641SOL    HW116385   1.245   1.961   7.036 -0.6743  0.0440 -0.5262
 1641SOL    HW216386   1.332   1.973   6.917  1.5516  2.0952 -1.2019
 1642SOL     OW16387   2.751   4.059  11.067 -0.8481 -0.1007 -0.4814
 1642SOL    HW116388   2.673   4.106  11.038 -1.2419  0.2023  1.0268
 1642SOL    HW216389   2.823   4.119  11.048 -1.2849  0.5907  0.0244
 1643SOL     OW16390   1.289   0.063   6.487 -0.1891  0.2661  0.0602
 1643SOL    HW116391   1.260   0.020   6.568 -1.2369 -0.9823 -0.9686
 1643SOL    HW216392   1.212   0.110   6.455  0.5072  0.3903 -1.4134
 1644SOL     OW16393   3.737   0.994  14.098  0.3916  0.4608  0.3468
 1644SOL    HW116394   3.691   0.913  14.075 -2.0600  1.4572  1.6992
 1644SOL    HW216395   3.666   1.033  14.150 -0.5063 -0.7156  0.0004
 1645SOL     OW16396   0.883   0.947  11.279 -0.3532 -0.0569 -0.2384
 1645SOL    HW116397   0.914   0.881  11.341 -3.6143  1.7231  3.3319
 1645SOL    HW216398   0.964   0.969  11.233 -1.3102  2.4266 -0.7406
 1646SOL     OW16399   1.478   1.711  17.477 -0.4331  0.1793  0.1956
 1646SOL    HW116400   1.411   1.779  17.476 -2.3187 -1.6963  0.1469
 1646SOL    HW216401   1.508   1.702  17.567 -0.1114 -1.4468 -0.0733
 1647SOL     OW16402   1.134   0.046   0.832  0.0624 -0.0338 -0.2946
 1647SOL    HW116403   1.213   4.717   0.834  0.5483  0.6956  0.2147
 1647SOL    HW216404   1.093   0.015   0.751 -0.9575 -1.0082  0.6143
 1648SOL     OW16405   2.353   2.982   4.934 -0.0771 -0.1091  0.2201
 1648SOL    HW116406   2.282   3.023   4.984  1.9147  2.4463  0.9452
 1648SOL    HW216407   2.436   3.002   4.978  1.0771  0.4552 -2.1840
 1649SOL     OW16408   2.050   1.381   8.773 -0.3963  0.0910  0.4416
 1649SOL    HW116409   2.103   1.461   8.772 -2.9480  1.7663 -1.1557
 1649SOL    HW216410   2.090   1.333   8.700 -1.4208  1.3454 -0.9673
 1650SOL     OW16411   2.793   1.747   2.119 -0.0015 -0.6305 -0.4563
 1650SOL    HW116412   2.811   1.720   2.209  1.8144  1.1353 -0.2825
 1650SOL    HW216413   2.857   1.818   2.114 -0.7513  0.1792  1.3241
 1651SOL     OW16414   3.919   0.222   6.126 -0.3439 -0.2733 -0.7539
 1651SOL    HW116415   3.940   0.130   6.142  1.5474  0.0438 -1.4442
 1651SOL    HW216416   3.868   0.229   6.045 -0.5735  0.1898 -0.5680
 1652SOL     OW16417   1.221   2.468   5.423 -0.1977 -0.1340  0.1265
 1652SOL    HW116418   1.183   2.421   5.349 -1.0449 -1.2350  1.2513
 1652SOL    HW216419   1.301   2.510   5.391  0.7669 -0.3359  2.2063
 1653SOL     OW16420   4.595   2.577   6.426  0.0304  0.0134 -0.1064
 1653SOL    HW116421   4.509   2.547   6.397 -0.7921  1.2659  1.0909
 1653SOL    HW216422   4.588   2.580   6.521  0.8043  1.1982 -0.0816
 1654SOL     OW16423   1.911   1.971   7.316 -0.0021  0.5262 -0.2638
 1654SOL    HW116424   1.883   2.039   7.254 -0.1945 -1.2041 -2.0919
 1654SOL    HW216425   1.838   1.956   7.375 -0.7251  0.8440 -1.0816
 1655SOL     OW16426   2.132   1.871  12.126 -0.3530 -0.4932 -0.0252
 1655SOL    HW116427   2.194   1.811  12.086 -0.4350  0.2291 -1.2292
 1655SOL    HW216428   2.120   1.938  12.058 -4.6589 -1.0184  0.1641
 1656SOL     OW16429   0.774   2.016   7.706  0.3973 -0.1222  0.1141
 1656SOL    HW116430   0.797   2.109   7.704 -2.9974  0.6288 -2.9339
 1656SOL    HW216431   0.721   2.007   7.627 -1.1352 -0.4162  1.1819
 1657SOL     OW16432   1.942   2.775   0.762 -0.4003  0.0227 -0.0145
 1657SOL    HW116433   1.885   2.811   0.830  0.5222  0.8140  0.3409
 1657SOL    HW216434   2.007   2.846   0.754 -0.2215 -0.5620 -3.6404
 1658SOL     OW16435   1.929   1.179   9.877  0.2727  0.2825 -0.4404
 1658SOL    HW116436   1.883   1.137   9.950 -1.1117  0.6315 -1.0978
 1658SOL    HW216437   1.893   1.268   9.877  0.4543  0.3541  0.9302
 1659SOL     OW16438   3.631   1.661   8.322 -0.1553  0.6737  0.1367
 1659SOL    HW116439   3.543   1.671   8.357  0.1410  3.1138  0.2196
 1659SOL    HW216440   3.664   1.747   8.350  0.9363  0.0868  0.6521
 1660SOL     OW16441   0.612   3.616   5.775 -0.2560 -0.0389  0.1732
 1660SOL    HW116442   0.578   3.585   5.691 -0.6228  1.0071 -0.0646
 1660SOL    HW216443   0.582   3.550   5.837 -1.1343  0.2929  0.1023
 1661SOL     OW16444   1.329   4.042   1.951  0.2966  0.3978  0.3757
 1661SOL    HW116445   1.297   4.082   1.870 -0.4291 -1.0826 -0.0564
 1661SOL    HW216446   1.423   4.048   1.935  0.1907 -0.9761 -0.7275
 1662SOL     OW16447   4.537   2.622   5.347  0.2086  0.0406  0.1154
 1662SOL    HW116448   4.628   2.636   5.320  0.7924 -0.7260  1.6607
 1662SOL    HW216449   4.499   2.648   5.263  0.6603 -0.3930 -0.2200
 1663SOL     OW16450   0.303   1.050   6.433 -0.2480 -0.1260 -0.1790
 1663SOL    HW116451   0.324   1.103   6.510 -0.8088 -1.4153  0.8493
 1663SOL    HW216452   0.230   0.996   6.462  1.0464 -0.6500  2.1163
 1664SOL     OW16453   0.794   2.293  13.201  0.2964 -0.1390 -0.0943
 1664SOL    HW116454   0.882   2.256  13.197  0.5594  0.6535 -1.8276
 1664SOL    HW216455   0.750   2.231  13.143  0.8265 -1.0473  0.4721
 1665SOL     OW16456   3.068   0.834   6.991  0.1895 -0.2485 -0.6653
 1665SOL    HW116457   2.977   0.838   7.021  0.6536  1.9247  0.4363
 1665SOL    HW216458   3.111   0.819   7.075 -0.2633  0.3618 -0.3296
 1666SOL     OW16459   0.374   0.803   3.428  0.5456  0.0970  0.3115
 1666SOL    HW116460   0.468   0.786   3.430  0.4120 -0.7492 -0.4143
 1666SOL    HW216461   0.371   0.875   3.491 -1.0566  1.1224 -0.9267
 1667SOL     OW16462   2.231   3.406   6.669  0.3498  1.4421  1.2183
 1667SOL    HW116463   2.187   3.452   6.740 -1.5720  0.4641  0.6592
 1667SOL    HW216464   2.316   3.397   6.711  0.5624  1.5254  0.8059
 1668SOL     OW16465   4.317   0.028   0.425  0.0313  0.6408  0.0455
 1668SOL    HW116466   4.297   0.049   0.517 -1.0623 -0.1354 -0.0155
 1668SOL    HW216467   4.241   4.701   0.400  1.7136 -0.3604 -2.9897
 1669SOL     OW16468   1.812   2.805   7.744 -0.4338  0.0455  0.1180
 1669SOL    HW116469   1.895   2.784   7.702 -0.6164 -0.3880 -0.0221
 1669SOL    HW216470   1.790   2.717   7.773 -0.9158 -0.3176 -1.3386
 1670SOL     OW16471   0.804   3.084   6.806 -0.2197  0.2594  0.7357
 1670SOL    HW116472   0.761   3.091   6.721  2.1879 -1.1571 -0.6077
 1670SOL    HW216473   0.736   3.065   6.870 -0.0025 -2.8638  0.0186
 1671SOL     OW16474   4.034   1.132   7.549 -0.0164  0.1836 -0.2700
 1671SOL    HW116475   3.983   1.150   7.469 -0.9900 -1.3835 -0.0276
 1671SOL    HW216476   4.060   1.213   7.591 -3.5513  0.4225  1.4731
 1672SOL     OW16477   2.589   1.310  14.267  0.1872  0.2890  0.3846
 1672SOL    HW116478   2.519   1.301  14.203  1.4994 -0.2663 -0.9640
 1672SOL    HW216479   2.594   1.221  14.302  1.2219 -1.2365 -3.7498
 1673SOL     OW16480   3.399   3.076   3.721 -0.1758 -0.8396 -0.2034
 1673SOL    HW116481   3.321   3.117   3.756 -0.7289 -0.5267 -1.7981
 1673SOL    HW216482   3.450   3.155   3.703 -1.2449  0.1084  0.9879
 1674SOL     OW16483   0.275   2.644   3.943  0.3008  0.3636 -0.1109
 1674SOL    HW116484   0.277   2.655   4.039 -0.3571  1.6823 -0.2536
 1674SOL    HW216485   0.244   2.726   3.906 -0.4489 -1.0254 -2.4941
 1675SOL     OW16486   3.457   0.324  14.259 -0.2132 -0.0387 -0.3344
 1675SOL    HW116487   3.550   0.305  14.264 -0.0619  1.0764  1.1788
 1675SOL    HW216488   3.443   0.364  14.345 -1.1692 -0.7423 -0.1581
 1676SOL     OW16489   0.624   4.557   6.288  0.3007 -0.4055  0.1593
 1676SOL    HW116490   0.697   4.615   6.311 -0.4320  0.0477  1.3315
 1676SOL    HW216491   0.621   4.504   6.367  0.2055 -0.7405 -0.0671
 1677SOL     OW16492   3.695   2.275   6.550  0.6129  0.4100 -0.0332
 1677SOL    HW116493   3.767   2.241   6.498  1.4538  1.8086  0.2431
 1677SOL    HW216494   3.732   2.259   6.637  0.4660  1.9158  0.3004
 1678SOL     OW16495   2.688   4.392   4.039 -0.2777  0.1578  0.5660
 1678SOL    HW116496   2.679   4.351   4.125  0.8041 -1.7321 -0.2447
 1678SOL    HW216497   2.773   4.358   4.013 -0.4822  0.6011 -0.7193
 1679SOL     OW16498   3.345   0.989   7.130  0.1602  0.2237 -0.3732
 1679SOL    HW116499   3.356   0.997   7.035 -1.5824  0.7544 -0.5344
 1679SOL    HW216500   3.436   0.990   7.159  0.4798 -2.2323 -1.2594
 1680SOL     OW16501   4.214   1.547  14.916  0.4069 -0.1619 -0.1202
 1680SOL    HW116502   4.180   1.635  14.931 -1.8331 -0.3664 -3.8522
 1680SOL    HW216503   4.259   1.563  14.833 -1.6103 -0.4396 -1.2840
 1681SOL     OW16504   3.048   4.516   3.112  0.3207  0.4406 -0.1700
 1681SOL    HW116505   3.025   4.600   3.151 -0.1377  0.1977  0.0833
 1681SOL    HW216506   3.107   4.546   3.042  0.8763  0.9757  0.5227
 1682SOL     OW16507   4.533   0.782   2.660  0.4352  0.3388  0.1428
 1682SOL    HW116508   4.473   0.721   2.617 -3.5449  2.2861  2.9411
 1682SOL    HW216509   4.473   0.847   2.695 -0.6268  0.0596 -1.1607
 1683SOL     OW16510   0.626   0.289   7.434 -0.2942  0.4737  0.5408
 1683SOL    HW116511   0.681   0.237   7.376  0.7983  0.8813  1.2129
 1683SOL    HW216512   0.651   0.251   7.519  0.8470  0.8691  0.3710
 1684SOL     OW16513   0.981   2.764   5.099 -0.3810 -0.1446 -0.4823
 1684SOL    HW116514   0.935   2.846   5.079 -0.6076  0.1878  1.3785
 1684SOL    HW216515   1.024   2.803   5.176  1.5711 -0.9858 -1.1388
 1685SOL     OW16516   3.987   1.147  17.328  0.4767 -0.0302 -0.1786
 1685SOL    HW116517   4.079   1.170  17.317  0.1704  1.1978 -0.1690
 1685SOL    HW216518   3.997   1.061  17.289 -0.8808  0.4544 -1.6235
 1686SOL     OW16519   4.346   1.270   8.988  0.0711  0.3677 -0.0277
 1686SOL    HW116520   4.329   1.202   8.923 -1.6377  0.3518  0.4317
 1686SOL    HW216521   4.326   1.213   9.062 -1.2455  1.7000  0.6585
 1687SOL     OW16522   3.679   1.878   5.581  0.2303 -0.1363 -0.0996
 1687SOL    HW116523   3.622   1.887   5.505 -1.4795 -2.8352  0.8710
 1687SOL    HW216524   3.731   1.798   5.580  1.1380  0.4473 -0.3492
 1688SOL     OW16525   2.517   0.108   4.422 -0.0632 -0.3722  0.0234
 1688SOL    HW116526   2.452   0.098   4.352  2.3423  0.2714 -2.3033
 1688SOL    HW216527   2.504   0.199   4.451 -0.1753  0.5951 -2.9791
 1689SOL     OW16528   1.472   1.033   0.534 -0.4135 -0.0101  0.6242
 1689SOL    HW116529   1.557   1.047   0.492 -1.0087 -0.5255 -0.7521
 1689SOL    HW216530   1.491   0.998   0.621  1.5736 -0.5264 -0.0081
 1690SOL     OW16531   0.633   4.195   3.506 -0.4214 -0.1491  0.0046
 1690SOL    HW116532   0.600   4.142   3.434 -1.1559  1.2705 -0.7140
 1690SOL    HW216533   0.558   4.245   3.540 -0.5694 -1.6318  1.8782
 1691SOL     OW16534   0.958   2.228   0.244  0.0705  0.0882 -0.0006
 1691SOL    HW116535   0.873   2.267   0.225  0.2880 -0.1343 -1.4413
 1691SOL    HW216536   0.953   2.224   0.339  1.0915 -3.1256 -0.0731
 1692SOL     OW16537   1.665   0.821   5.348 -0.2325  0.2368 -0.2937
 1692SOL    HW116538   1.570   0.835   5.349  0.0851  2.3803  0.2365
 1692SOL    HW216539   1.659   0.731   5.379  1.4918 -0.0289 -0.7084
 1693SOL     OW16540   0.699   2.136   4.350  0.2151 -0.4852  0.1788
 1693SOL    HW116541   0.731   2.054   4.388  0.6762  0.2615  1.3896
 1693SOL    HW216542   0.738   2.142   4.262 -0.1136 -1.6891 -0.0550
 1694SOL     OW16543   1.366   1.390   1.628  0.0909  0.1658 -0.0591
 1694SOL    HW116544   1.351   1.328   1.699 -1.0694  1.9889  1.2855
 1694SOL    HW216545   1.443   1.358   1.581  0.4851 -0.6138  1.1379
 1695SOL     OW16546   0.954   3.896   7.224 -0.3930  0.4654  0.3762
 1695SOL    HW116547   0.978   3.804   7.217  0.7856  0.7465  0.6809
 1695SOL    HW216548   0.863   3.897   7.254 -0.3561 -0.8836  0.5138
 1696SOL     OW16549   2.754   0.548   3.351  0.7164 -0.1341  0.3288
 1696SOL    HW116550   2.719   0.558   3.263  1.2983  0.9391  0.2072
 1696SOL    HW216551   2.690   0.497   3.400 -0.5313  1.7064  0.6198
 1697SOL     OW16552   3.239   2.178  16.230  0.5804 -0.4108  0.6897
 1697SOL    HW116553   3.267   2.269  16.214 -0.4174  0.0445  1.5067
 1697SOL    HW216554   3.151   2.189  16.267 -0.5508 -1.3343 -1.7195
 1698SOL     OW16555   0.013   0.374  11.616  0.1577  0.4855  0.0085
 1698SOL    HW116556   0.008   0.286  11.655  0.1904 -0.1003 -1.2886
 1698SOL    HW216557   0.104   0.397  11.639 -0.0629  0.6122  0.7547
 1699SOL     OW16558   0.996   2.592   7.224  0.0226 -0.4653 -0.2594
 1699SOL    HW116559   1.041   2.508   7.212 -0.4597 -1.0451  2.0477
 1699SOL    HW216560   1.055   2.642   7.279  1.4906 -0.6830 -1.6390
 1700SOL     OW16561   3.871   3.503  12.231 -0.4068 -0.1632 -0.7799
 1700SOL    HW116562   3.893   3.495  12.324  0.9794 -0.1201 -1.1070
 1700SOL    HW216563   3.959   3.524  12.199 -1.1178  1.7799 -1.4126
 1701SOL     OW16564   0.020   0.164   7.556  0.2513  0.1033 -0.5012
 1701SOL    HW116565   4.662   0.123   7.534  0.6405  0.0269 -1.8434
 1701SOL    HW216566   0.064   0.164   7.471  0.2831 -2.9950 -0.4513
 1702SOL     OW16567   1.596   1.789   0.366  0.0239  0.2301  0.5982
 1702SOL    HW116568   1.527   1.855   0.365  0.2614  0.4699 -0.8410
 1702SOL    HW216569   1.612   1.780   0.460 -1.1307 -1.2715  0.6539
 1703SOL     OW16570   3.171   3.613   4.791  0.1888  0.2217  0.4927
 1703SOL    HW116571   3.186   3.518   4.788  1.8213  0.4949 -0.0204
 1703SOL    HW216572   3.246   3.641   4.844  0.7796 -0.0197 -0.2093
 1704SOL     OW16573   3.577   0.147   8.481 -0.3280 -0.1633 -0.3782
 1704SOL    HW116574   3.613   0.168   8.567  0.1060 -0.2715 -0.5327
 1704SOL    HW216575   3.653   0.180   8.433  0.1802  0.4094  0.8313
 1705SOL     OW16576   1.270   1.100   7.755  0.2608 -0.2123  0.6050
 1705SOL    HW116577   1.242   1.014   7.722 -0.8365 -0.0236  1.0188
 1705SOL    HW216578   1.190   1.122   7.803  0.7381 -0.1563  1.3683
 1706SOL     OW16579   3.710   4.630   3.924 -0.9879  0.0995 -0.0741
 1706SOL    HW116580   3.647   4.558   3.932 -1.0062  0.0546 -0.6232
 1706SOL    HW216581   3.783   4.597   3.977  0.3174  3.5421  0.2540
 1707SOL     OW16582   3.280   2.725   6.394 -0.4446  0.0817 -0.4944
 1707SOL    HW116583   3.353   2.782   6.372  1.5675 -1.5685  1.7725
 1707SOL    HW216584   3.324   2.670   6.460  2.4275 -0.0115 -2.4761
 1708SOL     OW16585   1.525   2.393  11.815 -0.5020  0.0372 -0.7541
 1708SOL    HW116586   1.562   2.396  11.726 -0.9612 -0.5426 -0.9638
 1708SOL    HW216587   1.599   2.437  11.857 -1.3181  0.2063  0.4826
 1709SOL     OW16588   4.648   4.683   1.643 -0.2687  0.6335 -0.4007
 1709SOL    HW116589   4.633   4.601   1.596  0.1105 -0.5417  1.5289
 1709SOL    HW216590   4.581   0.016   1.608  1.4848  1.9044 -1.6427
 1710SOL     OW16591   1.177   0.399   4.080 -0.6473  0.3310  0.0926
 1710SOL    HW116592   1.239   0.342   4.125 -1.1456 -0.8850 -0.7598
 1710SOL    HW216593   1.096   0.349   4.081 -0.1478 -0.5031 -1.1917
 1711SOL     OW16594   3.026   3.773   4.642  0.0437  0.4183  0.0979
 1711SOL    HW116595   3.120   3.791   4.643  0.0523  0.4199 -0.9300
 1711SOL    HW216596   3.053   3.682   4.648 -3.3051 -0.5592  0.1691
 1712SOL     OW16597   3.111   4.238   7.968 -0.1321  0.6447  0.4703
 1712SOL    HW116598   3.061   4.211   7.890 -2.1442 -0.4258  2.1167
 1712SOL    HW216599   3.056   4.311   7.994 -1.5314  0.0327 -0.7397
 1713SOL     OW16600   3.160   0.861   5.896 -0.1375  0.8582  0.3280
 1713SOL    HW116601   3.170   0.802   5.822 -2.1391  1.5134 -0.4964
 1713SOL    HW216602   3.156   0.947   5.853 -0.6698  1.2944  1.2290
 1714SOL     OW16603   2.430   0.316   0.331 -0.3488 -0.2082  0.1801
 1714SOL    HW116604   2.406   0.376   0.401  0.1307  0.9214 -0.6242
 1714SOL    HW216605   2.444   0.239   0.386  0.1105  0.5355  1.1048
 1715SOL     OW16606   4.625   4.283   4.494  0.3892  0.4896  0.0456
 1715SOL    HW116607   4.648   4.343   4.565  1.0670 -0.5576  0.7129
 1715SOL    HW216608   4.590   4.210   4.545  1.2427  0.7499  1.0073
 1716SOL     OW16609   0.765   0.274   6.180 -0.0228  0.4762 -0.5339
 1716SOL    HW116610   0.752   0.193   6.228 -0.5789  1.8683  1.6482
 1716SOL    HW216611   0.857   0.295   6.195 -0.0159 -1.7457  2.3431
 1717SOL     OW16612   2.770   1.378   9.725 -0.1443  0.4426 -0.2388
 1717SOL    HW116613   2.828   1.411   9.794 -1.7170  0.7744  0.9161
 1717SOL    HW216614   2.709   1.318   9.769 -2.5454  2.7306 -0.4717
 1718SOL     OW16615   0.026   3.888   9.788  0.3540  0.2394 -0.0524
 1718SOL    HW116616   4.720   3.800   9.810 -0.7793  0.9710  1.2079
 1718SOL    HW216617   4.693   3.934   9.848  0.3450 -0.3160  0.3647
 1719SOL     OW16618   2.554   4.050   4.114 -0.0587  0.2346  0.1858
 1719SOL    HW116619   2.533   4.045   4.021 -0.8160  0.2699  0.3537
 1719SOL    HW216620   2.502   3.977   4.149 -0.1695  0.7637  1.1327
 1720SOL     OW16621   3.699   0.430  11.369  0.0863  1.0766 -0.2199
 1720SOL    HW116622   3.612   0.469  11.375  0.3606  1.3867  1.6984
 1720SOL    HW216623   3.743   0.489  11.309 -0.9286  0.3958 -1.6550
 1721SOL     OW16624   0.480   1.840   8.921 -0.0624  0.0557  0.7231
 1721SOL    HW116625   0.538   1.859   8.995  0.2790  0.3757  0.3744
 1721SOL    HW216626   0.541   1.828   8.849 -1.6851 -5.3027  0.2910
 1722SOL     OW16627   3.373   1.071   1.152 -0.8181 -0.0363  0.6123
 1722SOL    HW116628   3.438   1.001   1.162 -2.1949 -1.5894 -1.2163
 1722SOL    HW216629   3.409   1.121   1.080  0.7182 -2.5485 -0.3689
 1723SOL     OW16630   4.471   3.159  11.313 -0.1091 -0.1238 -0.8479
 1723SOL    HW116631   4.445   3.239  11.267 -0.2307 -0.8697 -2.0642
 1723SOL    HW216632   4.563   3.162  11.286  0.9049  1.4875  2.7752
 1724SOL     OW16633   1.236   2.865   4.875  0.3004 -0.1160  0.1724
 1724SOL    HW116634   1.278   2.899   4.796 -1.0326 -1.4028 -1.0834
 1724SOL    HW216635   1.304   2.862   4.942  0.9788  2.1182 -0.4177
 1725SOL     OW16636   2.973   2.818   6.825 -0.2098  0.9925 -0.6224
 1725SOL    HW116637   3.047   2.836   6.883 -1.0291 -1.3248  1.1677
 1725SOL    HW216638   3.017   2.773   6.753 -1.8934  0.5671 -1.3806
 1726SOL     OW16639   4.024   1.873   6.636 -0.0869  0.3282  0.1476
 1726SOL    HW116640   4.106   1.923   6.632  1.8737 -2.9508 -0.8319
 1726SOL    HW216641   4.008   1.868   6.542 -0.9262 -1.3099  0.3704
 1727SOL     OW16642   1.814   3.180   4.367 -0.1426 -0.2090 -0.3299
 1727SOL    HW116643   1.806   3.141   4.454 -1.9245 -1.7797 -1.2224
 1727SOL    HW216644   1.899   3.223   4.378  1.1962 -2.6820 -1.0178
 1728SOL     OW16645   0.476   2.865  14.228 -0.1745 -0.3747  0.2566
 1728SOL    HW116646   0.424   2.924  14.172  1.5683 -0.3436 -1.3282
 1728SOL    HW216647   0.563   2.870  14.189 -0.6672  0.0237 -0.8007
 1729SOL     OW16648   4.561   4.046  16.732  0.0912 -0.3816  0.3568
 1729SOL    HW116649   4.587   3.993  16.808 -0.0126 -0.1428  0.5577
 1729SOL    HW216650   4.630   4.113  16.735  0.1750 -0.4720  0.4909
 1730SOL     OW16651   2.097   4.666  17.222 -0.4397  0.8535 -0.1274
 1730SOL    HW116652   2.099   0.019  17.167 -2.7653  0.7947 -0.2945
 1730SOL    HW216653   2.006   4.636  17.214 -0.2135  0.1342  0.0325
 1731SOL     OW16654   0.141   3.186   9.289 -0.1546  0.1389  0.4084
 1731SOL    HW116655   0.170   3.131   9.361 -0.4739  0.5943  0.8842
 1731SOL    HW216656   0.145   3.122   9.218 -1.6753 -0.1090  0.5350
 1732SOL     OW16657   0.001   2.606  12.057 -0.5341 -0.0690  0.1476
 1732SOL    HW116658   0.023   2.693  12.023 -0.8068  0.5710  1.5568
 1732SOL    HW216659   0.081   2.561  12.032 -0.6648  0.8290 -1.8673
 1733SOL     OW16660   2.284   0.375   8.570 -0.3294  0.7351 -0.0471
 1733SOL    HW116661   2.352   0.412   8.514  2.6597  0.5346  3.4296
 1733SOL    HW216662   2.277   0.456   8.622  0.1571 -0.1742  1.4382
 1734SOL     OW16663   1.972   3.166  12.675  0.2623 -0.0160  0.4747
 1734SOL    HW116664   1.908   3.234  12.694  1.2709  1.1505 -0.2886
 1734SOL    HW216665   2.039   3.227  12.645 -1.0139  1.0022 -0.2980
 1735SOL     OW16666   0.512   0.088  13.306  0.0452 -0.1856 -0.7507
 1735SOL    HW116667   0.494   0.001  13.343  1.9934  0.6460  2.1163
 1735SOL    HW216668   0.571   0.126  13.370  0.2018 -2.3472  0.3915
 1736SOL     OW16669   4.623   2.626   8.382 -0.3176  0.5698 -0.7324
 1736SOL    HW116670   4.712   2.660   8.390 -1.8154  3.7747  2.4141
 1736SOL    HW216671   4.566   2.698   8.409 -1.8250 -0.5593 -0.9331
 1737SOL     OW16672   2.720   2.689   1.478  0.0473  0.1320 -0.2569
 1737SOL    HW116673   2.631   2.714   1.454  0.1813 -0.8256 -1.7470
 1737SOL    HW216674   2.719   2.711   1.571  1.9200 -0.4343 -0.1117
 1738SOL     OW16675   1.398   1.414   5.026  0.8080  0.0126 -0.2837
 1738SOL    HW116676   1.373   1.451   4.941 -0.2770 -1.0001 -0.4058
 1738SOL    HW216677   1.352   1.474   5.084  0.0917 -1.9818  1.2003
 1739SOL     OW16678   3.000   2.953   7.768  0.6386 -0.6884 -0.3622
 1739SOL    HW116679   2.958   3.035   7.739  1.0229  0.0118  1.0715
 1739SOL    HW216680   3.093   2.974   7.759  0.7529 -0.8093  0.6010
 1740SOL     OW16681   0.188   1.158  13.073 -0.1093 -0.3137  0.7674
 1740SOL    HW116682   0.161   1.077  13.031 -1.7380  1.2541 -1.2090
 1740SOL    HW216683   0.173   1.232  13.014 -1.1632  0.6017  2.1574
 1741SOL     OW16684   3.526   3.177  16.027 -0.3030  0.1643 -0.2723
 1741SOL    HW116685   3.432   3.167  16.038 -0.5343  1.5446 -1.1050
 1741SOL    HW216686   3.538   3.221  16.112 -2.5136  1.4052 -0.6150
 1742SOL     OW16687   2.831   1.590  15.654 -0.0657 -0.3501 -0.1491
 1742SOL    HW116688   2.903   1.653  15.656 -0.2242 -0.1354 -1.5399
 1742SOL    HW216689   2.866   1.513  15.609 -0.2728 -0.1068 -0.7145
 1743SOL     OW16690   0.795   0.015   2.535  0.0244  0.7451  0.6047
 1743SOL    HW116691   0.712   0.030   2.489 -0.4246 -0.6798  0.9362
 1743SOL    HW216692   0.791   4.645   2.541  0.4211  0.6334 -1.0805
 1744SOL     OW16693   0.808   0.691   6.562  0.1676 -0.0039  0.5057
 1744SOL    HW116694   0.870   0.667   6.631  0.1389 -0.8746  0.2322
 1744SOL    HW216695   0.824   0.785   6.559 -2.0801  0.3618  0.2317
 1745SOL     OW16696   0.080   0.465  13.001  0.0612  0.2500 -0.1131
 1745SOL    HW116697   0.114   0.398  13.061 -1.7136  0.1241  0.7746
 1745SOL    HW216698   0.045   0.405  12.934 -0.4442 -0.2629  0.6035
 1746SOL     OW16699   2.290   3.474   5.993  0.6007 -0.7857 -0.2345
 1746SOL    HW116700   2.202   3.506   5.970  0.8368 -0.5501 -0.8114
 1746SOL    HW216701   2.280   3.491   6.087  0.6597 -1.5376 -0.0953
 1747SOL     OW16702   2.493   1.254   6.165 -0.0705 -0.0499 -0.0569
 1747SOL    HW116703   2.418   1.304   6.134  1.1310  2.6442  1.3112
 1747SOL    HW216704   2.558   1.323   6.178  1.0338 -1.2614  0.8789
 1748SOL     OW16705   1.254   3.704   3.198 -0.3841  0.0469  0.2749
 1748SOL    HW116706   1.232   3.631   3.140  2.9278 -1.1573  0.5573
 1748SOL    HW216707   1.183   3.698   3.262  2.5623  0.6043  3.6173
 1749SOL     OW16708   3.881   2.388   2.877  0.1478 -0.7397  0.0691
 1749SOL    HW116709   3.927   2.471   2.871 -0.8700 -0.1566  0.4656
 1749SOL    HW216710   3.827   2.396   2.798  0.9553 -1.5425 -0.5625
 1750SOL     OW16711   1.653   1.147   3.241  0.2313 -0.2134 -0.1049
 1750SOL    HW116712   1.630   1.180   3.154  3.3582  1.5993 -0.2375
 1750SOL    HW216713   1.648   1.054   3.219 -1.5674  0.2561 -1.7339
 1751SOL     OW16714   1.093   1.828   3.871 -0.5126  0.1411 -0.2970
 1751SOL    HW116715   1.126   1.866   3.789 -1.0717 -1.2951 -1.2078
 1751SOL    HW216716   1.125   1.739   3.852  2.4518  1.1873 -0.2600
 1752SOL     OW16717   3.654   1.994   6.351  0.0839 -0.3484 -0.2330
 1752SOL    HW116718   3.633   1.900   6.350 -1.3078 -0.0308 -1.1486
 1752SOL    HW216719   3.573   2.040   6.374  0.3120 -0.1790  0.2282
 1753SOL     OW16720   4.285   1.378   0.320 -0.6151 -0.0508  0.1980
 1753SOL    HW116721   4.316   1.358   0.409  1.1493 -2.5481 -0.9923
 1753SOL    HW216722   4.209   1.319   0.320  0.2501 -1.1176 -3.1504
 1754SOL     OW16723   3.101   2.176  11.793  0.1015  0.1044  0.3718
 1754SOL    HW116724   3.184   2.219  11.771  1.7333 -2.2531  1.8973
 1754SOL    HW216725   3.052   2.190  11.712  2.2519  0.4338 -0.8800
 1755SOL     OW16726   2.609   2.319   9.492  0.1843  0.1398 -0.1174
 1755SOL    HW116727   2.671   2.364   9.433 -1.5546 -1.6729 -3.3127
 1755SOL    HW216728   2.564   2.264   9.428  0.1991 -2.2325  1.9260
 1756SOL     OW16729   1.769   3.641   6.025 -0.2574 -0.1907 -0.3778
 1756SOL    HW116730   1.707   3.607   6.089 -0.1271  2.2229  0.9969
 1756SOL    HW216731   1.756   3.735   6.026 -2.2051 -0.4223 -3.4250
 1757SOL     OW16732   2.030   2.116   7.017 -0.0546 -0.0271 -0.0585
 1757SOL    HW116733   2.017   2.169   7.096  0.7917 -1.6949  1.2198
 1757SOL    HW216734   2.123   2.120   6.997 -0.0245 -0.5244 -0.0167
 1758SOL     OW16735   2.458   2.953   2.486  0.2706  0.1316 -0.1694
 1758SOL    HW116736   2.375   2.975   2.443 -0.3795 -1.2534  0.3931
 1758SOL    HW216737   2.436   2.888   2.553 -0.1943  0.4523 -0.0127
 1759SOL     OW16738   3.678   3.613   8.229  0.2759 -0.0673 -0.0343
 1759SOL    HW116739   3.724   3.693   8.257  0.3763  0.5309 -1.8892
 1759SOL    HW216740   3.618   3.597   8.301  1.1822  2.8144  1.3886
 1760SOL     OW16741   3.663   2.414   1.942  0.3640  0.1859  0.4180
 1760SOL    HW116742   3.588   2.432   1.885  1.0210 -2.7236 -1.3775
 1760SOL    HW216743   3.625   2.350   2.002 -1.3884  1.2598  0.4415
 1761SOL     OW16744   1.003   3.486  13.443 -0.0619  0.2278  0.3340
 1761SOL    HW116745   1.025   3.408  13.494  0.4764 -1.1429 -1.9912
 1761SOL    HW216746   1.069   3.549  13.473 -0.1982  1.8413 -2.7799
 1762SOL     OW16747   3.528   3.487   5.672 -0.4956  0.1271  0.1237
 1762SOL    HW116748   3.527   3.446   5.759 -0.2238 -1.9634 -0.8374
 1762SOL    HW216749   3.494   3.569   5.707 -2.9061 -2.2877  3.3974
 1763SOL     OW16750   2.846   0.478   4.705  0.2617  0.0254 -0.2632
 1763SOL    HW116751   2.823   0.395   4.748  0.7526 -0.3532 -0.7356
 1763SOL    HW216752   2.768   0.528   4.730  0.5867  0.4804 -0.1736
 1764SOL     OW16753   1.092   3.903   2.934 -0.2163  0.2550 -0.2093
 1764SOL    HW116754   1.034   3.978   2.930 -1.8454 -1.0056 -0.4208
 1764SOL    HW216755   1.127   3.894   2.845 -0.3280  1.6706 -0.3971
 1765SOL     OW16756   3.632   0.710   4.710  0.1608 -0.8709  0.4423
 1765SOL    HW116757   3.685   0.705   4.789  0.9103  1.5761  0.1014
 1765SOL    HW216758   3.585   0.627   4.706 -0.5186 -0.4742  0.1518
 1766SOL     OW16759   1.496   3.970   2.914  0.4011 -0.7252  0.0588
 1766SOL    HW116760   1.428   3.939   2.974 -0.4343  1.3691  0.1831
 1766SOL    HW216761   1.441   3.959   2.836  1.2746 -0.5210 -0.5875
 1767SOL     OW16762   0.906   4.256   3.480  0.3342 -0.2440 -0.1442
 1767SOL    HW116763   0.899   4.259   3.384 -0.8223  1.1903 -0.0273
 1767SOL    HW216764   0.814   4.235   3.500  1.0096 -2.5642  0.4218
 1768SOL     OW16765   3.483   2.895   6.345 -0.7247  0.0766 -0.3010
 1768SOL    HW116766   3.565   2.940   6.326 -0.6258 -0.4409 -1.0924
 1768SOL    HW216767   3.431   2.921   6.269 -0.5247  0.7849 -0.2035
 1769SOL     OW16768   0.046   0.786  11.790  0.3320  0.1068  0.4296
 1769SOL    HW116769   4.718   0.710  11.765  0.1806  0.2864  0.2108
 1769SOL    HW216770   0.032   0.839  11.711 -0.5268 -0.5850  0.1183
 1770SOL     OW16771   1.531   3.420   9.102 -0.6931 -0.1022 -0.2115
 1770SOL    HW116772   1.569   3.333   9.086  1.5490  0.4558  1.9797
 1770SOL    HW216773   1.576   3.437   9.185  1.6558  1.2641 -1.7668
 1771SOL     OW16774   4.093   1.390  14.359  0.8358 -0.2239  0.3406
 1771SOL    HW116775   4.087   1.480  14.328 -1.8028  0.0490  1.6058
 1771SOL    HW216776   3.998   1.375  14.359  1.0113 -1.2213 -2.0336
 1772SOL     OW16777   4.377   0.942   3.180  0.1173  0.2925 -0.1979
 1772SOL    HW116778   4.454   0.884   3.183 -1.4242 -1.8711 -2.1659
 1772SOL    HW216779   4.380   0.971   3.271 -3.6770 -2.2985  0.7298
 1773SOL     OW16780   1.420   4.164   5.063 -0.8865  0.2837  0.2652
 1773SOL    HW116781   1.417   4.136   4.972  1.6011 -0.1610  0.3135
 1773SOL    HW216782   1.376   4.248   5.057 -0.3055  0.5074 -0.9050
 1774SOL     OW16783   2.777   1.810   3.031  0.0221 -0.1228  0.1898
 1774SOL    HW116784   2.871   1.802   3.013  0.0721  0.3399  0.2335
 1774SOL    HW216785   2.753   1.886   2.977  0.6061  1.2344  1.8296
 1775SOL     OW16786   1.886   0.623  15.107 -0.2649  0.4828  0.1531
 1775SOL    HW116787   1.962   0.567  15.093 -1.0768 -0.1930 -1.5908
 1775SOL    HW216788   1.926   0.691  15.162 -1.9442  2.2571 -0.8119
 1776SOL     OW16789   2.116   0.515   3.985 -0.6767  0.4419 -0.2642
 1776SOL    HW116790   2.047   0.466   4.029 -0.7090 -0.6132 -1.5110
 1776SOL    HW216791   2.153   0.575   4.050 -1.7306  0.1582  0.5942
 1777SOL     OW16792   0.946   0.265  11.908 -0.2338  0.2338 -0.5239
 1777SOL    HW116793   0.892   0.315  11.970 -0.0144  1.0301 -0.9700
 1777SOL    HW216794   0.997   0.207  11.965  0.4122  0.6794 -0.6546
 1778SOL     OW16795   1.346   4.615   3.334  0.7581  0.6235  0.1785
 1778SOL    HW116796   1.327   4.522   3.337 -0.1923  0.8953  3.0135
 1778SOL    HW216797   1.257   4.650   3.332  0.4305 -0.1927  0.4802
 1779SOL     OW16798   1.342   0.755  12.925  0.9316 -0.3178 -0.2048
 1779SOL    HW116799   1.250   0.734  12.940  0.5737  1.3117 -0.1246
 1779SOL    HW216800   1.348   0.747  12.830  2.2337  1.2324 -0.2560
 1780SOL     OW16801   1.770   4.328   7.399  0.2257 -0.0907  0.4713
 1780SOL    HW116802   1.764   4.317   7.494  0.1469  0.9764  0.5855
 1780SOL    HW216803   1.678   4.344   7.376  0.1266  0.3527  1.1866
 1781SOL     OW16804   2.606   0.599  14.479  0.5571  0.3328 -0.1979
 1781SOL    HW116805   2.649   0.581  14.395 -2.5701  0.0238 -1.7039
 1781SOL    HW216806   2.571   0.513  14.504 -0.1289  1.5291  3.0072
 1782SOL     OW16807   2.915   3.246   0.936  0.4975  0.0161  0.7754
 1782SOL    HW116808   3.010   3.247   0.928  0.7196  0.1912  3.2929
 1782SOL    HW216809   2.905   3.328   0.985 -0.6045  0.3508 -0.0041
 1783SOL     OW16810   1.611   4.077   1.962 -0.0928 -0.4995  0.0150
 1783SOL    HW116811   1.627   4.061   1.868  2.4882  1.5590  0.1008
 1783SOL    HW216812   1.681   4.142   1.975 -0.5991  0.1923 -0.7460
 1784SOL     OW16813   1.301   3.672   7.924  0.6827 -0.0625  0.5590
 1784SOL    HW116814   1.227   3.623   7.960 -1.1035  0.9366 -1.7695
 1784SOL    HW216815   1.365   3.652   7.992  0.8391  0.9208  0.7076
 1785SOL     OW16816   0.804   1.580   7.950 -0.6179 -0.0235 -0.8470
 1785SOL    HW116817   0.797   1.494   7.908  1.9450  0.4326 -2.2415
 1785SOL    HW216818   0.732   1.625   7.906  1.0074  1.3354 -2.1244
 1786SOL     OW16819   4.634   4.644   1.105 -0.2382  0.0734  0.2890
 1786SOL    HW116820   4.698   4.683   1.045 -0.9216  1.1819  0.2771
 1786SOL    HW216821   4.680   4.647   1.189 -0.5526  0.8004  0.4318
 1787SOL     OW16822   2.651   3.538   1.758  0.0999  0.3410  0.0955
 1787SOL    HW116823   2.738   3.575   1.742  0.1282 -0.8496 -2.5973
 1787SOL    HW216824   2.636   3.502   1.670 -0.5615  2.4937 -0.6691
 1788SOL     OW16825   4.193   4.600   8.902 -0.3606  0.6514 -0.4520
 1788SOL    HW116826   4.254   4.600   8.976 -0.9713 -0.1996  0.0519
 1788SOL    HW216827   4.153   4.515   8.918  1.6662 -0.6442 -2.3037
 1789SOL     OW16828   0.830   2.559   6.471 -0.6682 -0.1526 -0.2990
 1789SOL    HW116829   0.906   2.544   6.414 -3.2500 -0.4263 -3.6895
 1789SOL    HW216830   0.787   2.474   6.483 -2.0712  0.7758  1.2454
 1790SOL     OW16831   4.417   0.373   5.971 -0.1909 -0.1238  0.0396
 1790SOL    HW116832   4.460   0.455   5.996 -0.3259 -0.0299 -0.0405
 1790SOL    HW216833   4.325   0.379   5.994 -0.1339 -0.9853  0.4887
 1791SOL     OW16834   1.967   0.590   1.943  0.1219  0.7239 -0.1726
 1791SOL    HW116835   2.029   0.519   1.930 -0.5953  0.2580 -0.9958
 1791SOL    HW216836   1.991   0.595   2.036  1.0463 -1.1960 -0.3112
 1792SOL     OW16837   2.396   3.373   1.303  0.2713  0.5832  0.1720
 1792SOL    HW116838   2.384   3.384   1.397 -0.5431 -0.9498  0.2509
 1792SOL    HW216839   2.405   3.466   1.283  1.0008  0.2241 -1.1759
 1793SOL     OW16840   0.872   1.915  14.454  0.3737  0.5462 -0.0853
 1793SOL    HW116841   0.927   1.886  14.382 -1.5005  0.6052 -1.5167
 1793SOL    HW216842   0.810   1.975  14.413  2.0771  1.4732 -1.2729
 1794SOL     OW16843   2.087   2.976   5.604  0.7036 -0.1108  0.2072
 1794SOL    HW116844   2.167   2.926   5.586  0.8097 -1.4875  4.4280
 1794SOL    HW216845   2.125   3.064   5.605 -0.7794  0.5410 -2.0597
 1795SOL     OW16846   1.922   3.145   2.378  0.1053  0.3193  0.2482
 1795SOL    HW116847   1.849   3.155   2.439 -0.2282  0.5945 -0.1924
 1795SOL    HW216848   1.886   3.069   2.331 -0.4316  0.0089  1.1489
 1796SOL     OW16849   1.859   2.010   8.814  0.3648  0.1720 -0.4799
 1796SOL    HW116850   1.905   2.003   8.897 -1.5986  1.2619  0.6879
 1796SOL    HW216851   1.934   1.981   8.761 -0.2671 -0.8586 -0.8272
 1797SOL     OW16852   3.580   0.016   0.828 -0.2935  0.6321  0.2122
 1797SOL    HW116853   3.625   4.672   0.779 -1.0148  1.9644 -2.2566
 1797SOL    HW216854   3.556   0.071   0.754  0.9101  0.5050 -0.2800
 1798SOL     OW16855   3.774   3.704   4.233  0.1294 -0.6950  0.5183
 1798SOL    HW116856   3.843   3.769   4.244  0.2005 -0.7336  0.2933
 1798SOL    HW216857   3.699   3.763   4.221  2.2828  1.5488 -1.8952
 1799SOL     OW16858   4.623   3.103   5.778  0.4390  0.3086 -0.6525
 1799SOL    HW116859   4.602   3.062   5.862  0.9688 -0.9900 -1.1422
 1799SOL    HW216860   4.559   3.054   5.727  0.6769  0.2507 -0.8932
 1800SOL     OW16861   2.083   4.569   8.614  0.1583 -0.0519 -0.2407
 1800SOL    HW116862   2.063   4.487   8.568  0.3091  1.0106 -2.1832
 1800SOL    HW216863   2.001   4.580   8.662  0.5470 -0.8645  0.6137
 1801SOL     OW16864   3.465   0.483   4.021 -0.5709  0.2612  0.2059
 1801SOL    HW116865   3.533   0.542   4.051 -0.0015  1.0683 -2.6925
 1801SOL    HW216866   3.460   0.419   4.092 -1.3976  1.7947  1.5160
 1802SOL     OW16867   0.050   4.273   0.489 -0.3310 -0.5563  0.0747
 1802SOL    HW116868   0.027   4.280   0.582 -0.3139  1.5750 -0.0705
 1802SOL    HW216869   0.144   4.270   0.502 -0.3616 -1.1914  0.1497
 1803SOL     OW16870   1.012   2.242   3.870 -0.4933  0.8538 -0.5799
 1803SOL    HW116871   1.058   2.272   3.792  1.0394  1.2351  0.4678
 1803SOL    HW216872   0.979   2.163   3.827 -0.8241  0.6650  0.0199
 1804SOL     OW16873   2.974   2.455   4.945 -0.0098  0.1364  0.3760
 1804SOL    HW116874   2.901   2.422   4.892 -0.6394  1.4292  0.4543
 1804SOL    HW216875   3.000   2.373   4.986 -1.3098  0.7340  2.3706
 1805SOL     OW16876   3.621   0.598   5.861  0.4263  0.0763  0.7289
 1805SOL    HW116877   3.626   0.636   5.773 -3.5825  2.7560  1.6852
 1805SOL    HW216878   3.581   0.512   5.847  0.7410  0.2587 -1.3694
 1806SOL     OW16879   0.263   4.351   1.639  0.0486 -0.3265  0.2377
 1806SOL    HW116880   0.272   4.426   1.698 -1.8663 -0.0184  0.1398
 1806SOL    HW216881   0.288   4.388   1.554  1.1353 -2.9881 -0.5978
 1807SOL     OW16882   2.046   2.552   3.565 -0.3488  0.7072  0.1742
 1807SOL    HW116883   2.127   2.565   3.615  2.1870  0.1193 -3.7824
 1807SOL    HW216884   1.993   2.484   3.606  2.1687 -1.4676 -0.1964
 1808SOL     OW16885   3.365   1.776  15.988  0.2149  0.3718 -0.3127
 1808SOL    HW116886   3.380   1.845  16.053 -0.1238  0.5122 -0.3849
 1808SOL    HW216887   3.318   1.707  16.035  3.7277  0.6125  3.5345
 1809SOL     OW16888   3.545   2.099   7.532 -0.3273  0.0169 -0.3840
 1809SOL    HW116889   3.585   2.049   7.461  1.7195  1.3257 -0.1429
 1809SOL    HW216890   3.486   2.028   7.560 -2.0196  1.1350 -1.1644
 1810SOL     OW16891   2.556   1.690   2.492 -0.4061  0.2420 -0.2507
 1810SOL    HW116892   2.590   1.779   2.492 -0.0967  0.1190 -1.5877
 1810SOL    HW216893   2.581   1.670   2.582 -1.4531  1.5776  0.3359
 1811SOL     OW16894   2.988   2.291   5.345  0.3625 -0.2890  0.1103
 1811SOL    HW116895   3.000   2.386   5.340 -1.1614 -0.1864 -1.8289
 1811SOL    HW216896   3.024   2.276   5.433 -1.1754  1.0558  0.9580
 1812SOL     OW16897   3.227   2.724  10.821  0.8575  0.0865 -0.6142
 1812SOL    HW116898   3.201   2.784  10.750  1.0587  0.1834 -0.6060
 1812SOL    HW216899   3.207   2.771  10.901  1.3526  0.4841 -0.7243
 1813SOL     OW16900   4.652   2.790   8.855 -0.2309 -0.4393  0.2495
 1813SOL    HW116901   4.694   2.818   8.937  0.2441  0.1439 -0.1867
 1813SOL    HW216902   4.626   2.876   8.824  1.5892  0.1941  0.4377
 1814SOL     OW16903   0.427   0.111  13.835 -0.1598  0.4721  0.2092
 1814SOL    HW116904   0.416   0.181  13.770  1.4381  0.5741  0.0401
 1814SOL    HW216905   0.479   0.054  13.779 -0.6149  0.5074 -0.2505
 1815SOL     OW16906   0.266   4.108  14.002 -0.7510 -0.3837  0.0443
 1815SOL    HW116907   0.346   4.059  13.984  0.2762  1.4353 -0.3657
 1815SOL    HW216908   0.278   4.177  13.936 -2.8145  0.1960  0.2724
 1816SOL     OW16909   0.293   0.031   9.243  0.1330 -0.6726 -0.0466
 1816SOL    HW116910   0.201   0.051   9.228 -0.4035 -1.6715  1.8267
 1816SOL    HW216911   0.275   0.003   9.333 -0.6047  1.6605  0.5338
 1817SOL     OW16912   0.495   0.622   7.574  0.1861  0.4856  0.2944
 1817SOL    HW116913   0.449   0.540   7.555  1.4031 -0.0921 -0.1213
 1817SOL    HW216914   0.494   0.620   7.669  0.0055 -0.2706  0.2741
 1818SOL     OW16915   3.099   0.514  12.517 -0.4335 -0.0564  0.3293
 1818SOL    HW116916   3.015   0.559  12.526  0.5898  2.4512 -2.8142
 1818SOL    HW216917   3.086   0.435  12.464  0.6356 -0.0623  0.0724
 1819SOL     OW16918   0.190   2.525   3.644 -1.1703  0.1164  0.8356
 1819SOL    HW116919   0.135   2.516   3.721  0.1007 -0.1740  1.7078
 1819SOL    HW216920   0.276   2.503   3.679  0.1446  3.1506 -0.4691
 1820SOL     OW16921   4.572   3.941  11.173 -0.2060 -0.0065  0.4814
 1820SOL    HW116922   4.534   3.903  11.094  0.7722  0.0264  0.0085
 1820SOL    HW216923   4.494   3.988  11.203  0.1596  1.4008 -0.7968
 1821SOL     OW16924   1.527   1.154   8.072  0.8990 -0.4832 -0.1505
 1821SOL    HW116925   1.567   1.189   8.152 -0.5465  0.0971  0.3129
 1821SOL    HW216926   1.458   1.219   8.059  0.6638 -0.9016 -0.9965
 1822SOL     OW16927   1.801   0.129   1.412 -0.2810 -0.3556 -0.5511
 1822SOL    HW116928   1.712   0.137   1.378 -0.6843 -1.7292  0.1819
 1822SOL    HW216929   1.825   0.041   1.383 -0.4814 -0.4786 -0.3422
 1823SOL     OW16930   2.092   3.222   4.320 -0.5336 -0.7021  0.1644
 1823SOL    HW116931   2.159   3.244   4.385 -0.0274 -0.4930 -0.4296
 1823SOL    HW216932   2.146   3.247   4.245 -0.2272 -1.5292  0.1160
 1824SOL     OW16933   4.635   4.437  17.305  0.4458  0.3645 -0.1169
 1824SOL    HW116934   4.678   4.484  17.376  1.3085 -0.3653 -0.1474
 1824SOL    HW216935   4.686   4.476  17.234  0.5951 -0.7101 -0.6089
 1825SOL     OW16936   3.847   3.625   2.830 -0.1901 -0.1432 -0.1832
 1825SOL    HW116937   3.932   3.630   2.786  0.1127 -1.1617  0.2836
 1825SOL    HW216938   3.785   3.675   2.777  1.8190  2.3303 -0.1968
 1826SOL     OW16939   0.096   1.600   5.954  0.2747 -0.2445 -0.1141
 1826SOL    HW116940   0.060   1.535   6.015 -1.2400  0.9364  0.2697
 1826SOL    HW216941   0.050   1.580   5.873  1.1030  0.6235 -0.7939
 1827SOL     OW16942   1.013   4.032  16.950  0.7757  0.0706 -0.0098
 1827SOL    HW116943   1.062   3.989  16.880 -0.8247 -1.2177 -0.3466
 1827SOL    HW216944   0.924   4.026  16.914  1.2066 -3.2217 -0.5206
 1828SOL     OW16945   2.655   4.256   2.711  0.0863  0.1501  0.2835
 1828SOL    HW116946   2.648   4.252   2.806  0.7429 -1.6335  0.2679
 1828SOL    HW216947   2.624   4.167   2.693 -1.8700  0.6370  1.3288
 1829SOL     OW16948   0.382   2.616   1.996 -0.4530 -0.0859 -0.2913
 1829SOL    HW116949   0.473   2.586   2.003 -0.4160 -0.0544 -0.6690
 1829SOL    HW216950   0.408   2.700   1.958  1.1675 -0.8527 -0.8714
 1830SOL     OW16951   0.225   1.067   2.740  0.0614 -0.2233  0.5027
 1830SOL    HW116952   0.167   1.141   2.756  1.7688  0.8290  1.8210
 1830SOL    HW216953   0.161   1.015   2.692  1.6790 -0.8949 -0.9416
 1831SOL     OW16954   1.881   3.986   5.040  0.2976 -0.2162  0.4946
 1831SOL    HW116955   1.806   3.999   4.983  2.4806  0.8232 -2.1252
 1831SOL    HW216956   1.843   4.012   5.124  2.8769  0.3402  1.4993
 1832SOL     OW16957   1.743   0.688   1.803 -0.4167  0.1168  0.5445
 1832SOL    HW116958   1.712   0.770   1.841  0.0571 -0.0719  1.3416
 1832SOL    HW216959   1.820   0.681   1.860 -0.5358  0.3830  0.7356
 1833SOL     OW16960   3.885   1.213   8.992  0.4879 -0.1842 -0.6583
 1833SOL    HW116961   3.819   1.148   9.012  2.7894 -2.6453 -1.0571
 1833SOL    HW216962   3.960   1.162   8.961  1.0350  2.6300 -4.0869
 1834SOL     OW16963   1.050   4.544   0.625 -0.0958 -0.2985  0.5110
 1834SOL    HW116964   1.092   4.546   0.540  0.7570 -0.0187  0.9473
 1834SOL    HW216965   1.099   4.480   0.676 -0.6074  0.6368  2.1812
 1835SOL     OW16966   0.030   0.764  14.298 -0.7052  0.0473  0.1031
 1835SOL    HW116967   4.693   0.807  14.239  0.1939  1.1881 -0.0234
 1835SOL    HW216968   0.073   0.846  14.324 -2.1185  0.7945  0.1135
 1836SOL     OW16969   0.766   3.091   0.024  0.1012  0.0069 -0.3622
 1836SOL    HW116970   0.843   3.070   0.078 -0.4330  0.2191  0.4802
 1836SOL    HW216971   0.706   3.025   0.060  0.4024 -0.3099 -0.4350
 1837SOL     OW16972   1.989   1.899  10.818  0.6037  0.0772 -0.5097
 1837SOL    HW116973   2.076   1.915  10.780 -0.0008  0.6475 -1.6398
 1837SOL    HW216974   2.005   1.928  10.908  1.6299  0.1740 -0.7261
 1838SOL     OW16975   3.112   3.514   0.637  0.2322 -0.5096 -0.0756
 1838SOL    HW116976   3.112   3.419   0.646 -1.1451 -0.5202 -0.1788
 1838SOL    HW216977   3.116   3.546   0.727 -4.2093  1.0419 -0.4037
 1839SOL     OW16978   4.039   4.384   5.653 -0.1722  0.1001  0.0698
 1839SOL    HW116979   4.023   4.383   5.747  0.6836  1.1343  0.2240
 1839SOL    HW216980   4.082   4.302   5.630 -0.0962  0.2462 -0.3271
 1840SOL     OW16981   0.359   1.520   4.238  0.8071  0.8846  0.4217
 1840SOL    HW116982   0.432   1.462   4.262  1.8252  2.2384  0.5976
 1840SOL    HW216983   0.388   1.601   4.280  1.9134 -0.1429  1.6367
 1841SOL     OW16984   0.478   0.482   0.604 -0.5219 -0.1518  0.0726
 1841SOL    HW116985   0.532   0.538   0.660 -0.3620  0.6042 -0.8314
 1841SOL    HW216986   0.484   0.399   0.651 -2.5103 -0.8092 -0.8236
 1842SOL     OW16987   0.624   2.430   3.078  0.4540  0.8959 -0.1508
 1842SOL    HW116988   0.710   2.410   3.042  0.5365  1.2306 -0.1380
 1842SOL    HW216989   0.635   2.409   3.171 -0.3451  1.3761  0.0526
 1843SOL     OW16990   0.350   1.413   5.855 -0.0232  0.6238  0.2263
 1843SOL    HW116991   0.290   1.372   5.793 -1.4292  2.0144  0.6801
 1843SOL    HW216992   0.350   1.499   5.814 -1.4340  0.1605 -0.7674
 1844SOL     OW16993   4.172   3.512   1.595 -0.1308  0.2644 -0.3411
 1844SOL    HW116994   4.267   3.517   1.582  0.3088 -0.3348  2.6259
 1844SOL    HW216995   4.140   3.512   1.505 -0.6946 -1.0037 -0.1365
 1845SOL     OW16996   1.484   3.316   3.590 -0.3368  0.0908 -0.6434
 1845SOL    HW116997   1.509   3.372   3.664 -1.4002  0.1012 -0.2783
 1845SOL    HW216998   1.443   3.241   3.633 -1.5362  1.1284  0.0323
 1846SOL     OW16999   2.391   4.339   5.485 -0.1323  0.2353 -0.1239
 1846SOL    HW117000   2.324   4.396   5.523 -1.9246 -0.5651 -2.0962
 1846SOL    HW217001   2.443   4.316   5.562  0.4007 -0.9573 -0.8351
 1847SOL     OW17002   2.467   0.320   0.060 -0.0398 -0.0572  0.0484
 1847SOL    HW117003   2.435   0.298   0.148 -3.3007 -0.9120 -1.3880
 1847SOL    HW217004   2.383   0.318   0.016  0.1700 -0.3016 -0.3364
 1848SOL     OW17005   3.126   1.252   2.554  0.0842 -0.3566  0.0481
 1848SOL    HW117006   3.176   1.320   2.509  0.8557 -0.9514  0.0206
 1848SOL    HW217007   3.092   1.204   2.478 -1.8760  0.3909  0.4343
 1849SOL     OW17008   1.286   4.283  12.012 -0.0153  0.6361  0.4425
 1849SOL    HW117009   1.285   4.231  12.092 -0.6015  0.0458  0.0640
 1849SOL    HW217010   1.338   4.358  12.039  2.2483 -0.6063 -0.4587
 1850SOL     OW17011   0.034   2.437   7.970  0.3514 -0.7785 -0.0207
 1850SOL    HW117012   0.114   2.479   8.000 -0.0124  0.3366 -0.6293
 1850SOL    HW217013   4.700   2.448   8.044  0.7547  0.0945  0.1655
 1851SOL     OW17014   1.087   1.714   4.867  1.3107 -0.2378  0.1503
 1851SOL    HW117015   1.016   1.727   4.803  1.6121  1.1985  0.1050
 1851SOL    HW217016   1.126   1.802   4.868 -2.5084  1.5162 -2.5587
 1852SOL     OW17017   4.312   2.590   4.097 -0.1986 -0.5852 -0.2109
 1852SOL    HW117018   4.269   2.518   4.144 -0.6330 -1.0409 -1.2915
 1852SOL    HW217019   4.407   2.582   4.101 -0.2521 -1.1866 -0.1259
 1853SOL     OW17020   3.568   1.294   6.986 -0.1939 -0.4992 -0.1270
 1853SOL    HW117021   3.627   1.242   6.932  1.5744  2.7119 -1.2040
 1853SOL    HW217022   3.580   1.269   7.078 -0.3411  5.0011  1.3862
 1854SOL     OW17023   2.474   0.326   3.179  0.0094 -0.5435 -0.0442
 1854SOL    HW117024   2.392   0.362   3.146  0.6660 -1.1474 -2.2971
 1854SOL    HW217025   2.470   0.245   3.129 -2.4406 -0.2630 -0.2952
 1855SOL     OW17026   4.487   4.140   5.522  0.0966  0.3164  0.1212
 1855SOL    HW117027   4.547   4.127   5.449  0.5371 -1.3774  0.7777
 1855SOL    HW217028   4.408   4.108   5.478  0.5024  3.0490 -2.5259
 1856SOL     OW17029   2.477   2.133   2.979 -0.0271 -0.2432 -0.3305
 1856SOL    HW117030   2.434   2.182   2.909 -2.1694  0.9266  1.7921
 1856SOL    HW217031   2.437   2.048   2.958 -2.1536  0.5382  0.5915
 1857SOL     OW17032   0.125   3.940  12.828 -0.7983 -0.2793  0.1319
 1857SOL    HW117033   0.140   3.999  12.902  2.2219 -1.0849  0.1417
 1857SOL    HW217034   0.120   3.854  12.870  1.1031 -0.8223 -0.7739
 1858SOL     OW17035   2.505   2.722   1.198 -0.4354  0.3729 -0.3879
 1858SOL    HW117036   2.496   2.755   1.287 -0.4238 -0.3655 -0.1134
 1858SOL    HW217037   2.463   2.794   1.152  2.1466  0.9710 -1.8294
 1859SOL     OW17038   0.104   1.499   8.827 -0.7504 -0.5003  0.7427
 1859SOL    HW117039   0.049   1.451   8.765  2.7230 -0.8411 -2.0624
 1859SOL    HW217040   0.125   1.424   8.883 -1.8793 -1.3741  0.0172
 1860SOL     OW17041   4.612   1.845   6.469 -0.3706 -0.0859 -0.1298
 1860SOL    HW117042   4.550   1.790   6.517 -0.7827  1.1487  0.7710
 1860SOL    HW217043   4.683   1.783   6.455 -0.5710  0.0057 -1.5188
 1861SOL     OW17044   0.084   0.713   1.880  0.2901  0.6050  0.6245
 1861SOL    HW117045   0.151   0.696   1.814 -0.7508 -1.4004  0.0908
 1861SOL    HW217046   0.021   0.761   1.825  0.9022  4.1709  3.0930
 1862SOL     OW17047   1.760   4.355   4.063  0.0053  0.0361 -0.5353
 1862SOL    HW117048   1.838   4.359   4.119  1.7957  0.9784 -3.1202
 1862SOL    HW217049   1.776   4.404   3.983  2.8140 -0.5241 -0.2982
 1863SOL     OW17050   2.033   2.222   8.646 -0.7659  0.2880  0.2959
 1863SOL    HW117051   1.994   2.182   8.723 -2.3796 -0.0266 -0.6733
 1863SOL    HW217052   1.963   2.199   8.584  0.4800 -2.4448 -0.1033
 1864SOL     OW17053   1.533   1.667   5.372  0.1909  0.1987  0.2493
 1864SOL    HW117054   1.494   1.729   5.434 -2.5414 -0.9389 -0.2918
 1864SOL    HW217055   1.600   1.634   5.431 -0.2090  1.1499  1.2244
 1865SOL     OW17056   3.502   1.210   3.923 -0.3008 -0.3438 -0.0928
 1865SOL    HW117057   3.443   1.222   3.849  0.5909 -1.6498 -1.0083
 1865SOL    HW217058   3.571   1.166   3.874  2.4928  2.0068  1.7944
 1866SOL     OW17059   1.208   3.465   4.329 -0.2631  0.1484  0.1730
 1866SOL    HW117060   1.281   3.477   4.269 -1.1858  0.0047 -0.9646
 1866SOL    HW217061   1.165   3.542   4.292  0.2442  0.7663  0.8608
 1867SOL     OW17062   3.077   4.613   1.597  0.5312 -0.1488 -0.3058
 1867SOL    HW117063   3.057   4.652   1.682 -2.6256  0.9785 -1.5801
 1867SOL    HW217064   3.157   4.562   1.614  0.1812 -1.1240 -1.5470
 1868SOL     OW17065   2.476   2.581   2.533 -0.1952  0.9840  0.3187
 1868SOL    HW117066   2.538   2.653   2.519  0.7429  0.5276  2.0819
 1868SOL    HW217067   2.405   2.626   2.580  0.0380  1.4859  0.1928
 1869SOL     OW17068   2.283   3.614   2.757  0.7263 -0.2801  0.1110
 1869SOL    HW117069   2.299   3.568   2.675  1.1127 -2.2254  1.2954
 1869SOL    HW217070   2.247   3.544   2.811 -1.3423  0.9533  0.3296
 1870SOL     OW17071   3.837   1.241   6.409 -0.1133 -0.1042  0.1083
 1870SOL    HW117072   3.884   1.169   6.451  1.0103  1.5793  1.7238
 1870SOL    HW217073   3.809   1.196   6.329 -0.5043 -0.1756  0.2866
 1871SOL     OW17074   1.244   2.132  11.621 -0.2764  0.3954 -0.0220
 1871SOL    HW117075   1.222   2.062  11.683 -0.8880  0.2696 -0.3850
 1871SOL    HW217076   1.289   2.194  11.679 -0.3707  0.2268  0.2325
 1872SOL     OW17077   1.109   3.502  12.141  0.1933 -0.2922 -0.7793
 1872SOL    HW117078   1.026   3.461  12.114  0.5391 -1.0405 -0.7271
 1872SOL    HW217079   1.111   3.463  12.229 -0.5838 -0.4551 -0.8296
 1873SOL     OW17080   4.612   4.370   0.299 -0.5670 -0.1544  0.5179
 1873SOL    HW117081   4.590   4.461   0.317 -1.5768 -0.4421  0.7153
 1873SOL    HW217082   4.667   4.346   0.374  1.5998  1.6185 -0.4903
 1874SOL     OW17083   3.375   1.708   0.718  0.6086 -0.3060  0.4176
 1874SOL    HW117084   3.371   1.717   0.623 -1.7565  0.0358  0.5438
 1874SOL    HW217085   3.326   1.788   0.738  0.0126 -0.3994 -0.6673
 1875SOL     OW17086   2.971   1.103   0.639  0.2199 -0.3265  0.0206
 1875SOL    HW117087   3.005   1.086   0.552 -0.3008 -1.0776 -0.0380
 1875SOL    HW217088   3.056   1.124   0.679  0.3652 -1.0656  0.0923
 1876SOL     OW17089   2.656   2.245  13.737 -0.4370 -0.4344  0.1806
 1876SOL    HW117090   2.651   2.339  13.718  0.9166 -0.3669  0.1521
 1876SOL    HW217091   2.737   2.223  13.689 -0.9458  1.4910 -1.5822
 1877SOL     OW17092   2.148   4.126   8.444  0.2361  0.2178 -0.1449
 1877SOL    HW117093   2.205   4.202   8.437 -0.7665  0.9532 -0.2911
 1877SOL    HW217094   2.205   4.053   8.419 -0.3785  0.1295 -1.3028
 1878SOL     OW17095   1.883   0.982  17.557  0.2019  0.4930 -0.0359
 1878SOL    HW117096   1.886   0.952  17.648  0.1293 -0.0388 -0.2082
 1878SOL    HW217097   1.873   1.075  17.577 -1.1130  0.4982 -0.7161
 1879SOL     OW17098   4.215   4.220   6.140 -0.4803  0.7396 -0.2098
 1879SOL    HW117099   4.126   4.203   6.110 -0.2577  1.2787 -1.1632
 1879SOL    HW217100   4.245   4.259   6.058  0.1560 -0.4035 -0.5235
 1880SOL     OW17101   3.142   2.623  15.390  0.1460  0.8194  0.3396
 1880SOL    HW117102   3.098   2.707  15.381 -2.4923 -0.4304  1.7268
 1880SOL    HW217103   3.227   2.646  15.351 -0.9562  1.2410 -1.7718
 1881SOL     OW17104   0.883   1.792   4.698 -0.1470  0.3309  0.9285
 1881SOL    HW117105   0.898   1.763   4.608  1.1097 -0.5104  1.4033
 1881SOL    HW217106   0.807   1.740   4.723  0.3440 -0.0784  1.5816
 1882SOL     OW17107   2.314   3.252   5.841  0.2325 -0.1347  0.4637
 1882SOL    HW117108   2.243   3.208   5.886  1.1060 -0.9275  1.0675
 1882SOL    HW217109   2.330   3.320   5.907  0.3689  0.6062 -0.3238
 1883SOL     OW17110   4.115   1.986   7.891 -0.4304 -0.1881 -0.0397
 1883SOL    HW117111   4.200   2.020   7.919 -0.7990  0.9652 -0.2885
 1883SOL    HW217112   4.060   2.003   7.967  0.7401 -2.3224  1.2845
 1884SOL     OW17113   1.336   1.874   0.001  0.5746  0.2542 -0.1647
 1884SOL    HW117114   1.297   1.787  17.689  2.1593 -0.4361 -0.2691
 1884SOL    HW217115   1.269   1.925   0.047  0.5006  0.9929 -1.1221
 1885SOL     OW17116   4.589   0.834   3.825 -0.2261  0.1482  0.6447
 1885SOL    HW117117   4.560   0.796   3.742 -2.8408  2.2846  0.5868
 1885SOL    HW217118   4.647   0.909   3.810  1.2001 -1.3370 -1.3206
 1886SOL     OW17119   3.519   3.736   0.879  0.2857  0.6321  0.1977
 1886SOL    HW117120   3.610   3.735   0.847 -0.0314  1.6887 -0.7292
 1886SOL    HW217121   3.537   3.753   0.971  2.5516  2.0811 -0.5017
 1887SOL     OW17122   3.736   0.405   6.283  0.6838 -0.4040 -0.5291
 1887SOL    HW117123   3.746   0.500   6.272  0.1188 -0.3163 -0.3038
 1887SOL    HW217124   3.815   0.374   6.240  0.7997 -0.8990  0.0375
 1888SOL     OW17125   3.306   2.636   3.236  0.1229 -0.3419  0.2487
 1888SOL    HW117126   3.376   2.572   3.243 -0.5745 -1.0607  0.6735
 1888SOL    HW217127   3.351   2.719   3.218 -1.2853  0.2916 -0.3844
 1889SOL     OW17128   2.624   2.771  16.526  0.4368  0.2783 -0.1359
 1889SOL    HW117129   2.676   2.737  16.453  0.6825  0.2942  0.0325
 1889SOL    HW217130   2.563   2.703  16.553  2.5554 -0.6624  2.2498
 1890SOL     OW17131   3.779   1.852   0.544 -0.1680 -0.5006  0.0357
 1890SOL    HW117132   3.859   1.905   0.548  0.2517 -1.3129  2.3904
 1890SOL    HW217133   3.707   1.915   0.537  0.8999  0.7147 -0.0690
 1891SOL     OW17134   3.350   1.273   3.680  0.1001  0.1254 -0.4121
 1891SOL    HW117135   3.367   1.314   3.595  0.0740  0.2143 -0.3744
 1891SOL    HW217136   3.255   1.288   3.681  0.3422  1.6885 -2.1231
 1892SOL     OW17137   1.543   0.362  16.065 -0.1266 -0.5525 -0.1938
 1892SOL    HW117138   1.507   0.423  16.001  0.5591 -0.2200 -0.2605
 1892SOL    HW217139   1.466   0.332  16.113  0.5842 -0.8542  0.7526
 1893SOL     OW17140   1.321   0.702   2.052  0.6102  0.0671 -0.2408
 1893SOL    HW117141   1.394   0.713   2.113  1.7337 -0.7890 -1.4517
 1893SOL    HW217142   1.350   0.640   1.985 -1.7468  0.5191 -1.7072
 1894SOL     OW17143   3.577   2.522   3.122  0.2271  0.1605 -0.3714
 1894SOL    HW117144   3.648   2.459   3.132 -1.9550 -1.8205  2.4630
 1894SOL    HW217145   3.524   2.492   3.049 -0.3100  0.0409  0.0691
 1895SOL     OW17146   1.810   1.031   4.787  0.0602  0.0933  0.2697
 1895SOL    HW117147   1.877   0.979   4.832  0.5972 -0.6246 -1.3433
 1895SOL    HW217148   1.734   0.972   4.788 -0.9493  1.4222  0.9386
 1896SOL     OW17149   2.255   3.918   3.095  0.2969 -0.2707 -0.1215
 1896SOL    HW117150   2.244   3.986   3.161 -0.0605 -0.0740 -0.3807
 1896SOL    HW217151   2.162   3.908   3.073  1.0250 -2.1061 -2.3798
 1897SOL     OW17152   0.039   4.498   4.991 -0.1933  0.2929 -0.1659
 1897SOL    HW117153   0.069   4.410   5.015  2.5159  1.0971 -0.5769
 1897SOL    HW217154   0.079   4.503   4.904 -1.0663  2.4649 -0.4366
 1898SOL     OW17155   2.891   1.137  12.307  0.5052  0.1070  0.2719
 1898SOL    HW117156   2.842   1.153  12.387  1.6815  1.2909  0.7528
 1898SOL    HW217157   2.826   1.077  12.269 -0.0874 -0.0873  1.6022
 1899SOL     OW17158   2.749   0.280   6.947 -0.0014  0.5330 -0.3706
 1899SOL    HW117159   2.811   0.327   6.891 -0.6082 -1.7259 -2.8868
 1899SOL    HW217160   2.680   0.253   6.886  1.0650 -1.6553 -0.5893
 1900SOL     OW17161   1.101   4.215   2.482  0.3721 -0.0038 -0.6627
 1900SOL    HW117162   1.089   4.298   2.527 -1.3314 -0.3498 -0.4585
 1900SOL    HW217163   1.196   4.209   2.477  0.3095 -3.0944  1.4898
 1901SOL     OW17164   3.048   3.630   3.052 -0.4035  0.4257  0.1198
 1901SOL    HW117165   3.076   3.545   3.019 -3.3096 -0.5543  0.1275
 1901SOL    HW217166   2.989   3.653   2.981 -1.5816  1.3184  1.3729
 1902SOL     OW17167   1.726   2.737   2.633  0.4056  0.5613 -0.5463
 1902SOL    HW117168   1.646   2.789   2.638  0.4157  0.4678  0.5466
 1902SOL    HW217169   1.717   2.689   2.551  1.0948 -1.8905  0.8140
 1903SOL     OW17170   3.422   0.611  14.303 -0.2906 -0.1669  0.1028
 1903SOL    HW117171   3.334   0.642  14.322  0.5754  1.8321  0.8994
 1903SOL    HW217172   3.439   0.558  14.381  1.8768 -1.3124 -1.1416
 1904SOL     OW17173   4.684   1.379  16.751 -0.1670 -0.4743  0.4322
 1904SOL    HW117174   4.683   1.289  16.720 -0.3652 -0.6347  0.8955
 1904SOL    HW217175   4.631   1.363  16.830  2.4657 -3.0729  1.6697
 1905SOL     OW17176   2.836   3.182   5.105  0.0385 -0.2840  0.3315
 1905SOL    HW117177   2.754   3.215   5.070 -0.2928 -2.7023 -1.2161
 1905SOL    HW217178   2.806   3.108   5.158  1.3851 -0.4188  0.9254
 1906SOL     OW17179   3.732   1.170   1.706  0.6502  0.0114 -0.3937
 1906SOL    HW117180   3.821   1.149   1.677  0.6906  1.5935 -1.3876
 1906SOL    HW217181   3.721   1.080   1.737 -0.4637 -1.0960 -4.0187
 1907SOL     OW17182   0.531   1.236   6.545  0.3442  0.4744  0.2657
 1907SOL    HW117183   0.618   1.221   6.582  0.3613 -0.1160 -0.0128
 1907SOL    HW217184   0.543   1.226   6.450  1.2788 -1.7461  0.6300
 1908SOL     OW17185   2.480   1.561  16.350  0.4288 -0.0984 -0.1324
 1908SOL    HW117186   2.463   1.654  16.360  1.9045 -0.2017  3.1326
 1908SOL    HW217187   2.519   1.562  16.262 -0.4794  1.3864 -0.5137
 1909SOL     OW17188   4.066   3.495   5.119  0.1901  0.2361 -0.1458
 1909SOL    HW117189   3.985   3.539   5.093  0.2143 -0.3239 -1.1659
 1909SOL    HW217190   4.104   3.465   5.037 -1.6720  1.3434 -1.4048
 1910SOL     OW17191   3.193   0.626   2.518  0.2127 -0.4429  0.1155
 1910SOL    HW117192   3.216   0.715   2.546 -2.5086  0.3374 -0.1312
 1910SOL    HW217193   3.158   0.600   2.604  0.2700 -0.3355  0.1728
 1911SOL     OW17194   1.990   2.146  13.095  0.6620  0.1331 -0.2032
 1911SOL    HW117195   1.953   2.058  13.096 -0.1357  0.4960  2.3700
 1911SOL    HW217196   2.024   2.153  13.185  0.2861  1.4973 -0.1597
 1912SOL     OW17197   3.530   2.848   3.652  0.0133  0.4642 -0.1545
 1912SOL    HW117198   3.446   2.809   3.628  0.1559  0.7980 -1.2170
 1912SOL    HW217199   3.509   2.930   3.696  0.5829  0.8293 -0.5585
 1913SOL     OW17200   1.897   3.020   8.743  0.0267 -0.1046  0.4672
 1913SOL    HW117201   1.945   3.094   8.705 -2.4921  1.4769  0.3763
 1913SOL    HW217202   1.911   2.951   8.679 -0.2083  0.5682 -0.3126
 1914SOL     OW17203   1.917   0.992   3.666 -0.1422  0.3733  0.2836
 1914SOL    HW117204   1.915   0.899   3.690  0.6570  0.6066  1.2495
 1914SOL    HW217205   1.892   0.987   3.574  2.8519 -0.0224 -0.5063
 1915SOL     OW17206   0.545   3.077   4.367 -0.7546  0.2445 -0.2732
 1915SOL    HW117207   0.481   3.010   4.391  1.3660 -0.8490  2.3979
 1915SOL    HW217208   0.545   3.061   4.273  3.5378 -0.9811 -0.0596
 1916SOL     OW17209   3.005   3.432   7.624 -0.1332  0.0768  0.0899
 1916SOL    HW117210   3.021   3.475   7.541  2.2659  0.4425  0.7569
 1916SOL    HW217211   2.933   3.369   7.614 -0.6071  0.9588 -2.0976
 1917SOL     OW17212   0.703   3.904   2.136  0.6909  0.2822 -0.1155
 1917SOL    HW117213   0.774   3.963   2.159 -1.1637  1.4892  2.4655
 1917SOL    HW217214   0.714   3.849   2.214 -2.8891 -0.1845  0.0725
 1918SOL     OW17215   4.200   0.713   5.912 -0.1032  0.2000  0.7689
 1918SOL    HW117216   4.287   0.675   5.924 -0.6776 -1.2297  0.3482
 1918SOL    HW217217   4.160   0.649   5.854  1.3201  1.9733 -2.1799
 1919SOL     OW17218   0.400   0.581   1.436 -0.2070 -0.6680  0.1550
 1919SOL    HW117219   0.485   0.543   1.457 -0.2447 -1.1362 -0.5652
 1919SOL    HW217220   0.352   0.513   1.389 -0.4599 -0.7650  0.5475
 1920SOL     OW17221   1.211   2.089   2.382  0.3306 -0.0404  0.3181
 1920SOL    HW117222   1.221   2.152   2.310  1.0046 -0.5954 -0.0727
 1920SOL    HW217223   1.277   2.123   2.443  0.1512 -1.1033  1.0924
 1921SOL     OW17224   4.276   4.619   3.136  0.5660 -0.2286 -0.2048
 1921SOL    HW117225   4.245   4.533   3.165  1.2425 -0.9279 -1.5884
 1921SOL    HW217226   4.365   4.599   3.109  0.1901 -1.3786 -0.5980
 1922SOL     OW17227   0.943   1.828   7.641  0.1149  0.3706 -0.0504
 1922SOL    HW117228   0.997   1.815   7.719 -2.4619 -0.6147  1.5587
 1922SOL    HW217229   0.887   1.895   7.678 -2.5815 -2.0717  0.2655
 1923SOL     OW17230   0.010   2.647   3.222 -0.0321 -0.1560 -0.1172
 1923SOL    HW117231   4.649   2.616   3.253 -0.0665  0.0132 -0.0468
 1923SOL    HW217232   0.019   2.735   3.259 -0.2684  0.3588 -1.2985
 1924SOL     OW17233   1.866   1.745   4.584 -0.1783 -0.0121  0.0554
 1924SOL    HW117234   1.860   1.794   4.667 -0.7544 -0.0543  0.0371
 1924SOL    HW217235   1.935   1.792   4.537  3.3960 -2.1625  3.1448
 1925SOL     OW17236   2.849   1.930   7.382  0.4908 -0.0451 -0.2288
 1925SOL    HW117237   2.769   1.981   7.391  1.4312  1.5093 -0.5390
 1925SOL    HW217238   2.808   1.844   7.391  2.0327 -0.5734  1.7786
 1926SOL     OW17239   1.344   4.582   9.599 -0.1990 -0.2194  0.2533
 1926SOL    HW117240   1.403   4.528   9.546  1.0355 -0.9495  2.3652
 1926SOL    HW217241   1.357   4.551   9.689 -0.8198 -0.1842  0.3527
 1927SOL     OW17242   0.403   1.251  10.501  0.4845 -0.5137  0.2399
 1927SOL    HW117243   0.344   1.180  10.526  0.2644 -0.2183  0.5587
 1927SOL    HW217244   0.425   1.292  10.585  0.0033  0.2655 -0.0143
 1928SOL     OW17245   3.036   0.320   2.112  0.1628  0.7379 -0.4690
 1928SOL    HW117246   3.083   0.256   2.059  0.4456  1.4694 -1.0930
 1928SOL    HW217247   2.981   0.263   2.167  0.6972  1.5460  0.9027
 1929SOL     OW17248   1.396   2.260   5.605  0.0060 -0.0437 -0.1346
 1929SOL    HW117249   1.329   2.327   5.618 -1.4773 -1.2884 -1.4086
 1929SOL    HW217250   1.441   2.268   5.689  0.6056 -0.6360 -0.3995
 1930SOL     OW17251   4.246   2.527   6.478 -0.2343 -1.0197  0.0599
 1930SOL    HW117252   4.170   2.475   6.505  0.0002 -1.7389 -0.6719
 1930SOL    HW217253   4.263   2.478   6.398 -1.4037 -2.4542  0.6876
 1931SOL     OW17254   0.718   4.122   9.163  0.1073  0.7980  0.5344
 1931SOL    HW117255   0.711   4.216   9.176  1.8382  1.0476 -0.2936
 1931SOL    HW217256   0.758   4.104   9.248  1.6073  2.3130  0.1380
 1932SOL     OW17257   1.875   3.224  17.283 -0.3189 -0.2376  0.1033
 1932SOL    HW117258   1.829   3.307  17.272 -0.0696 -0.2048 -0.7562
 1932SOL    HW217259   1.926   3.228  17.363  1.2723 -2.2204 -0.8060
 1933SOL     OW17260   3.912   4.135   4.142  0.0256 -0.1273 -0.4376
 1933SOL    HW117261   3.850   4.157   4.211  0.5365  3.8649 -1.2404
 1933SOL    HW217262   3.927   4.042   4.161  2.7310  0.6289  1.1672
 1934SOL     OW17263   4.157   1.886   4.030  0.1496  0.5700 -0.4821
 1934SOL    HW117264   4.191   1.880   3.941 -0.2163 -0.4158 -0.5473
 1934SOL    HW217265   4.098   1.959   4.015  0.3625  0.2164 -3.0312
 1935SOL     OW17266   3.831   2.360  13.564  0.2750  0.3823 -0.3144
 1935SOL    HW117267   3.837   2.317  13.479 -2.2484 -2.2509  0.8322
 1935SOL    HW217268   3.843   2.286  13.624  1.5187  1.6755  1.0505
 1936SOL     OW17269   1.205   2.654   7.414 -0.1186 -0.4578 -0.1615
 1936SOL    HW117270   1.295   2.684   7.427 -0.9884  1.7373  0.6963
 1936SOL    HW217271   1.214   2.561   7.392  2.0326 -0.5546  1.1919
 1937SOL     OW17272   1.015   0.991  11.970 -0.3543 -0.6191  0.4545
 1937SOL    HW117273   1.022   1.066  12.029  0.0234  1.3502 -2.1055
 1937SOL    HW217274   1.080   0.932  12.008  0.8558  0.9645  0.8377
 1938SOL     OW17275   0.386   2.539   5.113 -0.0234  0.2621  0.5011
 1938SOL    HW117276   0.436   2.621   5.120  0.3232  0.1974 -1.3151
 1938SOL    HW217277   0.307   2.584   5.084 -1.3778 -1.4146  1.6214
 1939SOL     OW17278   0.252   2.532  14.688  0.2056  0.8164 -0.0231
 1939SOL    HW117279   0.239   2.592  14.614  1.3446 -0.3985 -1.2239
 1939SOL    HW217280   0.266   2.462  14.624  0.9218  1.0732 -0.1405
 1940SOL     OW17281   2.596   0.161   6.487  0.8178 -0.1474 -0.1105
 1940SOL    HW117282   2.540   0.087   6.512 -1.8017  1.5781 -0.8836
 1940SOL    HW217283   2.673   0.108   6.466  0.1311 -0.5451 -1.6422
 1941SOL     OW17284   2.626   2.773   2.348  0.1995  0.0887 -0.4666
 1941SOL    HW117285   2.566   2.840   2.381 -0.2494  0.3883 -1.9071
 1941SOL    HW217286   2.597   2.760   2.258 -0.8748  0.7422 -0.2200
 1942SOL     OW17287   0.265   1.054  16.696 -0.0505 -0.2645  0.1905
 1942SOL    HW117288   0.271   1.051  16.792  0.2446  0.8926  0.2073
 1942SOL    HW217289   0.304   0.971  16.669 -0.3214  0.7665 -3.3116
 1943SOL     OW17290   0.325   1.137  11.573 -0.1469  0.5559  0.2068
 1943SOL    HW117291   0.256   1.072  11.582  1.3617 -0.8968  1.2012
 1943SOL    HW217292   0.371   1.099  11.498 -0.3245  1.9087 -0.6031
 1944SOL     OW17293   3.019   2.866   1.867 -0.1890  0.3897  0.5034
 1944SOL    HW117294   2.976   2.801   1.923  0.3296 -1.0911 -0.8306
 1944SOL    HW217295   3.094   2.818   1.832  1.6939  3.0265  0.9412
 1945SOL     OW17296   1.818   3.794   9.002 -0.3722 -0.4179  0.2889
 1945SOL    HW117297   1.794   3.858   9.069 -0.3947  0.2611 -0.3826
 1945SOL    HW217298   1.837   3.711   9.046 -0.0675  0.8673  2.5687
 1946SOL     OW17299   1.700   3.551   7.398  0.1913  0.0129  0.2680
 1946SOL    HW117300   1.791   3.582   7.408 -0.0249  0.9770 -0.6729
 1946SOL    HW217301   1.711   3.463   7.432  1.1295  0.4213  1.0386
 1947SOL     OW17302   2.970   2.170   8.255  0.0808 -0.0877  0.1130
 1947SOL    HW117303   3.056   2.181   8.216  0.2264 -0.0864  0.4370
 1947SOL    HW217304   2.963   2.253   8.303 -1.0930 -0.7455  1.0841
 1948SOL     OW17305   2.493   4.004  12.203 -0.0575 -0.0460 -0.1660
 1948SOL    HW117306   2.493   3.923  12.254  0.7782  1.4397  2.1863
 1948SOL    HW217307   2.573   3.989  12.153  0.6586 -0.9006  1.2495
 1949SOL     OW17308   2.287   2.657  12.754 -0.1279  0.5399 -0.2145
 1949SOL    HW117309   2.373   2.618  12.736  0.4040  0.6064  2.2019
 1949SOL    HW217310   2.274   2.643  12.848  2.9386  2.2184  0.4817
 1950SOL     OW17311   3.174   1.524   7.024 -0.0708 -0.3238 -0.3148
 1950SOL    HW117312   3.232   1.463   6.979 -0.6775 -0.9134 -0.2948
 1950SOL    HW217313   3.235   1.574   7.078  0.0045 -0.1321 -0.5802
 1951SOL     OW17314   4.547   2.801   7.533  0.5626  0.5251 -0.5040
 1951SOL    HW117315   4.476   2.791   7.597  0.1530  1.3043 -0.8362
 1951SOL    HW217316   4.509   2.861   7.469 -1.2947  1.3771  1.4141
 1952SOL     OW17317   2.353   4.155  10.687 -0.2004 -0.3790 -0.3411
 1952SOL    HW117318   2.368   4.086  10.622  0.1717 -2.0859  1.5956
 1952SOL    HW217319   2.301   4.216  10.633 -1.3453  0.8164  2.1374
 1953SOL     OW17320   0.082   3.881   5.158  0.3240  0.2402 -0.2813
 1953SOL    HW117321   0.092   3.788   5.176 -1.2411 -0.0261 -0.7996
 1953SOL    HW217322   0.094   3.905   5.066  2.0058  1.2822  0.2050
 1954SOL     OW17323   3.049   3.573  10.809  0.2480  0.0396 -0.4292
 1954SOL    HW117324   3.133   3.609  10.839  0.2515 -1.3776  1.3038
 1954SOL    HW217325   3.075   3.498  10.756  1.3547  0.7249 -0.8501
 1955SOL     OW17326   1.467   0.607   1.117 -0.1056  0.0541  0.0800
 1955SOL    HW117327   1.396   0.667   1.096  0.2590 -0.4265 -2.4587
 1955SOL    HW217328   1.479   0.575   1.028 -3.8027 -0.7730 -0.0950
 1956SOL     OW17329   3.279   1.580  10.552 -0.2379 -0.3173  0.1258
 1956SOL    HW117330   3.310   1.527  10.479  2.0088  1.0100  0.1003
 1956SOL    HW217331   3.281   1.665  10.507 -1.1562 -0.7834 -0.7875
 1957SOL     OW17332   1.830   3.341  15.381  0.2516  0.4416  0.3058
 1957SOL    HW117333   1.878   3.272  15.427  1.1080  1.0307  0.3020
 1957SOL    HW217334   1.839   3.413  15.444  0.7211  2.3327 -1.9224
 1958SOL     OW17335   1.260   4.492   6.208  0.0819  0.3101 -0.0952
 1958SOL    HW117336   1.233   4.497   6.300 -1.6800 -1.6618 -0.5114
 1958SOL    HW217337   1.201   4.559   6.174  1.1231  1.0163 -0.5139
 1959SOL     OW17338   3.678   1.558   3.031  0.1267  0.1005 -0.0675
 1959SOL    HW117339   3.607   1.584   3.089  0.3777  0.8114 -0.0805
 1959SOL    HW217340   3.757   1.592   3.073 -0.5502  2.4675 -0.7009
 1960SOL     OW17341   2.656   0.692   8.701  0.2254 -0.3732  0.0347
 1960SOL    HW117342   2.752   0.696   8.703  0.2047  0.4401 -0.5249
 1960SOL    HW217343   2.651   0.605   8.740 -0.8292  0.2547  1.2827
 1961SOL     OW17344   3.415   3.790   6.625  0.4463 -0.1648 -1.1665
 1961SOL    HW117345   3.397   3.877   6.590  0.7353  0.5486  0.4464
 1961SOL    HW217346   3.436   3.799   6.718 -1.1696  2.3762 -1.0525
 1962SOL     OW17347   1.138   1.061   0.257  0.2379  0.3047 -0.4199
 1962SOL    HW117348   1.190   1.024   0.186  1.3360  0.0674  0.5041
 1962SOL    HW217349   1.086   1.134   0.224  1.0676  0.8302 -0.5591
 1963SOL     OW17350   1.053   3.906   2.383 -0.5381  0.1339 -0.0267
 1963SOL    HW117351   1.047   3.854   2.464  1.3759 -0.8552 -0.5090
 1963SOL    HW217352   1.053   3.843   2.311  0.3927 -1.0721  1.0060
 1964SOL     OW17353   3.968   0.575   2.004  0.3366 -0.4628  0.7898
 1964SOL    HW117354   4.017   0.504   1.964 -0.8164 -0.0791 -1.3618
 1964SOL    HW217355   3.887   0.596   1.956  0.4639 -1.0227  0.3355
 1965SOL     OW17356   2.967   4.368   9.074 -1.0057 -0.1222 -0.1403
 1965SOL    HW117357   3.021   4.381   8.996  0.3829  1.3790  1.0807
 1965SOL    HW217358   2.878   4.351   9.042 -0.0942 -0.3603 -2.6193
 1966SOL     OW17359   1.426   1.593   6.705  0.1397 -0.7145 -0.3258
 1966SOL    HW117360   1.335   1.605   6.679 -0.5570  0.1662  2.5757
 1966SOL    HW217361   1.415   1.544   6.786  0.2459 -0.7994 -0.3626
 1967SOL     OW17362   4.142   0.330  17.296 -0.3183 -0.2334 -0.6930
 1967SOL    HW117363   4.192   0.272  17.238  1.3436 -0.8125  1.3004
 1967SOL    HW217364   4.173   0.416  17.267  0.3235 -0.8578 -1.9012
 1968SOL     OW17365   0.883   1.219  11.519  0.2442  0.1081 -0.5049
 1968SOL    HW117366   0.908   1.172  11.598 -1.7771  0.4517  0.3347
 1968SOL    HW217367   0.965   1.205  11.471 -0.3760 -0.1662 -1.4804
 1969SOL     OW17368   2.617   1.039   4.324 -0.0276  0.0350 -0.2848
 1969SOL    HW117369   2.687   1.031   4.388 -0.6921  0.3016  0.4807
 1969SOL    HW217370   2.652   1.014   4.239  0.8538  0.2406  0.0227
 1970SOL     OW17371   4.702   4.031   7.137  0.0853 -0.0885  0.1324
 1970SOL    HW117372   0.019   4.027   7.223 -0.7662 -0.4869  0.5400
 1970SOL    HW217373   4.639   4.102   7.149  1.0266  0.6041  1.0108
 1971SOL     OW17374   1.849   4.095   1.324  0.2493 -0.1569 -0.0649
 1971SOL    HW117375   1.802   4.012   1.321 -0.8272  0.3081  3.5501
 1971SOL    HW217376   1.866   4.114   1.417  0.1294  3.4012 -0.7631
 1972SOL     OW17377   4.213   0.692   7.301  0.2689  0.4385  0.2304
 1972SOL    HW117378   4.119   0.674   7.310  0.3281  1.2212  2.4573
 1972SOL    HW217379   4.202   0.777   7.259 -0.3349  0.4238  0.3526
 1973SOL     OW17380   1.257   1.180   6.925 -0.1304  0.1642 -0.0407
 1973SOL    HW117381   1.289   1.268   6.903 -1.3669  0.2711 -1.4363
 1973SOL    HW217382   1.317   1.160   6.996 -1.0663 -2.4689  0.0011
 1974SOL     OW17383   1.083   1.507  14.155  0.2796 -0.2196 -0.0551
 1974SOL    HW117384   1.086   1.582  14.215 -0.7787  0.1278 -0.4421
 1974SOL    HW217385   1.148   1.457  14.205  1.1143  1.5251  0.6049
 1975SOL     OW17386   1.027   2.383   6.974 -0.2212  0.1187 -0.0920
 1975SOL    HW117387   1.078   2.350   6.901  0.7139  1.7488 -0.1646
 1975SOL    HW217388   1.077   2.460   7.002  0.8377 -0.7380  0.3293
 1976SOL     OW17389   4.039   3.771   6.436  0.0433  0.0255 -0.9658
 1976SOL    HW117390   4.127   3.753   6.402 -0.3166 -1.6758 -1.0154
 1976SOL    HW217391   4.005   3.701   6.381 -0.1324  1.0069 -2.1041
 1977SOL     OW17392   0.991   3.139  12.212  0.4929 -0.2497  0.6161
 1977SOL    HW117393   1.032   3.057  12.240  1.7401  0.7701  1.8048
 1977SOL    HW217394   1.024   3.205  12.273  0.7345  0.0860  0.1119
 1978SOL     OW17395   2.746   0.674  16.906 -0.4139  0.4343 -0.6024
 1978SOL    HW117396   2.726   0.760  16.869 -0.3362  0.0654 -1.5079
 1978SOL    HW217397   2.802   0.689  16.981 -2.0917  0.0548  0.7169
 1979SOL     OW17398   0.935   0.002   4.512 -0.2093 -0.0526  0.4465
 1979SOL    HW117399   0.974   4.662   4.569  1.8257  0.9234  0.1444
 1979SOL    HW217400   1.005   0.054   4.473 -1.4705  0.2991 -1.3846
 1980SOL     OW17401   2.934   0.950   3.118 -0.1648  0.1154 -0.2560
 1980SOL    HW117402   2.849   0.993   3.107 -0.2307  0.1610  0.4420
 1980SOL    HW217403   2.936   0.903   3.034  3.0765 -1.5103  0.7172
 1981SOL     OW17404   1.231   4.333   3.033 -0.4451  0.7011  0.1062
 1981SOL    HW117405   1.200   4.259   2.980 -2.2511  0.9615  0.7932
 1981SOL    HW217406   1.188   4.315   3.117  0.4929  0.2419  0.4907
 1982SOL     OW17407   2.568   3.818   1.134  0.2134 -0.2148  0.0147
 1982SOL    HW117408   2.527   3.847   1.053 -0.6858  0.6147  0.7633
 1982SOL    HW217409   2.640   3.767   1.096 -0.7281 -1.2845 -0.3318
 1983SOL     OW17410   1.550   1.701   2.660 -0.0164 -0.2665 -0.5800
 1983SOL    HW117411   1.645   1.706   2.667 -0.1938  0.1100  1.5810
 1983SOL    HW217412   1.554   1.670   2.569  0.5594 -0.1779 -0.5825
 1984SOL     OW17413   0.719   0.879  10.188  0.0344 -0.1693 -0.4373
 1984SOL    HW117414   0.711   0.859  10.282  0.1880 -0.3754 -0.4698
 1984SOL    HW217415   0.693   0.799  10.143  0.0016 -1.7303  2.3022
 1985SOL     OW17416   3.890   4.190   7.658  0.2777  1.0659 -0.0582
 1985SOL    HW117417   3.850   4.134   7.725  1.8161  0.9663  0.7725
 1985SOL    HW217418   3.823   4.255   7.637  0.9511  1.7911  0.0527
 1986SOL     OW17419   4.514   2.596  16.529  0.6670  0.5800 -0.2406
 1986SOL    HW117420   4.570   2.622  16.456  0.5902 -0.6476 -0.7362
 1986SOL    HW217421   4.447   2.665  16.532  1.0738  1.0155 -1.3953
 1987SOL     OW17422   2.084   2.229   5.403  0.1382 -0.1661  0.0050
 1987SOL    HW117423   2.171   2.243   5.365  0.4977 -0.1390  0.8472
 1987SOL    HW217424   2.042   2.185   5.329  1.7904 -1.0208 -0.4221
 1988SOL     OW17425   4.389   1.210   3.705 -0.0290  0.4783 -0.1815
 1988SOL    HW117426   4.364   1.187   3.794 -1.3552 -1.2238 -0.9865
 1988SOL    HW217427   4.447   1.283   3.728 -1.9230  1.8164  0.3122
 1989SOL     OW17428   2.485   3.444  12.607  0.0213 -0.1241 -0.3156
 1989SOL    HW117429   2.569   3.408  12.637  1.4938  1.3107 -2.7525
 1989SOL    HW217430   2.471   3.512  12.672 -0.1419  0.9446 -1.4816
 1990SOL     OW17431   3.631   0.691   7.849 -0.2722 -0.4302 -0.1623
 1990SOL    HW117432   3.676   0.732   7.774 -0.0190 -0.6501 -0.1325
 1990SOL    HW217433   3.541   0.722   7.852 -0.1966 -0.0376 -1.9753
 1991SOL     OW17434   4.581   3.720   3.626 -0.0391 -0.0985  0.1662
 1991SOL    HW117435   4.522   3.674   3.566 -0.0549  0.8311 -0.5238
 1991SOL    HW217436   4.537   3.696   3.708  1.8810 -0.3746  1.1213
 1992SOL     OW17437   0.931   1.247   2.325  0.0903  0.6679 -0.7217
 1992SOL    HW117438   0.996   1.247   2.255 -0.5923 -1.6976 -1.3602
 1992SOL    HW217439   0.861   1.200   2.280 -1.5384  1.2989  1.1922
 1993SOL     OW17440   0.984   2.134  15.672  0.3401 -0.2860 -0.1273
 1993SOL    HW117441   1.040   2.057  15.659 -0.1045 -0.4769 -0.8855
 1993SOL    HW217442   0.973   2.156  15.579  1.7404  0.4343 -0.1283
 1994SOL     OW17443   3.714   4.681   5.413 -0.8223 -0.3401 -0.3360
 1994SOL    HW117444   3.746   0.010   5.485  0.9781 -3.3537  1.1246
 1994SOL    HW217445   3.774   4.607   5.420  0.0227  0.4758  0.9487
 1995SOL     OW17446   3.962   0.548  14.349 -0.2658  0.2122  0.1976
 1995SOL    HW117447   3.912   0.616  14.303 -0.2663 -0.2600 -0.4974
 1995SOL    HW217448   3.983   0.486  14.279 -0.8736  0.0112  0.1944
 1996SOL     OW17449   1.474   3.774   6.875 -0.1570  0.4464  0.0658
 1996SOL    HW117450   1.418   3.778   6.952  0.9934 -3.0091  1.0733
 1996SOL    HW217451   1.405   3.778   6.808  0.1609  3.8244 -0.0467
 1997SOL     OW17452   2.860   0.784  14.701 -0.4869  0.1043  0.0923
 1997SOL    HW117453   2.929   0.724  14.730  1.5233  1.9973 -0.7953
 1997SOL    HW217454   2.904   0.869  14.696 -3.0143  1.4343  0.1387
 1998SOL     OW17455   2.005   0.137   8.538  0.1713 -0.2745  0.1208
 1998SOL    HW117456   2.033   0.055   8.497  2.2092  0.4205  0.1289
 1998SOL    HW217457   2.064   0.144   8.613  1.3454 -1.2465 -0.7129
 1999SOL     OW17458   1.498   1.716   7.337  0.6291 -0.5284 -0.3674
 1999SOL    HW117459   1.481   1.656   7.409  0.9195 -1.8515 -1.4030
 1999SOL    HW217460   1.584   1.747   7.365  0.4518  0.5031 -0.9908
 2000SOL     OW17461   3.549   2.439   5.434  0.0038 -0.0363  0.3398
 2000SOL    HW117462   3.603   2.360   5.426  0.6171  0.4638 -0.4628
 2000SOL    HW217463   3.557   2.472   5.345 -0.4093  2.4899  1.2424
 2001SOL     OW17464   2.356   3.071   1.327 -0.0450  0.7624 -0.1038
 2001SOL    HW117465   2.361   3.048   1.235 -1.6796 -0.7042  0.1677
 2001SOL    HW217466   2.269   3.110   1.337  0.0069  1.2237 -1.4533
 2002SOL     OW17467   3.185   4.096   7.427  0.0274  0.4663  0.0846
 2002SOL    HW117468   3.096   4.121   7.452 -0.1922  0.1854 -0.4186
 2002SOL    HW217469   3.200   4.154   7.352  0.5494 -0.7469 -0.7460
 2003SOL     OW17470   1.159   4.063  14.987  0.5964  0.0038 -0.0731
 2003SOL    HW117471   1.159   4.137  15.048  0.5051  0.6668 -0.8695
 2003SOL    HW217472   1.196   4.005  15.052 -1.4429  0.0866  1.1716
 2004SOL     OW17473   4.190   2.324   5.762  0.5183 -0.1170 -0.2260
 2004SOL    HW117474   4.226   2.339   5.675  2.2359 -1.6972  0.2032
 2004SOL    HW217475   4.264   2.343   5.820  2.1470 -0.5963 -2.1109
 2005SOL     OW17476   3.060   1.759  15.611  0.1459  0.3880 -0.1649
 2005SOL    HW117477   3.128   1.709  15.567 -1.1734 -0.5736 -1.1080
 2005SOL    HW217478   3.115   1.829  15.647  1.7803 -1.5377  1.0360
 2006SOL     OW17479   1.441   4.263   6.989  0.2178 -0.1671  0.9012
 2006SOL    HW117480   1.447   4.352   6.953  0.7138 -1.1167 -1.3570
 2006SOL    HW217481   1.412   4.213   6.913 -1.5187  0.3190  1.2399
 2007SOL     OW17482   0.009   1.352   4.815 -0.0666  0.1082  0.0864
 2007SOL    HW117483   4.640   1.352   4.831 -0.0638  0.3261  0.1034
 2007SOL    HW217484   0.009   1.422   4.749  0.5709 -1.8293 -1.9438
 2008SOL     OW17485   1.198   1.230   4.517  0.1083 -0.9177  0.3146
 2008SOL    HW117486   1.149   1.159   4.477  1.6382 -1.9283  0.2199
 2008SOL    HW217487   1.284   1.211   4.479 -0.4364 -1.7163 -0.4969
 2009SOL     OW17488   3.782   0.341   5.043  0.5316  0.1425 -0.2332
 2009SOL    HW117489   3.871   0.310   5.023  1.3777  1.8436  0.8947
 2009SOL    HW217490   3.774   0.329   5.138  0.6756 -1.4821 -0.4287
 2010SOL     OW17491   3.293   1.584  16.177  0.4934 -0.5338 -0.7658
 2010SOL    HW117492   3.257   1.612  16.261  0.3429 -2.2100 -0.2717
 2010SOL    HW217493   3.270   1.491  16.180 -0.4468 -0.2758  0.1020
 2011SOL     OW17494   2.099   0.068   0.507  0.3681  0.2897  0.1409
 2011SOL    HW117495   2.028   0.083   0.445  0.6905 -1.0804 -0.5449
 2011SOL    HW217496   2.055   0.014   0.573  0.1271  1.9774  1.3532
 2012SOL     OW17497   0.092   0.552   1.631 -0.1737 -0.3097 -0.2146
 2012SOL    HW117498   0.130   0.635   1.603 -3.3518  1.0890 -0.3768
 2012SOL    HW217499   0.174   0.523   1.671 -1.4851 -0.4428  2.3696
 2013SOL     OW17500   4.254   3.652  10.993  0.1292 -0.2274 -0.2101
 2013SOL    HW117501   4.242   3.559  11.016 -3.6487  0.4318  0.5114
 2013SOL    HW217502   4.166   3.685  10.977  1.0878  1.6077 -1.6636
 2014SOL     OW17503   0.434   1.387   6.872 -0.4435 -0.1357 -0.2464
 2014SOL    HW117504   0.483   1.442   6.933  1.8205 -3.1634  0.6267
 2014SOL    HW217505   0.452   1.432   6.789 -2.2389  0.5257 -0.2747
 2015SOL     OW17506   2.973   3.415   6.668  0.0546  0.0776  0.1322
 2015SOL    HW117507   3.046   3.438   6.611 -0.9228 -1.2975 -1.6548
 2015SOL    HW217508   2.924   3.496   6.672 -0.4251 -0.1843 -0.4583
 2016SOL     OW17509   4.693   1.736   8.225  0.3529 -0.0177  0.3625
 2016SOL    HW117510   4.638   1.692   8.160  2.3303 -1.3909 -0.4074
 2016SOL    HW217511   4.633   1.789   8.277 -1.5158 -1.2851 -0.5324
 2017SOL     OW17512   2.427   3.690   8.022 -1.0116 -0.0295  0.3723
 2017SOL    HW117513   2.426   3.685   8.118  0.0573 -1.7183  0.2922
 2017SOL    HW217514   2.518   3.713   8.005 -1.1918  1.7370  1.8596
 2018SOL     OW17515   0.682   3.896  11.103 -0.0575 -0.2676 -0.2668
 2018SOL    HW117516   0.605   3.873  11.155  0.4014 -1.8930 -0.3106
 2018SOL    HW217517   0.729   3.933  11.177 -1.8481 -0.4271  0.9304
 2019SOL     OW17518   3.327   2.856   1.975 -0.0645  0.4044 -0.0578
 2019SOL    HW117519   3.300   2.805   1.899 -2.5092  0.6588  0.6346
 2019SOL    HW217520   3.274   2.807   2.038  0.9717 -0.9183 -0.2219
 2020SOL     OW17521   1.401   0.056  12.069  0.2518 -0.2835 -0.0460
 2020SOL    HW117522   1.319   0.097  12.096  0.3917  0.9445 -1.4736
 2020SOL    HW217523   1.465   0.091  12.130 -0.1597  0.0352  0.2060
 2021SOL     OW17524   1.154   0.845   8.015 -0.4161 -0.0055 -0.6862
 2021SOL    HW117525   1.238   0.861   8.058  0.4542 -0.1552 -2.3024
 2021SOL    HW217526   1.151   0.752   8.035  0.7282  0.2680  0.7312
 2022SOL     OW17527   0.904   1.294   2.808  0.8892  0.3223  0.0321
 2022SOL    HW117528   0.909   1.370   2.865 -0.1768  0.2400  0.2293
 2022SOL    HW217529   0.997   1.273   2.812  0.7479  0.3275  3.2580
 2023SOL     OW17530   0.298   0.821   1.346  0.3471  1.0614  0.4126
 2023SOL    HW117531   0.251   0.825   1.429  0.0907  2.6306  0.2098
 2023SOL    HW217532   0.358   0.756   1.380 -0.4760 -0.7837 -1.6164
 2024SOL     OW17533   1.212   2.680   3.134  0.0666  0.0344  0.0622
 2024SOL    HW117534   1.284   2.743   3.130  0.4444 -0.5253 -1.8847
 2024SOL    HW217535   1.267   2.602   3.138  0.1903  0.1379  0.3914
 2025SOL     OW17536   3.551   2.059  11.329  0.3589  0.1514  0.2620
 2025SOL    HW117537   3.547   2.100  11.242  1.9488 -1.7489 -0.7099
 2025SOL    HW217538   3.636   2.097  11.352  1.1925 -0.6275 -1.5158
 2026SOL     OW17539   1.834   4.451   5.380  0.1064 -0.2004 -0.0419
 2026SOL    HW117540   1.802   4.427   5.467  0.4570 -0.7581 -0.0697
 2026SOL    HW217541   1.798   4.539   5.373 -0.2672 -0.2819  0.8865
 2027SOL     OW17542   3.932   1.941   7.680  0.0723  0.5502  0.1884
 2027SOL    HW117543   3.993   1.929   7.753  1.2171  0.1852 -0.8352
 2027SOL    HW217544   3.995   1.914   7.613 -0.9248 -0.8261 -0.1911
 2028SOL     OW17545   4.317   2.680   3.370 -0.0202 -0.3543  0.0300
 2028SOL    HW117546   4.371   2.652   3.297  1.4005  1.7596  0.2773
 2028SOL    HW217547   4.365   2.639   3.442  0.6712 -2.4678 -1.6244
 2029SOL     OW17548   2.206   1.752   4.778  0.8856 -0.4558 -0.6951
 2029SOL    HW117549   2.224   1.665   4.814  1.0837 -0.8014 -1.6282
 2029SOL    HW217550   2.258   1.749   4.698  0.6520 -0.5002 -0.8479
 2030SOL     OW17551   1.532   1.068   2.822  0.6598  0.5462  0.0211
 2030SOL    HW117552   1.459   1.082   2.883 -0.8825  0.6519 -1.8436
 2030SOL    HW217553   1.487   1.078   2.738  2.1534  1.5422 -0.6514
 2031SOL     OW17554   0.616   3.860   1.268  0.0650  0.4773  0.0935
 2031SOL    HW117555   0.650   3.850   1.179  0.0877  2.1911 -0.0975
 2031SOL    HW217556   0.606   3.955   1.278  0.8128  0.7531 -1.6487
 2032SOL     OW17557   2.895   4.314   9.649 -0.5386  0.3624  0.1413
 2032SOL    HW117558   2.803   4.290   9.639 -0.4719  0.2598 -0.2208
 2032SOL    HW217559   2.915   4.281   9.737  1.5280  0.1163 -0.4196
 2033SOL     OW17560   3.956   1.652  12.258 -0.9202 -0.1091  0.1226
 2033SOL    HW117561   3.964   1.699  12.175  0.1329  1.2310  0.9934
 2033SOL    HW217562   4.018   1.582  12.235  1.4149  1.8802  0.2859
 2034SOL     OW17563   0.753   1.304  11.042 -0.3276 -0.5672 -0.3860
 2034SOL    HW117564   0.744   1.364  11.117 -3.1250  0.9023 -1.8956
 2034SOL    HW217565   0.848   1.301  11.034 -0.3225 -0.3702 -0.4015
 2035SOL     OW17566   1.287   0.773   6.478 -0.2025  0.3296  0.1413
 2035SOL    HW117567   1.296   0.816   6.563  0.8305 -0.4709  0.4403
 2035SOL    HW217568   1.214   0.712   6.484 -0.7320  1.2790  3.2494
 2036SOL     OW17569   4.089   0.922   4.337 -0.2410  0.1276  0.2741
 2036SOL    HW117570   4.172   0.969   4.351 -1.4003  2.2878 -0.0097
 2036SOL    HW217571   4.052   0.941   4.424  0.6796 -3.0119  1.3480
 2037SOL     OW17572   0.049   0.524   5.559 -0.5316  0.2571 -0.0997
 2037SOL    HW117573   0.027   0.430   5.559  4.5638 -0.9132 -0.6603
 2037SOL    HW217574   0.003   0.547   5.478 -1.3866  2.7085  1.0829
 2038SOL     OW17575   4.573   4.505   1.473  1.0989  0.3669 -0.3568
 2038SOL    HW117576   4.513   4.512   1.399  0.5894  3.1955  0.3393
 2038SOL    HW217577   4.529   4.439   1.526 -0.7252  2.5648  0.8754
 2039SOL     OW17578   3.781   4.272   0.780 -0.9701 -0.2494 -0.6035
 2039SOL    HW117579   3.855   4.331   0.796 -2.3519  1.0068  1.1855
 2039SOL    HW217580   3.708   4.332   0.798 -0.3197  0.6192 -0.8341
 2040SOL     OW17581   2.563   0.498  13.501 -0.3626 -0.5765  0.5342
 2040SOL    HW117582   2.512   0.551  13.562  0.7169 -0.6081  1.4413
 2040SOL    HW217583   2.601   0.571  13.452 -0.9091 -1.8730 -1.8388
 2041SOL     OW17584   3.939   1.507   6.155 -0.3352 -0.0870  0.3574
 2041SOL    HW117585   3.894   1.527   6.238 -1.8787  0.4518 -0.6168
 2041SOL    HW217586   3.923   1.592   6.115 -0.2693 -0.9315 -1.4554
 2042SOL     OW17587   3.393   1.625   9.027 -0.4442  0.3778 -0.0898
 2042SOL    HW117588   3.406   1.584   8.941  1.4602  1.1936 -0.2004
 2042SOL    HW217589   3.343   1.561   9.078  1.0991 -1.3356 -0.7366
 2043SOL     OW17590   0.635   3.738   6.992  0.0521 -0.3479  0.5354
 2043SOL    HW117591   0.592   3.786   6.921 -1.1001 -2.6350 -0.2966
 2043SOL    HW217592   0.557   3.689   7.018 -0.0093 -1.1749 -1.2502
 2044SOL     OW17593   1.538   2.735   6.373 -0.1429 -0.5432 -0.0975
 2044SOL    HW117594   1.547   2.702   6.463 -0.6701  0.4847  0.3362
 2044SOL    HW217595   1.625   2.703   6.351  1.0247  1.4902  1.5059
 2045SOL     OW17596   0.068   3.641   3.211 -0.7587 -0.3450 -0.3452
 2045SOL    HW117597   0.135   3.582   3.177  0.1410  0.4733  0.0018
 2045SOL    HW217598   0.040   3.586   3.283  2.0597 -0.6786  0.5067
 2046SOL     OW17599   1.994   2.767   9.273  0.1897 -0.1317 -0.1614
 2046SOL    HW117600   2.032   2.715   9.345  0.9004 -0.7445 -0.9723
 2046SOL    HW217601   2.016   2.856   9.301  0.6435 -0.5808  0.9399
 2047SOL     OW17602   1.010   2.844   8.732 -0.2817  0.0956  0.0366
 2047SOL    HW117603   0.976   2.867   8.819 -1.7167 -1.7079 -0.0485
 2047SOL    HW217604   1.011   2.930   8.691  1.3566  0.2673  0.4417
 2048SOL     OW17605   0.766   1.704   5.877 -0.4112 -0.0674 -0.4861
 2048SOL    HW117606   0.705   1.733   5.945 -0.9085  0.5569 -1.1968
 2048SOL    HW217607   0.709   1.663   5.812  0.8222 -1.0477 -0.9426
 2049SOL     OW17608   3.429   4.281   8.982  0.0597  0.0349 -0.6588
 2049SOL    HW117609   3.363   4.349   8.969 -0.1434 -0.2467 -1.0816
 2049SOL    HW217610   3.481   4.283   8.901  0.9724 -0.5833 -0.0897
 2050SOL     OW17611   0.146   2.564   7.492 -0.8473 -0.0599  0.7743
 2050SOL    HW117612   0.084   2.490   7.495  0.3657 -1.0141  2.2125
 2050SOL    HW217613   0.187   2.543   7.408  1.8590  2.9139  1.3635
 2051SOL     OW17614   2.835   1.475  11.641  0.1306 -0.2461 -0.1374
 2051SOL    HW117615   2.921   1.485  11.683  0.2614  3.1746 -1.2159
 2051SOL    HW217616   2.782   1.520  11.706 -0.7394 -1.4980  0.0169
 2052SOL     OW17617   2.953   2.891  15.076 -0.4008  0.2039  0.0917
 2052SOL    HW117618   2.914   2.881  14.989 -1.0929  0.7632  0.3330
 2052SOL    HW217619   2.894   2.962  15.102  0.0277  0.1682  1.1640
 2053SOL     OW17620   1.132   0.872  11.608  0.3416  0.0651 -0.7344
 2053SOL    HW117621   1.183   0.809  11.659 -1.4458  0.8879  2.0159
 2053SOL    HW217622   1.191   0.866  11.533  0.3096 -0.0536 -0.7509
 2054SOL     OW17623   4.182   3.540   6.239  0.0735 -0.4867 -0.4921
 2054SOL    HW117624   4.267   3.573   6.268  1.3330 -1.8859 -2.6374
 2054SOL    HW217625   4.203   3.452   6.208  2.0218 -0.1546 -0.1302
 2055SOL     OW17626   1.890   2.273   7.581  0.0442 -0.1504 -0.2297
 2055SOL    HW117627   1.965   2.262   7.524 -0.6456 -0.1253 -1.1410
 2055SOL    HW217628   1.895   2.194   7.634 -1.5094  0.3182  0.6350
 2056SOL     OW17629   1.503   0.641   8.258  0.1333  0.2153 -0.2070
 2056SOL    HW117630   1.553   0.623   8.178  0.3256 -1.2027  0.2239
 2056SOL    HW217631   1.544   0.726   8.275  0.6334 -0.0228 -0.2143
 2057SOL     OW17632   3.343   4.536  14.116 -0.1582  0.4363  0.3511
 2057SOL    HW117633   3.341   4.628  14.090 -0.4361  0.2868 -0.1468
 2057SOL    HW217634   3.268   4.526  14.174 -0.8975 -0.8313 -0.8274
 2058SOL     OW17635   4.180   0.006   8.474  0.2433  0.4475  0.2207
 2058SOL    HW117636   4.245   0.029   8.408  0.6325 -0.9474  0.1220
 2058SOL    HW217637   4.231   4.673   8.531 -0.6705  0.4230  1.0183
 2059SOL     OW17638   1.592   0.879   6.071  0.2252  0.2336  0.2530
 2059SOL    HW117639   1.512   0.865   6.122 -1.0207 -1.7383 -2.2736
 2059SOL    HW217640   1.590   0.799   6.020 -0.0313 -1.1584  2.4499
 2060SOL     OW17641   2.901   1.656  17.366  0.6062 -0.3738 -0.4010
 2060SOL    HW117642   2.828   1.706  17.330  0.5519  0.0859  0.3353
 2060SOL    HW217643   2.914   1.716  17.440 -2.8371 -0.0112 -0.0566
 2061SOL     OW17644   4.056   3.444   1.832  0.2532  0.2956 -0.1379
 2061SOL    HW117645   3.965   3.445   1.803 -0.6301  0.4903  2.6625
 2061SOL    HW217646   4.103   3.472   1.753 -0.3998  2.7197  0.3305
 2062SOL     OW17647   0.674   1.586   9.647  0.3031 -0.1608  0.1783
 2062SOL    HW117648   0.592   1.615   9.686 -0.4683  0.1986 -1.6917
 2062SOL    HW217649   0.693   1.649   9.577 -4.6984  0.5283 -0.5594
 2063SOL     OW17650   2.892   1.911   5.742 -0.0308  0.1362  0.0790
 2063SOL    HW117651   2.955   1.889   5.811 -1.8797 -0.1207  1.6722
 2063SOL    HW217652   2.922   1.863   5.664  2.7199  0.2680  1.0591
 2064SOL     OW17653   1.136   4.174   6.072  0.2068  0.3934  0.1412
 2064SOL    HW117654   1.198   4.235   6.032  1.2407 -0.3704  0.5977
 2064SOL    HW217655   1.190   4.128   6.137  0.4785 -0.1807 -0.5002
 2065SOL     OW17656   0.723   0.768   2.485  0.0734  0.2340  0.1147
 2065SOL    HW117657   0.704   0.803   2.572 -1.7922 -1.6582  0.4873
 2065SOL    HW217658   0.798   0.826   2.472 -0.1961  0.3377 -0.9888
 2066SOL     OW17659   3.759   0.744   4.192 -0.1402 -0.0618  0.1943
 2066SOL    HW117660   3.725   0.776   4.109  0.5082  0.1390  0.0091
 2066SOL    HW217661   3.696   0.777   4.257 -1.6921  2.1764 -2.4638
 2067SOL     OW17662   0.622   2.033   6.499 -0.2422 -0.0012  0.2608
 2067SOL    HW117663   0.655   2.120   6.477  3.5220 -1.8362 -1.3980
 2067SOL    HW217664   0.531   2.049   6.522 -0.2508  0.1176  0.1403
 2068SOL     OW17665   2.931   3.958   8.919 -0.2261 -0.2246 -0.0046
 2068SOL    HW117666   2.893   3.993   8.999 -2.1570 -1.8239 -0.2121
 2068SOL    HW217667   3.020   3.944   8.952  0.6318 -0.1264 -2.2164
 2069SOL     OW17668   1.585   1.869  16.614  0.2911 -0.9106 -0.0751
 2069SOL    HW117669   1.570   1.895  16.523 -1.3806 -0.0998  0.4243
 2069SOL    HW217670   1.649   1.798  16.609  1.3074 -0.1688  2.0088
 2070SOL     OW17671   0.508   2.609   7.421 -0.1963  0.0020 -0.2210
 2070SOL    HW117672   0.598   2.640   7.419 -0.2188  0.1586  1.3124
 2070SOL    HW217673   0.505   2.560   7.503  0.0883  0.4943  0.0781
 2071SOL     OW17674   0.467   2.650   6.712 -0.0584 -0.0242 -0.0198
 2071SOL    HW117675   0.379   2.689   6.716  0.3002  0.3931  3.6684
 2071SOL    HW217676   0.461   2.564   6.671  1.5698 -0.0672 -0.1646
 2072SOL     OW17677   1.811   4.609   6.566  0.0263 -0.2615  0.5892
 2072SOL    HW117678   1.906   4.598   6.565  0.0422 -0.1426  0.7350
 2072SOL    HW217679   1.785   4.519   6.545  2.5160 -0.9779  0.5896
 2073SOL     OW17680   4.456   3.790   2.734 -0.1548  0.5695 -0.3976
 2073SOL    HW117681   4.428   3.787   2.825  0.4796  1.3139 -0.1753
 2073SOL    HW217682   4.490   3.879   2.723 -0.9542  0.8895 -0.2511
 2074SOL     OW17683   1.333   2.852   7.220  0.2899  0.2658  0.5019
 2074SOL    HW117684   1.317   2.883   7.131 -0.9572  1.1484  1.0171
 2074SOL    HW217685   1.401   2.793   7.189 -0.2757 -0.6382  0.9751
 2075SOL     OW17686   2.611   1.265   3.367  0.0618 -0.1545  0.8588
 2075SOL    HW117687   2.653   1.182   3.344 -0.4790 -0.2916  0.3761
 2075SOL    HW217688   2.535   1.236   3.418 -0.0093  1.4744  1.6794
 2076SOL     OW17689   1.803   2.154  12.915 -0.2667 -0.0749 -0.4906
 2076SOL    HW117690   1.878   2.138  12.972  0.9560  1.9033 -1.5499
 2076SOL    HW217691   1.825   2.242  12.884 -1.3892  0.0620 -0.9006
 2077SOL     OW17692   3.197   3.259   3.397  0.4786 -0.2168  0.3965
 2077SOL    HW117693   3.113   3.287   3.434  0.1051  1.0130 -1.4183
 2077SOL    HW217694   3.239   3.342   3.372 -0.8537  0.9240  1.9193
 2078SOL     OW17695   0.440   0.748   2.786 -0.0675  0.2426 -0.1731
 2078SOL    HW117696   0.373   0.682   2.770 -0.1065 -0.0186  1.1059
 2078SOL    HW217697   0.435   0.776   2.694  0.2768 -0.9477 -0.5568
 2079SOL     OW17698   1.158   0.933   7.277 -0.2947  0.4730  0.6044
 2079SOL    HW117699   1.175   0.923   7.183 -0.7478  1.6497  0.3898
 2079SOL    HW217700   1.065   0.954   7.272 -0.8716 -1.6807  2.5766
 2080SOL     OW17701   0.898   0.976  12.449 -0.0508  0.2368  0.1545
 2080SOL    HW117702   0.891   1.044  12.383 -2.3259  0.3239  0.5101
 2080SOL    HW217703   0.825   0.922  12.417  0.4127 -0.5655  0.4479
 2081SOL     OW17704   4.164   0.531   8.990 -0.0931 -0.2094  0.6091
 2081SOL    HW117705   4.070   0.528   8.972  0.1887 -0.1781 -0.9158
 2081SOL    HW217706   4.169   0.621   9.022 -1.5255  0.0366  0.1352
 2082SOL     OW17707   1.794   3.616   0.822  0.3987 -0.1245 -0.3363
 2082SOL    HW117708   1.713   3.663   0.803 -0.3215 -1.9947 -1.9914
 2082SOL    HW217709   1.790   3.600   0.916  0.1910 -1.4674 -0.5729
 2083SOL     OW17710   1.643   0.558   5.372  0.5440 -0.6755  0.0470
 2083SOL    HW117711   1.551   0.537   5.381  0.6248 -0.9710  0.1926
 2083SOL    HW217712   1.668   0.512   5.292  1.3067  0.3459 -0.3003
 2084SOL     OW17713   0.577   2.390   6.458 -0.4957  0.2190  0.3355
 2084SOL    HW117714   0.520   2.452   6.413  0.9572  0.8576 -0.6536
 2084SOL    HW217715   0.519   2.350   6.523 -0.7294 -0.5307 -0.3344
 2085SOL     OW17716   4.405   1.805   8.525 -0.1982  0.0594  0.5460
 2085SOL    HW117717   4.406   1.780   8.617 -2.9844 -0.3416  0.4624
 2085SOL    HW217718   4.313   1.797   8.499 -0.0445 -1.2148  0.4027
 2086SOL     OW17719   2.039   1.553   1.166 -0.1740 -0.5712 -0.2083
 2086SOL    HW117720   2.042   1.644   1.138 -0.4299 -0.7101 -0.6923
 2086SOL    HW217721   2.037   1.509   1.081 -0.7688  0.6190 -0.8179
 2087SOL     OW17722   0.280   3.049   5.459 -0.0382 -0.0332 -1.0066
 2087SOL    HW117723   0.258   3.073   5.549 -0.0079  0.1092 -1.0372
 2087SOL    HW217724   0.196   3.075   5.421  0.8556  0.8876 -2.3334
 2088SOL     OW17725   3.834   4.618   3.642  0.5164 -0.3712 -0.3487
 2088SOL    HW117726   3.918   4.652   3.672 -0.5476  1.2824  0.8058
 2088SOL    HW217727   3.774   4.650   3.710  2.4831  1.2540  0.6050
 2089SOL     OW17728   0.080   1.397  13.406  0.2742  0.8527 -0.5058
 2089SOL    HW117729   0.070   1.317  13.353 -1.1733  0.0535  0.9815
 2089SOL    HW217730   0.114   1.461  13.344  0.1100  2.4069  1.0222
 2090SOL     OW17731   1.649   0.740  15.024 -0.0355  0.2415  0.5062
 2090SOL    HW117732   1.738   0.725  15.058  0.3054  1.1770  0.0277
 2090SOL    HW217733   1.599   0.674  15.071 -0.3759 -0.1933 -0.4812
 2091SOL     OW17734   4.082   1.945   2.826 -0.5436  0.4154 -0.1534
 2091SOL    HW117735   4.005   2.000   2.839 -1.7667 -1.6338  1.3588
 2091SOL    HW217736   4.131   1.994   2.760 -0.0482 -1.3494 -1.1121
 2092SOL     OW17737   3.455   3.465   0.633  0.3468 -0.3049 -0.2874
 2092SOL    HW117738   3.430   3.510   0.552 -0.7835  1.6039  1.1512
 2092SOL    HW217739   3.514   3.397   0.599  0.4259 -0.4905  0.2273
 2093SOL     OW17740   0.251   1.951   7.097 -0.6594 -0.4020 -0.1693
 2093SOL    HW117741   0.332   2.000   7.085  0.3257 -1.6022  1.6242
 2093SOL    HW217742   0.223   1.985   7.182 -2.0667  1.1582 -1.2556
 2094SOL     OW17743   0.687   3.636   9.417 -0.0765 -0.3484 -0.0253
 2094SOL    HW117744   0.749   3.563   9.409  1.5135  0.9578  0.6100
 2094SOL    HW217745   0.718   3.685   9.493  1.6816  0.2737 -1.1598
 2095SOL     OW17746   2.320   2.466   5.141 -0.5676  0.1949  0.1383
 2095SOL    HW117747   2.331   2.552   5.181 -0.4202  0.4268 -0.3960
 2095SOL    HW217748   2.256   2.427   5.200 -1.2501 -3.2446 -2.8750
 2096SOL     OW17749   0.893   0.599   3.856 -0.4051 -0.2724 -0.6956
 2096SOL    HW117750   0.924   0.589   3.767  2.6966  1.9743  0.1469
 2096SOL    HW217751   0.832   0.674   3.858  0.2069  0.2878 -3.7962
 2097SOL     OW17752   3.943   3.406   4.502  0.6043  0.3073 -0.1177
 2097SOL    HW117753   3.888   3.443   4.572  0.2921 -0.6959  0.1573
 2097SOL    HW217754   3.987   3.335   4.548  0.1960 -0.0906 -0.3396
 2098SOL     OW17755   0.215   2.775   9.193  0.4454  0.0922  0.1954
 2098SOL    HW117756   0.119   2.778   9.199  0.3193 -0.2964 -1.4028
 2098SOL    HW217757   0.226   2.829   9.114 -1.5420 -0.2071 -0.2860
 2099SOL     OW17758   1.923   1.868   2.428 -0.1995 -0.3857 -0.5721
 2099SOL    HW117759   1.976   1.928   2.482  0.6685  1.4529 -3.4166
 2099SOL    HW217760   1.987   1.858   2.357  0.9413  1.1106  0.2366
 2100SOL     OW17761   4.105   2.584   8.754  0.0240 -0.0605  0.4208
 2100SOL    HW117762   4.104   2.603   8.848 -0.9227  2.2317 -0.0461
 2100SOL    HW217763   4.010   2.579   8.742  0.0345 -0.1458  0.3779
 2101SOL     OW17764   0.692   4.641   3.663 -0.2098  0.1879 -0.2575
 2101SOL    HW117765   0.771   4.696   3.661 -0.5372  0.6709  0.2386
 2101SOL    HW217766   0.723   4.550   3.660  0.2257  0.2713  1.8842
 2102SOL     OW17767   3.216   2.477   5.694  0.1048  0.0303 -0.2568
 2102SOL    HW117768   3.298   2.506   5.652  0.3999  1.5031  1.3293
 2102SOL    HW217769   3.259   2.435   5.768  1.0304 -0.5977 -1.1505
 2103SOL     OW17770   0.868   2.605  17.674 -0.4689 -0.2354  0.0448
 2103SOL    HW117771   0.828   2.638  17.594 -2.4146 -2.5283  0.0733
 2103SOL    HW217772   0.944   2.663  17.672 -1.7345  1.3982  0.0578
 2104SOL     OW17773   1.426   2.232  16.277  0.4072  0.3067 -0.1019
 2104SOL    HW117774   1.506   2.268  16.238  0.0169 -1.1205 -2.2506
 2104SOL    HW217775   1.377   2.225  16.195 -0.7689  1.0323  0.5367
 2105SOL     OW17776   0.030   1.824   4.848 -0.1220 -0.0814 -0.3285
 2105SOL    HW117777   0.040   1.913   4.880 -0.9616  0.0314 -0.3778
 2105SOL    HW217778   0.043   1.764   4.921 -1.3225 -1.3497 -1.1392
 2106SOL     OW17779   0.775   2.174   4.083  1.3095 -0.4145  0.1814
 2106SOL    HW117780   0.811   2.261   4.100 -0.1840  0.5617 -1.6929
 2106SOL    HW217781   0.807   2.143   3.999 -0.3243 -0.1591 -0.5389
 2107SOL     OW17782   4.705   3.074   6.377  0.4450  0.1316  0.8364
 2107SOL    HW117783   0.061   3.025   6.365  0.5760  0.2455  1.2491
 2107SOL    HW217784   4.674   3.033   6.458 -0.6193 -3.2639 -1.2889
 2108SOL     OW17785   1.299   1.403  15.450 -0.3147  0.6776 -0.5299
 2108SOL    HW117786   1.226   1.457  15.480 -0.3658 -0.4492  1.4034
 2108SOL    HW217787   1.253   1.357  15.381 -0.2190 -1.1694  0.6483
 2109SOL     OW17788   3.432   1.037   7.477  0.2854 -0.2619 -0.0187
 2109SOL    HW117789   3.439   1.118   7.426  3.5838 -0.2984  0.3581
 2109SOL    HW217790   3.337   1.030   7.484  0.1624  0.9425 -0.6015
 2110SOL     OW17791   0.436   3.207   7.470 -0.0896  0.2204  0.1307
 2110SOL    HW117792   0.405   3.210   7.560  0.8499  2.1814  0.3775
 2110SOL    HW217793   0.410   3.116   7.450 -0.5850  0.2560  0.6147
 2111SOL     OW17794   2.811   2.463   7.212  0.3352 -0.0706 -0.2150
 2111SOL    HW117795   2.758   2.493   7.286  0.7884  0.4901 -0.1123
 2111SOL    HW217796   2.827   2.540   7.157 -0.6811 -0.2296 -0.7288
 2112SOL     OW17797   1.801   3.702   2.573  0.2023 -0.3519  0.3320
 2112SOL    HW117798   1.785   3.632   2.636  1.9722 -0.9263  0.1564
 2112SOL    HW217799   1.852   3.643   2.518 -0.3167 -0.9510  0.4985
 2113SOL     OW17800   3.991   2.173  12.621 -0.1620  0.0636  0.3413
 2113SOL    HW117801   4.018   2.125  12.699  0.3108 -1.0813 -0.5336
 2113SOL    HW217802   4.072   2.165  12.570 -1.6145 -0.2831 -1.9332
 2114SOL     OW17803   2.895   0.723  10.209 -0.2802  0.0469  0.2087
 2114SOL    HW117804   2.954   0.793  10.237  0.6764 -0.2792 -0.9815
 2114SOL    HW217805   2.823   0.717  10.272 -1.3661  1.2262 -0.9170
 2115SOL     OW17806   2.251   1.396   3.487 -0.3388 -0.3860  0.6166
 2115SOL    HW117807   2.313   1.323   3.490  1.0304  0.6577 -1.8925
 2115SOL    HW217808   2.213   1.390   3.400 -0.5292 -0.5963  0.7160
 2116SOL     OW17809   0.265   0.376  13.419 -0.4848  0.4770  0.2837
 2116SOL    HW117810   0.230   0.332  13.341 -3.4012 -0.5853  2.1965
 2116SOL    HW217811   0.192   0.434  13.436 -1.9495 -0.9979 -0.9988
 2117SOL     OW17812   4.622   4.566   6.947 -0.1983  0.3389 -0.4192
 2117SOL    HW117813   4.539   4.526   6.973  0.7203 -0.6895  0.9891
 2117SOL    HW217814   4.612   4.646   6.999 -0.4968  0.4378 -0.6300
 2118SOL     OW17815   1.796   1.904   6.214 -0.7640 -0.3086 -0.5803
 2118SOL    HW117816   1.775   1.822   6.168  0.8736  0.7705 -3.2735
 2118SOL    HW217817   1.859   1.869   6.277  0.1086  0.4554 -1.0218
 2119SOL     OW17818   1.348   0.816  10.819  0.1441 -0.2621  0.0847
 2119SOL    HW117819   1.415   0.857  10.764 -1.8671 -0.2788 -2.3460
 2119SOL    HW217820   1.396   0.789  10.897 -0.9126 -0.7854  0.5523
 2120SOL     OW17821   3.854   0.044   8.706  0.4380  0.0777 -0.3530
 2120SOL    HW117822   3.796   0.010   8.775 -0.0565 -0.9716 -1.2895
 2120SOL    HW217823   3.924   0.081   8.760 -2.3250 -0.2808  3.5110
 2121SOL     OW17824   0.311   2.354  11.922  0.1238 -0.2398  0.8158
 2121SOL    HW117825   0.258   2.323  11.996 -1.5061  0.7711  0.0744
 2121SOL    HW217826   0.325   2.448  11.931 -0.6007  0.2339 -3.0045
 2122SOL     OW17827   0.683   3.802   2.382  0.9820 -0.1178  0.8745
 2122SOL    HW117828   0.593   3.789   2.353  0.4404  0.6370  2.2235
 2122SOL    HW217829   0.671   3.828   2.473  2.5355  1.0593  0.7504
 2123SOL     OW17830   3.191   4.580  12.860  0.6379 -0.3649  0.6150
 2123SOL    HW117831   3.198   4.559  12.953 -0.0040  0.4821  0.8533
 2123SOL    HW217832   3.113   4.530  12.835 -0.3794  1.0826  0.8886
 2124SOL     OW17833   0.206   1.971   7.794 -0.0563 -0.0032  0.0269
 2124SOL    HW117834   0.290   1.927   7.778 -1.3203 -2.4734  0.2655
 2124SOL    HW217835   0.232   2.060   7.769  1.6833 -0.1805  1.1393
 2125SOL     OW17836   1.325   3.970   2.258 -0.0756  0.6012  0.2736
 2125SOL    HW117837   1.313   3.935   2.170 -2.8085  1.0693  0.4483
 2125SOL    HW217838   1.237   3.977   2.294 -0.4560 -2.6237 -0.0403
 2126SOL     OW17839   0.657   0.666  13.337  0.2808 -0.5508 -0.5451
 2126SOL    HW117840   0.614   0.710  13.410  1.5782 -0.5673  0.2405
 2126SOL    HW217841   0.634   0.727  13.267 -1.0006  0.6175  0.8898
 2127SOL     OW17842   3.131   4.296   2.429 -0.9716 -0.1765 -0.0398
 2127SOL    HW117843   3.174   4.227   2.379 -1.0066  0.3197 -0.7658
 2127SOL    HW217844   3.198   4.301   2.497 -1.1957  2.0952  0.0431
 2128SOL     OW17845   0.511   4.712   7.907  0.1375 -0.0724  0.0852
 2128SOL    HW117846   0.448   4.649   7.872  1.6791 -0.7089 -1.5871
 2128SOL    HW217847   0.482   0.076   7.886 -0.4843  0.1517  1.9687
 2129SOL     OW17848   2.585   1.567   1.394  0.3735 -0.0521 -0.6886
 2129SOL    HW117849   2.659   1.557   1.453  2.2865  0.9407 -2.9202
 2129SOL    HW217850   2.592   1.651   1.348  0.1021  1.0294  1.2404
 2130SOL     OW17851   3.385   2.368   8.285  0.4926 -0.2508 -0.0712
 2130SOL    HW117852   3.410   2.281   8.317  2.5141 -0.1399 -1.3316
 2130SOL    HW217853   3.464   2.422   8.290  0.6724 -0.3494 -1.7727
 2131SOL     OW17854   1.393   3.395   1.470 -0.4068  0.3521  0.5168
 2131SOL    HW117855   1.330   3.454   1.512 -0.1448  1.1051 -0.1600
 2131SOL    HW217856   1.364   3.312   1.508 -2.5099  1.5328  1.4675
 2132SOL     OW17857   2.962   3.508   6.325 -0.1072 -0.2718  0.1760
 2132SOL    HW117858   3.057   3.515   6.315 -0.6809  2.3725 -3.2068
 2132SOL    HW217859   2.926   3.491   6.239 -1.9397  0.9371  0.7131
 2133SOL     OW17860   3.662   2.135   5.808 -0.0037 -0.7419  0.3182
 2133SOL    HW117861   3.704   2.098   5.730  1.0895  1.5944 -0.1806
 2133SOL    HW217862   3.711   2.092   5.877  0.5744  1.6034  1.3621
 2134SOL     OW17863   3.403   4.056   4.058  0.4451  0.1507 -0.2034
 2134SOL    HW117864   3.473   4.119   4.040 -1.0665  2.6470  2.7013
 2134SOL    HW217865   3.403   4.009   3.975  1.3876 -0.5330  0.1916
 2135SOL     OW17866   1.114   0.002   3.582  0.3882  0.1362 -0.8401
 2135SOL    HW117867   1.095   4.690   3.496 -1.0675 -1.4421  0.1586
 2135SOL    HW217868   1.063   4.668   3.638 -0.2258  0.9397 -0.5416
 2136SOL     OW17869   3.191   3.864   9.560 -0.1966 -0.2671  0.0152
 2136SOL    HW117870   3.159   3.922   9.629  0.3437  2.6303 -2.1707
 2136SOL    HW217871   3.216   3.789   9.614 -1.4798 -0.9043 -0.2663
 2137SOL     OW17872   0.913   0.620   7.698 -0.2720 -0.0141  0.3329
 2137SOL    HW117873   0.848   0.588   7.636 -1.2209  1.1149  0.7359
 2137SOL    HW217874   0.864   0.652   7.774 -1.2247 -1.4993  0.3339
 2138SOL     OW17875   1.226   0.314  12.119 -0.4919  0.2375  0.1714
 2138SOL    HW117876   1.147   0.264  12.139 -0.6353 -0.3535 -1.8663
 2138SOL    HW217877   1.212   0.399  12.162  2.0292  1.7986 -2.1299
 2139SOL     OW17878   3.714   2.359   8.069 -0.3917  0.0234 -0.5893
 2139SOL    HW117879   3.649   2.305   8.026  0.6021 -1.3742 -0.3349
 2139SOL    HW217880   3.675   2.421   8.131  0.5793  1.1181 -1.0770
 2140SOL     OW17881   0.411   1.380   8.671 -0.0346 -0.1675  0.0596
 2140SOL    HW117882   0.400   1.357   8.578  1.8213 -2.6185  0.4266
 2140SOL    HW217883   0.406   1.475   8.678  1.4358 -0.2399  2.0924
 2141SOL     OW17884   2.864   0.881   1.517 -0.1683  0.7266 -0.0911
 2141SOL    HW117885   2.791   0.823   1.540  0.0787  1.7469  3.2294
 2141SOL    HW217886   2.899   0.830   1.443  0.8174  0.3233  0.6513
 2142SOL     OW17887   0.319   3.507   0.152  0.6862  0.2428  0.7226
 2142SOL    HW117888   0.273   3.424   0.164 -1.9902  1.5104 -0.8004
 2142SOL    HW217889   0.275   3.554   0.223 -1.0989 -0.5056  0.1169
 2143SOL     OW17890   0.082   4.548   3.511 -0.0721  0.1829 -0.1553
 2143SOL    HW117891   0.095   4.620   3.573 -1.0644  0.7687 -0.6396
 2143SOL    HW217892   0.026   4.589   3.446 -1.6339  0.9091  1.6349
 2144SOL     OW17893   0.997   0.617   1.002  0.0512  0.1610 -0.2198
 2144SOL    HW117894   0.982   0.670   1.081  0.1936  1.5303 -1.1090
 2144SOL    HW217895   0.966   0.679   0.936 -0.7244  1.3581  1.2513
 2145SOL     OW17896   3.962   3.585   3.780 -0.2300  0.0455 -0.3472
 2145SOL    HW117897   3.970   3.610   3.872  0.8292 -1.6047  0.0119
 2145SOL    HW217898   4.009   3.502   3.770  0.5565  0.6787 -1.8385
 2146SOL     OW17899   0.667   2.129   2.060 -0.4936  0.2323  0.0186
 2146SOL    HW117900   0.660   2.071   1.983 -0.4706 -0.5581  0.6136
 2146SOL    HW217901   0.588   2.180   2.043 -2.4702 -1.4581  4.3220
 2147SOL     OW17902   3.147   1.915   3.474  0.5066  0.2285 -0.2022
 2147SOL    HW117903   3.154   1.972   3.398 -1.2540 -1.5595 -1.6883
 2147SOL    HW217904   3.052   1.914   3.485  0.7786  0.0080  2.2656
 2148SOL     OW17905   1.828   0.133   5.194  0.1857 -0.0018 -0.4377
 2148SOL    HW117906   1.921   0.134   5.172 -0.3283 -2.1426 -2.8122
 2148SOL    HW217907   1.818   0.052   5.244 -0.1268 -0.1563 -0.7431
 2149SOL     OW17908   2.715   2.856  12.470 -0.3582  0.1319  0.4974
 2149SOL    HW117909   2.762   2.878  12.390  0.6197 -0.5070  0.9023
 2149SOL    HW217910   2.791   2.842  12.525 -0.9293 -2.6732  0.6141
 2150SOL     OW17911   2.211   0.103   3.983  0.1873 -0.9165 -0.3199
 2150SOL    HW117912   2.235   0.075   3.895  0.7484  0.2283 -0.5278
 2150SOL    HW217913   2.116   0.090   3.980 -0.0976  0.9520  0.1912
 2151SOL     OW17914   0.706   0.677   5.346 -0.0597  0.0686 -0.4001
 2151SOL    HW117915   0.634   0.640   5.295 -2.1692  1.5178  1.5265
 2151SOL    HW217916   0.771   0.607   5.345  0.3535  0.5280 -3.7674
 2152SOL     OW17917   3.302   0.407   3.468  0.5771 -0.0356 -0.0618
 2152SOL    HW117918   3.292   0.313   3.454 -0.4332 -0.1734  1.6185
 2152SOL    HW217919   3.221   0.444   3.503 -0.1051  0.5428 -2.2044
 2153SOL     OW17920   2.289   0.774   8.443 -0.0906 -0.3421  0.0665
 2153SOL    HW117921   2.374   0.797   8.480 -0.3957  1.4589 -0.3400
 2153SOL    HW217922   2.259   0.717   8.514  0.8334 -1.7945 -0.7190
 2154SOL     OW17923   3.568   3.285   2.395  0.2713  0.2694  0.3557
 2154SOL    HW117924   3.662   3.300   2.385  0.2618  0.7117  0.8985
 2154SOL    HW217925   3.554   3.249   2.308  0.5768 -0.3983  0.5888
 2155SOL     OW17926   3.085   3.605   3.913 -0.1936  0.3360 -0.0449
 2155SOL    HW117927   3.004   3.637   3.951  0.4457  3.4059 -1.3083
 2155SOL    HW217928   3.062   3.512   3.901  0.1251  0.2644 -0.1069
 2156SOL     OW17929   0.655   1.108  17.458  0.4618 -0.1829  0.1011
 2156SOL    HW117930   0.644   1.112  17.363  1.9203  0.6729 -0.0354
 2156SOL    HW217931   0.738   1.063  17.475  0.8373 -0.2674 -2.0027
 2157SOL     OW17932   0.635   4.618   8.585 -0.1499  0.0420 -0.0903
 2157SOL    HW117933   0.588   4.581   8.510 -0.2347 -0.2762  0.1176
 2157SOL    HW217934   0.696   4.544   8.595  0.0041  0.3280  1.1942
 2158SOL     OW17935   1.170   0.268   2.490  0.0681  0.4063  0.2715
 2158SOL    HW117936   1.200   0.230   2.407 -0.2784  1.6669 -0.4226
 2158SOL    HW217937   1.120   0.200   2.535  0.4103 -0.5179 -0.7482
 2159SOL     OW17938   1.421   3.888   5.475 -0.5052 -0.2004 -0.7465
 2159SOL    HW117939   1.356   3.938   5.525  0.6568  1.0577 -0.4699
 2159SOL    HW217940   1.451   3.952   5.410  0.2979 -2.7710 -2.8815
 2160SOL     OW17941   3.617   0.716  16.099 -0.1388  0.4518  0.0301
 2160SOL    HW117942   3.603   0.622  16.093  0.6562  0.4868 -2.2951
 2160SOL    HW217943   3.711   0.732  16.109 -0.3239  1.5225  0.0997
 2161SOL     OW17944   1.031   1.763   9.097 -0.4438 -0.0962 -0.1547
 2161SOL    HW117945   1.087   1.792   9.025 -1.5690 -1.0642 -1.4302
 2161SOL    HW217946   1.049   1.670   9.110 -4.0220 -1.2643 -3.4016
 2162SOL     OW17947   4.066   2.919   3.272  0.6083  0.4679 -0.4500
 2162SOL    HW117948   4.155   2.947   3.250  0.6083  0.8685  0.0459
 2162SOL    HW217949   4.083   2.867   3.351  0.0344  0.4285 -0.3506
 2163SOL     OW17950   0.697   0.744   4.475  0.0600 -0.5141 -0.3697
 2163SOL    HW117951   0.649   0.815   4.432 -0.3522 -0.7146 -0.2383
 2163SOL    HW217952   0.775   0.796   4.496 -2.4060  2.4304  1.4869
 2164SOL     OW17953   0.401   4.057  16.371 -0.7304  1.0325  0.2435
 2164SOL    HW117954   0.492   4.028  16.372 -0.3282  2.2130 -1.6224
 2164SOL    HW217955   0.375   3.987  16.312 -0.3196  1.3671 -0.3361
 2165SOL     OW17956   0.978   0.459  15.324 -0.0894 -0.3604 -0.7373
 2165SOL    HW117957   0.978   0.551  15.350  2.1160  0.2348 -2.8622
 2165SOL    HW217958   0.920   0.414  15.385 -1.1127  1.1487 -0.6193
 2166SOL     OW17959   3.667   4.564   0.664 -0.2569  0.2215  0.0779
 2166SOL    HW117960   3.589   4.542   0.612 -0.6674  1.1951  0.2867
 2166SOL    HW217961   3.728   4.601   0.600 -1.2331 -0.0297 -1.0078
 2167SOL     OW17962   3.305   2.724  11.737  0.0218  0.2681 -0.3425
 2167SOL    HW117963   3.388   2.773  11.737  0.2121 -0.0355  1.7456
 2167SOL    HW217964   3.343   2.636  11.731 -1.1543 -0.3856  1.7610
 2168SOL     OW17965   3.140   4.701   5.347 -0.5522 -0.1997  0.4112
 2168SOL    HW117966   3.222   4.656   5.366 -1.0436  0.3122  3.6840
 2168SOL    HW217967   3.160   0.059   5.392  0.4919 -0.0408 -0.3415
 2169SOL     OW17968   3.740   3.698   1.346  0.1648  0.2970 -0.1860
 2169SOL    HW117969   3.799   3.749   1.290  2.0623  0.4740  2.0201
 2169SOL    HW217970   3.768   3.611   1.319  0.9841  0.1239  1.2640
 2170SOL     OW17971   3.616   0.019   7.072  0.7645  0.0614  0.0028
 2170SOL    HW117972   3.545   4.724   7.133  1.0406 -0.9444 -0.0101
 2170SOL    HW217973   3.579   0.037   6.985 -0.3579 -0.0049  0.4734
 2171SOL     OW17974   3.150   2.322   1.723 -0.2278  0.1667 -0.0418
 2171SOL    HW117975   3.147   2.360   1.635 -0.7343  1.2312  0.4442
 2171SOL    HW217976   3.230   2.269   1.721  1.2704  2.3823  1.0452
 2172SOL     OW17977   4.287   1.740   5.626  0.6785 -0.0689  0.0955
 2172SOL    HW117978   4.332   1.677   5.683 -0.2113 -1.2338 -0.4835
 2172SOL    HW217979   4.196   1.723   5.651  0.3828  0.0838 -0.8982
 2173SOL     OW17980   3.319   4.679  11.040  0.5203  0.4440  0.7762
 2173SOL    HW117981   3.412   4.697  11.026  0.3380 -1.6995 -3.2478
 2173SOL    HW217982   3.316   4.668  11.135 -2.4710 -1.7981  0.4039
 2174SOL     OW17983   2.216   3.866   1.937 -0.4490 -0.2492  0.2091
 2174SOL    HW117984   2.210   3.850   2.031 -0.4420  1.7661  0.5654
 2174SOL    HW217985   2.124   3.878   1.910 -0.0491  2.1097 -0.1284
 2175SOL     OW17986   0.799   2.874  10.164 -0.4029  0.4891 -0.1727
 2175SOL    HW117987   0.836   2.915  10.242  0.2797 -1.3216  0.4640
 2175SOL    HW217988   0.707   2.856  10.185 -0.4112 -1.2061 -1.6410
 2176SOL     OW17989   3.640   3.132  11.186 -0.0270 -0.0930 -0.0536
 2176SOL    HW117990   3.584   3.133  11.109 -0.6231 -1.0187  0.3626
 2176SOL    HW217991   3.641   3.037  11.202 -0.5012 -0.5494 -2.7025
 2177SOL     OW17992   4.667   1.950   0.279  0.4187  0.0859  0.4220
 2177SOL    HW117993   0.004   1.917   0.215 -1.0668 -0.9882 -0.4792
 2177SOL    HW217994   4.630   2.019   0.224  4.1639  2.0623  0.4249
 2178SOL     OW17995   4.001   0.526   7.113 -0.9847  0.1376 -0.0816
 2178SOL    HW117996   4.081   0.508   7.065 -0.0132  2.1182  0.8367
 2178SOL    HW217997   3.938   0.469   7.068 -2.9019  1.6000  0.7500
 2179SOL     OW17998   4.407   4.577   6.393  0.3475 -0.1501  0.2264
 2179SOL    HW117999   4.484   4.521   6.389 -0.5234 -1.2309 -1.4859
 2179SOL    HW218000   4.454   4.659   6.409 -2.7486  1.9646 -1.5150
 2180SOL     OW18001   3.424   3.367   7.671 -0.9060  0.2570  0.5375
 2180SOL    HW118002   3.377   3.349   7.590  0.0221 -0.0222  0.0592
 2180SOL    HW218003   3.446   3.459   7.656 -0.4212  0.1671  0.6861
 2181SOL     OW18004   2.218   3.595  16.112 -0.4134  0.0687 -0.4815
 2181SOL    HW118005   2.163   3.641  16.175 -1.7932 -0.9884 -0.8897
 2181SOL    HW218006   2.191   3.510  16.148  0.3173 -0.7145 -1.7914
 2182SOL     OW18007   1.850   2.386  13.669  0.9103 -0.2203  1.4483
 2182SOL    HW118008   1.873   2.315  13.729  0.4369 -1.3017  0.3519
 2182SOL    HW218009   1.938   2.410  13.643  0.4670 -0.4983 -0.2652
 2183SOL     OW18010   1.691   3.288   7.535 -0.2116 -0.2658  0.2652
 2183SOL    HW118011   1.724   3.198   7.535  1.1848  0.2437  0.0480
 2183SOL    HW218012   1.735   3.316   7.616 -2.6101  2.2514  0.6855
 2184SOL     OW18013   1.343   4.294   8.212 -0.6207 -0.2028  0.3413
 2184SOL    HW118014   1.372   4.203   8.205  2.5181  0.9926 -2.3085
 2184SOL    HW218015   1.348   4.299   8.308 -2.0123  0.3560  0.3759
 2185SOL     OW18016   3.024   2.523  15.641  0.1512 -0.3313  0.3224
 2185SOL    HW118017   2.965   2.597  15.653  0.8698  0.5328 -1.5746
 2185SOL    HW218018   3.049   2.546  15.552  1.4574 -0.4966  0.6345
 2186SOL     OW18019   3.938   3.141  12.394  0.1902 -0.1670  0.0547
 2186SOL    HW118020   3.978   3.131  12.308 -0.6899 -1.4442 -0.1997
 2186SOL    HW218021   4.019   3.164  12.440 -0.2043 -2.5128  1.9066
 2187SOL     OW18022   0.459   1.200   1.174 -0.3749  0.0808 -0.2257
 2187SOL    HW118023   0.419   1.242   1.250 -1.5264 -0.2085 -0.6794
 2187SOL    HW218024   0.513   1.275   1.147  0.9701 -0.5917  0.5746
 2188SOL     OW18025   2.621   1.877   6.171  0.1430  0.2887  0.6659
 2188SOL    HW118026   2.564   1.836   6.235 -1.5180  0.1749 -0.8830
 2188SOL    HW218027   2.650   1.953   6.221  0.7868  0.0761  0.6170
 2189SOL     OW18028   0.987   0.253   5.493  0.1109 -0.2198  0.8453
 2189SOL    HW118029   1.046   0.213   5.429  0.3150 -0.9663  1.4982
 2189SOL    HW218030   0.975   0.182   5.556 -4.0615 -1.3695 -1.2344
 2190SOL     OW18031   1.114   4.099   2.108 -0.0817  0.2076 -0.5679
 2190SOL    HW118032   1.196   4.140   2.081 -0.2401  0.7394 -0.2553
 2190SOL    HW218033   1.080   4.076   2.021  1.2244 -0.8453 -0.7930
 2191SOL     OW18034   4.135   2.470  12.610  0.6742  0.1745 -0.0958
 2191SOL    HW118035   4.120   2.471  12.704  0.1056  0.4918 -0.1918
 2191SOL    HW218036   4.048   2.441  12.583  1.4111 -1.5545 -0.6505
 2192SOL     OW18037   4.022   3.418  11.808 -0.1417 -0.2762 -0.5201
 2192SOL    HW118038   4.066   3.334  11.818 -2.6353 -1.3726  1.2248
 2192SOL    HW218039   4.011   3.443  11.900  0.1272  0.1047 -0.5890
 2193SOL     OW18040   4.255   0.242  15.637 -0.2308  0.3871 -0.2837
 2193SOL    HW118041   4.309   0.307  15.682  0.6436 -1.1267  0.8598
 2193SOL    HW218042   4.299   0.163  15.670 -1.2949 -0.0548  0.0869
 2194SOL     OW18043   0.243   3.490   3.058 -0.4063  0.1502 -0.1986
 2194SOL    HW118044   0.327   3.445   3.071  0.7871  1.5271 -2.9958
 2194SOL    HW218045   0.196   3.414   3.024  1.6842 -1.7191  1.0639
 2195SOL     OW18046   3.543   4.581  17.322 -0.3203 -0.7051 -0.0996
 2195SOL    HW118047   3.458   4.576  17.278  1.2608  2.3572 -3.4989
 2195SOL    HW218048   3.586   4.504  17.284  1.2033  0.7176 -1.2964
 2196SOL     OW18049   4.003   2.869   7.003 -0.0781 -0.4210 -0.2341
 2196SOL    HW118050   3.990   2.879   6.908 -1.0683  1.6776  0.1278
 2196SOL    HW218051   4.012   2.961   7.028 -1.1323  0.0633 -1.6237
 2197SOL     OW18052   4.495   2.519   3.214  0.5712  0.1690  0.4107
 2197SOL    HW118053   4.470   2.475   3.133 -0.0303 -0.1648  0.7684
 2197SOL    HW218054   4.492   2.445   3.274 -1.3260 -0.7448 -0.8088
 2198SOL     OW18055   1.129   1.311   8.962  0.2176  0.2234 -0.2853
 2198SOL    HW118056   1.035   1.305   8.978  0.0435  0.5311 -1.1645
 2198SOL    HW218057   1.164   1.230   8.998 -2.5039 -0.3775  0.9577
 2199SOL     OW18058   2.196   4.113  11.205 -0.1408  0.6347 -0.4516
 2199SOL    HW118059   2.243   4.081  11.128  1.0381 -0.3107  0.6807
 2199SOL    HW218060   2.183   4.206  11.186 -2.3467  0.1139 -1.6178
 2200SOL     OW18061   4.207   1.303   6.303  0.2747 -0.1749 -0.1855
 2200SOL    HW118062   4.140   1.268   6.244 -2.0173 -0.3996  2.6127
 2200SOL    HW218063   4.159   1.344   6.374  0.4071 -0.0407 -0.1725
 2201SOL     OW18064   2.401   2.293   4.625 -0.0151 -0.1764  0.4428
 2201SOL    HW118065   2.410   2.378   4.582 -0.9713 -0.4446 -0.3066
 2201SOL    HW218066   2.373   2.317   4.714  3.8462 -0.5634  1.7482
 2202SOL     OW18067   4.413   1.128   1.803 -0.1818 -0.2005  0.2830
 2202SOL    HW118068   4.381   1.183   1.731  1.1922 -0.5624 -0.6154
 2202SOL    HW218069   4.428   1.194   1.870 -1.5909  2.0484 -1.6070
 2203SOL     OW18070   0.770   3.283   1.670  0.3259  0.3462  0.4456
 2203SOL    HW118071   0.694   3.339   1.653 -0.2499 -1.7322 -3.7089
 2203SOL    HW218072   0.757   3.277   1.765 -2.3965 -2.8184 -0.1588
 2204SOL     OW18073   2.821   1.937   2.397 -0.8310 -0.3552 -0.0195
 2204SOL    HW118074   2.780   1.917   2.482  0.5221  1.2345  1.0150
 2204SOL    HW218075   2.909   1.905   2.414 -1.4117 -2.0064 -0.0992
 2205SOL     OW18076   2.093   3.579  11.510  0.6609  0.5935 -0.2601
 2205SOL    HW118077   2.162   3.637  11.476 -0.0320  0.3367 -2.1035
 2205SOL    HW218078   2.144   3.507  11.547 -0.3969 -0.2310 -0.4128
 2206SOL     OW18079   0.195   0.610   2.728  0.1540  0.2581 -0.0221
 2206SOL    HW118080   0.138   0.649   2.795 -1.1146  0.8587 -1.4501
 2206SOL    HW218081   0.163   0.645   2.645  0.1985  2.7128  0.9797
 2207SOL     OW18082   2.894   1.474  15.336  0.2083  0.3845 -0.0321
 2207SOL    HW118083   2.913   1.421  15.414  1.6809  1.3422  0.2576
 2207SOL    HW218084   2.802   1.499  15.347  1.8885  5.6933  1.8065
 2208SOL     OW18085   2.870   0.358   1.511 -0.3617 -0.4007 -0.1039
 2208SOL    HW118086   2.946   0.375   1.566  0.6214 -1.8728 -1.0081
 2208SOL    HW218087   2.893   0.376   1.420 -1.0793 -3.6504 -0.9372
 2209SOL     OW18088   0.670   1.356   3.035 -0.3126 -0.2412 -0.2057
 2209SOL    HW118089   0.691   1.270   2.998  0.1618 -0.0091 -0.4753
 2209SOL    HW218090   0.760   1.385   3.055 -0.2510  1.9565 -3.5950
 2210SOL     OW18091   4.309   2.896   3.813 -0.7428 -0.0498 -0.5272
 2210SOL    HW118092   4.276   2.916   3.901  0.5642  0.6407 -0.1958
 2210SOL    HW218093   4.245   2.944   3.761 -0.2533 -0.3078 -1.3750
 2211SOL     OW18094   0.197   0.129   3.517 -0.4049 -0.1976 -0.5499
 2211SOL    HW118095   0.185   0.224   3.512  0.9990  0.0133  0.0808
 2211SOL    HW218096   0.223   0.105   3.428  2.6090  3.0109 -0.5541
 2212SOL     OW18097   2.673   1.240   5.421 -0.3354 -0.2542 -0.6645
 2212SOL    HW118098   2.741   1.305   5.433  1.4210 -2.4961  1.5839
 2212SOL    HW218099   2.595   1.294   5.436 -0.4053 -0.9190  1.3587
 2213SOL     OW18100   2.144   1.310   7.382  0.2737  0.4688  0.4142
 2213SOL    HW118101   2.053   1.316   7.352  0.7809  0.6361 -1.0574
 2213SOL    HW218102   2.179   1.250   7.317  2.3125  0.2853  1.6720
 2214SOL     OW18103   0.436   0.185  16.517  0.6569  0.2560 -0.9340
 2214SOL    HW118104   0.463   0.261  16.465 -0.0265  0.2061 -1.3617
 2214SOL    HW218105   0.380   0.232  16.578 -1.2969 -0.6542 -2.0435
 2215SOL     OW18106   0.975   2.285  14.490 -0.1907  0.1053  0.0308
 2215SOL    HW118107   0.904   2.270  14.553 -0.0437 -0.4272  0.0662
 2215SOL    HW218108   0.953   2.211  14.433 -0.4884 -1.2212  1.8841
 2216SOL     OW18109   3.797   1.453   8.869 -0.0594  0.0384  0.0302
 2216SOL    HW118110   3.836   1.374   8.908 -0.7929 -0.8286 -0.9794
 2216SOL    HW218111   3.830   1.443   8.780 -0.1342 -1.7963  0.2090
 2217SOL     OW18112   1.889   4.009   7.217 -0.0202  0.5714  0.5404
 2217SOL    HW118113   1.795   3.998   7.203  0.2736  2.3895 -2.9502
 2217SOL    HW218114   1.933   3.955   7.152 -2.5885  1.8101 -2.2370
 2218SOL     OW18115   3.181   1.734   7.613  0.4197  0.3950  0.8081
 2218SOL    HW118116   3.179   1.827   7.636 -1.4473  0.5575  0.0122
 2218SOL    HW218117   3.154   1.729   7.521 -0.9654 -0.1051  1.2418
 2219SOL     OW18118   2.343   2.791   2.685  0.0156  0.4485 -0.0195
 2219SOL    HW118119   2.252   2.775   2.660 -0.2769 -1.4789  2.2454
 2219SOL    HW218120   2.335   2.837   2.768 -1.8611 -1.5440  0.8955
 2220SOL     OW18121   0.874   1.840  17.399 -0.0314 -0.5380 -0.2191
 2220SOL    HW118122   0.921   1.818  17.319 -0.9096 -1.8482 -0.3780
 2220SOL    HW218123   0.844   1.931  17.391  0.7794 -0.1302  1.2474
 2221SOL     OW18124   0.797   0.127   8.631 -0.0541  0.5536  0.5225
 2221SOL    HW118125   0.828   0.185   8.562  1.3808  0.2114  0.8810
 2221SOL    HW218126   0.741   0.062   8.589  0.4203  1.0939 -0.9245
 2222SOL     OW18127   4.434   4.610   2.589  0.7070  0.3926  0.2404
 2222SOL    HW118128   4.356   4.569   2.625  0.9699 -1.3222 -1.1229
 2222SOL    HW218129   4.427   4.560   2.507 -1.8362 -0.6632  1.1013
 2223SOL     OW18130   4.205   2.976   0.993 -0.3955  0.4996 -0.5242
 2223SOL    HW118131   4.196   3.027   0.912  0.7166  0.7611 -0.4867
 2223SOL    HW218132   4.133   2.917   0.972  1.0861 -0.5287 -2.7654
 2224SOL     OW18133   3.049   0.949  11.569  0.3469  0.3450 -0.1731
 2224SOL    HW118134   3.125   0.920  11.618 -0.4269 -0.2251  0.6871
 2224SOL    HW218135   2.995   0.949  11.648  0.9017  0.0142  0.2006
 2225SOL     OW18136   4.510   4.527   4.979 -0.1565 -0.0856  0.3859
 2225SOL    HW118137   4.474   4.610   5.010  1.8119  1.2677 -0.9518
 2225SOL    HW218138   4.605   4.535   4.982 -0.2745  1.2345  0.3856
 2226SOL     OW18139   1.860   0.729   4.708  0.3511 -0.6033  0.1114
 2226SOL    HW118140   1.903   0.752   4.790  2.0350 -0.1833 -0.8941
 2226SOL    HW218141   1.770   0.754   4.731  0.6850 -0.1388  0.9292
 2227SOL     OW18142   3.709   0.652   8.784 -0.8008 -0.5609  0.4568
 2227SOL    HW118143   3.635   0.629   8.840  0.0617 -0.3494  1.6970
 2227SOL    HW218144   3.703   0.585   8.716 -1.4951 -0.1345  0.0926
 2228SOL     OW18145   2.466   0.031  11.219 -0.1603 -0.3658  0.2623
 2228SOL    HW118146   2.559   0.007  11.218 -0.1285 -0.2256 -1.0456
 2228SOL    HW218147   2.480   0.124  11.200 -0.3947 -0.2013  0.9041
 2229SOL     OW18148   3.288   4.625   6.380  0.3099 -0.5140  0.6697
 2229SOL    HW118149   3.201   4.655   6.356  1.2782 -0.2928 -2.5783
 2229SOL    HW218150   3.286   4.635   6.475 -0.6686  0.9706  0.4899
 2230SOL     OW18151   2.035   1.796   7.128 -0.0419  0.0016 -0.8210
 2230SOL    HW118152   1.973   1.854   7.171 -0.2166 -0.4856 -0.4140
 2230SOL    HW218153   2.053   1.847   7.049  0.7405  0.3732 -0.4040
 2231SOL     OW18154   0.422   0.973  17.472  0.5477 -0.4126 -0.0205
 2231SOL    HW118155   0.504   1.021  17.458 -0.3236  0.2559 -2.7479
 2231SOL    HW218156   0.387   1.014  17.552  3.2656 -0.2102  1.0598
 2232SOL     OW18157   3.155   2.244   7.547  0.2269 -0.0049  0.2746
 2232SOL    HW118158   3.242   2.279   7.531  1.8149 -3.9548  0.2222
 2232SOL    HW218159   3.117   2.233   7.460 -1.3945 -0.7119  1.0588
 2233SOL     OW18160   3.138   1.566   2.858 -0.3122 -0.2992  0.1708
 2233SOL    HW118161   3.222   1.593   2.895  0.5145 -0.4455 -1.5912
 2233SOL    HW218162   3.156   1.543   2.767  1.1118  3.2870 -0.4429
 2234SOL     OW18163   1.149   3.963   8.090  0.6540 -0.6053 -0.1355
 2234SOL    HW118164   1.155   4.001   8.178  2.0655 -2.1283  0.4245
 2234SOL    HW218165   1.127   3.873   8.114 -0.4212 -0.2858  0.0600
 2235SOL     OW18166   3.491   3.625  17.305 -0.5025 -0.0193  0.3670
 2235SOL    HW118167   3.461   3.568  17.233 -1.9877  1.8567 -0.5029
 2235SOL    HW218168   3.568   3.669  17.269 -0.2578 -3.2557 -3.1507
 2236SOL     OW18169   2.919   2.200  11.600  0.0730  0.7198  0.0880
 2236SOL    HW118170   2.998   2.217  11.548  2.0832 -2.6585  2.0188
 2236SOL    HW218171   2.849   2.241  11.549 -1.0546  0.5496  1.5134
 2237SOL     OW18172   0.607   1.321  12.118 -0.0472 -0.4211  0.2924
 2237SOL    HW118173   0.700   1.335  12.134  0.3763 -0.6786 -1.8969
 2237SOL    HW218174   0.607   1.248  12.056  0.6499 -0.2294  0.0643
 2238SOL     OW18175   4.139   3.170   7.101  0.4607  0.2394  0.3983
 2238SOL    HW118176   4.222   3.216   7.090 -0.6467  1.6133 -2.0682
 2238SOL    HW218177   4.111   3.206   7.185 -0.8730  1.9605 -0.7958
 2239SOL     OW18178   1.725   4.516   1.255  0.4529 -0.4343  0.7017
 2239SOL    HW118179   1.766   4.444   1.207  0.1641  1.0908 -1.8327
 2239SOL    HW218180   1.751   4.588   1.198  0.7397  0.0526  1.4448
 2240SOL     OW18181   0.089   0.893   5.648  0.1949  0.1090  0.4150
 2240SOL    HW118182   0.102   0.983   5.677  0.6921  0.1164  0.1586
 2240SOL    HW218183   0.063   0.916   5.559 -1.5046 -0.4956  0.7418
 2241SOL     OW18184   4.698   2.886  11.860  0.7635  0.0779 -0.5085
 2241SOL    HW118185   4.657   2.968  11.888  1.9437 -0.2404  2.1889
 2241SOL    HW218186   0.044   2.917  11.803  1.0258 -1.0803 -0.8057
 2242SOL     OW18187   3.504   3.052   1.896  0.1733  0.1651  0.1498
 2242SOL    HW118188   3.436   2.990   1.920  0.0113 -0.8098 -2.8062
 2242SOL    HW218189   3.451   3.120   1.854 -3.4808 -1.5805  1.9739
 2243SOL     OW18190   1.462   3.707  15.136 -0.0634 -0.2345  0.1840
 2243SOL    HW118191   1.495   3.739  15.052  3.0295 -0.5437  1.2799
 2243SOL    HW218192   1.377   3.747  15.153  0.5525  1.0525  0.2445
 2244SOL     OW18193   0.526   0.406   4.639 -0.2404 -0.4352  0.2677
 2244SOL    HW118194   0.449   0.350   4.627 -0.3908 -0.3545  0.8677
 2244SOL    HW218195   0.570   0.362   4.712 -1.9750  0.1095  1.6494
 2245SOL     OW18196   4.234   3.926  17.580  0.4165 -0.1143  0.6447
 2245SOL    HW118197   4.209   3.899  17.491  0.0843 -1.7224  1.2288
 2245SOL    HW218198   4.194   3.855  17.629 -3.1720  1.6787  0.3310
 2246SOL     OW18199   3.222   0.047   0.897  0.2178 -0.0094 -0.0090
 2246SOL    HW118200   3.219   0.112   0.826  0.8394 -2.6610 -2.4429
 2246SOL    HW218201   3.177   0.089   0.971  2.9922  1.2468  0.9889
 2247SOL     OW18202   3.951   0.389  11.841 -0.1097  0.1582  0.0025
 2247SOL    HW118203   3.971   0.296  11.854  1.2920  0.4562 -0.0511
 2247SOL    HW218204   3.965   0.420  11.930 -0.6322  0.4780 -0.0269
 2248SOL     OW18205   4.061   1.653   5.831 -0.0403 -0.0148  0.2722
 2248SOL    HW118206   4.000   1.679   5.899  0.9513  0.5643  0.9465
 2248SOL    HW218207   4.029   1.564   5.816 -0.0586  0.1194 -0.4579
 2249SOL     OW18208   1.241   1.195   8.483 -0.0955 -0.0438 -0.3450
 2249SOL    HW118209   1.249   1.290   8.494  1.2009 -0.0415 -1.3373
 2249SOL    HW218210   1.163   1.195   8.428 -0.0359 -0.8756 -0.4291
 2250SOL     OW18211   3.820   0.750   1.536 -0.0410  0.2965  0.2957
 2250SOL    HW118212   3.912   0.748   1.509 -0.0436 -1.5537  0.4591
 2250SOL    HW218213   3.798   0.663   1.504 -2.0669  1.6045 -1.8291
 2251SOL     OW18214   2.491   3.299   4.701 -0.1967 -0.6078  0.2103
 2251SOL    HW118215   2.450   3.267   4.621  2.6218  0.2111 -1.5717
 2251SOL    HW218216   2.571   3.246   4.705  0.4619  0.1786 -2.6241
 2252SOL     OW18217   2.768   1.164   0.820  0.3941  0.0862 -0.1935
 2252SOL    HW118218   2.816   1.191   0.899  0.6536  0.6621 -0.5468
 2252SOL    HW218219   2.823   1.148   0.744 -0.7612 -2.5790 -0.4442
 2253SOL     OW18220   0.973   2.664  16.064  0.1718  0.3164 -0.3211
 2253SOL    HW118221   0.928   2.649  16.148 -1.1442  3.0589 -0.5417
 2253SOL    HW218222   1.003   2.750  16.093 -2.8624  1.8496 -1.6751
 2254SOL     OW18223   2.140   2.217   3.579 -0.1887 -0.5210 -0.4190
 2254SOL    HW118224   2.079   2.142   3.578 -0.9868  0.0714  2.4159
 2254SOL    HW218225   2.154   2.255   3.492  2.5592  0.5693  0.5230
 2255SOL     OW18226   1.171   2.066   0.174  0.2466 -0.2203 -0.1945
 2255SOL    HW118227   1.103   2.132   0.188  0.9300 -0.2782  3.3802
 2255SOL    HW218228   1.125   2.016   0.107 -0.2783  1.6443 -1.1951
 2256SOL     OW18229   4.217   0.954   1.898 -0.0903  0.3849 -0.4328
 2256SOL    HW118230   4.172   1.012   1.960  0.9287  0.9665 -0.2378
 2256SOL    HW218231   4.291   1.005   1.866  0.8291  0.2577  1.4375
 2257SOL     OW18232   0.267   1.230   4.834  0.1081 -0.1921  0.0673
 2257SOL    HW118233   0.240   1.241   4.743 -0.7178  0.7434  0.4152
 2257SOL    HW218234   0.349   1.277   4.846  0.2494  0.1018 -1.9841
 2258SOL     OW18235   4.262   0.618  11.732 -0.5170 -0.2677 -0.5187
 2258SOL    HW118236   4.316   0.580  11.801  0.5974 -0.6396 -1.5852
 2258SOL    HW218237   4.185   0.640  11.784 -1.3063  1.2751 -2.3393
 2259SOL     OW18238   2.012   1.371   8.163  0.2692 -0.4143  0.4152
 2259SOL    HW118239   1.957   1.421   8.103  0.6926 -1.3660 -0.7756
 2259SOL    HW218240   2.030   1.298   8.104  1.7520  1.3761 -1.3459
 2260SOL     OW18241   3.483   4.370   6.673  0.5883  0.3795 -0.0414
 2260SOL    HW118242   3.413   4.418   6.718  0.1377 -0.4049  0.0883
 2260SOL    HW218243   3.484   4.291   6.727  0.9445  0.1366 -0.4074
 2261SOL     OW18244   2.770   1.024   8.957 -0.4586 -0.0297 -0.0402
 2261SOL    HW118245   2.719   1.101   8.983  0.0143 -0.5899  2.5697
 2261SOL    HW218246   2.712   0.956   8.990 -0.2715 -0.6689 -1.0357
 2262SOL     OW18247   1.221   3.433  15.838 -0.5482  0.0286 -0.8822
 2262SOL    HW118248   1.196   3.411  15.748 -2.3112  3.3292 -1.2158
 2262SOL    HW218249   1.168   3.511  15.854  0.3650  0.2126  1.2793
 2263SOL     OW18250   3.813   4.189   4.572 -0.1926 -0.1318 -0.1070
 2263SOL    HW118251   3.885   4.222   4.518  0.6819 -0.6600  0.7391
 2263SOL    HW218252   3.756   4.171   4.498  0.1428 -0.3480 -0.3131
 2264SOL     OW18253   1.635   3.641   3.539  0.3538  0.3452  0.0901
 2264SOL    HW118254   1.591   3.558   3.521  2.5522 -0.9487  0.6631
 2264SOL    HW218255   1.571   3.704   3.506  0.6042 -0.0963 -1.2466
 2265SOL     OW18256   0.446   0.931  11.061 -0.0413 -0.4255  0.7905
 2265SOL    HW118257   0.380   0.870  11.094  0.5013 -0.9835  0.8292
 2265SOL    HW218258   0.470   0.890  10.978  1.5976  3.2394 -0.5387
 2266SOL     OW18259   3.769   0.487   1.146  0.2355 -0.1153 -0.5743
 2266SOL    HW118260   3.749   0.396   1.122 -1.2788  0.2547 -0.6810
 2266SOL    HW218261   3.690   0.531   1.116 -1.6607 -1.9352  1.7140
 2267SOL     OW18262   3.871   2.200   8.864 -0.1967  0.3673  0.3813
 2267SOL    HW118263   3.830   2.259   8.927 -1.0801 -1.9586  1.9846
 2267SOL    HW218264   3.956   2.183   8.904  0.6020  2.9500 -0.2058
 2268SOL     OW18265   3.218   1.551   7.932 -0.1699 -0.0230 -0.3579
 2268SOL    HW118266   3.214   1.531   7.838 -0.3076  1.0501 -0.5837
 2268SOL    HW218267   3.185   1.640   7.945 -0.8781 -0.1978 -0.9495
 2269SOL     OW18268   4.635   3.236   6.168 -0.0672 -0.0325  0.1712
 2269SOL    HW118269   4.711   3.207   6.118 -0.7632 -0.9815 -0.3457
 2269SOL    HW218270   4.650   3.193   6.252 -1.8307 -1.7400 -0.3869
 2270SOL     OW18271   0.702   3.860   7.333 -0.6818  0.4059 -0.6579
 2270SOL    HW118272   0.698   3.850   7.428 -1.8433  1.7702 -0.5504
 2270SOL    HW218273   0.631   3.801   7.308 -0.4772  0.2821 -0.9463
 2271SOL     OW18274   1.385   2.675   6.110  0.3399 -0.5638 -0.8526
 2271SOL    HW118275   1.300   2.661   6.151  1.0671 -1.5987  0.3255
 2271SOL    HW218276   1.400   2.766   6.135  3.0791 -0.9073 -1.2711
 2272SOL     OW18277   2.293   0.415   0.560  0.1559  0.3887  0.1463
 2272SOL    HW118278   2.263   0.335   0.604  0.9631 -0.2277 -0.4143
 2272SOL    HW218279   2.240   0.479   0.608  0.7875  0.8012  0.2943
 2273SOL     OW18280   2.423   2.216  12.068  0.4747 -0.1704  0.0589
 2273SOL    HW118281   2.451   2.228  11.977 -1.0903 -0.2364 -0.4307
 2273SOL    HW218282   2.509   2.197  12.104  1.1605  0.7415 -1.0937
 2274SOL     OW18283   1.500   3.624   8.908 -0.3870 -0.5719 -0.2188
 2274SOL    HW118284   1.410   3.654   8.920  0.7135  3.1169 -1.2963
 2274SOL    HW218285   1.498   3.545   8.963 -2.4284 -0.8734 -0.7084
 2275SOL     OW18286   4.228   0.021   4.082  0.2308 -0.1376  0.0310
 2275SOL    HW118287   4.245   0.088   4.016 -0.2369 -1.6160 -1.5898
 2275SOL    HW218288   4.299   4.688   4.057  1.1739  1.4572 -1.0011
 2276SOL     OW18289   0.944   4.423   9.052  0.4737  0.4469  0.0286
 2276SOL    HW118290   0.912   4.441   9.140  0.0609  0.8252 -0.1968
 2276SOL    HW218291   0.863   4.430   9.002  1.0631 -0.8426 -1.1231
 2277SOL     OW18292   1.537   4.093  16.485  0.2747  0.6269 -0.1161
 2277SOL    HW118293   1.573   4.133  16.406  1.0186  4.3431  2.0878
 2277SOL    HW218294   1.507   4.007  16.454  1.2384 -0.2569  1.3950
 2278SOL     OW18295   3.241   0.971   2.989 -0.4563 -0.0962 -0.2689
 2278SOL    HW118296   3.196   1.032   2.929  0.1355 -0.8188 -1.4280
 2278SOL    HW218297   3.245   0.889   2.941  0.8735 -1.0424  1.4862
 2279SOL     OW18298   3.202   2.805   0.451 -0.4155 -0.6973  0.2933
 2279SOL    HW118299   3.269   2.863   0.489  0.7438 -0.7122 -1.7681
 2279SOL    HW218300   3.197   2.736   0.517 -1.0755 -0.2089  0.7539
 2280SOL     OW18301   3.878   0.075   9.076  0.3591  0.4308 -0.7452
 2280SOL    HW118302   3.868   0.146   9.012  0.1273  0.1534 -1.0161
 2280SOL    HW218303   3.839   0.002   9.028  0.7044  0.4469 -1.0536
 2281SOL     OW18304   2.614   2.992  13.043  0.2920 -0.5415  0.3941
 2281SOL    HW118305   2.677   2.985  13.115 -0.4333  1.3097  1.2087
 2281SOL    HW218306   2.534   2.964  13.086 -0.0627  0.6758  0.5386
 2282SOL     OW18307   0.567   1.906   0.021  0.1648 -0.6552 -0.4013
 2282SOL    HW118308   0.510   1.951   0.084 -1.7187  0.3354 -2.7952
 2282SOL    HW218309   0.655   1.935   0.047  0.6994 -1.9153 -0.8115
 2283SOL     OW18310   4.547   0.847   8.412 -0.6826 -0.3107 -0.5518
 2283SOL    HW118311   4.643   0.845   8.410 -0.6415 -0.7394  1.6042
 2283SOL    HW218312   4.517   0.763   8.378 -2.2324 -0.2046  0.5688
 2284SOL     OW18313   0.450   0.838   5.858 -0.8265 -0.0573 -0.0875
 2284SOL    HW118314   0.442   0.914   5.801  0.0290  0.5788  0.6660
 2284SOL    HW218315   0.504   0.788   5.797 -0.5671 -2.9626  2.5264
 2285SOL     OW18316   1.425   4.361   9.424 -0.5426 -0.0764 -0.2240
 2285SOL    HW118317   1.356   4.335   9.485  0.0620 -0.4114  0.3058
 2285SOL    HW218318   1.370   4.418   9.369  2.3247  0.7181 -2.2297
 2286SOL     OW18319   3.123   0.712  14.551  0.1825  0.5114 -0.8439
 2286SOL    HW118320   3.170   0.706  14.635 -0.6302  2.0244 -0.2930
 2286SOL    HW218321   3.079   0.627  14.550 -0.1014  0.6586  0.0675
 2287SOL     OW18322   2.642   3.678   2.516  0.1877 -0.2441 -0.5140
 2287SOL    HW118323   2.608   3.737   2.584 -1.1624 -1.7440  0.1119
 2287SOL    HW218324   2.686   3.737   2.455  0.2996 -0.3746 -0.5590
 2288SOL     OW18325   1.595   0.827   4.803  0.7657 -0.4425 -0.3539
 2288SOL    HW118326   1.522   0.803   4.747 -1.8227  2.2234  1.8680
 2288SOL    HW218327   1.576   0.795   4.891  1.3692 -1.0092 -0.4306
 2289SOL     OW18328   2.297   0.590   1.863 -0.3378  0.3934 -0.2449
 2289SOL    HW118329   2.279   0.561   1.952 -3.5557  0.1506 -0.9976
 2289SOL    HW218330   2.314   0.498   1.841 -1.2344  0.1994 -0.1034
 2290SOL     OW18331   0.722   4.638   2.790  0.1792  0.2624 -0.2248
 2290SOL    HW118332   0.744   4.718   2.743  3.0968 -0.4107 -0.0392
 2290SOL    HW218333   0.732   4.660   2.882  1.6065 -1.7278  0.1120
 2291SOL     OW18334   0.831   2.553   9.191 -0.3034 -0.1847  0.5593
 2291SOL    HW118335   0.824   2.476   9.135  0.1184  1.9540 -2.3977
 2291SOL    HW218336   0.905   2.598   9.151  0.2627  1.1556  3.1147
 2292SOL     OW18337   1.440   1.887   6.825  0.5685  0.7324 -0.4179
 2292SOL    HW118338   1.499   1.952   6.786  2.9475  0.0948  2.0963
 2292SOL    HW218339   1.456   1.804   6.781 -0.4839 -0.0910  0.7570
 2293SOL     OW18340   4.174   0.901   7.522  0.6977 -0.0428 -0.3329
 2293SOL    HW118341   4.150   0.886   7.430  0.7172 -1.7481 -0.0559
 2293SOL    HW218342   4.119   0.978   7.533  0.8609 -0.0045  0.1985
 2294SOL     OW18343   4.690   3.747   0.515 -0.1150  0.3511 -0.3594
 2294SOL    HW118344   4.689   3.706   0.601  0.3767 -2.1037 -1.4943
 2294SOL    HW218345   0.019   3.689   0.461 -2.7745 -1.0384 -1.5602
 2295SOL     OW18346   0.057   1.753   7.874 -0.4235 -0.3337 -0.8798
 2295SOL    HW118347   4.711   1.798   7.828 -0.3022 -0.1694 -0.9073
 2295SOL    HW218348   0.123   1.821   7.862  0.1043 -0.6826  0.0151
 2296SOL     OW18349   1.353   3.248   8.386 -0.2240 -0.7318 -0.4536
 2296SOL    HW118350   1.395   3.165   8.362  1.5059 -0.0693  0.3033
 2296SOL    HW218351   1.345   3.279   8.296 -0.2423 -1.9216 -0.8695
 2297SOL     OW18352   4.489   3.686   8.790 -0.4481 -0.6160 -0.6099
 2297SOL    HW118353   4.516   3.604   8.830  0.3965 -0.2005 -0.3137
 2297SOL    HW218354   4.449   3.728   8.866  2.8075  0.0639  0.7382
 2298SOL     OW18355   0.284   1.504   3.202  0.7752  0.0680 -0.4175
 2298SOL    HW118356   0.362   1.452   3.182  0.5705 -0.0804 -0.8233
 2298SOL    HW218357   0.218   1.461   3.147  0.2091  0.1626  0.1799
 2299SOL     OW18358   2.188   0.328  12.658 -0.3349  0.1318  1.0192
 2299SOL    HW118359   2.160   0.248  12.702  0.6550  0.5538  2.3985
 2299SOL    HW218360   2.119   0.337  12.592 -0.1592  0.5497  0.8977
 2300SOL     OW18361   2.661   1.221  11.646  0.1876 -0.3301 -0.5480
 2300SOL    HW118362   2.743   1.232  11.693 -0.2815 -0.5447  0.3197
 2300SOL    HW218363   2.686   1.162  11.575  0.6062 -0.2245 -0.4894
 2301SOL     OW18364   4.293   0.556   6.645  0.1615  0.2930 -0.5156
 2301SOL    HW118365   4.352   0.631   6.654 -0.3930  0.6623  0.0480
 2301SOL    HW218366   4.357   0.486   6.637  1.0257  1.0650 -0.3995
 2302SOL     OW18367   3.939   4.555   5.161 -0.0342 -0.1924 -0.2767
 2302SOL    HW118368   3.990   4.477   5.184 -0.8339 -0.3932  0.8292
 2302SOL    HW218369   3.969   4.613   5.231  1.7181  0.4001 -1.5281
 2303SOL     OW18370   2.665   0.563  13.955 -0.8439 -0.1306 -0.5062
 2303SOL    HW118371   2.605   0.534  14.024  1.4931 -0.5772  1.3435
 2303SOL    HW218372   2.649   0.498  13.887  0.4024  0.0715 -0.9999
 2304SOL     OW18373   4.441   3.347   5.543  0.2433 -0.2675 -0.5257
 2304SOL    HW118374   4.393   3.330   5.462 -0.5367 -0.0593 -0.1067
 2304SOL    HW218375   4.443   3.259   5.580  2.1018  1.0702  2.4998
 2305SOL     OW18376   0.510   1.680   7.336  0.2325  0.0212 -0.4444
 2305SOL    HW118377   0.425   1.638   7.321 -0.3429  0.4525  1.6784
 2305SOL    HW218378   0.556   1.695   7.253 -2.0407  1.2206 -1.5011
 2306SOL     OW18379   0.431   1.788   6.764  0.3923 -0.2120  0.3125
 2306SOL    HW118380   0.339   1.813   6.767  0.1589 -1.1978  1.7058
 2306SOL    HW218381   0.426   1.706   6.814 -2.8338 -0.4032 -0.3354
 2307SOL     OW18382   0.164   1.764   1.813 -0.3510  0.0820 -0.3236
 2307SOL    HW118383   0.219   1.798   1.743 -1.3656  0.3593 -0.9806
 2307SOL    HW218384   0.106   1.833   1.845 -1.7853 -0.8114 -0.9887
 2308SOL     OW18385   0.383   0.659  15.675  0.5995  0.1890  0.5302
 2308SOL    HW118386   0.435   0.707  15.610 -1.7548  0.1733 -1.3896
 2308SOL    HW218387   0.304   0.646  15.623  0.1867 -2.0743  1.7096
 2309SOL     OW18388   1.892   2.820   8.499 -0.0387 -0.0883  0.1098
 2309SOL    HW118389   1.806   2.786   8.473  0.2189  2.2002 -3.7741
 2309SOL    HW218390   1.903   2.884   8.429 -0.8358  1.6313  1.5526
 2310SOL     OW18391   0.319   4.460  13.048 -0.5580  0.1607  0.3754
 2310SOL    HW118392   0.268   4.531  13.088  0.4419  2.0865 -1.7618
 2310SOL    HW218393   0.371   4.430  13.122 -0.7673  1.6212  1.1233
 2311SOL     OW18394   2.722   3.640  12.055  0.1577  0.8364  0.0265
 2311SOL    HW118395   2.817   3.650  12.059  0.2296 -0.2922  1.1681
 2311SOL    HW218396   2.702   3.730  12.030  0.8576  0.9161 -0.2331
 2312SOL     OW18397   3.406   3.037   4.443  0.0456  0.3707  0.1032
 2312SOL    HW118398   3.380   3.023   4.534  0.1315 -0.3040  0.0284
 2312SOL    HW218399   3.501   3.034   4.454  0.0129 -0.9507  0.0819
 2313SOL     OW18400   1.430   0.077   1.943 -0.3550  0.6226  0.3022
 2313SOL    HW118401   1.350   0.129   1.935 -0.9269 -0.2852  0.1250
 2313SOL    HW218402   1.398   4.714   1.923  3.8343 -1.1057  1.0923
 2314SOL     OW18403   4.468   0.220  16.877  0.1125  0.0652  0.2358
 2314SOL    HW118404   4.388   0.197  16.831 -0.5136  0.1723  1.2830
 2314SOL    HW218405   4.477   0.310  16.843 -1.4778 -0.2432 -0.9557
 2315SOL     OW18406   0.766   0.911   3.201  0.0885  0.0042 -0.1192
 2315SOL    HW118407   0.753   0.877   3.113  1.4539  1.0227 -0.7025
 2315SOL    HW218408   0.851   0.952   3.189  1.3797 -2.8890 -0.7501
 2316SOL     OW18409   3.492   1.031   7.982  0.0645  0.5368  0.5476
 2316SOL    HW118410   3.464   0.960   7.926  2.6599  1.4053 -1.8562
 2316SOL    HW218411   3.586   1.033   7.965  0.1230  0.0083  0.7992
 2317SOL     OW18412   1.588   3.867   1.055 -0.0438 -0.2147  0.0339
 2317SOL    HW118413   1.564   3.921   1.130 -0.5063 -0.1175 -0.1836
 2317SOL    HW218414   1.617   3.786   1.096 -1.0285  0.3030  1.7305
 2318SOL     OW18415   1.259   1.842  15.100  0.5094 -0.1122  0.2137
 2318SOL    HW118416   1.166   1.823  15.092  0.5563  0.2152 -1.0562
 2318SOL    HW218417   1.297   1.757  15.078  0.5149  0.1150 -0.6504
 2319SOL     OW18418   0.188   0.170   4.799  0.0081  0.9987 -0.8579
 2319SOL    HW118419   0.173   0.079   4.776  3.0977  0.6063 -1.2288
 2319SOL    HW218420   0.266   0.166   4.855  1.1637  0.4538 -2.5124
 2320SOL     OW18421   1.965   2.976   8.217 -0.2357 -0.4105 -0.2245
 2320SOL    HW118422   2.059   2.961   8.210  0.2226  3.0795 -1.2115
 2320SOL    HW218423   1.934   3.031   8.145 -0.2840 -1.1851 -0.7978
 2321SOL     OW18424   1.395   3.827   7.741  0.5488 -0.2533  0.3785
 2321SOL    HW118425   1.391   3.913   7.784  2.3737  1.1996 -2.3402
 2321SOL    HW218426   1.354   3.776   7.811 -1.9527  0.7295 -0.3815
 2322SOL     OW18427   0.260   0.083   3.258  0.5140  0.3432  0.2892
 2322SOL    HW118428   0.334   0.128   3.216 -0.1387  0.4058 -0.7857
 2322SOL    HW218429   0.231   0.028   3.185 -3.2905 -0.6148  2.5371
 2323SOL     OW18430   1.411   3.879   6.594  0.1978 -0.1108 -0.1429
 2323SOL    HW118431   1.339   3.879   6.531 -0.1586  0.6032  0.2624
 2323SOL    HW218432   1.434   3.786   6.597 -0.3858 -0.1879  1.7001
 2324SOL     OW18433   3.866   1.265  14.105  0.0949 -0.2434 -0.1129
 2324SOL    HW118434   3.843   1.257  14.197 -1.2719  0.9905 -0.3480
 2324SOL    HW218435   3.896   1.356  14.097 -0.2992 -0.2061 -1.1551
 2325SOL     OW18436   1.625   2.010  15.778 -0.5408  0.0385  0.0228
 2325SOL    HW118437   1.600   2.099  15.801 -2.1887 -0.2191 -0.7242
 2325SOL    HW218438   1.632   1.979  15.868 -1.3807 -0.8521 -0.2213
 2326SOL     OW18439   0.154   1.995   7.346 -0.0545  0.3490 -0.0303
 2326SOL    HW118440   0.167   2.090   7.354 -0.3886  0.4139 -0.2197
 2326SOL    HW218441   0.202   1.945   7.411 -2.5858 -1.4847  0.4246
 2327SOL     OW18442   3.201   0.516   7.635  0.0903  0.3009 -0.0627
 2327SOL    HW118443   3.253   0.575   7.581  0.2795 -0.2858 -0.5157
 2327SOL    HW218444   3.112   0.552   7.624 -0.5444 -1.0318  0.6641
 2328SOL     OW18445   2.090   2.070  14.435  0.0989 -0.2976 -0.2237
 2328SOL    HW118446   2.075   2.153  14.480  1.8142 -0.4920  0.7373
 2328SOL    HW218447   2.093   2.100  14.344  1.2103 -0.1978 -0.1510
 2329SOL     OW18448   2.803   2.766   6.312 -0.1741  0.0824 -0.2984
 2329SOL    HW118449   2.888   2.751   6.271  0.0383  1.9596 -0.5679
 2329SOL    HW218450   2.827   2.811   6.393 -0.6209  0.1427 -0.2014
 2330SOL     OW18451   0.312   1.569   5.203 -0.3277  0.2908 -0.5817
 2330SOL    HW118452   0.226   1.589   5.241  1.3728  0.2085  3.3982
 2330SOL    HW218453   0.371   1.582   5.278 -2.3454  0.2619  0.9993
 2331SOL     OW18454   1.217   4.358   3.340 -0.4283 -0.3487 -0.1206
 2331SOL    HW118455   1.139   4.304   3.325  0.9308 -2.7218  1.3925
 2331SOL    HW218456   1.291   4.300   3.326  0.7471  1.0560  0.3366
 2332SOL     OW18457   1.700   2.388   6.776 -0.5814  0.7599  0.2644
 2332SOL    HW118458   1.655   2.333   6.840 -2.2155  2.3401  0.4763
 2332SOL    HW218459   1.790   2.391   6.810  1.0299 -0.6770 -3.7964
 2333SOL     OW18460   2.714   0.347   8.109 -0.6842  0.4455 -0.0587
 2333SOL    HW118461   2.764   0.330   8.030 -0.2136  0.4803  0.2355
 2333SOL    HW218462   2.646   0.279   8.108 -0.0888 -0.1725  1.4328
 2334SOL     OW18463   0.043   3.734  11.129  0.3183 -0.7428  0.3249
 2334SOL    HW118464   4.697   3.796  11.146 -0.1427 -1.4790  1.1102
 2334SOL    HW218465   0.110   3.778  11.078 -2.4852  1.0408 -1.8025
 2335SOL     OW18466   1.062   1.720   0.969 -0.3444 -0.2028 -0.5290
 2335SOL    HW118467   1.085   1.694   0.880 -1.7472 -1.2590 -0.6000
 2335SOL    HW218468   1.139   1.679   1.006  0.8270  0.0608 -2.6659
 2336SOL     OW18469   0.145   1.066   8.419 -0.2937 -0.0143 -0.7983
 2336SOL    HW118470   0.097   1.085   8.499  1.9623 -1.7426  0.9656
 2336SOL    HW218471   0.126   0.972   8.412  0.4460 -0.1924 -0.4259
 2337SOL     OW18472   4.652   0.000   4.038  0.0415 -0.1415  0.4899
 2337SOL    HW118473   4.673   0.091   4.061 -0.1425  0.1469 -0.4891
 2337SOL    HW218474   4.718   4.713   3.971 -2.8435  0.7813 -2.5286
 2338SOL     OW18475   1.529   0.232   6.768 -0.0024 -0.1650 -0.2289
 2338SOL    HW118476   1.447   0.201   6.806  0.0806 -0.7505 -0.5366
 2338SOL    HW218477   1.529   0.196   6.680  1.0067 -1.0468  0.1323
 2339SOL     OW18478   4.204   3.009   7.673  0.7558 -0.2839 -0.0690
 2339SOL    HW118479   4.158   2.963   7.743  0.9554 -0.6792 -0.1959
 2339SOL    HW218480   4.172   2.967   7.592 -1.3691  2.6410 -0.7544
 2340SOL     OW18481   3.317   3.358   5.243  0.4578  0.6128  0.4054
 2340SOL    HW118482   3.221   3.356   5.243  0.4603  0.5556  1.2196
 2340SOL    HW218483   3.341   3.451   5.241  0.7938  0.4966 -1.4416
 2341SOL     OW18484   1.091   0.021   8.155 -0.0799 -0.7842  0.0717
 2341SOL    HW118485   1.173   4.714   8.118  0.6105  0.4612  0.5025
 2341SOL    HW218486   1.127   0.032   8.243  1.1646 -0.3333 -0.4933
 2342SOL     OW18487   3.900   2.552   4.771  0.2804 -0.1766 -0.1757
 2342SOL    HW118488   3.963   2.623   4.767 -0.0273  0.0807 -0.4789
 2342SOL    HW218489   3.879   2.552   4.677  0.4881  0.9604 -0.2134
 2343SOL     OW18490   4.463   1.046   2.230  0.5961  0.3466  0.4485
 2343SOL    HW118491   4.453   1.092   2.314 -0.4153  0.5491  0.2248
 2343SOL    HW218492   4.380   1.068   2.187  1.0789  1.9100  0.3215
 2344SOL     OW18493   1.293   2.987   8.660 -0.1535 -0.0010 -0.0928
 2344SOL    HW118494   1.333   3.035   8.732 -1.8070 -1.9142  2.0778
 2344SOL    HW218495   1.294   2.901   8.700 -0.1624  0.0355 -0.0144
 2345SOL     OW18496   2.025   0.695   2.217 -0.0540  0.0434  0.0239
 2345SOL    HW118497   1.973   0.759   2.168  1.2849 -0.5761 -2.2123
 2345SOL    HW218498   2.107   0.732   2.185  0.9097 -2.3386 -0.2701
 2346SOL     OW18499   1.412   3.041   8.904  0.2050 -0.0617  0.2641
 2346SOL    HW118500   1.480   2.979   8.929  0.8249  0.2847 -0.5629
 2346SOL    HW218501   1.459   3.122   8.887  2.9724 -1.7602 -0.2268
 2347SOL     OW18502   1.702   2.641  13.338 -0.6076 -0.0433  0.0523
 2347SOL    HW118503   1.725   2.559  13.295 -2.3886 -1.0094  0.9340
 2347SOL    HW218504   1.652   2.614  13.415  0.8044 -0.0560  0.9782
 2348SOL     OW18505   3.221   4.659   4.290 -0.0379  0.5059  0.0291
 2348SOL    HW118506   3.162   4.650   4.365 -0.6264  0.5777 -0.4279
 2348SOL    HW218507   3.310   4.640   4.321  0.2919  0.0508 -1.1794
 2349SOL     OW18508   2.306   3.976  11.414 -0.0923  0.0307  0.1297
 2349SOL    HW118509   2.342   4.040  11.475  1.6905 -1.4968  0.6947
 2349SOL    HW218510   2.253   4.029  11.355  0.3070 -0.2908 -0.5254
 2350SOL     OW18511   2.073   2.480   9.727 -0.0570 -0.0103 -0.4013
 2350SOL    HW118512   2.091   2.545   9.795 -0.0464 -0.5553  0.1239
 2350SOL    HW218513   1.977   2.470   9.729 -0.0622 -0.0387 -0.9614
 2351SOL     OW18514   1.371   4.342  10.793 -0.3045 -0.4130 -0.1474
 2351SOL    HW118515   1.450   4.311  10.837 -0.9234 -2.5082 -0.5052
 2351SOL    HW218516   1.302   4.314  10.853  1.2828 -4.4358 -0.2262
 2352SOL     OW18517   4.150   3.023   3.593  0.1472 -0.5386  0.0062
 2352SOL    HW118518   4.086   3.091   3.614 -0.3380 -1.3544  1.1935
 2352SOL    HW218519   4.210   3.067   3.533 -1.0555  1.9887  0.6372
 2353SOL     OW18520   1.640   2.055  16.070  0.0770 -0.2555  0.5128
 2353SOL    HW118521   1.643   2.041  16.165 -2.6125 -0.5737  0.5547
 2353SOL    HW218522   1.646   2.150  16.060  1.8699 -0.6666 -2.2633
 2354SOL     OW18523   3.647   0.867   6.313  0.1417  0.5652 -0.4774
 2354SOL    HW118524   3.584   0.796   6.298  1.6962 -0.7520 -0.8994
 2354SOL    HW218525   3.600   0.945   6.284 -1.1509 -0.3231 -0.7577
 2355SOL     OW18526   3.959   3.913   6.657  0.2262 -0.7237 -0.1782
 2355SOL    HW118527   3.866   3.923   6.635  0.6493 -0.5554 -1.8904
 2355SOL    HW218528   3.995   3.838   6.609  2.7135  0.8926 -0.8224
 2356SOL     OW18529   0.703   3.922   4.315 -0.2112  0.7922  1.1207
 2356SOL    HW118530   0.742   3.878   4.240 -1.8269 -0.7794  1.1933
 2356SOL    HW218531   0.728   3.864   4.387 -2.2916 -0.4989  0.8032
 2357SOL     OW18532   0.451   2.292  11.698 -0.8727  0.1893  0.1550
 2357SOL    HW118533   0.422   2.302  11.789 -0.3609  1.7044  0.1526
 2357SOL    HW218534   0.366   2.321  11.665 -0.5147  0.6409 -0.3582
 2358SOL     OW18535   2.176   3.122   6.678  0.3350 -0.2900  0.5501
 2358SOL    HW118536   2.153   3.215   6.683  3.8522  0.7029 -1.3350
 2358SOL    HW218537   2.095   3.073   6.667 -1.0606  2.2736 -0.5076
 2359SOL     OW18538   0.740   1.085   6.815  0.1821  0.2390 -0.0132
 2359SOL    HW118539   0.728   1.031   6.737 -1.3809 -1.3705  1.3478
 2359SOL    HW218540   0.831   1.074   6.842  0.9817  0.9324 -2.4441
 2360SOL     OW18541   0.861   2.947  17.306  0.0289 -0.8401 -0.4221
 2360SOL    HW118542   0.829   2.863  17.341 -1.7993 -0.1326 -0.4138
 2360SOL    HW218543   0.786   2.997  17.336 -0.3257 -0.0644 -2.6410
 2361SOL     OW18544   4.265   0.798   0.934 -0.5210  0.0137 -0.9271
 2361SOL    HW118545   4.306   0.724   0.889 -2.0464 -0.9337 -0.7829
 2361SOL    HW218546   4.219   0.751   1.003  1.3348  0.6443  0.7257
 2362SOL     OW18547   0.015   3.151   5.390  0.0452 -0.9329 -0.5401
 2362SOL    HW118548   4.721   3.171   5.298 -0.7497 -1.3172 -0.4587
 2362SOL    HW218549   4.658   3.104   5.405 -0.9315  0.9903  0.1502
 2363SOL     OW18550   2.014   4.392   1.392  0.0812 -0.3017 -0.5765
 2363SOL    HW118551   2.007   4.323   1.458 -1.8684 -0.3615 -0.8442
 2363SOL    HW218552   2.108   4.385   1.375  0.6392 -0.1755  2.4610
 2364SOL     OW18553   3.583   1.855   2.544 -0.3441 -0.1878 -0.1969
 2364SOL    HW118554   3.599   1.949   2.537  0.3432 -0.2847  0.1418
 2364SOL    HW218555   3.521   1.854   2.618  0.8037  0.0628  0.7560
 2365SOL     OW18556   1.119   4.081   7.850 -0.0865  0.2746 -0.2428
 2365SOL    HW118557   1.042   4.027   7.832  0.5974 -0.8575  0.2505
 2365SOL    HW218558   1.135   4.061   7.942 -2.6785  0.3899  0.2233
 2366SOL     OW18559   2.447   0.298  13.347 -0.8886 -0.3167  0.1459
 2366SOL    HW118560   2.463   0.359  13.419  1.0572  0.1202 -0.6634
 2366SOL    HW218561   2.460   0.214  13.391  0.0941 -0.9612 -1.3818
 2367SOL     OW18562   2.725   4.659   4.092  0.2513 -0.2257  0.3348
 2367SOL    HW118563   2.710   4.700   4.007  1.8518  1.2533  0.7477
 2367SOL    HW218564   2.696   4.571   4.067 -1.2861  0.3259  0.1876
 2368SOL     OW18565   3.294   4.375   5.329 -0.2545  0.5124 -0.4548
 2368SOL    HW118566   3.381   4.394   5.363  0.1930 -1.2167 -0.6521
 2368SOL    HW218567   3.311   4.313   5.259  2.1313  0.7947 -0.1375
 2369SOL     OW18568   2.143   4.136   9.965 -0.2324 -0.3029  0.4204
 2369SOL    HW118569   2.155   4.177   9.880 -2.6719  1.8134  1.0983
 2369SOL    HW218570   2.226   4.153  10.010 -1.7605  0.8670  2.7648
 2370SOL     OW18571   2.793   3.569  14.955  0.3209  0.1476 -0.4353
 2370SOL    HW118572   2.812   3.479  14.981 -0.6421  0.4082  1.1847
 2370SOL    HW218573   2.837   3.573  14.870  0.7374  0.9740 -0.1838
 2371SOL     OW18574   3.478   3.283   3.096 -0.7466 -0.0662 -0.3135
 2371SOL    HW118575   3.521   3.221   3.037  1.5321 -0.3142  1.6221
 2371SOL    HW218576   3.513   3.368   3.070  0.4436 -0.3531  0.3418
 2372SOL     OW18577   2.861   2.717   4.148 -0.0595  0.3814  0.3272
 2372SOL    HW118578   2.795   2.689   4.212 -0.6753  2.3068  0.5302
 2372SOL    HW218579   2.796   2.776   4.111 -1.0277 -1.0315 -0.2313
 2373SOL     OW18580   2.283   2.066   6.933  0.2980 -0.1070  0.2367
 2373SOL    HW118581   2.271   2.147   6.883  1.2644  0.9348  1.6737
 2373SOL    HW218582   2.376   2.042   6.929 -0.0098 -0.6930 -3.2629
 2374SOL     OW18583   4.635   1.078   7.790  0.4252  0.5541  0.1570
 2374SOL    HW118584   4.572   1.101   7.858 -0.1306 -1.0266  0.1868
 2374SOL    HW218585   4.574   1.052   7.722 -0.6091  1.1978  0.8447
 2375SOL     OW18586   0.668   1.194   2.009 -0.0424 -0.1504 -0.3655
 2375SOL    HW118587   0.650   1.269   2.065 -2.3284 -1.7442  1.0373
 2375SOL    HW218588   0.731   1.146   2.063 -2.4828 -2.0102  0.8134
 2376SOL     OW18589   4.588   0.260   8.739 -0.1359  0.2092 -0.1297
 2376SOL    HW118590   4.518   0.306   8.784 -0.7654  0.2615 -1.1633
 2376SOL    HW218591   4.555   0.170   8.728 -0.1645  0.0257  1.4972
 2377SOL     OW18592   1.133   3.607   5.708 -0.5915  0.3653  0.1329
 2377SOL    HW118593   1.220   3.616   5.746  0.6191 -0.7806 -2.3829
 2377SOL    HW218594   1.092   3.537   5.759  1.2041 -0.3844  0.5169
 2378SOL     OW18595   1.580   4.146   1.192 -0.7298 -0.7278 -0.2299
 2378SOL    HW118596   1.676   4.153   1.189 -0.8011 -0.6308 -2.2529
 2378SOL    HW218597   1.563   4.137   1.286 -2.6936 -0.5412 -0.5773
 2379SOL     OW18598   1.690   4.200  16.298  0.2290 -0.0660  0.5200
 2379SOL    HW118599   1.776   4.165  16.273  0.4377 -1.7190  3.5123
 2379SOL    HW218600   1.721   4.278  16.346 -1.2654  0.2544  0.9586
 2380SOL     OW18601   2.148   1.106   6.415 -0.6327  0.0720  0.5245
 2380SOL    HW118602   2.213   1.097   6.345 -0.6347 -1.1608  0.6920
 2380SOL    HW218603   2.111   1.018   6.415 -1.9105  0.5983  3.7139
 2381SOL     OW18604   1.956   2.675   9.019 -0.3738 -0.2348 -0.2479
 2381SOL    HW118605   1.960   2.769   9.001  0.8686 -0.7669 -2.6419
 2381SOL    HW218606   1.971   2.670   9.113  2.0298 -0.5613 -0.6592
 2382SOL     OW18607   0.029   4.578  17.086  0.3554  0.9364  0.5563
 2382SOL    HW118608   0.004   4.508  17.026  1.4719  2.3260 -1.5548
 2382SOL    HW218609   4.679   4.638  17.086  0.1687  0.7035  0.8537
 2383SOL     OW18610   2.283   2.310   3.802 -0.1728  0.1869  0.0695
 2383SOL    HW118611   2.228   2.281   3.729 -0.6464 -0.7622  0.7938
 2383SOL    HW218612   2.214   2.313   3.869 -0.4678  2.0097 -0.3059
 2384SOL     OW18613   3.242   0.185  10.926 -0.5922  0.1936 -0.8140
 2384SOL    HW118614   3.258   0.101  10.971  0.6215  0.2358 -1.1574
 2384SOL    HW218615   3.154   0.164  10.895 -0.7631  1.1987 -0.9962
 2385SOL     OW18616   1.361   1.090  10.943 -0.5754  0.1908 -0.2481
 2385SOL    HW118617   1.388   1.174  10.979  0.1769 -0.0245 -0.3105
 2385SOL    HW218618   1.351   1.111  10.850 -2.1752  0.9613  0.1110
 2386SOL     OW18619   0.117   3.121  14.758  0.2218  0.0702 -0.1419
 2386SOL    HW118620   0.127   3.028  14.736  0.9041  0.6331 -2.1878
 2386SOL    HW218621   0.153   3.166  14.681  0.6885  2.3001  1.4072
 2387SOL     OW18622   0.206   2.624   0.026  0.2717 -0.4892 -0.5530
 2387SOL    HW118623   0.182   2.697   0.082  0.0984  0.3174 -1.6753
 2387SOL    HW218624   0.190   2.652  17.637  1.1815  0.9605 -0.2661
 2388SOL     OW18625   3.097   2.631  15.072  0.2153  0.2339  0.4679
 2388SOL    HW118626   3.082   2.613  14.979 -0.7329 -0.0534  0.6709
 2388SOL    HW218627   3.056   2.717  15.073  0.1319  0.2001 -1.0244
 2389SOL     OW18628   4.204   3.535  17.277 -0.1538 -0.3585 -0.2198
 2389SOL    HW118629   4.187   3.622  17.313  2.2025  0.4836 -1.1210
 2389SOL    HW218630   4.270   3.562  17.213 -0.3536 -2.4121 -1.2914
 2390SOL     OW18631   2.607   2.573   0.994  0.3845 -0.4252 -0.0671
 2390SOL    HW118632   2.557   2.541   0.919  0.3686 -0.9609  0.1756
 2390SOL    HW218633   2.554   2.644   1.031  1.9010 -0.3128  1.8945
 2391SOL     OW18634   2.330   4.513   8.132  0.0368  0.1889 -0.1110
 2391SOL    HW118635   2.341   4.421   8.111 -0.8487  0.6544 -2.5426
 2391SOL    HW218636   2.328   4.501   8.227 -0.1178 -0.5710 -0.2103
 2392SOL     OW18637   1.755   4.202   0.032 -0.2750 -0.1079  0.5045
 2392SOL    HW118638   1.779   4.243  17.651 -0.3483 -3.4212 -1.1500
 2392SOL    HW218639   1.707   4.272   0.077 -2.6287 -1.9893  0.8749
 2393SOL     OW18640   1.391   1.547   3.320 -0.1060  0.4448  0.3342
 2393SOL    HW118641   1.345   1.527   3.238 -0.7259  1.1748  0.5079
 2393SOL    HW218642   1.314   1.556   3.376  1.6323 -0.4927  2.8856
 2394SOL     OW18643   0.730   0.868   5.916  0.2122 -0.1441  0.1652
 2394SOL    HW118644   0.748   0.852   5.823 -0.8505  0.6334 -0.1706
 2394SOL    HW218645   0.638   0.852   5.935  0.9968 -3.9627  0.8521
 2395SOL     OW18646   0.071   4.443   7.945 -0.2762  0.1121  0.1128
 2395SOL    HW118647   4.703   4.452   7.925 -0.2217 -0.3760 -0.3447
 2395SOL    HW218648   0.108   4.495   7.874  0.4352 -0.4086  0.1068
 2396SOL     OW18649   0.403   0.815   2.505 -0.6141  0.4814  0.2156
 2396SOL    HW118650   0.415   0.774   2.420  1.3719  1.1988  0.1348
 2396SOL    HW218651   0.453   0.896   2.493  0.2769  0.0629  1.0315
 2397SOL     OW18652   3.543   0.440  16.091  0.0712  0.1874 -0.1035
 2397SOL    HW118653   3.603   0.376  16.128 -1.6213 -2.4743 -1.9194
 2397SOL    HW218654   3.504   0.382  16.026  2.0866  0.2098 -1.3095
 2398SOL     OW18655   3.179   2.015   8.689  0.7835 -0.1272 -0.2699
 2398SOL    HW118656   3.153   1.974   8.606 -4.6863  2.1515  0.3339
 2398SOL    HW218657   3.273   2.028   8.679  0.3072  0.5369 -4.0099
 2399SOL     OW18658   2.822   3.027   8.003  0.1050  0.4048  0.0319
 2399SOL    HW118659   2.904   3.044   8.048  1.5445 -1.2671 -1.9657
 2399SOL    HW218660   2.851   2.970   7.932  1.1123  1.1199 -0.1219
 2400SOL     OW18661   3.535   2.783   9.100 -0.3222  0.0274  0.1800
 2400SOL    HW118662   3.620   2.805   9.138 -0.0227 -1.8911  0.6144
 2400SOL    HW218663   3.502   2.867   9.069  0.5478 -0.4854 -2.1348
 2401SOL     OW18664   2.782   1.016  17.646 -0.1228  0.5273  0.7960
 2401SOL    HW118665   2.804   1.071  17.571  0.1468  1.8689  1.8497
 2401SOL    HW218666   2.863   0.964  17.651 -0.2097  0.5115  1.9953
 2402SOL     OW18667   0.359   2.205   3.021 -0.0998 -0.3702 -0.3265
 2402SOL    HW118668   0.333   2.225   3.111  0.0806  2.4301 -0.8813
 2402SOL    HW218669   0.276   2.234   2.982  0.3306  0.3951 -0.6766
 2403SOL     OW18670   1.762   3.138   5.903  0.4717  0.4480 -0.1968
 2403SOL    HW118671   1.743   3.202   5.834  1.0465  1.4991  0.6311
 2403SOL    HW218672   1.794   3.065   5.849 -0.3967 -0.6103  0.7170
 2404SOL     OW18673   3.577   1.014   4.634 -0.3523  0.2695  0.4115
 2404SOL    HW118674   3.543   1.029   4.546  1.6462 -2.1693 -0.7974
 2404SOL    HW218675   3.547   0.924   4.648 -0.1384  0.4016  1.6881
 2405SOL     OW18676   0.104   0.871   6.481  0.6135  0.2093  0.1107
 2405SOL    HW118677   0.063   0.813   6.546 -2.8034  2.4688 -0.0506
 2405SOL    HW218678   0.049   0.856   6.404 -0.9411  1.4482  0.9968
 2406SOL     OW18679   0.884   4.079   2.244  0.1142  0.4840 -0.2822
 2406SOL    HW118680   0.964   4.106   2.199  0.6520 -0.1494  0.2745
 2406SOL    HW218681   0.928   4.038   2.319  1.9085 -0.4366 -1.8111
 2407SOL     OW18682   3.681   0.703   9.734 -0.4840  0.7013  0.0626
 2407SOL    HW118683   3.754   0.660   9.688 -0.8349 -0.7860  0.9003
 2407SOL    HW218684   3.729   0.726   9.813 -1.8493 -1.0026  1.3823
 2408SOL     OW18685   1.385   3.029   5.567 -0.2941 -0.4241  0.2166
 2408SOL    HW118686   1.461   3.006   5.513 -0.5345 -1.2084  0.2110
 2408SOL    HW218687   1.357   2.938   5.576 -0.7348 -0.1164  2.1130
 2409SOL     OW18688   3.042   2.599   5.365  0.4577 -0.5966 -0.5672
 2409SOL    HW118689   3.131   2.627   5.343 -0.2393  1.3700 -0.9353
 2409SOL    HW218690   3.019   2.653   5.441  1.9927 -0.5837 -0.1130
 2410SOL     OW18691   2.830   0.381  10.312 -0.2320  0.3241  0.0046
 2410SOL    HW118692   2.874   0.307  10.269 -1.0014  0.4280 -0.9659
 2410SOL    HW218693   2.833   0.355  10.404 -1.0888  0.9482  0.2135
 2411SOL     OW18694   2.054   2.098   4.729  0.3496  0.3525 -0.0732
 2411SOL    HW118695   2.092   2.086   4.642  0.9988 -2.1945  0.5834
 2411SOL    HW218696   2.042   2.005   4.748 -0.2740  0.3057 -0.7105
 2412SOL     OW18697   3.367   3.336  14.541  0.1534  0.0084  0.3716
 2412SOL    HW118698   3.456   3.340  14.576  0.5300  0.4800 -0.6196
 2412SOL    HW218699   3.382   3.304  14.452 -1.0803 -0.7872  0.4602
 2413SOL     OW18700   1.350   2.975   3.485  0.1174 -0.3278  0.1724
 2413SOL    HW118701   1.284   2.906   3.483  0.5429 -0.8340  3.0889
 2413SOL    HW218702   1.429   2.923   3.468  0.5869  0.5767 -0.4098
 2414SOL     OW18703   4.438   2.676   5.076 -0.0840  0.2131  0.3266
 2414SOL    HW118704   4.448   2.679   4.980  0.4042 -1.1493  0.3318
 2414SOL    HW218705   4.356   2.627   5.083  1.8686 -2.8428  1.4905
 2415SOL     OW18706   3.819   3.592   7.538  0.7181 -0.2432  0.4438
 2415SOL    HW118707   3.760   3.610   7.465  2.3032  2.7061 -0.1108
 2415SOL    HW218708   3.791   3.667   7.591  0.9492 -0.3734  0.7489
 2416SOL     OW18709   0.807   2.803   9.879 -0.1636  0.2380 -0.1552
 2416SOL    HW118710   0.810   2.845   9.965  0.4220  0.2261 -0.1750
 2416SOL    HW218711   0.830   2.712   9.898  0.9142 -0.0715 -2.9633
 2417SOL     OW18712   1.376   0.558   3.602  0.4183  0.2395 -0.5463
 2417SOL    HW118713   1.410   0.639   3.564  1.6364  0.2998  0.6640
 2417SOL    HW218714   1.365   0.591   3.691  1.5167 -2.2514  0.5289
 2418SOL     OW18715   2.044   1.732   1.929 -0.0701  0.4561 -0.2553
 2418SOL    HW118716   2.061   1.663   1.993  0.9511 -0.1212 -1.1550
 2418SOL    HW218717   1.960   1.766   1.963  1.0222  2.5770  0.3351
 2419SOL     OW18718   0.730   1.338  14.061 -0.2173  0.0114 -0.2216
 2419SOL    HW118719   0.719   1.261  14.005  4.2119 -0.3997 -0.4878
 2419SOL    HW218720   0.656   1.316  14.118 -0.0511  0.6471  0.2324
 2420SOL     OW18721   4.065   3.557   7.746 -0.5803 -0.6222  0.2670
 2420SOL    HW118722   3.993   3.609   7.709 -0.6922  0.2338  1.7215
 2420SOL    HW218723   4.075   3.488   7.680  0.6187 -1.1116  0.9864
 2421SOL     OW18724   4.358   3.768   2.316  0.7362  0.1585 -0.3076
 2421SOL    HW118725   4.419   3.701   2.288  1.2507  0.5180 -0.0622
 2421SOL    HW218726   4.410   3.844   2.289  2.4103 -1.6421 -2.0917
 2422SOL     OW18727   4.532   2.266   6.128  0.1500  0.5484 -0.1848
 2422SOL    HW118728   4.515   2.172   6.126 -0.6705  0.6689  0.8745
 2422SOL    HW218729   4.619   2.277   6.089 -0.7453  0.5223 -2.1598
 2423SOL     OW18730   3.794   2.581   8.720  0.4411  0.2154 -0.0972
 2423SOL    HW118731   3.706   2.554   8.748  0.8456 -1.0035  0.0242
 2423SOL    HW218732   3.781   2.612   8.630 -1.8763  1.6902  0.7480
 2424SOL     OW18733   2.697   2.768   0.219  0.1161 -0.8052  0.6926
 2424SOL    HW118734   2.642   2.713   0.163 -0.0066  0.4098 -0.3695
 2424SOL    HW218735   2.630   2.814   0.269 -0.3848 -0.8456  0.0549
 2425SOL     OW18736   2.365   3.964   5.177 -0.4051  0.1983 -0.2528
 2425SOL    HW118737   2.367   3.976   5.082  2.3106 -0.3244 -0.2715
 2425SOL    HW218738   2.369   3.868   5.177  2.6335  0.3347 -0.9724
 2426SOL     OW18739   0.809   0.084   6.367  0.1566 -0.1179  0.1368
 2426SOL    HW118740   0.893   0.104   6.407  0.0654  1.7419 -0.5622
 2426SOL    HW218741   0.762   0.105   6.448 -2.1121 -0.2460 -1.1306
 2427SOL     OW18742   2.363   0.437  13.856  0.6085  0.3229 -0.4046
 2427SOL    HW118743   2.447   0.402  13.828 -0.4513 -1.4568 -1.3418
 2427SOL    HW218744   2.365   0.513  13.798  1.2381  2.6499  2.6861
 2428SOL     OW18745   0.375   4.347  10.897 -0.1089 -0.2641 -0.0846
 2428SOL    HW118746   0.382   4.405  10.821 -0.0440 -0.5904 -0.3264
 2428SOL    HW218747   0.445   4.394  10.942 -0.3392  0.1652 -0.1732
 2429SOL     OW18748   4.231   3.890   1.771 -0.5895 -0.2041 -0.0730
 2429SOL    HW118749   4.241   3.878   1.677 -0.9538 -1.4936  0.0391
 2429SOL    HW218750   4.149   3.839   1.769  0.1067 -1.3896  1.8626
 2430SOL     OW18751   1.570   2.242   2.752 -0.7144 -0.2940  0.1327
 2430SOL    HW118752   1.558   2.333   2.779 -0.4325  0.1232 -1.1267
 2430SOL    HW218753   1.594   2.206   2.837  2.6518 -0.3949 -0.8411
 2431SOL     OW18754   3.994   2.379   9.421 -0.6592 -0.5949  0.1774
 2431SOL    HW118755   3.977   2.285   9.414 -1.1673 -0.3730 -1.8001
 2431SOL    HW218756   3.935   2.404   9.492  0.7574 -0.6532  1.3772
 2432SOL     OW18757   2.603   1.169   6.464  0.1178 -0.7015 -0.1446
 2432SOL    HW118758   2.662   1.204   6.397 -0.8175 -0.2626 -0.7398
 2432SOL    HW218759   2.579   1.253   6.504 -0.4532 -0.4907 -0.9214
 2433SOL     OW18760   4.627   0.777   6.139 -0.1720  0.4586 -0.2471
 2433SOL    HW118761   4.592   0.772   6.228 -1.5466  2.4906 -0.6891
 2433SOL    HW218762   4.720   0.778   6.163  0.0731 -1.5397 -1.1180
 2434SOL     OW18763   1.283   4.239   5.405 -0.2391 -0.2300  0.2038
 2434SOL    HW118764   1.226   4.291   5.348  0.1178 -1.9497 -1.7381
 2434SOL    HW218765   1.247   4.154   5.381  0.1460 -0.9643  2.2781
 2435SOL     OW18766   3.949   3.818   7.089  0.1156  0.0762 -0.6794
 2435SOL    HW118767   3.929   3.724   7.084 -1.7621  0.3128  3.0272
 2435SOL    HW218768   3.980   3.835   7.000 -0.2845  3.1802 -0.1973
 2436SOL     OW18769   2.388   2.813   0.790  0.5065 -0.3227 -0.0445
 2436SOL    HW118770   2.431   2.741   0.745 -0.8726 -0.4481 -1.1823
 2436SOL    HW218771   2.464   2.856   0.829  1.7140 -2.1262 -0.4102
 2437SOL     OW18772   3.718   3.232  10.421 -0.1658 -0.0674 -0.2550
 2437SOL    HW118773   3.667   3.151  10.432  2.1384 -1.4808 -0.0508
 2437SOL    HW218774   3.762   3.224  10.337  0.7705 -2.2575  0.4394
 2438SOL     OW18775   0.857   0.215   2.332 -0.5502 -0.3840 -0.3856
 2438SOL    HW118776   0.853   0.153   2.405  0.7908  0.8991  0.7817
 2438SOL    HW218777   0.881   0.293   2.382 -1.9458  0.9797 -1.8662
 2439SOL     OW18778   4.696   0.256  12.837  0.5773  0.0352 -0.2817
 2439SOL    HW118779   4.649   0.185  12.793  0.1687  0.7297 -0.9610
 2439SOL    HW218780   0.054   0.212  12.855  1.1475  0.2766 -2.3223
 2440SOL     OW18781   3.176   3.908  17.073 -0.2103  0.2082  0.4928
 2440SOL    HW118782   3.115   3.980  17.059 -1.2120 -0.4693  1.3474
 2440SOL    HW218783   3.249   3.939  17.020 -1.0051 -0.8859 -1.2697
 2441SOL     OW18784   0.671   0.401   5.597  0.3071  0.1865 -0.2300
 2441SOL    HW118785   0.739   0.402   5.664  0.5561 -2.3064 -0.4367
 2441SOL    HW218786   0.716   0.358   5.524 -1.5604 -0.2457 -1.1245
 2442SOL     OW18787   1.397   0.659  12.351  0.1005  0.9297  0.3910
 2442SOL    HW118788   1.346   0.582  12.377  1.0627  0.8431  2.0264
 2442SOL    HW218789   1.454   0.625  12.282  2.2522 -0.2568  2.7612
 2443SOL     OW18790   1.529   2.296   5.254  0.5646  0.2119  0.0915
 2443SOL    HW118791   1.592   2.280   5.325  1.0512 -1.2949 -0.6780
 2443SOL    HW218792   1.551   2.384   5.223  2.5703 -0.7447 -1.2020
 2444SOL     OW18793   3.072   1.079   2.329 -0.4594  0.4175 -0.7333
 2444SOL    HW118794   3.067   1.150   2.265 -0.6564 -0.7035 -1.9753
 2444SOL    HW218795   3.124   1.019   2.274  2.8914  0.9986  1.7783
 2445SOL     OW18796   4.372   2.950   5.707  0.2675 -0.1726  0.3933
 2445SOL    HW118797   4.347   2.962   5.798  1.6187 -1.1032  0.8771
 2445SOL    HW218798   4.409   2.862   5.709 -1.2527 -0.8255 -0.2465
 2446SOL     OW18799   0.904   3.158   7.865  0.5561  0.1292  0.2514
 2446SOL    HW118800   0.898   3.170   7.770  0.5228  0.8666  0.3428
 2446SOL    HW218801   0.958   3.079   7.861  1.1217  0.4756  0.9458
 2447SOL     OW18802   3.186   3.160   5.732 -0.0218  0.0671 -0.2597
 2447SOL    HW118803   3.208   3.209   5.653  1.3433  0.1404  0.1626
 2447SOL    HW218804   3.218   3.071   5.716  0.3908 -0.1786  2.0010
 2448SOL     OW18805   1.358   0.963   3.903 -0.6530 -0.1483 -0.6474
 2448SOL    HW118806   1.269   0.929   3.900  0.1751 -2.5593  2.0601
 2448SOL    HW218807   1.401   0.894   3.954  0.0762  0.3354 -0.5907
 2449SOL     OW18808   0.968   2.120   2.536  0.1376 -0.4041 -0.2628
 2449SOL    HW118809   1.001   2.201   2.496 -0.4169  0.0691  0.2298
 2449SOL    HW218810   1.035   2.055   2.516 -0.0096 -0.8770  0.7648
 2450SOL     OW18811   3.441   1.254   7.666 -0.5547  0.5588  0.0386
 2450SOL    HW118812   3.451   1.271   7.760  2.6443 -0.1230 -0.1796
 2450SOL    HW218813   3.353   1.217   7.668 -0.7772  1.0745 -0.3321
 2451SOL     OW18814   4.684   4.036   5.356 -0.0346 -0.4700  0.0065
 2451SOL    HW118815   0.042   4.072   5.388 -0.5467  2.1049 -1.5511
 2451SOL    HW218816   4.714   3.989   5.279 -1.9158  1.0750 -1.6714
 2452SOL     OW18817   4.277   3.694  16.720  0.1540 -0.2326  0.5467
 2452SOL    HW118818   4.230   3.618  16.684  0.2139  1.1376 -2.4259
 2452SOL    HW218819   4.354   3.668  16.771 -1.6452 -0.7815  3.0189
 2453SOL     OW18820   1.488   2.382   3.758 -0.0036 -0.5391 -0.0219
 2453SOL    HW118821   1.464   2.406   3.848  0.4707  0.5259 -0.1772
 2453SOL    HW218822   1.409   2.336   3.731 -1.3409  0.1758  2.6827
 2454SOL     OW18823   1.477   1.502   4.471  0.5062 -0.2308  0.7828
 2454SOL    HW118824   1.384   1.517   4.486  0.3675 -1.0746  0.7414
 2454SOL    HW218825   1.502   1.584   4.513 -0.2100  0.1536  0.4634
 2455SOL     OW18826   1.210   0.928   8.355  1.1889 -0.1808  0.1564
 2455SOL    HW118827   1.234   1.011   8.395  0.3355  0.8791 -1.5456
 2455SOL    HW218828   1.128   0.958   8.316  0.5091  0.2941  1.9298
 2456SOL     OW18829   4.331   4.529   6.739  0.0119  0.2100  0.1389
 2456SOL    HW118830   4.370   4.594   6.681 -1.3195  0.0026 -1.0154
 2456SOL    HW218831   4.258   4.499   6.684  0.1692 -0.6174  0.3794
 2457SOL     OW18832   1.559   3.315   7.042  0.0500  0.1906  0.0493
 2457SOL    HW118833   1.473   3.273   7.041  0.7305 -1.2205  0.4398
 2457SOL    HW218834   1.564   3.331   7.137 -0.6114  0.0391  0.1074
 2458SOL     OW18835   4.657   0.500   0.769  0.0005 -0.2680 -1.3071
 2458SOL    HW118836   4.688   0.578   0.724  0.2460  1.5253  1.9801
 2458SOL    HW218837   4.610   0.454   0.699  0.4269 -2.0580 -0.4375
 2459SOL     OW18838   1.956   0.988   8.559 -0.0855  0.0496 -0.1354
 2459SOL    HW118839   2.046   0.987   8.593  1.4221  0.2658 -4.0859
 2459SOL    HW218840   1.901   1.035   8.621  1.2493 -0.4736  1.4559
 2460SOL     OW18841   2.666   1.122   4.855  0.8225 -0.1931 -0.1267
 2460SOL    HW118842   2.741   1.120   4.915  0.1843 -0.2751  0.6619
 2460SOL    HW218843   2.712   1.134   4.772  1.7282 -0.4973  0.3230
 2461SOL     OW18844   1.228   4.582   6.679 -0.2910  0.3997 -0.1943
 2461SOL    HW118845   1.187   4.497   6.692  0.9429 -0.1919 -0.1339
 2461SOL    HW218846   1.160   4.641   6.712  0.2583  0.9088  0.0248
 2462SOL     OW18847   3.145   4.011  10.996 -0.1406 -0.0936 -0.0133
 2462SOL    HW118848   3.158   3.918  10.975 -0.5965 -0.0625 -0.4274
 2462SOL    HW218849   3.213   4.025  11.062 -0.3139 -0.7858  0.3222
 2463SOL     OW18850   3.511   2.269   2.108 -0.0413  1.0445 -0.1742
 2463SOL    HW118851   3.540   2.190   2.061  2.2023  0.7793  1.6359
 2463SOL    HW218852   3.515   2.228   2.195 -0.3888 -0.0113 -0.6493
 2464SOL     OW18853   1.580   1.004   8.604  0.0663  0.3853 -0.0183
 2464SOL    HW118854   1.569   0.916   8.640  1.4215  0.0897 -0.3299
 2464SOL    HW218855   1.664   1.034   8.636  1.3402 -1.2555 -1.8228
 2465SOL     OW18856   3.751   2.608  13.572  0.1581  0.1646  0.1714
 2465SOL    HW118857   3.658   2.606  13.551  0.7668  0.0790 -2.4687
 2465SOL    HW218858   3.780   2.517  13.566 -0.3810  0.0813 -1.0923
 2466SOL     OW18859   4.202   2.268   8.743 -0.3132  0.4682 -0.7063
 2466SOL    HW118860   4.177   2.238   8.831 -0.0257  0.5867 -0.5819
 2466SOL    HW218861   4.167   2.205   8.681  1.7335 -1.1974 -0.1684
 2467SOL     OW18862   1.174   0.126  12.388 -0.0960  0.1054  0.3264
 2467SOL    HW118863   1.264   0.092  12.380 -0.8616 -1.6212 -1.0375
 2467SOL    HW218864   1.161   0.098  12.479  0.8260 -1.8545 -0.1505
 2468SOL     OW18865   1.471   1.984   7.390 -0.1421  0.3613  0.1275
 2468SOL    HW118866   1.466   1.902   7.342 -0.6071  0.2202  0.4165
 2468SOL    HW218867   1.483   1.948   7.478  1.5657 -0.4920 -0.4635
 2469SOL     OW18868   2.798   3.809  14.535  0.1941  0.6902  0.3280
 2469SOL    HW118869   2.753   3.805  14.450 -2.0966 -0.9755  1.6296
 2469SOL    HW218870   2.892   3.802  14.518  0.4539  2.0750  1.1465
 2470SOL     OW18871   2.210   0.145   7.837 -0.3256 -0.0457 -0.1724
 2470SOL    HW118872   2.266   0.208   7.791  2.3279 -2.9951 -0.9942
 2470SOL    HW218873   2.269   0.074   7.864  0.9244  1.6522  1.5376
 2471SOL     OW18874   1.172   1.805   7.146 -0.0219 -0.0582 -0.8016
 2471SOL    HW118875   1.153   1.847   7.230 -0.7144 -0.3032 -0.8353
 2471SOL    HW218876   1.093   1.751   7.142  0.2514 -0.6051  1.2000
 2472SOL     OW18877   1.643   4.213   4.671  0.4737 -1.1499  0.6340
 2472SOL    HW118878   1.557   4.175   4.687 -0.1400 -0.4459 -1.0083
 2472SOL    HW218879   1.633   4.306   4.690 -1.7365 -1.0844 -0.9221
 2473SOL     OW18880   4.556   4.171  17.073  0.5058 -0.5439 -0.4230
 2473SOL    HW118881   4.598   4.158  17.159 -2.2201 -1.5067  0.7500
 2473SOL    HW218882   4.584   4.093  17.025  3.8468 -0.0213  0.6480
 2474SOL     OW18883   1.304   1.706   8.463 -0.2926  0.2019  0.1531
 2474SOL    HW118884   1.371   1.651   8.504 -1.9187 -2.5771 -0.8951
 2474SOL    HW218885   1.269   1.645   8.398  0.2488  0.3867 -0.3054
 2475SOL     OW18886   3.010   1.027   4.790 -0.2523 -0.1582 -0.2631
 2475SOL    HW118887   3.001   0.984   4.704  0.5157  0.8492 -0.8393
 2475SOL    HW218888   3.000   0.947   4.842  1.3454  0.2259  0.6081
 2476SOL     OW18889   3.709   2.060   7.829 -0.1088 -0.5501 -0.8385
 2476SOL    HW118890   3.788   2.029   7.785  0.9860 -1.0216  1.4385
 2476SOL    HW218891   3.708   1.997   7.901  0.4567 -0.1009 -0.4420
 2477SOL     OW18892   0.799   2.581   7.419  0.4686 -0.7662  0.0376
 2477SOL    HW118893   0.841   2.590   7.334  0.3858  0.1629  0.0989
 2477SOL    HW218894   0.814   2.489   7.440  1.8363 -0.4080  0.6082
 2478SOL     OW18895   4.139   1.563   4.502 -0.5780  0.0153  0.2007
 2478SOL    HW118896   4.055   1.603   4.524 -1.2160 -0.8886 -0.6578
 2478SOL    HW218897   4.113   1.472   4.495 -1.1896  0.0925  1.4489
 2479SOL     OW18898   3.151   4.466  10.961  0.1803 -0.4987  0.8943
 2479SOL    HW118899   3.217   4.534  10.948 -1.0267  0.7887  1.4781
 2479SOL    HW218900   3.107   4.507  11.035 -0.0187  1.1027 -0.1015
 2480SOL     OW18901   2.593   4.354   2.326  0.1316  0.2070 -0.1174
 2480SOL    HW118902   2.624   4.325   2.240  0.2785 -2.2605  0.7838
 2480SOL    HW218903   2.669   4.338   2.381  0.5772  2.4077 -0.1085
 2481SOL     OW18904   3.680   4.668   6.042 -0.1867 -0.0013  0.0298
 2481SOL    HW118905   3.617   4.718   5.991 -0.9375 -2.2067 -1.1362
 2481SOL    HW218906   3.620   4.636   6.109 -0.4618 -1.1527 -0.7747
 2482SOL     OW18907   4.079   1.723   4.299  0.1676 -0.3411  0.2893
 2482SOL    HW118908   4.104   1.660   4.367 -0.0603 -0.4505  0.2725
 2482SOL    HW218909   4.133   1.702   4.222  2.4350 -0.8345  2.0123
 2483SOL     OW18910   1.827   2.655   2.044  0.2909  0.8801 -0.5946
 2483SOL    HW118911   1.741   2.624   2.076  1.3423 -2.3229 -0.8564
 2483SOL    HW218912   1.883   2.577   2.043  3.0525  2.8507  0.7178
 2484SOL     OW18913   3.845   2.396  12.625  0.2967 -0.0187 -0.2363
 2484SOL    HW118914   3.861   2.307  12.592  0.6061  0.4722 -1.3892
 2484SOL    HW218915   3.866   2.388  12.718 -0.1201 -1.2798 -0.2410
 2485SOL     OW18916   2.758   4.109   6.869  0.0567  0.0828  0.3092
 2485SOL    HW118917   2.803   4.185   6.831  1.5716 -0.2832  1.3641
 2485SOL    HW218918   2.692   4.145   6.928  1.1392 -0.2385  1.7027
 2486SOL     OW18919   2.567   1.844   8.972 -0.2275  0.2618 -0.2179
 2486SOL    HW118920   2.600   1.908   9.035  2.0573  0.2316 -1.4020
 2486SOL    HW218921   2.650   1.800   8.955 -1.1022 -0.3779 -2.8761
 2487SOL     OW18922   4.380   1.465   6.712  0.2618 -0.1457  0.1302
 2487SOL    HW118923   4.324   1.388   6.701  0.1734  0.4894 -4.0670
 2487SOL    HW218924   4.462   1.436   6.752  0.0186  1.2209  1.5918
 2488SOL     OW18925   0.863   2.330   2.989  0.3973 -0.1417 -0.4112
 2488SOL    HW118926   0.893   2.414   2.954  1.4228  1.0693  3.4207
 2488SOL    HW218927   0.883   2.262   2.925  1.5287  0.8422 -1.1104
 2489SOL     OW18928   2.518   1.700  13.656  0.3156  0.0182  0.8403
 2489SOL    HW118929   2.459   1.774  13.671  0.7993  0.6508 -0.3887
 2489SOL    HW218930   2.510   1.677  13.564 -0.7477 -1.5311  1.3103
 2490SOL     OW18931   1.363   0.666   5.690  0.3876 -0.4432 -0.2230
 2490SOL    HW118932   1.328   0.753   5.670 -1.9212 -0.7827  2.1672
 2490SOL    HW218933   1.359   0.621   5.606  0.7772 -1.4322  0.2866
 2491SOL     OW18934   2.015   2.901  12.746  0.4560  0.2214  0.0860
 2491SOL    HW118935   2.000   2.988  12.707 -0.9427 -0.5611 -1.1629
 2491SOL    HW218936   2.048   2.854  12.670 -0.9775 -2.3291  1.0528
 2492SOL     OW18937   2.343   1.921   5.672  0.2449 -0.2595  0.0976
 2492SOL    HW118938   2.308   1.888   5.590 -0.2879  0.4548  0.0307
 2492SOL    HW218939   2.329   1.851   5.736 -3.4679 -1.8840 -2.4888
 2493SOL     OW18940   4.572   0.046  17.079 -0.0340  0.2310  0.2352
 2493SOL    HW118941   4.508   0.063  17.149  0.1785  0.2486  0.4263
 2493SOL    HW218942   4.557   0.117  17.017  2.6936  0.7374  0.1668
 2494SOL     OW18943   1.842   3.427   2.666  0.8128 -0.2460  0.4261
 2494SOL    HW118944   1.868   3.406   2.756  0.6027 -0.4317  0.4419
 2494SOL    HW218945   1.779   3.358   2.646  1.1814 -0.6668  0.7168
 2495SOL     OW18946   1.757   2.838   7.440  0.3075  0.0853  0.6894
 2495SOL    HW118947   1.807   2.908   7.482  1.8353 -1.0877  0.8295
 2495SOL    HW218948   1.836   2.788   7.418 -0.8746 -1.7890  0.6991
 2496SOL     OW18949   0.690   0.687   1.881 -0.2291  0.5244 -0.0169
 2496SOL    HW118950   0.728   0.772   1.861  1.6454 -0.2624  0.1731
 2496SOL    HW218951   0.659   0.655   1.796 -2.8614 -0.3166  1.2486
 2497SOL     OW18952   0.650   2.980   8.919  0.7706 -0.7689  0.5599
 2497SOL    HW118953   0.737   2.942   8.906  0.6874 -0.9482  0.5294
 2497SOL    HW218954   0.671   3.071   8.938 -0.0649 -0.1593 -1.4006
 2498SOL     OW18955   1.753   1.836  13.765  0.2667  0.5043  0.1620
 2498SOL    HW118956   1.775   1.927  13.746  2.4294 -0.8398 -3.8288
 2498SOL    HW218957   1.678   1.857  13.820 -0.2775 -0.5698 -0.1591
 2499SOL     OW18958   4.163   0.031  17.104  0.2440  0.5103  0.3653
 2499SOL    HW118959   4.143   4.669  17.138  1.6701 -0.4750 -1.2885
 2499SOL    HW218960   4.244   0.062  17.144  0.2186 -2.6349  2.8298
 2500SOL     OW18961   1.990   0.164   1.128 -0.1312  0.1322  0.3753
 2500SOL    HW118962   1.923   0.101   1.153 -1.0687  1.2842  0.7612
 2500SOL    HW218963   2.046   0.124   1.062 -0.3401 -0.6473  0.6789
 2501SOL     OW18964   4.275   1.250  17.451  0.3775  0.3066 -0.5034
 2501SOL    HW118965   4.299   1.338  17.480  0.1907  0.7746 -1.7489
 2501SOL    HW218966   4.361   1.225  17.415  0.4394  1.0944 -0.9334
 2502SOL     OW18967   4.528   4.037   0.499  0.5592  0.0756 -0.0844
 2502SOL    HW118968   4.514   3.945   0.478 -0.1191  0.3428 -0.8037
 2502SOL    HW218969   4.623   4.042   0.510  0.5869  0.9251 -0.7299
 2503SOL     OW18970   1.720   4.519   2.827 -0.2280  0.2207  0.3264
 2503SOL    HW118971   1.720   4.589   2.893 -1.7239  0.5543 -0.0164
 2503SOL    HW218972   1.625   4.507   2.828  0.0828 -2.2712 -0.2148
 2504SOL     OW18973   3.053   3.553   7.368 -0.0698 -0.2839 -0.0917
 2504SOL    HW118974   3.118   3.594   7.311 -0.6367  0.6829 -0.0381
 2504SOL    HW218975   2.970   3.555   7.320  0.0058  1.1228 -0.1439
 2505SOL     OW18976   4.452   2.383   5.090  0.0006 -0.4966 -0.3759
 2505SOL    HW118977   4.419   2.432   5.014 -1.0233 -1.5722 -0.6261
 2505SOL    HW218978   4.365   2.350   5.112 -0.7019  0.3344 -1.8766
 2506SOL     OW18979   1.541   0.061   4.523  0.2596  0.0713 -0.5372
 2506SOL    HW118980   1.462   0.093   4.566  0.2822 -1.6016  0.7512
 2506SOL    HW218981   1.518   0.024   4.437  1.9299 -2.1527 -0.0346
 2507SOL     OW18982   4.540   3.825  12.046 -0.3670  0.1395  0.4697
 2507SOL    HW118983   4.590   3.800  12.123  0.2581  1.7427  0.5838
 2507SOL    HW218984   4.609   3.878  12.006  1.9455 -1.8179  1.8628
 2508SOL     OW18985   4.043   1.190  13.865  0.4335  0.2790  0.1901
 2508SOL    HW118986   4.116   1.244  13.895  0.8671  0.2420 -0.8038
 2508SOL    HW218987   4.069   1.165  13.777 -0.0946 -1.4517  0.5290
 2509SOL     OW18988   4.209   4.374   3.199  0.0549 -0.0368 -0.1845
 2509SOL    HW118989   4.169   4.288   3.212  1.3960 -0.2451  2.6020
 2509SOL    HW218990   4.299   4.358   3.229  0.3157 -0.8379 -1.3829
 2510SOL     OW18991   1.871   1.618   4.943 -0.3702 -0.2852  0.0322
 2510SOL    HW118992   1.923   1.542   4.917  0.0495 -0.2832  0.8693
 2510SOL    HW218993   1.887   1.624   5.037 -1.1792  0.9680  0.0890
 2511SOL     OW18994   1.851   0.010   7.072  0.4654 -0.1942  0.2574
 2511SOL    HW118995   1.862   4.670   7.142  1.0743 -0.8912 -0.4888
 2511SOL    HW218996   1.828   0.084   7.128 -1.1454  1.5132 -2.6820
 2512SOL     OW18997   0.169   1.010   4.992  0.3403 -0.1926  0.1840
 2512SOL    HW118998   0.099   0.960   4.949  0.1482 -1.0338  1.4663
 2512SOL    HW218999   0.206   1.063   4.922 -1.3100  0.1606 -0.4218
 2513SOL     OW19000   3.331   2.893  17.614 -0.4300  0.2878 -0.1977
 2513SOL    HW119001   3.422   2.871  17.635 -0.6920 -1.5872 -0.9944
 2513SOL    HW219002   3.295   2.875  17.701 -0.1483  0.1855 -0.1033
 2514SOL     OW19003   2.746   0.009  14.886  0.1862 -0.0548 -0.4530
 2514SOL    HW119004   2.779   4.697  14.968  1.1388  1.2401 -0.2536
 2514SOL    HW219005   2.651   0.002  14.896  0.1470  2.0687  0.6993
 2515SOL     OW19006   3.279   3.396   8.092 -0.1318 -0.2579 -0.1529
 2515SOL    HW119007   3.346   3.332   8.118 -1.0736 -1.3181 -0.3219
 2515SOL    HW219008   3.205   3.335   8.087 -1.1971  0.7132  3.7047
 2516SOL     OW19009   0.362   2.930   0.174 -0.1298 -0.2186  0.2638
 2516SOL    HW119010   0.297   2.896   0.236 -1.3435  0.8264 -0.4347
 2516SOL    HW219011   0.315   2.917   0.092  0.5772 -0.1342 -0.1535
 2517SOL     OW19012   3.149   3.231   4.134  0.0888 -0.2791  0.1528
 2517SOL    HW119013   3.083   3.262   4.196 -0.3264 -2.2242  0.6646
 2517SOL    HW219014   3.229   3.278   4.158  0.2523 -0.1698 -0.6056
 2518SOL     OW19015   4.076   3.143   8.923  0.1165  0.2478  0.0254
 2518SOL    HW119016   4.027   3.063   8.903 -0.5260  0.3947  1.0247
 2518SOL    HW219017   4.165   3.115   8.900 -0.0548  0.0335 -0.3640
 2519SOL     OW19018   4.547   0.301  10.280 -0.3506 -0.2042  0.2310
 2519SOL    HW119019   4.560   0.305  10.185  2.1351 -0.8387  0.5504
 2519SOL    HW219020   4.631   0.284  10.322 -0.2652  1.2118  0.6585
 2520SOL     OW19021   0.452   2.018   4.696 -0.0553 -0.0467 -0.3570
 2520SOL    HW119022   0.438   2.100   4.649 -0.8938 -0.4492 -0.8116
 2520SOL    HW219023   0.468   1.945   4.636  0.9877 -1.4850  1.6779
 2521SOL     OW19024   1.356   3.303   6.669  0.4592 -0.2280 -0.3790
 2521SOL    HW119025   1.292   3.300   6.740 -2.3268 -2.8511 -2.9782
 2521SOL    HW219026   1.301   3.289   6.592  0.1319  1.8660 -0.5155
 2522SOL     OW19027   0.041   3.676   5.846  0.3332 -0.1476 -0.0555
 2522SOL    HW119028   0.071   3.608   5.908 -3.0672 -3.2279 -1.8125
 2522SOL    HW219029   0.127   3.710   5.820 -0.0300 -1.3659 -2.7532
 2523SOL     OW19030   1.698   4.494   4.442 -0.0834 -0.2609  0.5047
 2523SOL    HW119031   1.711   4.585   4.466 -3.6775 -0.1017  1.8657
 2523SOL    HW219032   1.790   4.468   4.440  0.1459  0.7396 -1.6765
 2524SOL     OW19033   1.706   2.884   5.002  0.1556  0.3263 -0.0745
 2524SOL    HW119034   1.622   2.928   5.017 -0.8372 -1.3984 -0.5698
 2524SOL    HW219035   1.760   2.959   4.979 -1.9619  1.5065 -1.2619
 2525SOL     OW19036   1.420   2.301   3.386  0.1426 -0.9444 -0.1060
 2525SOL    HW119037   1.435   2.213   3.353 -2.3972 -1.8653  1.1670
 2525SOL    HW219038   1.508   2.337   3.395 -0.2111  0.4091 -1.9494
 2526SOL     OW19039   1.542   1.421   3.717  0.3317  0.8138  0.3848
 2526SOL    HW119040   1.619   1.373   3.749 -0.9648 -1.5358  0.0457
 2526SOL    HW219041   1.552   1.400   3.624  1.3733  1.8295  0.2822
 2527SOL     OW19042   2.234   2.920  14.489  0.0326 -0.0897 -0.6189
 2527SOL    HW119043   2.328   2.900  14.498 -0.4503 -2.1835 -0.1970
 2527SOL    HW219044   2.242   3.014  14.475 -0.4427  0.1817  0.9453
 2528SOL     OW19045   1.723   4.368   6.484 -0.4885 -0.4123 -0.1234
 2528SOL    HW119046   1.670   4.386   6.407 -1.6287  1.0602  0.9992
 2528SOL    HW219047   1.685   4.287   6.519 -0.8764 -1.0291 -1.9942
 2529SOL     OW19048   0.075   0.291   4.018  0.1182  0.3265 -0.1463
 2529SOL    HW119049   0.137   0.266   3.950  1.3137  0.3709  0.9311
 2529SOL    HW219050   0.048   0.375   3.979  1.1820  0.2393 -1.0719
 2530SOL     OW19051   4.173   4.542  16.765  0.7147  0.7914 -0.0373
 2530SOL    HW119052   4.252   4.543  16.819  1.8047 -2.9399 -1.5392
 2530SOL    HW219053   4.188   4.458  16.720 -3.1232 -0.1584  0.4416
 2531SOL     OW19054   1.285   1.367  15.732 -0.0636 -0.0330  0.0176
 2531SOL    HW119055   1.227   1.438  15.703  0.5291 -0.1187 -1.3712
 2531SOL    HW219056   1.331   1.345  15.651 -1.4264  3.0725 -1.5847
 2532SOL     OW19057   2.709   2.520   3.072 -0.1991  0.7464  0.0280
 2532SOL    HW119058   2.674   2.461   3.139 -1.3200 -0.8346 -1.9678
 2532SOL    HW219059   2.668   2.601   3.103 -1.0484  0.7773 -1.1894
 2533SOL     OW19060   2.963   3.926   5.992  0.1416  0.1777  0.1875
 2533SOL    HW119061   2.913   3.845   5.994 -1.6963  1.2903 -0.5234
 2533SOL    HW219062   2.937   3.954   5.904 -0.4505  0.6957  0.5260
 2534SOL     OW19063   1.644   0.800   1.207  0.0683 -0.3461  0.3073
 2534SOL    HW119064   1.729   0.767   1.234 -0.0809 -1.1744 -0.2400
 2534SOL    HW219065   1.591   0.720   1.206 -0.7950  0.2422 -0.6717
 2535SOL     OW19066   3.996   3.735  13.030 -0.0946 -0.1510 -0.0456
 2535SOL    HW119067   3.915   3.786  13.040  1.0672  1.9499 -1.3169
 2535SOL    HW219068   4.056   3.807  13.049 -0.6901 -0.1382  1.7782
 2536SOL     OW19069   2.292   0.538   0.236  0.6487  0.4206 -0.2112
 2536SOL    HW119070   2.375   0.568   0.199 -0.0003  0.5834 -1.5291
 2536SOL    HW219071   2.319   0.453   0.269  0.4547  0.5464  0.2782
 2537SOL     OW19072   2.291   0.468   5.810 -0.3238 -0.5817 -0.5313
 2537SOL    HW119073   2.339   0.451   5.891  0.3473  1.1849 -0.5604
 2537SOL    HW219074   2.310   0.558   5.784 -0.4036  0.2666  2.3052
 2538SOL     OW19075   2.821   3.703   5.934 -0.8942  0.2528  0.2910
 2538SOL    HW119076   2.833   3.618   5.975 -2.9798 -0.5085 -0.6885
 2538SOL    HW219077   2.733   3.695   5.897  0.4290  0.3751 -2.8529
 2539SOL     OW19078   1.234   0.913   0.457  0.1520  0.6034  0.1796
 2539SOL    HW119079   1.190   0.971   0.395  1.3836  0.3139 -0.9669
 2539SOL    HW219080   1.309   0.969   0.473 -0.9366  2.4074 -1.1102
 2540SOL     OW19081   3.637   3.309   7.831 -0.2060  0.0110  0.2761
 2540SOL    HW119082   3.560   3.341   7.786  3.6017  3.1784 -4.0277
 2540SOL    HW219083   3.616   3.327   7.922  0.3120 -0.8459  0.5743
 2541SOL     OW19084   3.303   1.644   4.824 -0.0839  0.1561  0.5515
 2541SOL    HW119085   3.350   1.583   4.766 -2.7844 -0.2691 -1.2129
 2541SOL    HW219086   3.342   1.728   4.800  0.2510 -0.4180 -0.9690
 2542SOL     OW19087   3.909   3.333  12.853 -0.2104 -0.1412  0.2919
 2542SOL    HW119088   3.957   3.308  12.932 -0.0144 -0.0160  0.2118
 2542SOL    HW219089   3.866   3.415  12.877  0.6475 -0.5203  3.0352
 2543SOL     OW19090   4.503   4.215   6.165  0.5612  0.1400 -0.1612
 2543SOL    HW119091   4.519   4.128   6.130 -1.1098 -0.4069  0.4152
 2543SOL    HW219092   4.407   4.214   6.168  0.5552 -0.8531 -0.5620
 2544SOL     OW19093   0.521   1.699   3.598 -0.2624 -0.1358 -0.2142
 2544SOL    HW119094   0.429   1.723   3.607 -0.0184  2.0087 -3.2307
 2544SOL    HW219095   0.533   1.648   3.517 -2.1781 -1.4755  0.3384
 2545SOL     OW19096   0.640   1.879   4.153 -0.5474  0.1762  0.4931
 2545SOL    HW119097   0.735   1.881   4.139 -0.5629 -0.4989  0.2940
 2545SOL    HW219098   0.600   1.924   4.078  0.9401 -0.4732 -0.7025
 2546SOL     OW19099   1.089   3.804  14.703 -0.1538 -0.4776  0.6729
 2546SOL    HW119100   1.101   3.751  14.624  2.7324  0.7348  0.2987
 2546SOL    HW219101   1.057   3.738  14.765  2.3757 -2.4575 -0.1328
 2547SOL     OW19102   3.983   4.696  17.407  0.0527  0.5484  0.7321
 2547SOL    HW119103   3.904   4.656  17.443  0.3707  0.0102  0.8210
 2547SOL    HW219104   4.012   4.632  17.342  0.2889  2.1032 -0.6875
 2548SOL     OW19105   0.754   2.834   7.449  0.3301 -0.1687 -0.2453
 2548SOL    HW119106   0.768   2.741   7.433  1.5768 -0.4434  2.4014
 2548SOL    HW219107   0.779   2.873   7.365  2.1634  3.0136  1.7788
 2549SOL     OW19108   2.882   2.501   0.485  0.2562  0.6491 -0.8063
 2549SOL    HW119109   2.826   2.424   0.497 -0.4155  1.2805  0.1464
 2549SOL    HW219110   2.812   2.566   0.496  0.0377  0.1089  0.9648
 2550SOL     OW19111   3.177   4.084   3.768 -0.1662  0.1858 -0.2964
 2550SOL    HW119112   3.181   4.176   3.793 -0.6900  0.0269  0.3897
 2550SOL    HW219113   3.267   4.052   3.772  0.2253  1.0258 -2.5241
 2551SOL     OW19114   3.048   2.795   5.885 -0.0058 -0.1074 -0.4255
 2551SOL    HW119115   3.068   2.778   5.977  1.0421 -0.9705 -0.8125
 2551SOL    HW219116   3.009   2.881   5.898 -2.6926 -1.6538  1.6511
 2552SOL     OW19117   4.095   0.783   8.727  0.1218 -0.3587  0.0687
 2552SOL    HW119118   4.184   0.753   8.747  0.0904  1.2456  2.6199
 2552SOL    HW219119   4.067   0.692   8.717 -0.6260  0.0871 -1.9414
 2553SOL     OW19120   4.245   4.149   8.032 -0.2218 -0.0918 -0.6794
 2553SOL    HW119121   4.172   4.210   8.023  0.7696  1.2536  0.2306
 2553SOL    HW219122   4.223   4.068   7.987  1.5229 -1.2330  0.4858
 2554SOL     OW19123   0.026   2.094   9.375 -0.4167  0.1752 -0.9457
 2554SOL    HW119124   0.056   2.007   9.401  0.5593  0.1288 -2.2275
 2554SOL    HW219125   0.072   2.136   9.448  1.1443 -1.8072 -0.7975
 2555SOL     OW19126   2.916   1.126  10.530 -0.1119  0.2745 -0.3277
 2555SOL    HW119127   2.982   1.157  10.592 -0.7917 -0.4571  0.7681
 2555SOL    HW219128   2.929   1.195  10.465  2.8215 -1.0632 -1.1606
 2556SOL     OW19129   4.330   0.566  15.581  0.4640  0.0252 -0.8420
 2556SOL    HW119130   4.391   0.497  15.553 -0.9003 -0.8505 -1.6583
 2556SOL    HW219131   4.371   0.635  15.633  1.1167 -1.1795  0.2408
 2557SOL     OW19132   3.612   1.023   8.829  0.1123  0.1673 -0.1316
 2557SOL    HW119133   3.589   1.110   8.861 -0.7048  1.0497 -3.1802
 2557SOL    HW219134   3.544   1.019   8.762  1.0030  1.1525 -1.0961
 2558SOL     OW19135   0.688   1.641  12.512 -0.2944 -0.0921 -0.1515
 2558SOL    HW119136   0.740   1.693  12.573  0.4296 -1.2724  0.2280
 2558SOL    HW219137   0.699   1.547  12.526  3.0465  0.1258 -1.3225
 2559SOL     OW19138   4.369   4.045   3.968  0.7912 -0.0773 -0.8648
 2559SOL    HW119139   4.283   4.017   3.939  0.5404  2.0556 -2.1988
 2559SOL    HW219140   4.388   4.115   3.905 -0.2478  1.0843  0.1203
 2560SOL     OW19141   3.970   3.132   2.965 -0.2553 -0.2344 -0.6752
 2560SOL    HW119142   3.968   3.223   2.994  0.7165 -0.6317  0.6398
 2560SOL    HW219143   3.914   3.138   2.887  1.6596  3.4435 -1.7554
 2561SOL     OW19144   3.387   3.244  14.273  0.1230 -0.1963 -0.1751
 2561SOL    HW119145   3.317   3.189  14.308  0.3191  0.0125  0.5475
 2561SOL    HW219146   3.358   3.273  14.187  2.9510  0.3804 -0.9453
 2562SOL     OW19147   0.200   3.066   7.358  0.2307  0.2588  0.2322
 2562SOL    HW119148   0.180   2.990   7.414  0.4221 -0.0818 -0.1563
 2562SOL    HW219149   0.174   3.138   7.416 -1.1334  1.2019 -1.5539
 2563SOL     OW19150   1.510   2.756  17.334 -0.0597  0.4921 -0.2278
 2563SOL    HW119151   1.471   2.704  17.264  2.3946 -0.4492 -0.8963
 2563SOL    HW219152   1.441   2.758  17.401  0.1284 -0.8822  0.0041
 2564SOL     OW19153   1.764   0.156  11.414  0.4868  0.2502 -0.1786
 2564SOL    HW119154   1.717   0.102  11.477  1.8477 -1.1318 -0.3703
 2564SOL    HW219155   1.707   0.155  11.336 -1.3769 -1.8799  1.2134
 2565SOL     OW19156   0.169   0.205   6.414 -0.3013  0.4396 -0.4653
 2565SOL    HW119157   0.212   0.284   6.448 -0.4609 -0.6343  2.2294
 2565SOL    HW219158   0.077   0.228   6.418 -0.4225  0.1863 -1.8803
 2566SOL     OW19159   4.489   1.227   2.618  0.6078  0.4315  0.3239
 2566SOL    HW119160   4.418   1.237   2.554  0.6769 -1.1524  0.0062
 2566SOL    HW219161   4.559   1.208   2.556  0.2006 -1.0423  0.2963
 2567SOL     OW19162   0.493   4.336   5.213  0.0962  0.1196  0.2157
 2567SOL    HW119163   0.512   4.429   5.202  0.0529  0.4729  3.0562
 2567SOL    HW219164   0.474   4.326   5.306 -2.3031  0.4691 -0.2295
 2568SOL     OW19165   1.006   1.527   5.604  0.4124 -0.4548 -0.0585
 2568SOL    HW119166   0.992   1.551   5.513 -3.1066  1.3423  0.9494
 2568SOL    HW219167   1.048   1.443   5.589  1.2244  0.3609 -2.2823
 2569SOL     OW19168   0.111   0.955   3.022  0.4165 -0.1733 -0.5276
 2569SOL    HW119169   0.091   1.009   2.946 -1.6926 -0.1215  0.0569
 2569SOL    HW219170   0.165   1.020   3.067 -0.2089  2.2698 -3.3721
 2570SOL     OW19171   0.457   1.483   5.008  0.4459  0.0720  0.3849
 2570SOL    HW119172   0.411   1.533   5.075 -0.6312 -0.3795 -0.0043
 2570SOL    HW219173   0.426   1.527   4.929  1.3510  0.9066  0.5018
 2571SOL     OW19174   0.175   1.164   8.719 -0.2544 -0.2223 -0.2450
 2571SOL    HW119175   0.217   1.085   8.753  2.2297  2.4074  2.7833
 2571SOL    HW219176   0.246   1.213   8.676  0.4350 -0.8529  0.1693
 2572SOL     OW19177   2.069   1.363   2.846 -0.4368  0.1077  0.3946
 2572SOL    HW119178   2.063   1.446   2.894  1.3573  0.9006 -0.7446
 2572SOL    HW219179   2.063   1.390   2.754 -0.1059  0.3620  0.4478
 2573SOL     OW19180   2.293   0.658  11.001 -0.1948  0.5802  0.4824
 2573SOL    HW119181   2.373   0.628  11.044 -0.9282 -0.9977  0.7531
 2573SOL    HW219182   2.242   0.577  11.004 -1.5306  1.3750 -0.6756
 2574SOL     OW19183   3.402   3.999   9.701  0.1638 -0.1330 -0.2554
 2574SOL    HW119184   3.345   4.018   9.776 -0.9368 -1.4272 -0.7638
 2574SOL    HW219185   3.350   4.044   9.634 -0.7995 -0.5847  0.2010
 2575SOL     OW19186   4.562   0.045   6.489  0.0515 -0.3871 -0.2138
 2575SOL    HW119187   4.521   0.105   6.552  3.1043  1.0827  0.3649
 2575SOL    HW219188   4.629   4.725   6.540 -1.2024  0.1760  1.9477
 2576SOL     OW19189   2.082   1.479   1.687  0.0849  0.0245 -0.1098
 2576SOL    HW119190   2.003   1.426   1.689 -0.2237  0.5267  1.3298
 2576SOL    HW219191   2.101   1.466   1.594 -0.4551  0.3498 -0.2692
 2577SOL     OW19192   0.353   2.635   7.694  0.2668  0.2924 -0.3700
 2577SOL    HW119193   0.401   2.557   7.723 -0.8133 -0.4017 -0.4581
 2577SOL    HW219194   0.310   2.603   7.615  1.0832  0.5739 -0.9338
 2578SOL     OW19195   2.021   3.765  15.198 -0.5671 -0.3795  0.4825
 2578SOL    HW119196   1.927   3.774  15.184 -0.3524  0.2808 -0.6185
 2578SOL    HW219197   2.031   3.684  15.248  0.5619 -1.5475 -1.6132
 2579SOL     OW19198   1.125   4.405   1.010 -0.0088 -0.2188 -0.3475
 2579SOL    HW119199   1.175   4.330   1.041 -2.5440 -1.2456  1.3370
 2579SOL    HW219200   1.134   4.385   0.917 -3.9278  2.6462 -1.3721
 2580SOL     OW19201   0.151   2.566   8.528  0.8355  0.0357 -0.0577
 2580SOL    HW119202   0.087   2.559   8.599 -1.7871  0.1139 -2.4112
 2580SOL    HW219203   0.146   2.482   8.482  1.0723 -0.2003  0.3465
 2581SOL     OW19204   4.650   3.173  12.542  0.0932  0.0174  0.8165
 2581SOL    HW119205   4.688   3.150  12.627  1.4103  0.6889  0.4218
 2581SOL    HW219206   4.674   3.265  12.536  1.2469 -0.3497 -0.3487
 2582SOL     OW19207   0.941   1.246  12.245  0.1371  0.7301 -0.3019
 2582SOL    HW119208   1.020   1.193  12.231 -0.0873 -0.6653  3.6501
 2582SOL    HW219209   0.986   1.320  12.283  2.4072 -0.4524 -0.6880
 2583SOL     OW19210   2.993   3.800   5.436 -0.2802 -0.1845 -0.4344
 2583SOL    HW119211   2.951   3.883   5.414  0.3382  0.2068 -0.1312
 2583SOL    HW219212   2.980   3.754   5.353 -0.5288 -0.0880 -0.4489
 2584SOL     OW19213   3.469   2.486   1.699 -0.0994 -0.3915  0.2961
 2584SOL    HW119214   3.449   2.393   1.699  2.8537 -1.0312  0.1308
 2584SOL    HW219215   3.395   2.518   1.647 -0.8730 -2.2826  0.2527
 2585SOL     OW19216   3.455   2.789   7.453  0.3488  0.2316 -0.1092
 2585SOL    HW119217   3.500   2.709   7.425  1.6715  0.6994  0.7044
 2585SOL    HW219218   3.400   2.752   7.521 -0.2808 -0.9379 -1.2485
 2586SOL     OW19219   1.651   4.174   8.528 -0.2787  0.0340 -0.0527
 2586SOL    HW119220   1.744   4.185   8.511  0.0098 -1.4247  0.6225
 2586SOL    HW219221   1.624   4.265   8.512 -0.4419 -0.0325 -0.1576
 2587SOL     OW19222   3.063   2.971   1.021  0.3014  0.2451 -0.5701
 2587SOL    HW119223   3.154   2.953   1.046 -0.2600 -0.7877  0.8059
 2587SOL    HW219224   3.079   3.023   0.943  1.2038 -0.5259 -0.8957
 2588SOL     OW19225   1.058   0.963   1.190 -0.2413  0.4331 -0.1738
 2588SOL    HW119226   1.069   0.874   1.224 -1.2329  0.4862  0.2864
 2588SOL    HW219227   0.971   0.970   1.150 -0.1158  1.2779 -0.2967
 2589SOL     OW19228   1.410   4.519   6.898 -0.1805  0.5324 -0.3889
 2589SOL    HW119229   1.331   4.571   6.880 -1.0881 -0.9851 -0.7690
 2589SOL    HW219230   1.477   4.548   6.836  0.3532 -0.6198 -0.3357
 2590SOL     OW19231   0.586   1.335   0.700 -0.0504 -0.2385 -0.3204
 2590SOL    HW119232   0.619   1.425   0.702  0.1524 -0.2949 -1.2169
 2590SOL    HW219233   0.536   1.328   0.781  1.0501 -0.2844  0.3483
 2591SOL     OW19234   3.346   3.631   8.197  0.1988 -0.0755 -0.5445
 2591SOL    HW119235   3.317   3.541   8.181  1.1971 -0.5255  0.1985
 2591SOL    HW219236   3.372   3.638   8.289  2.5800 -1.0446 -1.1313
 2592SOL     OW19237   1.603   2.749  15.311  0.4592 -0.6791  0.3378
 2592SOL    HW119238   1.581   2.711  15.226  2.0374 -0.9186  0.0439
 2592SOL    HW219239   1.523   2.733  15.361  0.5598 -0.1292  0.6754
 2593SOL     OW19240   2.922   2.894   3.447 -0.0583 -0.5867  0.0457
 2593SOL    HW119241   2.919   2.834   3.373 -1.0843  0.7810 -1.0216
 2593SOL    HW219242   3.013   2.904   3.473 -0.4328  0.5494  0.9645
 2594SOL     OW19243   3.197   3.282   7.773 -0.5033  0.0002 -0.2308
 2594SOL    HW119244   3.278   3.326   7.747 -0.3077  0.0678  0.5100
 2594SOL    HW219245   3.145   3.301   7.694 -0.4893 -0.4845 -0.3542
 2595SOL     OW19246   3.020   2.872  15.343  0.4035 -0.0555 -0.2154
 2595SOL    HW119247   2.985   2.954  15.379  2.6499 -1.0187  4.1007
 2595SOL    HW219248   2.982   2.877  15.255 -0.6908 -0.2603  0.2381
 2596SOL     OW19249   3.248   2.870   0.196  0.4398 -0.2984  0.3538
 2596SOL    HW119250   3.171   2.831   0.155 -0.5521  0.6531  1.3337
 2596SOL    HW219251   3.225   2.844   0.285 -1.7366  1.0852  0.1750
 2597SOL     OW19252   2.994   4.306   6.770  0.6856  0.0213 -0.0386
 2597SOL    HW119253   3.071   4.280   6.720 -1.9515 -0.7774 -3.6830
 2597SOL    HW219254   2.954   4.372   6.713 -1.4467 -0.7333  0.5784
 2598SOL     OW19255   3.260   2.829   6.944 -0.4869  0.1920  0.3357
 2598SOL    HW119256   3.290   2.854   7.032  1.4020  3.9468 -1.3552
 2598SOL    HW219257   3.245   2.737   6.963  1.0745  0.6637  3.9883
 2599SOL     OW19258   1.318   2.313   1.121 -0.0611  0.1067  0.1021
 2599SOL    HW119259   1.277   2.256   1.056  1.6200 -0.0369 -0.8194
 2599SOL    HW219260   1.262   2.305   1.198  0.4402 -0.7450  0.3743
 2600SOL     OW19261   3.696   0.188   3.940  0.0686 -0.1049  0.0017
 2600SOL    HW119262   3.703   0.096   3.915  1.0662  0.3917 -1.4939
 2600SOL    HW219263   3.789   0.209   3.941  0.4485 -1.7143 -1.2256
 2601SOL     OW19264   2.524   2.810   6.795  0.2641  0.3727 -0.1718
 2601SOL    HW119265   2.470   2.838   6.722  1.8714  0.8314 -1.2005
 2601SOL    HW219266   2.600   2.867   6.780 -1.1343  2.1059 -0.6841
 2602SOL     OW19267   0.001   3.696  12.891 -0.5462 -0.5020 -0.1318
 2602SOL    HW119268   4.708   3.631  12.823 -0.3843  0.6579 -1.2711
 2602SOL    HW219269   0.059   3.642  12.944  0.9298  1.0754 -0.1462
 2603SOL     OW19270   1.112   2.791   5.739  0.2000 -0.4424 -0.0302
 2603SOL    HW119271   1.025   2.765   5.709 -0.3175  2.4989 -1.1299
 2603SOL    HW219272   1.112   2.753   5.827 -3.8996  1.1695  0.7025
 2604SOL     OW19273   3.433   0.773   4.201  0.5499  0.4768 -0.3573
 2604SOL    HW119274   3.485   0.798   4.278 -1.3684  1.3639  0.6605
 2604SOL    HW219275   3.375   0.715   4.250  1.3192  1.0835  1.2989
 2605SOL     OW19276   2.141   3.364   1.579  0.2023 -0.0616  0.1701
 2605SOL    HW119277   2.076   3.414   1.628  0.6664 -0.4953  1.2253
 2605SOL    HW219278   2.090   3.339   1.502 -0.4356  0.2390  0.4952
 2606SOL     OW19279   1.634   1.404   0.509  0.1727 -0.3230  0.5144
 2606SOL    HW119280   1.711   1.350   0.491 -0.2613 -1.0662  0.9087
 2606SOL    HW219281   1.664   1.430   0.596 -0.3326  1.1554  0.2504
 2607SOL     OW19282   0.657   0.168  17.295  0.7953  0.2627 -0.5320
 2607SOL    HW119283   0.668   0.117  17.215 -0.5830 -1.3746  0.3546
 2607SOL    HW219284   0.738   0.218  17.308  0.4094  0.6285  0.4497
 2608SOL     OW19285   0.454   1.239   4.570 -0.2008  0.2207 -0.3933
 2608SOL    HW119286   0.486   1.185   4.643 -1.9260 -0.4009 -0.0883
 2608SOL    HW219287   0.477   1.328   4.598 -0.4375  0.9740 -2.6354
 2609SOL     OW19288   2.167   1.260   7.109  0.0461 -0.2252  0.2034
 2609SOL    HW119289   2.202   1.232   7.024 -0.6945  0.1779 -0.2337
 2609SOL    HW219290   2.162   1.355   7.099  1.6092  0.0011  1.4875
 2610SOL     OW19291   2.462   1.058   7.104  0.3406 -0.2253 -1.0338
 2610SOL    HW119292   2.455   0.973   7.059  0.0429  0.0875 -1.5857
 2610SOL    HW219293   2.443   1.028   7.193  1.9271  3.1247  0.4147
 2611SOL     OW19294   1.089   2.086   7.568  0.2764  0.0293 -0.0349
 2611SOL    HW119295   1.076   1.992   7.562  1.1718 -0.0133 -1.1577
 2611SOL    HW219296   1.141   2.088   7.649 -0.7173  1.7014  0.5702
 2612SOL     OW19297   1.940   0.687  17.626  0.0624 -0.0341 -0.1569
 2612SOL    HW119298   1.852   0.651  17.642  0.2303 -0.5830 -0.4819
 2612SOL    HW219299   1.940   0.728  17.540  0.7151  1.4748  0.5741
 2613SOL     OW19300   3.713   2.336   7.338 -0.2620  0.7719  0.1240
 2613SOL    HW119301   3.684   2.246   7.346  2.1621  0.0534  0.9205
 2613SOL    HW219302   3.809   2.335   7.337 -0.2978 -1.7763 -0.3224
 2614SOL     OW19303   4.004   1.820  15.291  0.0319  0.0491  0.0970
 2614SOL    HW119304   3.953   1.826  15.210 -1.3060 -0.0616  0.9207
 2614SOL    HW219305   4.036   1.909  15.302  0.4142 -0.1630  0.7152
 2615SOL     OW19306   3.784   0.377   4.662  0.3598 -0.1236  0.2636
 2615SOL    HW119307   3.692   0.361   4.680  0.0871  1.6761  0.4877
 2615SOL    HW219308   3.820   0.428   4.735  0.5946  0.2041 -0.0771
 2616SOL     OW19309   4.577   2.143  16.347 -0.0685 -0.0023 -0.2318
 2616SOL    HW119310   4.573   2.222  16.294 -2.2789  0.1520  0.1377
 2616SOL    HW219311   4.519   2.083  16.300 -1.4109  0.8687  0.2901
 2617SOL     OW19312   3.048   3.263   5.246  0.0186 -0.3656  0.2233
 2617SOL    HW119313   2.965   3.230   5.212 -0.3684  0.1654  0.6503
 2617SOL    HW219314   3.037   3.240   5.338  0.1867 -1.8731 -0.1342
 2618SOL     OW19315   1.498   0.448   4.859 -0.0168 -0.0780 -0.0274
 2618SOL    HW119316   1.545   0.387   4.802  1.2225  2.4087 -1.6710
 2618SOL    HW219317   1.570   0.476   4.916  0.3828  0.4209 -0.7746
 2619SOL     OW19318   1.715   0.215   7.620 -0.2558 -0.0569  1.0361
 2619SOL    HW119319   1.728   0.300   7.662  0.5845  1.7101 -2.7808
 2619SOL    HW219320   1.808   0.196   7.629  0.4047  2.7543  0.1003
 2620SOL     OW19321   4.119   0.338  11.596  0.7385 -0.1393 -0.3607
 2620SOL    HW119322   4.107   0.399  11.668  1.7241  0.8941 -1.0753
 2620SOL    HW219323   4.185   0.278  11.631 -2.3106 -1.4944  3.0956
 2621SOL     OW19324   0.738   1.055   0.819 -0.0227  0.2714 -0.0013
 2621SOL    HW119325   0.645   1.055   0.839 -0.5760  3.3858 -2.5010
 2621SOL    HW219326   0.777   1.080   0.903 -3.4001 -0.1683  1.6861
 2622SOL     OW19327   2.180   4.412   8.885 -0.4933  0.5723 -0.3719
 2622SOL    HW119328   2.112   4.379   8.827 -1.2791  1.3940  0.0715
 2622SOL    HW219329   2.227   4.332   8.908 -1.2342  0.5424  1.0400
 2623SOL     OW19330   4.265   1.404   6.981  0.2968 -0.2683  0.2764
 2623SOL    HW119331   4.245   1.375   6.892 -0.6985 -0.0195  0.4294
 2623SOL    HW219332   4.359   1.425   6.973 -0.1142  1.6073  0.3811
 2624SOL     OW19333   0.104   3.610   2.034  0.3480  0.3994 -0.1156
 2624SOL    HW119334   0.119   3.652   2.118  2.0274 -2.6401  1.1278
 2624SOL    HW219335   0.169   3.656   1.981  0.5025  1.5820  1.1057
 2625SOL     OW19336   4.378   1.581  15.307 -0.4327 -0.2421  0.0721
 2625SOL    HW119337   4.472   1.563  15.304 -0.7481 -1.7477 -0.9358
 2625SOL    HW219338   4.352   1.590  15.216  2.1211 -1.7259 -0.8165
 2626SOL     OW19339   1.642   4.252  17.447 -0.0695 -0.2292  0.0141
 2626SOL    HW119340   1.687   4.171  17.422  1.4110  0.2986  0.9473
 2626SOL    HW219341   1.586   4.229  17.521  3.2933  0.0905  2.6492
 2627SOL     OW19342   4.242   2.675  16.471  0.3119  0.0018  0.0038
 2627SOL    HW119343   4.172   2.610  16.480  0.2792 -0.0045 -0.3140
 2627SOL    HW219344   4.196   2.756  16.494  0.1029 -1.0287  3.2011
 2628SOL     OW19345   2.467   3.028   3.005  0.1327  0.4475 -0.2193
 2628SOL    HW119346   2.381   2.988   2.996 -0.6352  1.4933  2.6121
 2628SOL    HW219347   2.493   3.034   2.913 -1.0042 -0.7626 -0.6183
 2629SOL     OW19348   3.564   1.285   8.913 -0.4501  0.0985 -0.4763
 2629SOL    HW119349   3.634   1.347   8.935 -0.4321  0.7812 -2.4734
 2629SOL    HW219350   3.493   1.307   8.973  1.5064  2.7513  0.9000
 2630SOL     OW19351   2.804   0.587  14.290  0.6865 -0.3653 -0.1299
 2630SOL    HW119352   2.821   0.568  14.198  2.3380  1.1868 -0.1541
 2630SOL    HW219353   2.797   0.682  14.283  1.0951 -0.2448  1.0018
 2631SOL     OW19354   0.775   4.412   7.576 -0.3172 -0.1021 -0.0243
 2631SOL    HW119355   0.735   4.351   7.514 -1.8490  1.6854 -0.7620
 2631SOL    HW219356   0.847   4.363   7.616  1.3206  2.3271  0.0163
 2632SOL     OW19357   3.894   3.654   2.293  0.1850 -0.4508  0.6376
 2632SOL    HW119358   3.941   3.642   2.211  1.1841  0.6796  1.0331
 2632SOL    HW219359   3.867   3.745   2.279  0.0707 -0.4566  0.8120
 2633SOL     OW19360   2.542   3.708  15.095  0.0633 -0.2165 -1.2146
 2633SOL    HW119361   2.582   3.621  15.099  0.2660 -0.0570  0.2779
 2633SOL    HW219362   2.458   3.688  15.137  0.4143  0.5393 -0.1731
 2634SOL     OW19363   3.781   3.307   8.466 -0.0022 -0.0364 -0.5742
 2634SOL    HW119364   3.852   3.356   8.426 -0.3058  1.2700  0.4835
 2634SOL    HW219365   3.734   3.371   8.520  1.0069 -0.5100  0.8744
 2635SOL     OW19366   0.302   2.380   3.874 -0.1229 -0.4665  0.1381
 2635SOL    HW119367   0.322   2.472   3.892  0.4142 -0.6554  0.4813
 2635SOL    HW219368   0.223   2.378   3.929  0.8317  3.8958  1.6817
 2636SOL     OW19369   4.657   2.944  12.426  0.6367 -0.1009  0.4625
 2636SOL    HW119370   4.612   2.972  12.346  0.4638  0.1216  0.6384
 2636SOL    HW219371   4.635   3.019  12.480  0.8430 -0.1213  0.5754
 2637SOL     OW19372   0.655   3.147  16.574 -0.4413  0.1422  0.0897
 2637SOL    HW119373   0.675   3.204  16.501 -1.1142 -2.1291 -1.8649
 2637SOL    HW219374   0.734   3.094  16.576 -0.4193  0.3262  4.4277
 2638SOL     OW19375   1.240   3.031   9.467 -0.4308 -0.6124  0.2456
 2638SOL    HW119376   1.185   3.064   9.395  1.5677  0.6327 -0.7235
 2638SOL    HW219377   1.309   2.983   9.421  0.7726  0.0620  1.3482
 2639SOL     OW19378   0.732   0.298  14.367 -0.0662 -0.5584  0.3073
 2639SOL    HW119379   0.785   0.347  14.304  2.4722 -0.7230  2.2867
 2639SOL    HW219380   0.699   0.369  14.421  1.2341 -0.3715  0.8548
 2640SOL     OW19381   2.091   2.293   1.422 -0.5695  0.3088 -0.0480
 2640SOL    HW119382   2.017   2.297   1.361 -0.9235  1.0237  0.4382
 2640SOL    HW219383   2.041   2.290   1.503 -0.3158  0.4340  0.1155
 2641SOL     OW19384   4.614   1.848   3.912  0.2546 -0.4887  0.0209
 2641SOL    HW119385   4.624   1.813   3.823  0.3409 -2.0746  0.6589
 2641SOL    HW219386   4.645   1.782   3.974 -1.0566  1.6732  2.9582
 2642SOL     OW19387   2.486   3.703   7.002  0.2241 -0.0059  0.0148
 2642SOL    HW119388   2.447   3.667   6.922  2.5489  0.4938 -1.3501
 2642SOL    HW219389   2.568   3.744   6.975  0.2016 -0.5096 -0.8244
 2643SOL     OW19390   4.547   0.523   8.602 -0.4699 -0.3246 -0.5400
 2643SOL    HW119391   4.539   0.441   8.652  0.2891  0.3087  0.6056
 2643SOL    HW219392   4.633   0.506   8.564 -0.9172 -2.6817 -0.5312
 2644SOL     OW19393   2.591   1.461  13.781 -0.1543  0.0214 -0.1629
 2644SOL    HW119394   2.514   1.404  13.785  0.2336 -0.6694 -2.8307
 2644SOL    HW219395   2.568   1.537  13.728  2.0223 -0.2405 -1.4509
 2645SOL     OW19396   4.170   1.967  15.574  0.3588 -0.8397  0.0084
 2645SOL    HW119397   4.148   1.922  15.656 -0.8324 -0.6949 -0.2275
 2645SOL    HW219398   4.159   1.893  15.515  1.3225  0.5057 -1.8458
 2646SOL     OW19399   0.595   4.417  15.598 -0.0491 -0.3388 -0.3042
 2646SOL    HW119400   0.500   4.427  15.592  0.2186  0.4116 -2.9686
 2646SOL    HW219401   0.600   4.398  15.692 -1.4576 -2.2492 -0.6256
 2647SOL     OW19402   2.952   2.532   2.921 -0.0760 -0.1134  0.3338
 2647SOL    HW119403   2.877   2.534   2.980  0.2200  0.3641  0.6914
 2647SOL    HW219404   3.017   2.503   2.985 -0.7822 -0.2653  0.9801
 2648SOL     OW19405   0.639   0.084   3.898 -0.3378 -0.0279  0.3916
 2648SOL    HW119406   0.600   0.167   3.872  1.9489  1.5377  1.8855
 2648SOL    HW219407   0.673   0.051   3.815  0.4339 -1.0773  1.1153
 2649SOL     OW19408   0.562   1.755   6.507 -0.0937 -0.6185 -0.1888
 2649SOL    HW119409   0.535   1.779   6.595  0.4503 -0.4900 -0.0568
 2649SOL    HW219410   0.575   1.841   6.468  2.4570 -0.4494  1.0003
 2650SOL     OW19411   4.495   3.909  17.672  0.2120  0.3239  0.2128
 2650SOL    HW119412   4.526   3.958  17.596 -0.4004  0.2247 -0.1044
 2650SOL    HW219413   4.406   3.892  17.639  0.4323 -1.3152  0.4514
 2651SOL     OW19414   3.016   2.477   1.115 -0.4690  0.5459  0.0727
 2651SOL    HW119415   2.950   2.496   1.181  0.0433  1.2933  0.3719
 2651SOL    HW219416   3.088   2.538   1.129 -0.1283  0.1287  0.1188
 2652SOL     OW19417   2.146   2.038   6.241  0.0711  0.0931 -0.1078
 2652SOL    HW119418   2.178   1.987   6.166 -0.1893 -1.7539  1.0160
 2652SOL    HW219419   2.089   1.980   6.292  1.3042 -0.7271  0.3384
 2653SOL     OW19420   1.493   0.782  17.272  0.4805 -0.3256  0.9272
 2653SOL    HW119421   1.448   0.770  17.189 -0.7740  1.7728  1.2984
 2653SOL    HW219422   1.580   0.775  17.234 -0.2031 -0.8999 -0.5256
 2654SOL     OW19423   0.922   1.493   1.959  0.1717  0.5905  0.4870
 2654SOL    HW119424   0.979   1.432   1.911  0.0668  1.1846 -0.4026
 2654SOL    HW219425   0.832   1.469   1.936  0.4044  0.4200 -0.2811
 2655SOL     OW19426   3.186   1.137   0.856  0.4528  0.0723 -0.5738
 2655SOL    HW119427   3.256   1.200   0.874 -0.3330  0.2260  2.0074
 2655SOL    HW219428   3.140   1.160   0.937  0.9902 -0.3943 -0.1371
 2656SOL     OW19429   0.126   0.137  15.597 -0.6687  0.8194 -0.3840
 2656SOL    HW119430   0.100   0.046  15.582  0.4235 -0.1471  3.6665
 2656SOL    HW219431   0.219   0.138  15.575 -0.9449  1.6384 -1.5266
 2657SOL     OW19432   0.890   0.284   0.169 -0.3970  0.1728  0.9252
 2657SOL    HW119433   0.956   0.307   0.104 -1.3932  2.2175  0.6403
 2657SOL    HW219434   0.941   0.215   0.211  0.0117 -0.0502  0.0682
 2658SOL     OW19435   4.122   3.907   6.911 -0.2431  0.5578  0.3897
 2658SOL    HW119436   4.187   3.845   6.944  0.2775  0.9875  0.1849
 2658SOL    HW219437   4.128   3.887   6.817  1.0252  0.5625  0.4687
 2659SOL     OW19438   3.782   0.764   6.522 -0.3979 -0.1478 -0.5342
 2659SOL    HW119439   3.865   0.732   6.486 -0.6488 -0.1552 -1.1092
 2659SOL    HW219440   3.734   0.779   6.440 -1.4453  1.2261  0.3404
 2660SOL     OW19441   2.578   4.078   7.231  1.1268 -0.6681 -0.0970
 2660SOL    HW119442   2.560   4.145   7.166  0.0173 -1.0245 -0.1628
 2660SOL    HW219443   2.504   4.018   7.220 -0.8928  1.8579 -0.0568
 2661SOL     OW19444   1.083   2.875  16.187  0.5783  0.2402 -0.3517
 2661SOL    HW119445   1.088   2.883  16.283  1.3981  3.1669 -0.6381
 2661SOL    HW219446   1.091   2.966  16.160 -1.6898  0.3387 -0.6353
 2662SOL     OW19447   0.962   2.151   6.494  0.4728  0.0629 -0.6820
 2662SOL    HW119448   1.053   2.131   6.515 -0.0793 -0.2350  1.4468
 2662SOL    HW219449   0.954   2.208   6.570  0.6687 -0.9205  0.0738
 2663SOL     OW19450   2.201   1.673   7.781  0.0012  0.2724 -0.3824
 2663SOL    HW119451   2.161   1.760   7.792 -0.6240  0.3333 -3.3069
 2663SOL    HW219452   2.284   1.700   7.821  0.3245  0.4262 -1.1669
 2664SOL     OW19453   3.562   0.089  17.620  0.1285  0.3987 -0.6617
 2664SOL    HW119454   3.539   0.076   0.010  0.7428  0.3425 -0.5143
 2664SOL    HW219455   3.657   0.077  17.616  0.6115  3.9046  0.5421
 2665SOL     OW19456   2.969   2.102   6.077  0.0102 -0.0318 -0.0083
 2665SOL    HW119457   3.017   2.181   6.051  0.5923  0.1969  1.7838
 2665SOL    HW219458   2.990   2.036   6.010  2.1943 -0.3415  0.9876
 2666SOL     OW19459   4.454   2.688   5.632 -0.1726  0.2801  0.3026
 2666SOL    HW119460   4.490   2.692   5.543 -0.4770  0.9136  0.2057
 2666SOL    HW219461   4.526   2.650   5.682 -0.0220  0.4380  0.2069
 2667SOL     OW19462   0.321   4.264   0.473 -0.6290 -0.4920  0.4041
 2667SOL    HW119463   0.350   4.184   0.429  1.7617  1.3454 -1.3861
 2667SOL    HW219464   0.395   4.284   0.530  1.9449 -1.2973 -2.6732
 2668SOL     OW19465   1.393   0.299   3.655 -0.0855 -0.1946 -0.4016
 2668SOL    HW119466   1.301   0.279   3.638 -0.4151  0.3718  0.6738
 2668SOL    HW219467   1.395   0.392   3.633  1.8257 -0.0759  0.2908
 2669SOL     OW19468   3.975   1.760   2.344 -0.4272  0.3152  0.1398
 2669SOL    HW119469   3.917   1.684   2.355 -0.6912  0.4285 -0.4605
 2669SOL    HW219470   3.965   1.799   2.431 -0.1288 -1.2758  0.8921
 2670SOL     OW19471   1.462   2.575   1.077  0.4274  0.0017  0.3891
 2670SOL    HW119472   1.370   2.548   1.078  0.4644 -0.1066  0.7727
 2670SOL    HW219473   1.504   2.532   1.002 -0.4241 -0.5252  0.2143
 2671SOL     OW19474   2.823   0.997   2.416  0.2879  0.7352  0.5180
 2671SOL    HW119475   2.832   0.905   2.390  1.6138  0.7813  0.7978
 2671SOL    HW219476   2.911   1.034   2.404  0.3238  0.2937 -0.6490
 2672SOL     OW19477   4.573   2.108   7.843  0.2053  0.4861  0.4922
 2672SOL    HW119478   4.567   2.125   7.937  2.0643  0.2852  0.6609
 2672SOL    HW219479   4.558   2.013   7.834  0.3854  0.5568 -0.5164
 2673SOL     OW19480   2.204   0.806   4.697  0.1987 -0.3261  0.1543
 2673SOL    HW119481   2.138   0.848   4.754 -1.7812 -0.9600 -1.6672
 2673SOL    HW219482   2.234   0.741   4.760 -1.3891  0.2092  1.4880
 2674SOL     OW19483   2.136   1.315   9.387 -0.4568  0.4130 -0.0753
 2674SOL    HW119484   2.087   1.346   9.464 -1.2161  1.5398 -1.0168
 2674SOL    HW219485   2.150   1.226   9.419 -3.3988 -0.0604 -0.1268
 2675SOL     OW19486   3.438   0.335   5.039 -0.4935  0.3039 -0.3926
 2675SOL    HW119487   3.478   0.260   4.995  0.4561 -0.5176  1.8833
 2675SOL    HW219488   3.496   0.407   5.014 -1.2658  0.7805 -0.8235
 2676SOL     OW19489   0.750   4.440  13.784  0.5073  1.0513  0.2310
 2676SOL    HW119490   0.829   4.452  13.837  0.3441  2.6030  0.1268
 2676SOL    HW219491   0.784   4.380  13.717 -0.4693  1.6780 -0.8317
 2677SOL     OW19492   2.015   2.552   5.927  0.3355 -0.2307 -0.1124
 2677SOL    HW119493   1.920   2.547   5.936  0.1413  1.9106 -0.9873
 2677SOL    HW219494   2.052   2.464   5.916  0.9079 -0.1189  0.9525
 2678SOL     OW19495   0.465   1.914   8.609 -0.0150  0.5878  0.1452
 2678SOL    HW119496   0.401   1.847   8.587 -1.7916  1.7209  1.9006
 2678SOL    HW219497   0.414   1.979   8.658  1.1231 -0.1274  2.3152
 2679SOL     OW19498   2.090   2.985  13.918  0.1047 -0.0238  0.0160
 2679SOL    HW119499   2.128   3.067  13.948  1.9866 -0.5146 -1.0094
 2679SOL    HW219500   2.067   2.947  14.003 -2.0642 -0.3402 -0.7034
 2680SOL     OW19501   1.827   3.807   3.386  0.1651 -0.2138  0.3994
 2680SOL    HW119502   1.828   3.735   3.449 -1.1126 -1.5297 -1.1133
 2680SOL    HW219503   1.748   3.800   3.332 -0.0052  2.6435  0.2575
 2681SOL     OW19504   1.949   0.291   4.060  0.2837  0.5450 -0.0780
 2681SOL    HW119505   1.935   0.208   4.014  3.0612  0.4832 -0.8577
 2681SOL    HW219506   1.916   0.263   4.145 -0.5743  1.2686 -0.1711
 2682SOL     OW19507   3.035   1.292   3.910 -0.2804 -0.1274  0.1219
 2682SOL    HW119508   3.061   1.275   3.820  1.3030  1.0799  0.3484
 2682SOL    HW219509   3.114   1.328   3.950 -1.6231  2.1775  0.7577
 2683SOL     OW19510   1.744   4.199   6.227 -0.1633 -0.0480 -0.3727
 2683SOL    HW119511   1.671   4.155   6.184 -0.4887  1.2842 -1.1962
 2683SOL    HW219512   1.701   4.281   6.251 -0.8821 -0.6855  0.5049
 2684SOL     OW19513   3.736   1.237   6.781  0.0962  0.3075  0.0545
 2684SOL    HW119514   3.788   1.316   6.764 -1.6286  1.5110  0.4271
 2684SOL    HW219515   3.792   1.174   6.827 -0.2639 -0.6559 -0.8450
 2685SOL     OW19516   1.373   4.181   2.498 -0.3227 -0.2593  0.3583
 2685SOL    HW119517   1.423   4.144   2.425 -0.2009 -0.3130  0.4689
 2685SOL    HW219518   1.388   4.273   2.474  1.3079  0.0053  2.3583
 2686SOL     OW19519   1.775   2.519   7.816  0.3057  0.0087 -0.4999
 2686SOL    HW119520   1.694   2.546   7.858 -0.1557 -1.7158 -0.2707
 2686SOL    HW219521   1.732   2.481   7.740 -0.1760 -0.2816 -0.0875
 2687SOL     OW19522   0.194   3.474   7.786 -0.1504  0.4754 -0.1384
 2687SOL    HW119523   0.144   3.510   7.713 -0.6870  1.9774  0.9580
 2687SOL    HW219524   0.216   3.552   7.836  1.5397 -0.8567  1.2093
 2688SOL     OW19525   3.425   2.108   6.450  0.6429  0.2709 -0.0062
 2688SOL    HW119526   3.338   2.143   6.468  0.8380  1.2030 -0.8712
 2688SOL    HW219527   3.485   2.164   6.500  0.6611 -1.3582  1.8145
 2689SOL     OW19528   2.704   1.626   6.761  0.3389 -0.1640  0.1666
 2689SOL    HW119529   2.771   1.678   6.717 -1.2814  0.5266 -1.4989
 2689SOL    HW219530   2.755   1.571   6.821  0.7907 -0.8082 -0.8008
 2690SOL     OW19531   3.952   0.977  14.427  0.3082  0.0201 -1.1591
 2690SOL    HW119532   4.040   1.010  14.447 -0.2151 -1.1309  3.2086
 2690SOL    HW219533   3.901   1.025  14.493  1.2717 -1.3927  0.6335
 2691SOL     OW19534   1.096   3.973   1.363 -0.1850  0.0415 -0.2176
 2691SOL    HW119535   1.050   3.917   1.300  0.1746  0.5201 -0.9057
 2691SOL    HW219536   1.184   3.935   1.366 -0.7314 -0.9636  2.8820
 2692SOL     OW19537   4.452   1.054   5.293  0.2042  0.0395  0.0890
 2692SOL    HW119538   4.526   1.096   5.250 -0.2991  0.1488 -0.6673
 2692SOL    HW219539   4.387   1.123   5.281  0.2434  0.2189  0.9079
 2693SOL     OW19540   4.518   4.524  15.625  0.3452  0.6114 -0.1759
 2693SOL    HW119541   4.499   4.433  15.603 -2.6289  1.5614 -1.4900
 2693SOL    HW219542   4.569   4.501  15.703 -0.8346 -3.4703 -0.6227
 2694SOL     OW19543   4.087   0.291   5.748  0.1900 -0.3230 -0.3385
 2694SOL    HW119544   4.080   0.201   5.717  3.1900 -0.9782  0.9174
 2694SOL    HW219545   4.008   0.326   5.705  0.3124 -0.0204 -0.3199
 2695SOL     OW19546   3.430   2.252  15.554 -0.6572 -0.2271  0.0525
 2695SOL    HW119547   3.441   2.201  15.634 -0.5806  1.9995  1.4395
 2695SOL    HW219548   3.507   2.309  15.550 -1.0893  0.4015  0.8253
 2696SOL     OW19549   4.164   1.448   5.034  0.0621  0.0527  0.8384
 2696SOL    HW119550   4.212   1.531   5.038 -1.8734  1.2788 -0.9288
 2696SOL    HW219551   4.121   1.452   4.949  1.4160 -0.8939  0.1246
 2697SOL     OW19552   3.816   2.697   9.453  0.2380  0.5452  0.5835
 2697SOL    HW119553   3.808   2.613   9.497 -2.3688  0.8904  0.7264
 2697SOL    HW219554   3.874   2.743   9.514  1.0086 -0.6153  0.7227
 2698SOL     OW19555   0.866   4.644  13.576 -0.1280 -0.3989 -0.2942
 2698SOL    HW119556   0.882   4.575  13.641 -1.8481  0.8944  1.5196
 2698SOL    HW219557   0.796   4.606  13.523 -0.2598  0.9117 -1.0444
 2699SOL     OW19558   3.416   4.680   5.504  0.5321  0.3269 -0.1504
 2699SOL    HW119559   3.509   4.664   5.522  1.0506  0.5296 -2.7349
 2699SOL    HW219560   3.431   0.025   5.440  0.2291  0.0035 -0.5709
 2700SOL     OW19561   4.019   1.520   0.486 -0.1059 -0.0690 -0.2463
 2700SOL    HW119562   4.096   1.527   0.541 -0.3567 -0.2619  0.1289
 2700SOL    HW219563   3.994   1.433   0.517  0.6796  0.2855  1.3313
 2701SOL     OW19564   4.269   3.177   3.912  0.1184  1.0700 -0.1969
 2701SOL    HW119565   4.227   3.129   3.984 -0.5478  1.1808 -0.5110
 2701SOL    HW219566   4.187   3.207   3.872 -0.4709  0.4785  0.5514
 2702SOL     OW19567   2.620   4.026  14.972  0.7414 -0.2949 -0.1975
 2702SOL    HW119568   2.563   4.100  14.991 -1.3485 -2.1002  0.5230
 2702SOL    HW219569   2.607   4.000  14.881 -1.2911 -1.0578  0.3128
 2703SOL     OW19570   0.559   0.285   5.896 -0.5721 -0.1521  0.2657
 2703SOL    HW119571   0.580   0.327   5.979  1.3697  1.6539 -1.1520
 2703SOL    HW219572   0.627   0.327   5.843 -0.7927  1.0150  0.9239
 2704SOL     OW19573   0.911   1.099   8.755  0.4329  0.0029  0.4295
 2704SOL    HW119574   0.853   1.092   8.830 -0.7404  1.3036 -0.3572
 2704SOL    HW219575   0.962   1.018   8.759 -0.4876 -0.6116 -0.0504
 2705SOL     OW19576   1.767   4.003   2.960 -0.2616  0.3941  0.2031
 2705SOL    HW119577   1.764   3.988   2.865 -1.9101  0.7092  0.2050
 2705SOL    HW219578   1.676   3.977   2.975 -1.0290  2.0770 -1.5129
 2706SOL     OW19579   4.284   2.108   1.921  0.0798 -0.3399  0.7641
 2706SOL    HW119580   4.250   2.172   1.983  1.7484  0.3174  1.0017
 2706SOL    HW219581   4.225   2.122   1.847  0.2866 -1.2696  0.4132
 2707SOL     OW19582   3.931   2.142   1.894 -0.3675  0.3937  0.0839
 2707SOL    HW119583   3.875   2.204   1.848 -1.1237  0.8922  1.6713
 2707SOL    HW219584   3.977   2.096   1.824 -0.1379  1.2462 -0.3178
 2708SOL     OW19585   3.113   2.611   0.624 -0.6419 -0.0024 -0.4779
 2708SOL    HW119586   3.076   2.658   0.698  0.8733  0.2480  0.1323
 2708SOL    HW219587   3.034   2.570   0.589 -0.8869  1.3678 -1.5681
 2709SOL     OW19588   1.064   3.542  15.059  0.4757  0.0809  0.1104
 2709SOL    HW119589   1.052   3.590  15.141 -2.0683  1.0692 -0.8148
 2709SOL    HW219590   1.018   3.608  15.007  2.0343  2.6099  1.9504
 2710SOL     OW19591   1.134   3.197   2.377  0.2581 -0.1379  0.4455
 2710SOL    HW119592   1.124   3.277   2.429 -1.9993 -0.0437 -0.1412
 2710SOL    HW219593   1.046   3.162   2.391  0.7045 -1.4730 -0.0499
 2711SOL     OW19594   2.208   2.857   0.459  0.4411 -0.0091 -0.1660
 2711SOL    HW119595   2.172   2.892   0.541  0.3837 -1.0571  0.2625
 2711SOL    HW219596   2.284   2.911   0.440  0.3594 -0.8005 -2.6463
 2712SOL     OW19597   1.511   0.525  12.686 -0.1162  0.9488  0.0650
 2712SOL    HW119598   1.569   0.457  12.651  0.3074  0.4639  1.6742
 2712SOL    HW219599   1.445   0.522  12.617 -0.5512  1.3268  0.4702
 2713SOL     OW19600   2.124   3.897  16.054 -0.0592  0.4183  0.5509
 2713SOL    HW119601   2.106   3.815  16.009  0.4173  1.3464 -1.3220
 2713SOL    HW219602   2.036   3.935  16.060 -0.8265 -1.7806  3.1053
 2714SOL     OW19603   4.187   0.399   6.852 -0.1303 -0.1775  0.2748
 2714SOL    HW119604   4.232   0.315   6.858  0.1358 -0.1309 -1.1316
 2714SOL    HW219605   4.207   0.426   6.762  3.4293  0.5325  1.2792
 2715SOL     OW19606   4.016   3.244   7.423  0.0203 -0.2304 -0.1210
 2715SOL    HW119607   3.962   3.263   7.500 -0.3485  1.2227 -0.7360
 2715SOL    HW219608   4.103   3.249   7.462 -0.3214 -1.4675  0.7898
 2716SOL     OW19609   4.378   1.030   6.687 -0.1834 -0.2096 -0.3950
 2716SOL    HW119610   4.338   1.037   6.600 -0.4160 -1.7385 -0.4112
 2716SOL    HW219611   4.301   1.004   6.737  0.3430 -1.3259 -0.1658
 2717SOL     OW19612   1.750   2.185   6.209 -0.5073  0.4648 -0.4203
 2717SOL    HW119613   1.761   2.090   6.202 -0.7234  0.4827 -1.0284
 2717SOL    HW219614   1.795   2.204   6.126 -3.1473  0.6063 -1.8223
 2718SOL     OW19615   4.586   0.541   4.957 -0.4249  0.1172  0.1422
 2718SOL    HW119616   4.546   0.622   4.988 -2.8093 -0.4631 -1.4231
 2718SOL    HW219617   4.534   0.524   4.879 -1.7013  2.9821  0.4089
 2719SOL     OW19618   3.546   3.148   2.877  0.2696  0.1658  0.5720
 2719SOL    HW119619   3.599   3.072   2.852 -0.6261 -0.9793  2.1894
 2719SOL    HW219620   3.543   3.195   2.794 -2.4096 -0.8202  0.0988
 2720SOL     OW19621   0.693   0.457   4.401 -0.4665  0.4581  0.1250
 2720SOL    HW119622   0.653   0.416   4.478  3.3079 -1.6537  0.9825
 2720SOL    HW219623   0.692   0.553   4.410 -3.5407  0.4184  0.3926
 2721SOL     OW19624   3.142   3.911  12.779  0.3855  0.7113  0.1787
 2721SOL    HW119625   3.119   3.844  12.843 -0.0130  0.6389 -0.0403
 2721SOL    HW219626   3.237   3.915  12.791  0.5587 -1.1433 -0.4720
 2722SOL     OW19627   0.921   2.611   2.503 -0.3946 -0.0884 -0.3939
 2722SOL    HW119628   0.939   2.517   2.507 -0.5471 -0.1277 -0.6485
 2722SOL    HW219629   1.011   2.643   2.513 -0.0370 -1.2423  0.0070
 2723SOL     OW19630   0.651   0.019  16.448 -0.0377  0.1521 -0.7926
 2723SOL    HW119631   0.566   0.062  16.435 -0.6280 -0.4027  1.2600
 2723SOL    HW219632   0.701   0.101  16.451  2.2087 -1.2265 -0.7663
 2724SOL     OW19633   0.790   3.403  12.374 -0.3089  0.5611  0.3851
 2724SOL    HW119634   0.745   3.340  12.430 -0.7315  0.5157 -0.0030
 2724SOL    HW219635   0.737   3.483  12.380 -2.1123 -0.5742 -0.7239
 2725SOL     OW19636   2.381   3.679   3.133 -0.2854  0.4767  0.7002
 2725SOL    HW119637   2.334   3.757   3.103  1.3738  1.5054  0.7862
 2725SOL    HW219638   2.358   3.671   3.226 -1.3095 -2.3424  0.2219
 2726SOL     OW19639   2.203   3.050  15.591  0.1697  0.0965  0.0967
 2726SOL    HW119640   2.259   3.125  15.609 -0.6499  0.1970  2.1458
 2726SOL    HW219641   2.180   3.004  15.671 -0.8440 -0.5270 -0.5370
 2727SOL     OW19642   2.144   0.789   8.206  0.3510 -0.1096 -0.4375
 2727SOL    HW119643   2.107   0.701   8.213 -0.3889  0.4276  2.3602
 2727SOL    HW219644   2.183   0.784   8.293 -1.1271 -0.6830  0.1931
 2728SOL     OW19645   3.879   2.104   2.976  0.1542  0.3009 -0.1244
 2728SOL    HW119646   3.788   2.085   3.000  0.0107  0.6005 -0.4447
 2728SOL    HW219647   3.876   2.193   2.941 -2.7197  0.7591  1.3330
 2729SOL     OW19648   1.383   4.719   9.070 -0.6101  0.1279 -0.7365
 2729SOL    HW119649   1.340   0.064   9.119  0.2640  0.8765 -1.0545
 2729SOL    HW219650   1.335   0.017   8.990 -0.5816  0.5429 -0.6335
 2730SOL     OW19651   3.180   2.534   7.261 -0.2532  0.1415  0.0255
 2730SOL    HW119652   3.248   2.602   7.258 -1.2656  1.0721 -2.2703
 2730SOL    HW219653   3.237   2.471   7.217 -2.0165  0.1615 -2.2597
 2731SOL     OW19654   4.478   1.989   6.181 -0.3313 -0.0070 -0.2498
 2731SOL    HW119655   4.436   2.003   6.266 -1.4837 -0.2149 -0.7860
 2731SOL    HW219656   4.493   1.894   6.188  2.8648  0.6940  2.4021
 2732SOL     OW19657   3.878   1.037   8.210  0.1693 -0.3122  0.2454
 2732SOL    HW119658   3.816   0.985   8.260  0.0734 -0.2887  0.1521
 2732SOL    HW219659   3.941   0.976   8.171  0.2666  0.8851 -1.4879
 2733SOL     OW19660   0.870   0.611  10.550  0.4533 -0.2857  0.7742
 2733SOL    HW119661   0.842   0.617  10.641  1.5440  1.3285  0.9909
 2733SOL    HW219662   0.822   0.678  10.501  1.7170 -0.0904 -0.2146
 2734SOL     OW19663   2.418   2.277   2.763  0.0401 -1.2085  0.7794
 2734SOL    HW119664   2.433   2.225   2.685  2.5006 -0.9605  1.0675
 2734SOL    HW219665   2.494   2.335   2.750 -0.4309 -0.6737  0.4351
 2735SOL     OW19666   2.781   3.822  12.439 -0.2701 -0.7107 -0.0493
 2735SOL    HW119667   2.870   3.855  12.442 -0.6280  0.1558  0.9249
 2735SOL    HW219668   2.739   3.858  12.517 -2.0904 -0.9764 -0.8967
 2736SOL     OW19669   3.308   0.283  13.899 -0.0943  0.0710 -0.2400
 2736SOL    HW119670   3.290   0.342  13.826 -3.5879  1.0943  1.4663
 2736SOL    HW219671   3.293   0.346  13.969  0.7077 -1.3248  1.1937
 2737SOL     OW19672   2.436   0.945   7.340 -0.6118 -0.1077  0.7589
 2737SOL    HW119673   2.427   0.962   7.434 -1.0515  0.2632  0.6487
 2737SOL    HW219674   2.359   0.888   7.335  0.8861 -2.0994  0.5227
 2738SOL     OW19675   1.316   3.776   7.098  0.2989  0.3097  0.2701
 2738SOL    HW119676   1.394   3.735   7.136 -0.0322  0.6834  1.3381
 2738SOL    HW219677   1.254   3.714   7.136 -0.0163 -0.7544 -1.9590
 2739SOL     OW19678   2.917   0.595  13.851  0.2680  0.3190  0.0688
 2739SOL    HW119679   2.833   0.594  13.897 -1.4465 -1.8454 -3.1072
 2739SOL    HW219680   2.968   0.529  13.896 -0.2267 -1.4410 -1.9460
 2740SOL     OW19681   3.652   0.163  11.238 -0.0272  0.0068 -0.1559
 2740SOL    HW119682   3.674   0.095  11.174 -2.7618 -2.2884  1.3470
 2740SOL    HW219683   3.576   0.199  11.192 -0.4831 -3.0238 -1.8402
 2741SOL     OW19684   0.434   4.226   2.204  0.0034 -0.0252  0.5696
 2741SOL    HW119685   0.409   4.289   2.271  0.5671  1.2471 -0.3838
 2741SOL    HW219686   0.528   4.217   2.220  0.2202 -0.8838 -1.1460
 2742SOL     OW19687   3.160   2.221  17.602 -0.0134  0.1641  0.5910
 2742SOL    HW119688   3.134   2.224  17.694 -1.6066 -1.6610  0.1951
 2742SOL    HW219689   3.242   2.270  17.603  0.3295 -0.4390  1.3473
 2743SOL     OW19690   1.640   0.112   1.648  0.1028  0.5025  0.0565
 2743SOL    HW119691   1.568   0.106   1.711 -0.2091  1.6824 -0.1814
 2743SOL    HW219692   1.635   0.022   1.616  1.1577 -0.2536  2.0063
 2744SOL     OW19693   3.723   0.695   7.571  0.1544  0.4355  0.2247
 2744SOL    HW119694   3.673   0.777   7.566 -4.6228 -2.4884  0.3094
 2744SOL    HW219695   3.721   0.658   7.483  1.7103 -0.9431  0.7643
 2745SOL     OW19696   0.163   3.471   6.979 -0.0868 -0.3244 -0.5611
 2745SOL    HW119697   0.094   3.514   6.929  0.4157  0.6115 -0.4459
 2745SOL    HW219698   0.117   3.390   7.002 -0.7729 -0.1369 -1.2743
 2746SOL     OW19699   0.508   3.440   9.119  0.1630 -0.0375  0.1191
 2746SOL    HW119700   0.440   3.497   9.084 -0.4968 -0.3764  0.8455
 2746SOL    HW219701   0.525   3.485   9.202 -0.7877 -0.9326  0.7936
 2747SOL     OW19702   3.185   1.065   1.333  0.3067  0.4483  0.2845
 2747SOL    HW119703   3.255   1.058   1.268  1.7870 -1.4619  2.0881
 2747SOL    HW219704   3.229   1.047   1.416  0.0716  0.7330  0.4684
 2748SOL     OW19705   1.641   1.464   7.078 -0.3303 -0.8246 -0.2593
 2748SOL    HW119706   1.715   1.404   7.092  0.9297  1.0113  0.8683
 2748SOL    HW219707   1.668   1.548   7.042 -1.3129 -0.3885  0.0352
 2749SOL     OW19708   0.114   3.509   3.966 -0.0567  0.5484  0.0290
 2749SOL    HW119709   0.097   3.423   4.004  0.8484  0.2708 -0.1922
 2749SOL    HW219710   0.202   3.518   4.003 -0.0871 -2.9563  0.9843
 2750SOL     OW19711   0.986   2.358   7.560 -0.4571 -0.4315 -0.2430
 2750SOL    HW119712   1.025   2.270   7.555  0.1263 -0.3007  2.3446
 2750SOL    HW219713   1.053   2.410   7.516  0.8523 -0.5959  1.5806
 2751SOL     OW19714   2.281   2.620   0.597 -0.5324  0.2456 -0.4040
 2751SOL    HW119715   2.273   2.715   0.584  2.8442  0.6462  0.3165
 2751SOL    HW219716   2.198   2.597   0.639 -0.9528  0.6340 -1.0274
 2752SOL     OW19717   1.137   3.971   1.058  0.3721  0.0262  0.0508
 2752SOL    HW119718   1.062   3.927   1.098  0.7110  0.0919  0.7495
 2752SOL    HW219719   1.211   3.932   1.104  0.9159 -0.0902 -0.9092
 2753SOL     OW19720   3.964   3.882  11.238 -0.0726  0.3082  0.3082
 2753SOL    HW119721   3.911   3.883  11.318 -1.2919  0.4521 -0.4955
 2753SOL    HW219722   4.049   3.872  11.281 -0.6781  0.3889  1.5440
 2754SOL     OW19723   4.028   3.496  13.414  0.0765  0.5925  0.4332
 2754SOL    HW119724   4.121   3.475  13.421 -0.2851 -1.3035 -0.4240
 2754SOL    HW219725   4.003   3.508  13.506  1.6244  2.7688  0.5768
 2755SOL     OW19726   3.393   4.272   1.491 -0.2304 -0.0118 -0.4700
 2755SOL    HW119727   3.353   4.313   1.414 -1.3932 -0.1029  0.0782
 2755SOL    HW219728   3.433   4.350   1.530 -1.0037  0.7959 -1.2785
 2756SOL     OW19729   4.613   3.903  17.374 -0.2891 -0.1296 -0.2629
 2756SOL    HW119730   4.593   3.997  17.370 -2.0433 -0.6263 -3.2535
 2756SOL    HW219731   4.554   3.870  17.306  0.5854 -2.2481  0.0091
 2757SOL     OW19732   3.140   3.518   8.415 -0.2480 -0.6717  0.2264
 2757SOL    HW119733   3.069   3.478   8.465 -2.1022  1.2089 -0.9314
 2757SOL    HW219734   3.096   3.533   8.332 -0.6249  1.6679  0.8460
 2758SOL     OW19735   3.828   3.832   8.338 -0.2649  0.1736 -0.0163
 2758SOL    HW119736   3.772   3.894   8.384 -0.3408 -1.0864  1.5634
 2758SOL    HW219737   3.897   3.811   8.401  0.4952  1.1345 -0.5296
 2759SOL     OW19738   3.387   0.151   4.594 -0.4630 -0.0989 -0.4316
 2759SOL    HW119739   3.465   0.151   4.649 -0.1152  0.1168 -0.9242
 2759SOL    HW219740   3.342   0.084   4.646  1.1456 -0.2240  0.7942
 2760SOL     OW19741   1.782   0.519  13.643  0.2220  0.0518  0.3516
 2760SOL    HW119742   1.877   0.513  13.657 -0.3189 -1.9618  3.2141
 2760SOL    HW219743   1.753   0.518  13.735  0.8702  0.9235  0.5663
 2761SOL     OW19744   1.676   4.145   3.783 -0.3142 -0.6622 -0.5163
 2761SOL    HW119745   1.665   4.240   3.770 -1.5554 -0.7502 -0.1344
 2761SOL    HW219746   1.754   4.121   3.733  1.0615 -1.7177  2.1439
 2762SOL     OW19747   2.456   3.093  14.214  0.0014 -0.2654  0.3775
 2762SOL    HW119748   2.483   3.065  14.301  2.7206  0.6353 -0.1886
 2762SOL    HW219749   2.378   3.037  14.202 -1.3802  1.3995  1.7354
 2763SOL     OW19750   3.553   3.962   2.567  0.2313 -0.2836  0.1228
 2763SOL    HW119751   3.625   3.901   2.578  1.8299  1.1810 -2.3327
 2763SOL    HW219752   3.499   3.909   2.509  1.3107 -1.4192  0.1645
 2764SOL     OW19753   0.380   1.615   9.481  0.0861  0.2534 -0.4210
 2764SOL    HW119754   0.417   1.527   9.482  0.9102  0.5979 -0.9407
 2764SOL    HW219755   0.375   1.638   9.574 -1.8674  0.2753 -0.5140
 2765SOL     OW19756   4.355   3.032   8.968  0.0233  0.0110  0.4925
 2765SOL    HW119757   4.380   3.052   9.058 -0.2606  0.1686  0.5361
 2765SOL    HW219758   4.440   3.020   8.926  0.3264  2.3275  0.4128
 2766SOL     OW19759   4.188   4.173   4.851 -0.3246  0.0195 -0.6227
 2766SOL    HW119760   4.098   4.144   4.865  0.4052 -3.0658 -2.1190
 2766SOL    HW219761   4.190   4.240   4.918 -2.2949 -1.0029  0.4710
 2767SOL     OW19762   4.180   2.264   5.229  0.1936 -0.3893  0.2374
 2767SOL    HW119763   4.124   2.308   5.292  1.2959 -1.2386  1.8048
 2767SOL    HW219764   4.117   2.254   5.157  1.2910  4.4182 -1.4298
 2768SOL     OW19765   1.471   0.944   0.803 -0.3853 -0.5338 -0.3360
 2768SOL    HW119766   1.501   0.939   0.894 -1.8347 -1.7064  0.0814
 2768SOL    HW219767   1.449   0.852   0.787  0.5859 -0.6915 -0.7812
 2769SOL     OW19768   3.243   1.052   8.447  0.5626 -0.4708  0.1684
 2769SOL    HW119769   3.165   1.100   8.419  1.6543  0.8517 -0.6166
 2769SOL    HW219770   3.291   1.049   8.364  2.0823 -3.2718  1.1681
 2770SOL     OW19771   0.282   0.123   2.554  0.4954  0.3803 -0.2597
 2770SOL    HW119772   0.215   0.079   2.502 -1.1648  1.8187  0.6533
 2770SOL    HW219773   0.238   0.206   2.572 -2.3214 -1.1896  0.1011
 2771SOL     OW19774   4.531   1.512   8.572  0.1241 -0.2215 -0.0343
 2771SOL    HW119775   4.439   1.488   8.560  0.1768  1.1843 -3.3988
 2771SOL    HW219776   4.572   1.481   8.491 -1.9526 -0.2590 -1.0819
 2772SOL     OW19777   1.748   1.032  17.283  0.2955 -0.0009 -0.2307
 2772SOL    HW119778   1.664   1.060  17.320  0.4589 -1.8139  1.4936
 2772SOL    HW219779   1.810   1.030  17.356 -0.5834  0.9033  0.5396
 2773SOL     OW19780   4.220   0.590   5.230  0.0935 -0.5249 -0.2502
 2773SOL    HW119781   4.226   0.504   5.190  1.6193 -1.0737  1.1604
 2773SOL    HW219782   4.159   0.636   5.173 -0.7325  0.7002  1.5953
 2774SOL     OW19783   3.019   2.378   6.910  0.2994  0.1338  0.2731
 2774SOL    HW119784   2.960   2.311   6.875 -2.4825  1.3899  2.5327
 2774SOL    HW219785   3.081   2.321   6.954 -1.0005 -1.4918 -0.0203
 2775SOL     OW19786   0.287   4.069   1.488 -0.0375  0.0097  0.5263
 2775SOL    HW119787   0.324   3.983   1.466 -0.8458 -0.2193  0.0523
 2775SOL    HW219788   0.263   4.099   1.401  0.9025 -1.1233 -0.1219
 2776SOL     OW19789   2.226   2.056   2.728 -0.0723  0.1054 -0.5030
 2776SOL    HW119790   2.296   2.027   2.787 -1.2805 -1.5375  0.1292
 2776SOL    HW219791   2.253   1.998   2.656 -1.8439 -1.2339 -0.0655
 2777SOL     OW19792   0.140   2.157   8.064 -0.1584 -0.4339 -0.5094
 2777SOL    HW119793   0.113   2.098   7.993  0.2122 -1.8335  0.5277
 2777SOL    HW219794   0.053   2.158   8.104  0.1429  1.7595  0.0980
 2778SOL     OW19795   1.062   0.193   6.420  0.0518  0.0462 -0.1568
 2778SOL    HW119796   1.038   0.264   6.480  0.5999  1.4373 -1.5722
 2778SOL    HW219797   1.053   0.233   6.333 -1.8053  2.8723  1.3310
 2779SOL     OW19798   1.638   1.755  14.917 -0.7326  0.3206  0.1976
 2779SOL    HW119799   1.660   1.702  14.841  1.1730 -0.7038  1.4602
 2779SOL    HW219800   1.707   1.819  14.899  0.7202 -1.4357 -0.4250
 2780SOL     OW19801   1.322   1.207  16.308 -0.0901  0.4168 -0.6759
 2780SOL    HW119802   1.386   1.255  16.361 -0.9561  1.5137 -0.6315
 2780SOL    HW219803   1.351   1.116  16.306 -1.1282  0.0614  0.6211
 2781SOL     OW19804   2.485   1.209   8.142 -0.3663  0.6324 -0.2067
 2781SOL    HW119805   2.444   1.132   8.104  0.7556 -0.5062  0.9224
 2781SOL    HW219806   2.437   1.266   8.082  1.2539  1.1463 -1.0186
 2782SOL     OW19807   2.878   4.501  11.982  0.0210  0.0887 -0.3146
 2782SOL    HW119808   2.952   4.493  11.921 -2.4080  2.2109 -3.5492
 2782SOL    HW219809   2.834   4.576  11.942 -1.6793  1.9057  4.9570
 2783SOL     OW19810   1.708   2.379   6.403 -0.1742 -0.3019  0.5051
 2783SOL    HW119811   1.708   2.453   6.342 -0.4174 -0.7358 -0.0272
 2783SOL    HW219812   1.729   2.306   6.345  2.2054  2.1178 -1.7253
 2784SOL     OW19813   1.992   1.861  13.003  0.1096 -0.0320  0.4420
 2784SOL    HW119814   2.025   1.807  13.075  0.5413 -0.7198 -0.2747
 2784SOL    HW219815   2.061   1.844  12.939  0.8423  0.7073  1.0509
 2785SOL     OW19816   2.588   1.039  16.941  0.1691 -0.0556  0.3930
 2785SOL    HW119817   2.663   1.024  16.883 -0.3189 -1.0161  0.0291
 2785SOL    HW219818   2.627   1.021  17.027 -0.7267  1.0067  1.0271
 2786SOL     OW19819   2.936   2.171   2.298  0.1164 -0.4066 -0.5673
 2786SOL    HW119820   3.015   2.133   2.334  0.8009 -0.2074 -1.8605
 2786SOL    HW219821   2.872   2.113   2.340  0.2039 -0.6951 -0.8403
 2787SOL     OW19822   2.463   0.350   4.509 -0.5348  0.6684  0.0165
 2787SOL    HW119823   2.417   0.433   4.494 -0.5156  0.9120  1.3278
 2787SOL    HW219824   2.428   0.332   4.596 -0.5289 -1.2573 -0.3803
 2788SOL     OW19825   1.136   2.111   4.075  0.3474 -0.1012 -0.0827
 2788SOL    HW119826   1.107   2.177   4.011 -0.4924  0.1484  0.5577
 2788SOL    HW219827   1.217   2.083   4.033  0.5643  1.8470 -0.9807
 2789SOL     OW19828   3.739   1.098   7.986  0.0018 -0.2318 -0.0698
 2789SOL    HW119829   3.815   1.079   7.932  0.7527  3.2394 -0.2819
 2789SOL    HW219830   3.780   1.095   8.072  1.1797  1.8407 -0.5608
 2790SOL     OW19831   3.201   3.079   7.425 -0.3095 -0.2344  0.0172
 2790SOL    HW119832   3.140   3.013   7.457 -1.0341 -0.1853 -1.2526
 2790SOL    HW219833   3.271   3.030   7.381 -1.5926  0.2731 -2.6178
 2791SOL     OW19834   2.288   1.476   2.512  0.9962 -0.1385 -0.3530
 2791SOL    HW119835   2.358   1.437   2.459  2.3724 -1.5274  2.5059
 2791SOL    HW219836   2.286   1.426   2.593 -1.2974 -1.6209 -1.3131
 2792SOL     OW19837   1.751   4.284   7.659  0.1301 -0.5586 -0.2882
 2792SOL    HW119838   1.698   4.220   7.707  1.9330 -0.3698  1.9379
 2792SOL    HW219839   1.806   4.329   7.723 -0.6119 -1.5328  1.0511
 2793SOL     OW19840   2.391   0.302   1.724  0.2803 -0.2165  0.1956
 2793SOL    HW119841   2.372   0.208   1.716 -1.1825  0.1882 -1.0944
 2793SOL    HW219842   2.485   0.298   1.741 -0.0592  0.4645  2.1859
 2794SOL     OW19843   2.851   3.122  13.466 -0.0013 -1.0585  0.6172
 2794SOL    HW119844   2.836   3.099  13.375 -1.6645  1.1746  0.3261
 2794SOL    HW219845   2.830   3.035  13.501 -0.5188 -0.6935  1.2170
 2795SOL     OW19846   2.358   0.906   3.371  0.0436  0.5771 -0.0419
 2795SOL    HW119847   2.279   0.855   3.349  0.5597  0.1943 -1.0110
 2795SOL    HW219848   2.431   0.844   3.372  0.4819  1.0276 -3.2392
 2796SOL     OW19849   1.488   2.124   9.064  0.0897  0.3352 -0.5052
 2796SOL    HW119850   1.502   2.065   8.990  1.1229  1.1213 -0.9259
 2796SOL    HW219851   1.579   2.133   9.089  0.1041  0.6503 -0.6749
 2797SOL     OW19852   2.239   1.693   4.488 -0.0576  0.0099  0.0231
 2797SOL    HW119853   2.311   1.657   4.540 -0.2309  0.5793  0.6645
 2797SOL    HW219854   2.284   1.745   4.421 -1.2791 -1.0146 -1.5846
 2798SOL     OW19855   3.694   0.976   8.407  0.5481 -0.4952 -0.4457
 2798SOL    HW119856   3.635   0.904   8.383 -1.1920  1.2884 -1.5545
 2798SOL    HW219857   3.755   0.932   8.466  0.2276  0.9268  0.9453
 2799SOL     OW19858   3.221   2.644   1.823 -0.4404 -0.4958 -0.3676
 2799SOL    HW119859   3.227   2.630   1.729  2.4203  0.0903 -0.2878
 2799SOL    HW219860   3.157   2.578   1.851 -1.4649  0.9065  0.5377
 2800SOL     OW19861   1.548   3.160   4.812  0.6570 -0.6394 -0.5196
 2800SOL    HW119862   1.628   3.194   4.854  0.1914 -0.7155  0.4235
 2800SOL    HW219863   1.518   3.235   4.761  0.9002  0.3932  0.8552
 2801SOL     OW19864   3.636   1.045  15.880  0.3775 -0.0416  0.1565
 2801SOL    HW119865   3.686   1.031  15.800  1.7182 -0.4772  1.0688
 2801SOL    HW219866   3.547   1.053  15.846 -0.4203 -1.6801  1.8910
 2802SOL     OW19867   0.760   0.854  10.443 -0.7058 -0.6733 -0.0709
 2802SOL    HW119868   0.836   0.897  10.482 -1.6731 -0.2396  1.3257
 2802SOL    HW219869   0.697   0.923  10.464 -1.7835 -1.5240 -0.4804
 2803SOL     OW19870   1.089   0.955   5.348 -0.1210  0.3943 -0.2422
 2803SOL    HW119871   1.038   0.912   5.280  1.0987 -2.1119  0.4131
 2803SOL    HW219872   1.101   1.046   5.322  1.4099 -0.3076 -1.9913
 2804SOL     OW19873   0.439   2.114   2.753 -0.5331  0.3816 -0.1970
 2804SOL    HW119874   0.407   2.152   2.834  1.4976  3.7024 -0.9544
 2804SOL    HW219875   0.534   2.111   2.765 -0.1255  0.7014 -3.3192
 2805SOL     OW19876   3.576   0.868   2.912 -0.1516 -0.0534 -0.0008
 2805SOL    HW119877   3.521   0.917   2.851 -0.4719 -0.3702  0.0277
 2805SOL    HW219878   3.655   0.920   2.920  1.1546 -2.5888  3.7146
 2806SOL     OW19879   1.440   4.500  12.138 -0.8972 -0.1182  0.0032
 2806SOL    HW119880   1.432   4.590  12.105  0.9258  0.5264  1.3155
 2806SOL    HW219881   1.464   4.513  12.230 -2.8700  0.8784  0.3738
 2807SOL     OW19882   2.439   0.207   5.693 -0.6966 -0.4827  0.3766
 2807SOL    HW119883   2.478   0.192   5.606  2.2815 -0.3555  1.6720
 2807SOL    HW219884   2.374   0.276   5.680 -0.1362 -0.2732 -1.3314
 2808SOL     OW19885   4.151   0.043   2.535 -0.4500  0.1025  0.0297
 2808SOL    HW119886   4.218   0.040   2.467 -1.8260 -0.3049 -1.2947
 2808SOL    HW219887   4.115   4.681   2.515 -1.7184  0.8906 -1.1051
 2809SOL     OW19888   4.500   3.776   6.740  0.4403 -0.4096  0.8816
 2809SOL    HW119889   4.523   3.862   6.776  0.9993 -0.4391  0.5927
 2809SOL    HW219890   4.407   3.787   6.719  0.9656 -1.9263 -2.1852
 2810SOL     OW19891   0.784   3.361   2.516 -0.0728  0.0528 -0.1106
 2810SOL    HW119892   0.697   3.396   2.497  0.4747  2.2751  1.5250
 2810SOL    HW219893   0.809   3.347   2.425  0.7244  0.2104  0.0821
 2811SOL     OW19894   4.468   3.613   7.532  0.3231  0.1447 -0.3699
 2811SOL    HW119895   4.540   3.653   7.580  0.4487  2.4684 -2.5075
 2811SOL    HW219896   4.456   3.675   7.460  0.7609 -1.9796 -2.2747
 2812SOL     OW19897   3.406   2.352   3.894 -0.5099  0.0251 -0.0914
 2812SOL    HW119898   3.408   2.264   3.857  1.9019  0.1982 -0.3134
 2812SOL    HW219899   3.408   2.405   3.815 -1.7018  1.0201  0.5346
 2813SOL     OW19900   4.119   4.667   7.810 -0.4028  0.1586  1.2603
 2813SOL    HW119901   4.109   0.037   7.815  0.0594  0.3009 -0.2862
 2813SOL    HW219902   4.086   4.635   7.894 -2.0841  0.0832  0.5744
 2814SOL     OW19903   3.350   3.988   8.344  0.3352 -0.1957 -0.0571
 2814SOL    HW119904   3.346   4.050   8.271  4.2580  1.3023  0.9858
 2814SOL    HW219905   3.275   3.931   8.328 -0.6517  1.2170 -0.4826
 2815SOL     OW19906   4.047   2.452   9.173  0.6610 -0.6715  0.0753
 2815SOL    HW119907   4.054   2.546   9.187  0.9632 -0.7475  0.4504
 2815SOL    HW219908   4.025   2.422   9.261  2.0042  0.7344  0.8900
 2816SOL     OW19909   1.703   1.389   8.143  0.1405  0.3290  0.5830
 2816SOL    HW119910   1.651   1.404   8.222 -0.7273  0.0923  0.0499
 2816SOL    HW219911   1.786   1.386   8.191  0.2699 -1.6684  0.1961
 2817SOL     OW19912   0.775   0.252   1.751  0.1050 -0.4908 -0.2330
 2817SOL    HW119913   0.809   0.163   1.748 -1.8215 -1.1935 -1.3662
 2817SOL    HW219914   0.689   0.230   1.715 -0.0632 -0.4527  0.1420
 2818SOL     OW19915   1.019   4.372   5.281  0.3876  0.4891 -0.4555
 2818SOL    HW119916   1.008   4.299   5.220 -0.3676  0.3898 -0.1962
 2818SOL    HW219917   0.948   4.350   5.340  1.3238 -0.8852  0.1469
 2819SOL     OW19918   1.334   3.376  13.284 -0.0335  0.0193 -0.0821
 2819SOL    HW119919   1.423   3.410  13.279  0.0681 -0.0334  1.3683
 2819SOL    HW219920   1.343   3.281  13.270  0.1186 -0.5971  4.1800
 2820SOL     OW19921   1.232   0.194   1.579  0.0389  0.0774 -0.3707
 2820SOL    HW119922   1.250   0.226   1.491  2.6281  2.4458  1.0216
 2820SOL    HW219923   1.227   0.272   1.634 -3.8786  0.2318 -0.9493
 2821SOL     OW19924   0.139   3.481   8.796  0.7327  0.1313  0.0354
 2821SOL    HW119925   0.166   3.415   8.733 -2.0182  0.4275 -1.4737
 2821SOL    HW219926   0.122   3.429   8.875  0.3622 -0.3416 -0.3574
 2822SOL     OW19927   0.114   1.832   5.719 -0.1708  0.0124  0.0294
 2822SOL    HW119928   0.079   1.783   5.644  2.0573  1.6580 -2.1165
 2822SOL    HW219929   0.038   1.830   5.776 -0.2882 -1.1459 -0.1533
 2823SOL     OW19930   3.389   2.186   1.703 -0.3108  0.5126  0.0685
 2823SOL    HW119931   3.344   2.102   1.709 -0.2118  0.3370 -1.5930
 2823SOL    HW219932   3.482   2.164   1.697 -0.5372 -0.2756 -0.6389
 2824SOL     OW19933   1.240   4.248  12.379  0.1522 -0.0057 -0.4215
 2824SOL    HW119934   1.278   4.178  12.325  2.4057  1.7305 -1.1264
 2824SOL    HW219935   1.287   4.236  12.461 -0.1250 -2.5923 -0.6258
 2825SOL     OW19936   3.084   2.098   7.882  0.6136 -0.2210  0.2280
 2825SOL    HW119937   3.141   2.087   7.806  0.5273 -2.7421  0.5502
 2825SOL    HW219938   3.143   2.144   7.943  1.8973 -0.7049 -0.6600
 2826SOL     OW19939   1.439   4.399   2.352 -0.7916  0.3502  0.8243
 2826SOL    HW119940   1.484   4.329   2.305 -1.0851  1.0399 -0.4946
 2826SOL    HW219941   1.483   4.468   2.303  2.1346  0.6826  3.9067
 2827SOL     OW19942   1.544   0.204   1.270 -0.2475  0.6753 -0.3745
 2827SOL    HW119943   1.556   0.199   1.175  3.0094 -0.8492  0.1411
 2827SOL    HW219944   1.449   0.220   1.268 -0.0997  1.4162 -1.4595
 2828SOL     OW19945   3.128   0.291   2.442  0.4789  0.0201  0.4425
 2828SOL    HW119946   3.122   0.207   2.397  2.1326  1.2741 -2.1542
 2828SOL    HW219947   3.074   0.266   2.517  0.0590 -0.7270 -0.1150
 2829SOL     OW19948   3.945   4.589   0.591 -0.3756 -0.1032 -0.0108
 2829SOL    HW119949   3.970   4.631   0.674 -1.2755 -1.1126  0.7744
 2829SOL    HW219950   3.982   4.503   0.607 -2.1349 -0.8639 -0.0826
 2830SOL     OW19951   0.569   0.567   6.638  0.6137 -0.5775  0.2257
 2830SOL    HW119952   0.626   0.637   6.606  0.1056 -0.5751 -0.6869
 2830SOL    HW219953   0.490   0.617   6.658  1.0980  0.4272 -0.3696
 2831SOL     OW19954   3.405   3.503   2.710  0.1392  0.0271  0.0999
 2831SOL    HW119955   3.346   3.575   2.731  0.3820  0.5004 -0.8715
 2831SOL    HW219956   3.450   3.534   2.631 -1.3034 -0.1143 -0.7692
 2832SOL     OW19957   0.549   4.653  10.444 -0.0878  0.2226  0.1685
 2832SOL    HW119958   0.498   4.574  10.424  0.0850 -0.2777  1.6920
 2832SOL    HW219959   0.546   4.682  10.353 -1.3383 -0.6717 -0.0744
 2833SOL     OW19960   0.189   2.567   2.183 -0.1093  0.4890  0.1225
 2833SOL    HW119961   0.104   2.547   2.145 -1.1740  0.4501  2.5079
 2833SOL    HW219962   0.240   2.591   2.105  2.1986  1.5696  1.9461
 2834SOL     OW19963   2.245   4.724   8.433  0.1946  0.3223 -0.0091
 2834SOL    HW119964   2.318   0.007   8.495  0.3060 -1.0943  0.0584
 2834SOL    HW219965   2.198   4.646   8.462  2.3672 -1.5292 -1.4621
 2835SOL     OW19966   3.155   3.922   1.279 -0.2693 -0.7049  0.1614
 2835SOL    HW119967   3.100   3.993   1.311  2.8387  1.6304  0.3498
 2835SOL    HW219968   3.237   3.956   1.316 -2.0960  0.1616  3.4500
 2836SOL     OW19969   0.648   1.565  10.839  0.4521  0.5203  0.4547
 2836SOL    HW119970   0.599   1.621  10.900  2.3238  3.2350 -0.4986
 2836SOL    HW219971   0.613   1.476  10.843  1.1086  0.1091 -2.7405
 2837SOL     OW19972   1.802   1.151   2.184  0.1549  0.7590 -0.1771
 2837SOL    HW119973   1.856   1.181   2.258 -1.6790  0.4583  1.2848
 2837SOL    HW219974   1.710   1.161   2.206  0.1960 -0.5009  0.5637
 2838SOL     OW19975   0.543   1.645   8.372  0.4004  0.2198  0.0944
 2838SOL    HW119976   0.637   1.629   8.360 -0.0214 -2.2308  0.0609
 2838SOL    HW219977   0.518   1.642   8.280 -0.6489 -1.6082  0.4380
 2839SOL     OW19978   3.306   2.074   5.721 -0.1470  0.0701  0.2638
 2839SOL    HW119979   3.321   2.126   5.801 -0.9880  0.3353  0.2406
 2839SOL    HW219980   3.395   2.074   5.684 -0.8288  0.3299 -1.3524
 2840SOL     OW19981   2.557   4.204   6.027  0.5626 -0.4505  0.0273
 2840SOL    HW119982   2.540   4.110   6.021 -1.0777 -0.1996  0.8691
 2840SOL    HW219983   2.646   4.194   6.060  1.9553 -0.9831 -3.9536
 2841SOL     OW19984   4.550   1.381   8.810  0.2621  0.6547 -0.8438
 2841SOL    HW119985   4.507   1.434   8.744 -0.5984 -0.2630 -1.0313
 2841SOL    HW219986   4.478   1.380   8.874  2.0062 -1.3233  1.0924
 2842SOL     OW19987   0.457   1.055   2.919 -0.0825 -0.0473 -0.1393
 2842SOL    HW119988   0.387   1.045   2.855 -0.2181  0.3447 -0.0494
 2842SOL    HW219989   0.410   1.098   2.990  2.1687  1.4843  0.4244
 2843SOL     OW19990   1.188   2.214   6.815 -0.3651  0.0415 -0.0068
 2843SOL    HW119991   1.220   2.176   6.897  1.7027  0.6364 -0.5306
 2843SOL    HW219992   1.190   2.145   6.749  0.8280  2.1208 -2.1453
 2844SOL     OW19993   1.636   3.561   6.945 -0.0702 -0.4238  0.0284
 2844SOL    HW119994   1.586   3.496   6.994  0.9318 -1.4087 -0.2369
 2844SOL    HW219995   1.574   3.633   6.932  0.8783  0.9779  3.1632
 2845SOL     OW19996   3.594   4.031   7.489  0.5875 -0.1685  0.2495
 2845SOL    HW119997   3.626   4.121   7.490  2.9512 -1.0366  2.1146
 2845SOL    HW219998   3.600   4.000   7.579 -0.7056 -0.5221  0.2066
 2846SOL     OW19999   3.955   4.250   3.492 -0.1272  0.3415  0.5789
 2846SOL    HW120000   3.889   4.192   3.527 -0.5211 -0.2404 -1.1007
 2846SOL    HW220001   4.036   4.238   3.541 -0.7829  1.1629  1.8572
 2847SOL     OW20002   1.966   1.663   7.376 -0.5021 -0.1580 -0.7019
 2847SOL    HW120003   2.050   1.669   7.422  0.1824  0.1039 -1.9784
 2847SOL    HW220004   1.990   1.717   7.300 -1.1997  2.4130  0.8947
 2848SOL     OW20005   3.810   4.650  17.099 -0.3531  0.0773  0.2936
 2848SOL    HW120006   3.783   4.596  17.024 -0.5968  3.0362 -1.7715
 2848SOL    HW220007   3.869   4.715  17.059 -3.1533  2.1341 -0.5447
 2849SOL     OW20008   0.070   3.193   8.415  0.6158  0.1375 -0.1052
 2849SOL    HW120009   0.134   3.238   8.470 -0.4655  2.2768 -0.5966
 2849SOL    HW220010   0.131   3.159   8.349 -1.4174 -1.1725 -1.3341
 2850SOL     OW20011   0.403   0.904   6.167 -0.1453 -0.6528  0.5425
 2850SOL    HW120012   0.495   0.879   6.178  0.9345  2.1072 -2.1049
 2850SOL    HW220013   0.364   0.880   6.251  1.1896 -1.4117  0.9518
 2851SOL     OW20014   3.270   2.378   6.258  0.1007  0.1153 -0.1008
 2851SOL    HW120015   3.210   2.325   6.310 -0.6260  1.1054  0.0625
 2851SOL    HW220016   3.344   2.385   6.318 -0.2704 -0.1447  0.3869
 2852SOL     OW20017   0.814   2.226   9.751 -0.1401  0.2244 -0.7221
 2852SOL    HW120018   0.758   2.278   9.808  3.1682 -1.3484  3.9977
 2852SOL    HW220019   0.772   2.141   9.766 -2.7361  1.8141  1.0102
 2853SOL     OW20020   3.236   2.312   3.566 -0.0788  0.0663 -0.0195
 2853SOL    HW120021   3.298   2.385   3.571  1.3923 -1.1626 -0.7145
 2853SOL    HW220022   3.277   2.256   3.631  0.3057  0.7363  0.3180
 2854SOL     OW20023   0.344   1.163   6.716  0.2398 -0.0293  0.3539
 2854SOL    HW120024   0.337   1.242   6.770  1.5415  1.5570 -1.8103
 2854SOL    HW220025   0.427   1.189   6.676 -0.3637 -1.0056 -1.5186
 2855SOL     OW20026   3.913   4.542   6.773  0.3030  0.0920 -0.5799
 2855SOL    HW120027   3.823   4.525   6.744 -0.1259  0.7129  0.3430
 2855SOL    HW220028   3.901   4.627   6.816 -3.0785  0.0560 -1.4694
 2856SOL     OW20029   0.064   1.467   3.787  1.0797  1.1965 -0.0619
 2856SOL    HW120030   0.107   1.458   3.702  0.5101  0.2716 -0.2596
 2856SOL    HW220031   0.127   1.416   3.839 -0.7986 -1.0934 -0.0142
 2857SOL     OW20032   2.836   4.655  15.509 -0.0282  0.3128 -0.0995
 2857SOL    HW120033   2.816   4.682  15.419 -0.4170 -1.0423 -0.4168
 2857SOL    HW220034   2.812   0.001  15.568 -1.0240 -1.2297  1.3677
 2858SOL     OW20035   2.598   1.985  13.520  0.2121 -1.0403  0.4931
 2858SOL    HW120036   2.507   1.961  13.534  0.0548 -1.6345 -1.5982
 2858SOL    HW220037   2.582   2.079  13.514  1.5238 -0.9651 -1.7354
 2859SOL     OW20038   0.193   4.683  10.944  0.4181 -0.1610  0.2715
 2859SOL    HW120039   0.285   4.661  10.931 -0.1968 -1.7014 -1.3604
 2859SOL    HW220040   0.187   4.661  11.037 -3.9366  0.9378  0.2592
 2860SOL     OW20041   0.317   3.720   3.776  0.2809 -0.6401 -0.1368
 2860SOL    HW120042   0.377   3.693   3.846 -0.2077  0.8795  0.8697
 2860SOL    HW220043   0.246   3.754   3.831  0.1743  0.5906 -1.0436
 2861SOL     OW20044   1.902   1.574   6.512 -0.2784  0.5835 -0.1614
 2861SOL    HW120045   1.884   1.661   6.477 -1.6689  0.6518  0.6853
 2861SOL    HW220046   1.813   1.541   6.528 -0.1922  0.8249  0.8209
 2862SOL     OW20047   0.614   3.496   1.680 -0.7151  0.4713  0.6007
 2862SOL    HW120048   0.644   3.583   1.706  1.3138 -0.2583  0.7416
 2862SOL    HW220049   0.521   3.507   1.698 -0.9696  1.6475 -1.4586
 2863SOL     OW20050   0.696   0.303   0.993 -0.0521 -0.0309 -0.0173
 2863SOL    HW120051   0.636   0.375   0.975  0.3148  0.8818  2.4039
 2863SOL    HW220052   0.729   0.280   0.906  0.8318  1.9328 -0.1854
 2864SOL     OW20053   2.879   1.148  11.460  0.5129  0.5507 -0.1133
 2864SOL    HW120054   2.951   1.109  11.509 -0.3252  0.1468  0.7990
 2864SOL    HW220055   2.925   1.174  11.380  1.9771 -2.8477 -0.3664
 2865SOL     OW20056   4.462   0.652   5.956  0.9006  0.3250 -0.6576
 2865SOL    HW120057   4.527   0.637   5.887  1.2085 -2.5078  0.2448
 2865SOL    HW220058   4.513   0.693   6.026 -1.1395 -0.2783  1.2062
 2866SOL     OW20059   3.897   4.620  12.048 -0.2773 -0.3234 -0.3402
 2866SOL    HW120060   3.811   4.641  12.011 -0.7434  2.8720  2.5605
 2866SOL    HW220061   3.910   4.539  11.999 -0.7402  0.1373 -1.2166
 2867SOL     OW20062   4.539   2.800   3.652 -0.0150  0.1431  0.1678
 2867SOL    HW120063   4.525   2.709   3.624 -0.6350  0.7056 -1.3288
 2867SOL    HW220064   4.448   2.821   3.677  0.3756  2.2541 -0.2251
 2868SOL     OW20065   1.529   3.943   5.787 -0.1886 -0.8057  0.1276
 2868SOL    HW120066   1.510   3.970   5.697 -0.9849  0.0206  0.5426
 2868SOL    HW220067   1.543   4.029   5.825  1.8343 -1.2145  0.2928
 2869SOL     OW20068   4.432   2.995   7.379 -0.6769 -0.0380  0.2069
 2869SOL    HW120069   4.397   3.056   7.443  0.9178  0.4627  0.5872
 2869SOL    HW220070   4.360   2.995   7.315 -1.0161  0.9049  0.5877
 2870SOL     OW20071   3.354   4.636   1.482 -0.1518  0.1410 -0.1336
 2870SOL    HW120072   3.376   4.602   1.395 -2.0099  0.7861 -0.8689
 2870SOL    HW220073   3.423   4.586   1.525 -0.6863 -0.4784  0.0115
 2871SOL     OW20074   0.996   1.488   8.111 -0.3367  0.4431  0.0513
 2871SOL    HW120075   0.922   1.530   8.069 -2.6393 -2.3568  1.2866
 2871SOL    HW220076   1.015   1.415   8.051 -0.5458 -0.0698  0.6022
 2872SOL     OW20077   0.858   4.417  12.646  0.3574  0.1508 -0.1138
 2872SOL    HW120078   0.888   4.379  12.728  1.5660 -1.5535 -1.3283
 2872SOL    HW220079   0.894   4.505  12.656  1.7990 -0.3926 -0.3789
 2873SOL     OW20080   1.050   1.887   1.177  0.4097 -0.0985  0.5582
 2873SOL    HW120081   1.063   1.818   1.111  1.5319  0.6399  0.0078
 2873SOL    HW220082   0.980   1.942   1.143 -0.5630 -2.8044 -1.8770
 2874SOL     OW20083   0.617   2.962   9.511  0.1720  0.5684  0.0074
 2874SOL    HW120084   0.586   2.891   9.567 -0.0761  0.6070 -0.0798
 2874SOL    HW220085   0.704   2.970   9.550  0.9928 -2.3930 -1.2124
 2875SOL     OW20086   0.952   0.337   7.674  0.2456  0.2244 -0.0172
 2875SOL    HW120087   1.026   0.297   7.720 -0.2635 -1.4797 -0.6950
 2875SOL    HW220088   0.980   0.428   7.660  0.0598  0.1929 -0.5869
 2876SOL     OW20089   2.396   4.661   7.913  0.1529 -0.4522  0.4124
 2876SOL    HW120090   2.394   4.633   8.005  0.8706 -1.3082  0.1713
 2876SOL    HW220091   2.471   4.720   7.914 -1.7937  1.9984  1.6868
 2877SOL     OW20092   4.491   4.647  13.641 -0.3562 -0.0571 -0.6246
 2877SOL    HW120093   4.526   4.681  13.559  3.4451  0.4107  1.2121
 2877SOL    HW220094   4.516   4.707  13.711 -1.5985 -0.9400  0.5771
 2878SOL     OW20095   1.438   3.917  17.550 -0.0309  0.6587 -0.4231
 2878SOL    HW120096   1.347   3.937  17.528  0.0277 -0.8132 -2.0110
 2878SOL    HW220097   1.435   3.939  17.643 -0.3293 -1.9002  0.1636
 2879SOL     OW20098   0.079   4.723   4.540  0.0227  0.2928 -0.1139
 2879SOL    HW120099   0.040   4.678   4.466  0.0474  0.8996 -0.4952
 2879SOL    HW220100   0.043   0.085   4.522  1.5437  0.0160 -4.4768
 2880SOL     OW20101   1.771   1.654   3.387 -0.0223  0.1561  0.5835
 2880SOL    HW120102   1.779   1.677   3.479 -0.3059 -0.0184  0.6519
 2880SOL    HW220103   1.864   1.649   3.366 -0.2446 -1.0255 -0.1428
 2881SOL     OW20104   4.010   4.460   0.144 -0.5174 -0.0402 -0.2507
 2881SOL    HW120105   4.074   4.448   0.214 -1.6072  2.7831  1.2264
 2881SOL    HW220106   4.067   4.498   0.076 -1.0742 -2.7691 -2.2419
 2882SOL     OW20107   2.168   0.938   7.707 -0.7213  0.0349 -0.1205
 2882SOL    HW120108   2.164   0.845   7.685  0.8453  0.1366 -0.8145
 2882SOL    HW220109   2.131   0.930   7.795  1.8693  5.2876  1.4319
 2883SOL     OW20110   1.566   0.422   4.421  0.0822  0.2020  0.0254
 2883SOL    HW120111   1.555   0.436   4.515  1.2218  0.2958  0.1517
 2883SOL    HW220112   1.560   0.511   4.386 -0.5844  0.3319  0.4804
 2884SOL     OW20113   2.739   0.430  12.393  0.0437  0.1663 -0.0886
 2884SOL    HW120114   2.779   0.483  12.324 -0.3775  0.1702 -0.3256
 2884SOL    HW220115   2.679   0.493  12.433  0.5497  0.9249 -0.5240
 2885SOL     OW20116   0.785   0.397   1.251  0.6243 -0.4031  0.1093
 2885SOL    HW120117   0.745   0.483   1.262 -0.3646 -0.8803  0.2467
 2885SOL    HW220118   0.713   0.354   1.207  1.3713 -1.2712 -0.2689
 2886SOL     OW20119   1.248   0.642  16.644 -0.1641  0.2240 -0.2547
 2886SOL    HW120120   1.329   0.625  16.692 -0.1258 -0.8002 -0.6760
 2886SOL    HW220121   1.236   0.563  16.591  0.2796  0.3518 -0.5465
 2887SOL     OW20122   4.077   0.974   4.870 -0.3589 -0.0751  0.2359
 2887SOL    HW120123   4.106   0.901   4.925  0.2707 -0.4137 -0.5377
 2887SOL    HW220124   4.083   0.931   4.785 -0.3021 -1.0061  0.7127
 2888SOL     OW20125   3.721   3.089   5.618  0.3323  0.3188  0.3371
 2888SOL    HW120126   3.781   3.143   5.670  2.2042 -1.8739  0.4494
 2888SOL    HW220127   3.713   3.013   5.676  3.1409  0.2700  0.6724
 2889SOL     OW20128   2.725   1.013   3.724  0.5951  0.3627 -0.0725
 2889SOL    HW120129   2.787   1.026   3.652  0.5812  1.6484  0.1475
 2889SOL    HW220130   2.684   0.931   3.696 -0.8795  0.5749  1.4803
 2890SOL     OW20131   4.145   1.250   0.855  0.2815  0.4963 -0.5642
 2890SOL    HW120132   4.128   1.157   0.846 -0.9124  0.6447  0.1973
 2890SOL    HW220133   4.070   1.288   0.809 -1.8994  0.9216  3.3678
 2891SOL     OW20134   0.707   4.138   2.579 -0.4936 -0.0619  0.2618
 2891SOL    HW120135   0.681   4.075   2.646 -0.0585  0.4312  0.8939
 2891SOL    HW220136   0.802   4.124   2.586 -0.5697 -0.2322  0.9175
 2892SOL     OW20137   4.570   1.420   6.460 -0.2774  0.3631 -0.1592
 2892SOL    HW120138   4.665   1.412   6.457 -0.1726  1.5919  0.1692
 2892SOL    HW220139   4.564   1.364   6.538  0.5214  1.1424  0.4533
 2893SOL     OW20140   4.256   3.276   3.102  0.3993 -0.0582  0.6801
 2893SOL    HW120141   4.347   3.291   3.128  2.2834 -0.3862 -5.6353
 2893SOL    HW220142   4.227   3.359   3.064  2.3106 -0.9313 -2.7501
 2894SOL     OW20143   3.255   1.486   1.168  0.3877 -0.1182 -0.0921
 2894SOL    HW120144   3.172   1.441   1.187  0.6185 -1.3837 -2.1220
 2894SOL    HW220145   3.327   1.425   1.186  0.5415  0.2577  0.5733
 2895SOL     OW20146   2.099   3.194   5.999 -0.1962  0.5344  0.6460
 2895SOL    HW120147   2.051   3.269   6.032 -1.4175 -0.4271  1.0722
 2895SOL    HW220148   2.117   3.149   6.081 -0.9577 -2.2863 -0.7216
 2896SOL     OW20149   3.386   0.659   8.547  0.3935  0.1220 -0.1320
 2896SOL    HW120150   3.368   0.565   8.540 -0.9880  0.3920 -0.2765
 2896SOL    HW220151   3.363   0.678   8.638  0.0057  1.2230 -0.4659
 2897SOL     OW20152   1.171   3.864   5.626  0.4656  0.1670  0.5980
 2897SOL    HW120153   1.179   3.920   5.703 -1.6878  2.3134 -0.7777
 2897SOL    HW220154   1.170   3.775   5.662 -0.0651  0.8121  2.1500
 2898SOL     OW20155   0.072   2.272   6.634 -0.6373 -0.1769  0.2273
 2898SOL    HW120156   0.040   2.322   6.709 -1.6489 -0.1111 -0.2513
 2898SOL    HW220157   0.019   2.193   6.650  1.4961 -1.7630 -0.5543
 2899SOL     OW20158   1.012   2.183   2.799  0.1678  0.4496 -0.2741
 2899SOL    HW120159   1.107   2.190   2.801  0.2501 -0.7606 -0.0031
 2899SOL    HW220160   1.004   2.162   2.706  1.1938  1.2093 -0.5337
 2900SOL     OW20161   2.400   2.672   2.134 -0.6538 -0.3458 -0.0271
 2900SOL    HW120162   2.459   2.727   2.081  0.0010  1.1132  2.2294
 2900SOL    HW220163   2.409   2.584   2.098 -0.9258  0.1791 -1.4113
 2901SOL     OW20164   3.673   3.976  14.728  0.1250  0.3739  0.4517
 2901SOL    HW120165   3.692   4.054  14.677 -0.6754  0.2175 -0.0873
 2901SOL    HW220166   3.580   3.989  14.750 -1.0354 -1.9644 -3.0454
 2902SOL     OW20167   0.504   1.095  12.507 -0.2565 -0.5793  0.4175
 2902SOL    HW120168   0.592   1.068  12.483 -0.1297  0.4642 -0.3265
 2902SOL    HW220169   0.461   1.078  12.423  1.2242 -0.8271 -0.2925
 2903SOL     OW20170   3.053   2.760   3.224 -0.2369  0.0611  0.3460
 2903SOL    HW120171   3.038   2.798   3.137 -0.8831 -0.6196  0.1575
 2903SOL    HW220172   3.136   2.712   3.219 -0.3568 -0.1587  0.4552
 2904SOL     OW20173   0.032   0.583   7.787  0.4148 -0.8208  0.1610
 2904SOL    HW120174   0.045   0.635   7.708  0.3860 -1.1520 -0.0581
 2904SOL    HW220175   4.668   0.615   7.806  0.6088 -0.5389  0.6136
 2905SOL     OW20176   2.903   3.009   5.988 -0.4199  0.1607 -0.0366
 2905SOL    HW120177   2.846   3.028   6.062  1.3866 -0.1926  1.4461
 2905SOL    HW220178   2.927   3.098   5.962 -1.1775  0.4928  0.4088
 2906SOL     OW20179   2.201   0.726   4.151  0.5017  0.5198  0.1053
 2906SOL    HW120180   2.250   0.807   4.166  0.7605  0.3518  0.1570
 2906SOL    HW220181   2.220   0.669   4.225  0.7491  0.2165 -0.1925
 2907SOL     OW20182   0.670   1.853  16.946 -0.0540 -0.0975 -0.5060
 2907SOL    HW120183   0.613   1.890  16.879 -0.4936  0.7428  0.3305
 2907SOL    HW220184   0.657   1.762  16.921 -0.6747 -1.1078  3.5313
 2908SOL     OW20185   0.797   4.147   4.913 -0.5268  1.0298 -0.0144
 2908SOL    HW120186   0.722   4.098   4.948  0.1339  1.1166  1.5292
 2908SOL    HW220187   0.819   4.080   4.849 -1.4729 -0.7997  1.5751
 2909SOL     OW20188   2.210   0.753   6.232 -0.3348 -0.1829 -0.2035
 2909SOL    HW120189   2.253   0.719   6.310 -0.2465 -0.9150 -0.5760
 2909SOL    HW220190   2.217   0.676   6.176 -0.2189 -0.0372 -0.3895
 2910SOL     OW20191   0.931   0.110   7.950  0.3577 -0.1753  0.1892
 2910SOL    HW120192   0.888   0.177   8.003 -0.0113 -1.9888  2.2004
 2910SOL    HW220193   1.002   0.083   8.009  0.9348 -1.7111 -1.2088
 2911SOL     OW20194   1.715   4.421   5.896 -1.0994 -0.5823 -0.0080
 2911SOL    HW120195   1.791   4.398   5.949  0.3064 -0.4734 -1.9884
 2911SOL    HW220196   1.670   4.491   5.944 -0.1759  1.1773 -1.7209
 2912SOL     OW20197   0.544   3.360   0.502 -0.4691 -0.1012 -0.1829
 2912SOL    HW120198   0.625   3.334   0.456  0.0312  1.6600 -0.2770
 2912SOL    HW220199   0.568   3.337   0.592  0.9068  3.4192  0.3588
 2913SOL     OW20200   2.626   1.739   5.746 -0.0082  0.0075 -0.3776
 2913SOL    HW120201   2.622   1.647   5.718  0.5598 -0.2755  0.4772
 2913SOL    HW220202   2.638   1.722   5.839  0.1388  0.8166 -0.2506
 2914SOL     OW20203   4.633   2.787  14.766  0.1476  0.2493 -1.1287
 2914SOL    HW120204   4.696   2.783  14.695  0.8290  0.3113 -0.5236
 2914SOL    HW220205   4.686   2.771  14.844  0.8352 -1.3870 -1.9297
 2915SOL     OW20206   0.227   0.197  12.874  0.2056 -0.2222  0.7180
 2915SOL    HW120207   0.256   0.176  12.962 -0.8265  2.0699  1.5917
 2915SOL    HW220208   0.304   0.242  12.838 -1.4158  2.1993  0.2958
 2916SOL     OW20209   2.968   1.775   7.164 -0.0120 -0.4791  0.2951
 2916SOL    HW120210   2.879   1.742   7.150 -0.6784  1.1367  0.6963
 2916SOL    HW220211   2.955   1.857   7.212 -1.6163 -1.2840  1.2308
 2917SOL     OW20212   4.530   2.249   8.984 -0.1938 -0.0147 -0.4152
 2917SOL    HW120213   4.577   2.281   9.061  1.1597  2.0203 -2.0816
 2917SOL    HW220214   4.552   2.156   8.980  0.4172  0.1621 -1.2829
 2918SOL     OW20215   2.608   1.484   5.667  0.1994 -0.5649  0.2844
 2918SOL    HW120216   2.589   1.424   5.738 -1.8129 -1.1913 -0.7935
 2918SOL    HW220217   2.545   1.455   5.601 -0.1288  1.2057 -0.1716
 2919SOL     OW20218   0.976   3.800   8.611 -0.0920  0.0146 -0.1216
 2919SOL    HW120219   0.925   3.875   8.581 -1.0281 -0.5234  0.1234
 2919SOL    HW220220   0.910   3.763   8.669 -0.9962 -0.2899 -1.3297
 2920SOL     OW20221   1.100   3.541   0.297 -0.5931 -0.1204  0.4651
 2920SOL    HW120222   1.176   3.568   0.348 -1.0196  1.1038  0.4656
 2920SOL    HW220223   1.140   3.541   0.210 -2.6630  0.3712 -0.4892
 2921SOL     OW20224   2.590   1.933   9.941 -0.5842 -0.5016  0.4892
 2921SOL    HW120225   2.686   1.942   9.945 -0.2167 -3.8170 -0.6435
 2921SOL    HW220226   2.584   1.860  10.003 -1.4730 -1.8928 -1.2431
 2922SOL     OW20227   2.287   4.321  11.045 -0.2593 -0.0607 -0.1408
 2922SOL    HW120228   2.372   4.281  11.026 -0.0607  0.6104 -0.6666
 2922SOL    HW220229   2.228   4.279  10.981 -0.3245 -2.0078  1.1932
 2923SOL     OW20230   1.182   1.506  13.215  0.3307  0.7727 -0.2280
 2923SOL    HW120231   1.259   1.525  13.268 -0.2733  1.5240  0.3787
 2923SOL    HW220232   1.147   1.427  13.256 -0.1302 -0.2626 -2.6297
 2924SOL     OW20233   0.881   2.080   8.450  0.1757 -0.3826 -0.3247
 2924SOL    HW120234   0.803   2.049   8.496 -0.5380 -0.1324 -1.3642
 2924SOL    HW220235   0.871   2.175   8.451  0.8622 -0.2989 -1.3582
 2925SOL     OW20236   3.701   2.069  16.925  0.1592  0.3715 -0.1970
 2925SOL    HW120237   3.644   2.145  16.936  0.9168  1.0978 -1.3054
 2925SOL    HW220238   3.639   2.002  16.955  0.0069  0.7475  0.3277
 2926SOL     OW20239   2.868   1.839   8.918  0.7080  0.6106  0.1602
 2926SOL    HW120240   2.962   1.831   8.934  0.7149 -0.5819 -0.5394
 2926SOL    HW220241   2.863   1.877   8.831  0.4174  0.3018  0.0421
 2927SOL     OW20242   4.639   1.710  13.200  0.0858  0.2336 -0.2610
 2927SOL    HW120243   4.665   1.801  13.210  0.2604  0.1597 -0.0324
 2927SOL    HW220244   4.567   1.720  13.137  0.7986 -1.2218 -1.3186
 2928SOL     OW20245   3.715   3.128  12.650  0.8023 -0.1078  0.0521
 2928SOL    HW120246   3.737   3.053  12.595  1.3723  1.1515 -1.4065
 2928SOL    HW220247   3.788   3.188  12.639 -1.4035  2.7803  0.9494
 2929SOL     OW20248   0.283   3.714   1.852  0.0367  0.3733  0.4107
 2929SOL    HW120249   0.366   3.736   1.895  1.0090  1.3595 -1.9742
 2929SOL    HW220250   0.311   3.640   1.797  1.9082  0.6667  0.9558
 2930SOL     OW20251   3.915   2.669   8.962 -0.8344 -0.2940 -0.1305
 2930SOL    HW120252   3.854   2.662   8.888 -2.9026  0.8095  1.4572
 2930SOL    HW220253   3.915   2.764   8.970 -0.6427 -0.1663 -1.5703
 2931SOL     OW20254   2.752   0.904  11.082 -0.6900  0.5182  0.2179
 2931SOL    HW120255   2.690   0.860  11.139 -0.1118 -0.1799  0.3093
 2931SOL    HW220256   2.697   0.890  11.005  0.7109  3.0966 -1.2604
 2932SOL     OW20257   0.643   1.864   2.837  0.0595  1.2246  0.4214
 2932SOL    HW120258   0.702   1.802   2.880  0.4528  2.3214  1.4563
 2932SOL    HW220259   0.579   1.878   2.907 -0.4052 -2.1896  0.6790
 2933SOL     OW20260   0.814   1.390  15.629 -0.1523  0.3519 -0.3687
 2933SOL    HW120261   0.766   1.470  15.608  2.0415  1.7461  0.0071
 2933SOL    HW220262   0.889   1.415  15.576 -1.0834  1.9239 -0.9365
 2934SOL     OW20263   1.862   4.309   1.138  0.2836 -0.4079  0.5970
 2934SOL    HW120264   1.862   4.224   1.182 -0.0231 -1.2641 -1.0625
 2934SOL    HW220265   1.930   4.357   1.187 -1.5615  1.2640  1.5386
 2935SOL     OW20266   2.892   1.562   5.846 -0.4171  0.4534  0.0366
 2935SOL    HW120267   2.884   1.467   5.854 -0.8746  0.5656  0.8990
 2935SOL    HW220268   2.810   1.588   5.887 -1.7485  1.1051 -3.0557
 2936SOL     OW20269   1.996   1.021  15.460  1.1889 -0.1674 -0.2868
 2936SOL    HW120270   1.905   1.031  15.487  1.4009  0.0967  0.3191
 2936SOL    HW220271   1.994   0.937  15.415  0.0820  1.6902 -3.7842
 2937SOL     OW20272   2.508   4.581   6.158  0.5876 -0.1032 -0.2147
 2937SOL    HW120273   2.436   4.550   6.104  1.3019 -1.2177 -0.5130
 2937SOL    HW220274   2.518   4.512   6.224 -0.5717  0.2174  0.2927
 2938SOL     OW20275   0.356   0.478   8.304 -0.5914 -0.7680 -0.2963
 2938SOL    HW120276   0.278   0.495   8.357 -2.7520 -3.4671 -2.6724
 2938SOL    HW220277   0.324   0.435   8.225 -2.1335  2.1700 -1.2394
 2939SOL     OW20278   2.847   3.491   7.136  0.0463 -0.0985  0.3367
 2939SOL    HW120279   2.874   3.573   7.094  0.0041 -0.2752 -0.0332
 2939SOL    HW220280   2.921   3.432   7.120 -0.7897 -1.1940  0.5742
 2940SOL     OW20281   4.398   0.173  16.502 -0.1758  0.1449  0.3510
 2940SOL    HW120282   4.441   0.088  16.498 -0.8485 -0.1901  0.3260
 2940SOL    HW220283   4.339   0.172  16.577  0.0012 -0.1726  0.4871
 2941SOL     OW20284   2.708   0.385   5.542  0.1238 -0.1689  0.2675
 2941SOL    HW120285   2.797   0.358   5.521  0.8008  0.0353  2.9228
 2941SOL    HW220286   2.692   0.362   5.633 -1.4380  3.7538  0.9737
 2942SOL     OW20287   3.858   2.632  17.359  0.2437 -0.7880  0.9920
 2942SOL    HW120288   3.939   2.650  17.407 -1.2687  1.6766  2.5927
 2942SOL    HW220289   3.823   2.718  17.339  1.6370 -0.8573 -1.7035
 2943SOL     OW20290   4.546   2.584   2.290 -0.4777  0.0711  0.1165
 2943SOL    HW120291   4.603   2.584   2.213  0.9969  3.5292  1.1933
 2943SOL    HW220292   4.557   2.670   2.331  1.0520 -0.9435  1.8187
 2944SOL     OW20293   0.498   3.398   5.945  0.2827 -0.5290 -0.4148
 2944SOL    HW120294   0.509   3.318   5.894 -0.7254 -0.2174 -1.1272
 2944SOL    HW220295   0.462   3.355   6.022  2.0343  0.0584  0.7379
 2945SOL     OW20296   4.274   3.092  17.247  0.2733 -0.1629 -0.2868
 2945SOL    HW120297   4.356   3.126  17.212  0.1381  0.0807 -0.3644
 2945SOL    HW220298   4.209   3.141  17.197  0.0365  0.5152  0.6859
 2946SOL     OW20299   0.047   1.951  10.429 -0.4256 -0.3921 -1.0361
 2946SOL    HW120300   0.059   2.028  10.484 -1.6533  0.5135 -2.0406
 2946SOL    HW220301   4.689   1.919  10.463 -0.2681 -0.1974 -0.4665
 2947SOL     OW20302   1.608   1.290   6.063 -0.6601  0.0990  0.0742
 2947SOL    HW120303   1.676   1.322   6.003  1.0042 -0.2842  1.7488
 2947SOL    HW220304   1.567   1.218   6.015 -3.0879  2.5987 -1.5923
 2948SOL     OW20305   2.593   1.300   5.867 -0.0642 -0.5984  0.5670
 2948SOL    HW120306   2.568   1.208   5.871  0.9876 -0.8607  1.0432
 2948SOL    HW220307   2.531   1.344   5.925 -0.6444 -1.2097  0.4115
 2949SOL     OW20308   3.711   1.125   2.336  0.0671 -0.0276  0.1895
 2949SOL    HW120309   3.640   1.061   2.328 -0.1101  0.0588  1.1499
 2949SOL    HW220310   3.733   1.148   2.245 -1.3442 -0.4362 -0.2532
 2950SOL     OW20311   0.905   0.286   8.418 -0.2682  0.3877 -0.9217
 2950SOL    HW120312   0.917   0.205   8.369 -0.3969  0.5338 -1.1930
 2950SOL    HW220313   0.954   0.347   8.362  1.5396 -0.0079  0.2478
 2951SOL     OW20314   3.212   0.554   7.175  0.2452  0.1108  0.0079
 2951SOL    HW120315   3.190   0.647   7.185 -0.4748 -0.0302 -0.2320
 2951SOL    HW220316   3.266   0.530   7.250 -2.3702 -0.5152  1.6859
 2952SOL     OW20317   0.858   3.052   4.381  0.3361 -0.3562  0.3871
 2952SOL    HW120318   0.812   3.080   4.303  2.0572  1.7642  0.1256
 2952SOL    HW220319   0.922   3.123   4.386 -0.1953  0.2611 -2.0574
 2953SOL     OW20320   2.517   3.012   3.515 -0.3432 -0.4544  0.5199
 2953SOL    HW120321   2.514   3.032   3.421  1.1306  1.0379  0.7963
 2953SOL    HW220322   2.457   3.080   3.546  1.3850  1.3285 -0.0937
 2954SOL     OW20323   0.072   1.026   7.588  0.3166  0.2785 -0.2876
 2954SOL    HW120324   0.164   1.050   7.601  0.8120 -1.4128 -0.6721
 2954SOL    HW220325   0.028   1.054   7.668 -0.3052  0.1633 -0.5931
 2955SOL     OW20326   4.433   4.650   9.056  0.0578 -0.2148 -0.4009
 2955SOL    HW120327   4.511   4.595   9.060 -0.9981 -1.5310  2.0670
 2955SOL    HW220328   4.444   4.671   8.963  0.4924 -2.3631 -0.8469
 2956SOL     OW20329   2.351   4.236   7.688 -0.4604  0.2731  0.2842
 2956SOL    HW120330   2.275   4.287   7.660 -1.9226 -1.3306  1.3202
 2956SOL    HW220331   2.307   4.151   7.697 -0.7442  0.2499 -1.4375
 2957SOL     OW20332   3.795   0.924  11.884 -0.4006  0.0234  0.1758
 2957SOL    HW120333   3.848   0.997  11.916  0.4324 -1.2540  1.7069
 2957SOL    HW220334   3.761   0.901  11.970  0.2294 -1.4845  0.0146
 2958SOL     OW20335   1.202   2.226   6.094  0.0004 -0.0318  0.1514
 2958SOL    HW120336   1.168   2.228   6.005  2.0149 -0.2495 -0.6184
 2958SOL    HW220337   1.121   2.198   6.137 -0.8365  0.2480 -1.2455
 2959SOL     OW20338   3.924   1.148  16.161  0.2185  0.4512  0.6073
 2959SOL    HW120339   3.829   1.151  16.170  0.0008 -1.7718 -0.8786
 2959SOL    HW220340   3.950   1.209  16.230 -0.9966  2.4255 -0.6981
 2960SOL     OW20341   1.614   3.943   7.187 -0.8684 -0.1172 -0.1225
 2960SOL    HW120342   1.659   3.885   7.126  1.9657 -0.2647  2.1268
 2960SOL    HW220343   1.585   3.875   7.248  1.2832  0.2578  1.3370
 2961SOL     OW20344   2.277   3.971   3.631  0.2499  0.5316 -0.0726
 2961SOL    HW120345   2.265   3.876   3.634 -3.8942  1.0320 -0.3487
 2961SOL    HW220346   2.196   4.002   3.672 -1.6018 -3.4578 -0.7125
 2962SOL     OW20347   0.807   0.543   8.871 -0.4481  0.6513 -0.3794
 2962SOL    HW120348   0.739   0.577   8.929 -0.5821 -0.7518  0.2880
 2962SOL    HW220349   0.763   0.526   8.788 -0.4947  0.2843 -0.2796
 2963SOL     OW20350   4.313   2.418   5.508 -0.5261  0.0734  0.5822
 2963SOL    HW120351   4.388   2.470   5.480  0.1032 -1.6669 -0.9592
 2963SOL    HW220352   4.286   2.369   5.430 -0.2876 -0.2115  0.6767
 2964SOL     OW20353   0.964   3.078   7.551 -0.0151  0.1981 -0.0181
 2964SOL    HW120354   0.893   3.058   7.491  0.8363  2.1218 -1.6515
 2964SOL    HW220355   1.001   3.150   7.500 -1.4827  0.8802 -0.1228
 2965SOL     OW20356   1.647   2.806   8.135  0.1893 -0.3457  0.1412
 2965SOL    HW120357   1.644   2.734   8.071 -0.7646  1.0016 -1.3138
 2965SOL    HW220358   1.693   2.871   8.082 -2.5244  1.8072  0.4870
 2966SOL     OW20359   3.370   2.397   7.782  0.1604  0.2674 -0.5142
 2966SOL    HW120360   3.292   2.421   7.831 -0.3824 -0.5689 -0.9713
 2966SOL    HW220361   3.343   2.370   7.694 -1.2883 -0.1710  0.0659
 2967SOL     OW20362   0.300   4.250   0.977  0.4256  0.3796  0.4941
 2967SOL    HW120363   0.286   4.341   0.953  1.0982  0.7053  1.3389
 2967SOL    HW220364   0.227   4.203   0.937  0.8795  0.6118 -0.6022
 2968SOL     OW20365   2.391   4.133   3.454 -0.2966  0.0625  0.3858
 2968SOL    HW120366   2.344   4.089   3.525 -1.9680 -0.8130 -1.2661
 2968SOL    HW220367   2.318   4.155   3.395 -0.7649  0.6873  1.1920
 2969SOL     OW20368   1.145   0.773   8.579  0.1879 -0.1401  0.1476
 2969SOL    HW120369   1.186   0.843   8.529 -0.6465  0.9079  0.9342
 2969SOL    HW220370   1.190   0.689   8.568 -1.7383 -0.9194 -1.8876
 2970SOL     OW20371   0.753   4.322   0.004 -0.4061  0.3992  0.2262
 2970SOL    HW120372   0.726   4.245  17.656  1.6658  0.5137 -1.0749
 2970SOL    HW220373   0.677   4.326   0.062 -0.2131  0.0242  0.5137
 2971SOL     OW20374   3.767   0.797   3.333  0.1034  0.0043  0.2015
 2971SOL    HW120375   3.816   0.729   3.288  0.1878 -0.2665  0.7049
 2971SOL    HW220376   3.690   0.806   3.276  0.4331 -0.1802 -0.2633
 2972SOL     OW20377   2.119   2.559   9.442  0.0671  0.5732  0.3550
 2972SOL    HW120378   2.209   2.578   9.467  0.7322 -1.9221 -0.0907
 2972SOL    HW220379   2.086   2.535   9.529 -0.2777 -1.4080 -0.3125
 2973SOL     OW20380   4.633   0.271  12.247 -0.2949 -0.1891 -0.0044
 2973SOL    HW120381   4.570   0.304  12.182 -1.0142 -0.2145  0.6786
 2973SOL    HW220382   4.713   0.266  12.194 -0.3825 -0.6473 -0.0904
 2974SOL     OW20383   2.834   3.837   3.360  0.0479 -0.4960 -0.2856
 2974SOL    HW120384   2.849   3.745   3.380  2.0917  0.0167  0.4938
 2974SOL    HW220385   2.807   3.821   3.269 -1.3568 -0.4361  0.1161
 2975SOL     OW20386   0.255   1.165   3.113 -0.9966  0.5659  0.0664
 2975SOL    HW120387   0.192   1.236   3.100 -0.3184  0.8149 -1.8718
 2975SOL    HW220388   0.315   1.212   3.171  1.2451  0.0711 -1.8822
 2976SOL     OW20389   2.006   3.990  12.052 -0.4285  0.6485 -0.4346
 2976SOL    HW120390   2.019   3.899  12.076  0.2049  0.6122 -0.9545
 2976SOL    HW220391   2.083   4.021  12.100 -0.5806  2.2910 -1.2337
 2977SOL     OW20392   1.658   1.698  13.501 -0.5425 -0.2579 -0.1378
 2977SOL    HW120393   1.569   1.724  13.525 -0.4055  0.6635 -0.6136
 2977SOL    HW220394   1.718   1.733  13.568 -2.2541 -1.3330  1.9645
 2978SOL     OW20395   1.424   3.219   2.694 -0.0645  0.2815 -0.2619
 2978SOL    HW120396   1.454   3.268   2.617  0.8246 -0.8087 -0.6030
 2978SOL    HW220397   1.499   3.162   2.708  0.9064  2.2040  2.1619
 2979SOL     OW20398   4.557   3.632   5.287 -0.0578 -0.3925  0.5764
 2979SOL    HW120399   4.500   3.578   5.343  0.5259 -0.7983  0.7831
 2979SOL    HW220400   4.593   3.695   5.350 -1.4818  0.5409  0.4429
 2980SOL     OW20401   1.619   2.645   4.923 -0.1010  0.5644  0.1832
 2980SOL    HW120402   1.649   2.731   4.951  0.8064 -0.1903  1.5315
 2980SOL    HW220403   1.598   2.602   5.006 -0.0448  2.4534  1.1885
 2981SOL     OW20404   2.057   4.466   3.541 -0.3958  0.2645  0.1797
 2981SOL    HW120405   2.006   4.528   3.593 -2.4973 -1.3427  0.0520
 2981SOL    HW220406   2.016   4.478   3.456  1.1964  3.3830 -0.1478
 2982SOL     OW20407   2.152   1.891   3.324  0.0286 -0.1780 -0.4241
 2982SOL    HW120408   2.152   1.899   3.419 -3.1276 -1.6684 -0.3236
 2982SOL    HW220409   2.128   1.799   3.326 -1.2064  0.1472 -0.6705
 2983SOL     OW20410   3.908   4.297   8.218  0.3995  1.0194 -0.0394
 2983SOL    HW120411   3.968   4.277   8.289 -0.4665 -2.2455 -0.2548
 2983SOL    HW220412   3.959   4.315   8.139  0.2952  2.7119  0.2727
 2984SOL     OW20413   3.861   4.413  15.328 -0.5437 -0.1575 -0.0436
 2984SOL    HW120414   3.907   4.333  15.352 -1.6289 -1.6269 -2.7889
 2984SOL    HW220415   3.914   4.462  15.264 -2.2366  0.8269 -0.6927
 2985SOL     OW20416   4.070   2.191   0.573 -0.5897 -0.1855  0.0915
 2985SOL    HW120417   4.005   2.121   0.576  0.8709 -1.5061  0.9638
 2985SOL    HW220418   4.118   2.168   0.653  0.1250 -0.1791 -0.3327
 2986SOL     OW20419   4.325   3.081   3.390  0.2776  0.4456  0.4940
 2986SOL    HW120420   4.349   3.083   3.298 -1.6110 -0.6422 -0.0347
 2986SOL    HW220421   4.403   3.038   3.426  1.0808  1.2344 -0.3161
 2987SOL     OW20422   1.109   2.914   5.302 -0.1290 -0.3624 -0.1876
 2987SOL    HW120423   1.146   3.001   5.314 -0.7521  0.0053 -0.9142
 2987SOL    HW220424   1.023   2.906   5.343 -0.6002  1.6104 -0.7835
 2988SOL     OW20425   2.040   3.897   9.284  0.1449 -0.6692 -0.3085
 2988SOL    HW120426   1.953   3.937   9.283  0.5348  0.1352 -2.5451
 2988SOL    HW220427   2.079   3.921   9.200  0.9086 -2.5554 -0.4955
 2989SOL     OW20428   1.633   3.389  10.298 -0.8077  0.0505 -0.1433
 2989SOL    HW120429   1.590   3.366  10.215  1.8555  0.6417 -1.6978
 2989SOL    HW220430   1.587   3.471  10.315  0.8000  1.2947 -1.6976
 2990SOL     OW20431   2.104   1.727   8.477  0.5220  0.2447  0.0504
 2990SOL    HW120432   2.119   1.819   8.497 -2.9953  0.4506  1.7790
 2990SOL    HW220433   2.182   1.688   8.516 -0.5714 -0.5483  1.4744
 2991SOL     OW20434   1.084   1.142  10.825 -0.1763  0.2875 -0.9285
 2991SOL    HW120435   1.094   1.057  10.867  1.3134  0.8781 -0.0972
 2991SOL    HW220436   1.051   1.192  10.900 -0.0970 -1.0925  0.0299
 2992SOL     OW20437   4.086   2.181   9.720  0.2041  0.2501  0.1603
 2992SOL    HW120438   3.993   2.161   9.709  0.3110  0.7385 -1.6866
 2992SOL    HW220439   4.086   2.233   9.800  2.8896 -0.1721  0.4327
 2993SOL     OW20440   4.110   4.401   8.413 -0.0927  0.6429 -0.1798
 2993SOL    HW120441   4.177   4.340   8.381  0.9047  1.3014  0.6480
 2993SOL    HW220442   4.156   4.433   8.491  1.9042 -3.6545  0.3791
 2994SOL     OW20443   0.866   0.561   7.234  0.1773 -0.4062 -0.0477
 2994SOL    HW120444   0.931   0.511   7.282 -1.3924 -0.6925  1.7545
 2994SOL    HW220445   0.805   0.588   7.302 -0.5215  3.7983 -2.3392
 2995SOL     OW20446   0.434   0.732  12.464  0.7424  0.1408 -0.1651
 2995SOL    HW120447   0.382   0.810  12.444  0.5466 -0.0856 -0.5535
 2995SOL    HW220448   0.397   0.682  12.391 -0.9315  4.3825 -2.2503
 2996SOL     OW20449   2.170   1.071  11.838 -0.2930 -0.2894  0.2141
 2996SOL    HW120450   2.136   1.133  11.774  0.9877  2.1756  1.9146
 2996SOL    HW220451   2.155   0.989  11.790 -0.2612 -0.1102 -0.0972
 2997SOL     OW20452   2.066   0.230   3.055 -0.2173 -0.3722 -0.4193
 2997SOL    HW120453   1.996   0.295   3.058 -0.7521 -1.0099  0.8398
 2997SOL    HW220454   2.130   0.284   3.102 -0.7331 -1.0316  1.0504
 2998SOL     OW20455   2.573   4.217  10.353 -0.3085 -0.0803 -0.1528
 2998SOL    HW120456   2.664   4.244  10.353  0.4833 -2.7444 -0.4006
 2998SOL    HW220457   2.569   4.126  10.325  1.5328 -0.6381  1.4244
 2999SOL     OW20458   2.327   3.667  13.121  0.1631 -0.2943  0.7655
 2999SOL    HW120459   2.390   3.652  13.050 -1.6943  0.7403 -1.0769
 2999SOL    HW220460   2.354   3.584  13.162  0.0090 -0.0389  1.3795
 3000SOL     OW20461   3.582   1.196   0.221 -0.4569  0.4212 -0.4425
 3000SOL    HW120462   3.586   1.209   0.127  3.0490 -1.5906 -0.5666
 3000SOL    HW220463   3.490   1.196   0.247  0.3074  0.5627  2.3337
 3001SOL     OW20464   3.419   0.635   1.892 -0.2954 -0.4377 -0.1928
 3001SOL    HW120465   3.370   0.654   1.972  0.2641  0.2548 -0.0019
 3001SOL    HW220466   3.417   0.540   1.883  0.0030 -0.5847  1.1999
 3002SOL     OW20467   2.144   4.399   6.214 -0.0465  0.0406  0.5926
 3002SOL    HW120468   2.076   4.464   6.198 -0.1577  0.3858  2.4362
 3002SOL    HW220469   2.106   4.347   6.285 -0.2613 -0.2055  0.2960
 3003SOL     OW20470   3.732   0.959   5.875 -0.0745  0.0916 -0.0685
 3003SOL    HW120471   3.770   0.929   5.957  0.0979  0.3852 -0.0387
 3003SOL    HW220472   3.638   0.967   5.890  0.0456  0.0068  0.7271
 3004SOL     OW20473   0.705   1.551   5.591 -0.0132 -0.4399  0.1360
 3004SOL    HW120474   0.797   1.566   5.573 -0.2638  1.0739  0.1123
 3004SOL    HW220475   0.678   1.642   5.602 -3.8472 -1.4435 -0.9574
 3005SOL     OW20476   0.198   1.530   7.790  0.0512  0.1664 -0.1149
 3005SOL    HW120477   0.153   1.609   7.821  0.7666 -0.1517  1.6842
 3005SOL    HW220478   0.281   1.566   7.757 -0.4412  1.7045  0.3032
 3006SOL     OW20479   2.670   1.725   7.350 -0.0578  0.0596  0.0719
 3006SOL    HW120480   2.693   1.670   7.274 -0.2229 -1.0102  0.8008
 3006SOL    HW220481   2.586   1.760   7.322  0.0003  0.9267  0.9950
 3007SOL     OW20482   2.039   3.567   5.733  0.5415  0.3008 -0.1268
 3007SOL    HW120483   1.984   3.630   5.686  0.2466 -0.9015 -1.3891
 3007SOL    HW220484   2.014   3.491   5.679 -2.0076  0.0334  1.4236
 3008SOL     OW20485   3.588   3.420  12.457 -0.0601  0.2317  0.0603
 3008SOL    HW120486   3.653   3.443  12.524 -0.6158 -1.1230  1.0741
 3008SOL    HW220487   3.511   3.473  12.475 -0.9477 -1.0373 -0.0151
 3009SOL     OW20488   1.171   0.129  12.700 -0.3341 -0.5653  0.7892
 3009SOL    HW120489   1.263   0.138  12.675 -1.2478  2.7731 -1.4264
 3009SOL    HW220490   1.168   0.190  12.774 -0.5638  1.4027 -0.8392
 3010SOL     OW20491   2.726   0.571   3.827  0.3751  0.4044  0.1122
 3010SOL    HW120492   2.689   0.504   3.884  0.4838  0.6004  0.4110
 3010SOL    HW220493   2.819   0.578   3.848  0.6067  0.4460 -0.8869
 3011SOL     OW20494   3.995   1.197   5.234 -0.1242 -0.7601 -0.1583
 3011SOL    HW120495   4.077   1.218   5.190 -0.6742 -2.4933 -1.9745
 3011SOL    HW220496   3.995   1.103   5.250  0.9499 -0.4892  1.4676
 3012SOL     OW20497   2.140   3.861   7.075 -0.0306 -0.2289 -0.4618
 3012SOL    HW120498   2.189   3.894   7.151 -0.8246  1.3748 -0.6507
 3012SOL    HW220499   2.160   3.767   7.080 -2.9783 -0.8691 -0.7102
 3013SOL     OW20500   0.284   1.059   5.997 -0.5663  0.0798 -0.3684
 3013SOL    HW120501   0.361   1.042   5.945  0.4911 -0.5527  1.3976
 3013SOL    HW220502   0.309   0.998   6.067  1.7361  1.6346  0.1547
 3014SOL     OW20503   2.663   3.867  12.673 -0.9452  0.1442 -0.5811
 3014SOL    HW120504   2.652   3.776  12.700 -0.8782  0.8578  1.8715
 3014SOL    HW220505   2.573   3.896  12.689 -1.0146 -1.1791  1.3932
 3015SOL     OW20506   2.671   3.373  11.855 -0.4597 -0.6686  0.5802
 3015SOL    HW120507   2.604   3.440  11.865 -1.4762 -1.4793 -0.7929
 3015SOL    HW220508   2.727   3.420  11.793  1.5802 -1.3004  1.9363
 3016SOL     OW20509   4.588   2.988   3.454  0.2356 -0.4532  0.1970
 3016SOL    HW120510   4.678   2.960   3.441  0.0623  0.1965 -2.2718
 3016SOL    HW220511   4.565   2.914   3.511 -0.8461 -1.1860 -1.2011
 3017SOL     OW20512   3.799   2.837   3.599  0.2311 -0.1645  0.1506
 3017SOL    HW120513   3.705   2.852   3.604  0.2030 -0.7042  1.0808
 3017SOL    HW220514   3.832   2.925   3.579  1.8756 -0.9839 -0.7549
 3018SOL     OW20515   0.425   2.169  13.386 -0.0187 -0.6942 -0.3385
 3018SOL    HW120516   0.496   2.105  13.384 -0.4991 -1.2653  0.5091
 3018SOL    HW220517   0.360   2.133  13.326  0.3097  1.9215 -2.2494
 3019SOL     OW20518   1.431   4.454   2.880  0.0248  0.0594 -0.3027
 3019SOL    HW120519   1.469   4.366   2.876 -2.4443 -1.0433  0.3184
 3019SOL    HW220520   1.362   4.435   2.944 -0.2476  0.0884 -0.5882
 3020SOL     OW20521   2.857   0.548  12.202 -0.2199  0.0726  0.5175
 3020SOL    HW120522   2.792   0.562  12.133 -0.8538 -0.4448  1.0168
 3020SOL    HW220523   2.918   0.489  12.157 -1.4855  0.4491 -1.7054
 3021SOL     OW20524   2.725   4.255   4.251  0.2721  0.0035 -0.1251
 3021SOL    HW120525   2.651   4.194   4.256 -0.1238  0.6028  1.4179
 3021SOL    HW220526   2.766   4.241   4.336 -0.8814  0.1672  0.4638
 3022SOL     OW20527   2.059   3.848   7.482  0.0034  0.7475  0.2346
 3022SOL    HW120528   2.051   3.940   7.508 -1.7152  0.2534  1.5397
 3022SOL    HW220529   1.990   3.836   7.417  0.9371 -2.0515 -0.2379
 3023SOL     OW20530   2.677   3.647   5.193  0.1230 -0.1053  0.2709
 3023SOL    HW120531   2.627   3.645   5.111  0.4695  1.6662  0.0278
 3023SOL    HW220532   2.759   3.620   5.152  0.7322  0.2491  1.2557
 3024SOL     OW20533   2.638   0.800  14.884  0.0256 -0.2082  0.4061
 3024SOL    HW120534   2.605   0.874  14.832 -0.3668 -0.7735 -0.1588
 3024SOL    HW220535   2.715   0.778  14.833  1.0337 -1.1478  2.3551
 3025SOL     OW20536   0.204   4.630   8.585 -0.0171  0.4221 -0.3359
 3025SOL    HW120537   0.263   4.612   8.511 -0.2454 -1.2392 -0.1076
 3025SOL    HW220538   0.262   4.666   8.652 -0.7209  2.9802 -1.0974
 3026SOL     OW20539   4.388   0.100   6.685  0.2030  0.0107  0.1067
 3026SOL    HW120540   4.294   0.085   6.688  0.1304  0.4842  0.2846
 3026SOL    HW220541   4.402   0.125   6.777 -1.6233  0.4642  0.2610
 3027SOL     OW20542   3.104   1.172   6.232  0.1365 -0.7441 -0.2150
 3027SOL    HW120543   3.120   1.088   6.189 -1.2159 -0.3056 -1.6134
 3027SOL    HW220544   3.036   1.146   6.294 -1.0156  0.4463 -0.9694
 3028SOL     OW20545   3.751   2.424   3.777  0.9826  0.1663  0.4481
 3028SOL    HW120546   3.698   2.504   3.772 -0.2334 -0.6313  0.5297
 3028SOL    HW220547   3.840   2.456   3.758  1.1290  0.7038  2.0361
 3029SOL     OW20548   3.087   2.784   7.371 -0.1435 -0.2685 -0.0677
 3029SOL    HW120549   3.094   2.741   7.285 -0.4560  1.8179 -1.1274
 3029SOL    HW220550   3.009   2.836   7.353 -0.8601 -1.9736 -1.9470
 3030SOL     OW20551   3.086   2.399  16.835  0.1509 -0.5146 -0.1024
 3030SOL    HW120552   3.052   2.345  16.764 -1.9452 -0.8359  1.1153
 3030SOL    HW220553   3.003   2.411  16.882  0.0171 -2.0818  0.0600
 3031SOL     OW20554   3.391   1.857   3.613 -0.0124 -0.0689 -0.0089
 3031SOL    HW120555   3.420   1.772   3.580 -1.0425 -0.8907  1.2314
 3031SOL    HW220556   3.318   1.872   3.553  1.9613  0.1951 -2.3900
 3032SOL     OW20557   4.536   2.975  10.627 -0.4431  0.2037 -0.0872
 3032SOL    HW120558   4.573   3.029  10.557  1.2294 -3.1665 -1.7944
 3032SOL    HW220559   4.541   2.890  10.585 -0.0248 -0.7719  1.9178
 3033SOL     OW20560   4.644   4.401  16.920 -0.7506 -0.2160  0.2449
 3033SOL    HW120561   4.669   4.379  16.831  1.4204 -0.6863  0.9490
 3033SOL    HW220562   4.644   4.318  16.967 -1.2324 -0.0129  0.6070
 3034SOL     OW20563   1.195   1.380  13.547  0.0503 -0.6475  0.6268
 3034SOL    HW120564   1.274   1.418  13.508 -0.8577  0.2615 -0.3026
 3034SOL    HW220565   1.162   1.332  13.471  0.4973  0.3914 -0.2268
 3035SOL     OW20566   1.917   1.430   3.982 -0.0231  0.6195 -0.2502
 3035SOL    HW120567   1.912   1.460   4.072 -1.8869 -1.3105  0.2924
 3035SOL    HW220568   1.920   1.335   3.992  0.6513  0.6910  0.1746
 3036SOL     OW20569   1.129   4.209  13.134 -0.5243  0.3971  0.1881
 3036SOL    HW120570   1.215   4.207  13.092 -0.0886  3.4013  0.9387
 3036SOL    HW220571   1.078   4.141  13.090  1.7146  0.1085 -1.9912
 3037SOL     OW20572   3.715   1.615   7.500  0.5115  0.2649 -0.3189
 3037SOL    HW120573   3.773   1.570   7.562 -0.7986  0.0872  0.7846
 3037SOL    HW220574   3.719   1.705   7.534 -0.7576  1.7117 -3.9934
 3038SOL     OW20575   4.440   1.080   8.264 -0.1318 -0.3131 -0.5363
 3038SOL    HW120576   4.480   1.013   8.319 -1.0622 -0.0874  0.4124
 3038SOL    HW220577   4.525   1.122   8.256 -0.2381 -0.5034 -2.5883
 3039SOL     OW20578   3.706   4.665   6.400  0.0810  0.4775  0.2810
 3039SOL    HW120579   3.642   4.655   6.471 -2.5448 -1.2027 -2.3624
 3039SOL    HW220580   3.787   4.639   6.444 -0.5142 -1.5363  0.1732
 3040SOL     OW20581   3.530   2.282   4.277 -0.3495  0.0771 -0.0200
 3040SOL    HW120582   3.622   2.260   4.265 -0.3492  0.3948 -0.6255
 3040SOL    HW220583   3.540   2.361   4.330  1.0343  0.0971 -0.3197
 3041SOL     OW20584   0.120   1.748   2.657  0.0461  0.3663  0.3085
 3041SOL    HW120585   0.172   1.711   2.585 -0.6655 -1.5316  0.7721
 3041SOL    HW220586   0.047   1.793   2.616  0.9892 -0.2648 -2.0562
 3042SOL     OW20587   3.935   3.495  11.164  0.1457  0.6844  0.1172
 3042SOL    HW120588   3.951   3.567  11.103  2.3401 -0.3334 -0.5211
 3042SOL    HW220589   4.026   3.471  11.182  0.4415  1.2967 -0.5533
 3043SOL     OW20590   2.943   0.811   6.273 -0.2574  0.7033  0.2883
 3043SOL    HW120591   2.947   0.882   6.337  1.8025  0.9996 -0.1630
 3043SOL    HW220592   2.855   0.791   6.303 -0.9725  0.7658 -1.8059
 3044SOL     OW20593   2.148   1.557   9.778 -0.4928  0.1165  0.6556
 3044SOL    HW120594   2.085   1.490   9.753 -1.0976  0.3990  1.3824
 3044SOL    HW220595   2.090   1.630   9.802  0.2279  0.9374 -0.0892
 3045SOL     OW20596   1.417   4.597   1.172  0.2132  0.5762  0.3714
 3045SOL    HW120597   1.456   4.581   1.086 -0.6489 -0.6944  0.2166
 3045SOL    HW220598   1.492   4.615   1.229  0.0829 -1.1506  1.0682
 3046SOL     OW20599   1.791   3.752   7.054 -0.2264 -0.1103 -0.3623
 3046SOL    HW120600   1.867   3.732   7.001  0.8716  1.2820  0.6676
 3046SOL    HW220601   1.741   3.676   7.025  0.0721 -0.1142 -0.8508
 3047SOL     OW20602   0.579   2.996  12.817  0.4066  0.7475  0.3930
 3047SOL    HW120603   0.640   3.012  12.889  0.0050  1.1057  0.6542
 3047SOL    HW220604   0.619   3.046  12.746 -1.4733  0.5640 -0.7842
 3048SOL     OW20605   1.111   0.527   6.561 -0.0520  0.3471 -0.3575
 3048SOL    HW120606   1.127   0.447   6.610  1.0479  0.7741 -0.0258
 3048SOL    HW220607   1.040   0.501   6.502  0.5072  2.2047 -1.8593
 3049SOL     OW20608   2.762   2.255   0.494 -0.4298  0.4949 -0.1788
 3049SOL    HW120609   2.691   2.210   0.449  0.6186 -0.8431 -0.5135
 3049SOL    HW220610   2.738   2.231   0.584  0.4373  1.5709  0.3418
 3050SOL     OW20611   3.062   1.810   7.944  0.3666 -0.4858 -0.4087
 3050SOL    HW120612   3.057   1.905   7.948  0.5036 -0.4685 -0.6869
 3050SOL    HW220613   2.978   1.784   7.907  0.1237  2.0460 -1.6102
 3051SOL     OW20614   2.844   2.429   9.349  0.7270 -0.2776  0.3374
 3051SOL    HW120615   2.915   2.493   9.341 -0.0656 -0.0284 -4.7139
 3051SOL    HW220616   2.891   2.355   9.311 -2.0351 -1.5317 -0.6170
 3052SOL     OW20617   3.591   4.300   4.053 -0.1681 -0.0874 -0.0980
 3052SOL    HW120618   3.686   4.293   4.044 -0.3064 -2.1968  0.0417
 3052SOL    HW220619   3.593   4.378   4.108  2.5029 -0.0373 -0.2801
 3053SOL     OW20620   4.519   0.685   7.968  0.2066  0.4037  0.6778
 3053SOL    HW120621   4.430   0.705   7.998 -0.4131  0.7602 -1.3994
 3053SOL    HW220622   4.501   0.710   7.877 -2.0884 -0.6936  0.8115
 3054SOL     OW20623   1.743   2.875  14.980  0.0235  0.2439 -0.2403
 3054SOL    HW120624   1.685   2.818  15.031  0.0206  2.9089  2.7435
 3054SOL    HW220625   1.738   2.965  15.012  1.4974  0.0582  0.5263
 3055SOL     OW20626   4.040   2.601  15.672  0.3693  0.3581  0.0230
 3055SOL    HW120627   4.051   2.695  15.658 -0.6010  0.6566  1.2916
 3055SOL    HW220628   4.077   2.552  15.598  0.6875 -0.0287  0.4358
 3056SOL     OW20629   2.008   0.133   6.865 -0.0583  0.3072  0.6046
 3056SOL    HW120630   1.924   0.170   6.837 -0.2299  0.1147  0.8660
 3056SOL    HW220631   1.985   0.068   6.931  0.4158 -0.2943  0.1729
 3057SOL     OW20632   3.734   2.570  11.579  0.5000 -0.3657  0.1049
 3057SOL    HW120633   3.686   2.528  11.651 -1.7550  3.6432  0.9137
 3057SOL    HW220634   3.758   2.490  11.531 -0.8020 -0.5045 -0.3116
 3058SOL     OW20635   2.994   1.346   8.939 -0.4815  0.3667 -0.2087
 3058SOL    HW120636   2.983   1.344   9.034 -0.7376 -0.9535 -0.2671
 3058SOL    HW220637   2.942   1.269   8.917 -1.3402  0.3851  1.7418
 3059SOL     OW20638   4.168   4.215   1.778 -0.5029  0.1660  0.0502
 3059SOL    HW120639   4.098   4.266   1.819 -1.2059 -0.1860 -0.7111
 3059SOL    HW220640   4.153   4.137   1.830  0.5749 -0.5818 -0.7675
 3060SOL     OW20641   1.711   1.273   6.842 -0.3497 -0.0197 -0.6180
 3060SOL    HW120642   1.753   1.190   6.819  0.9559  0.8682 -1.4213
 3060SOL    HW220643   1.787   1.327   6.862 -0.2028 -0.1458 -0.8387
 3061SOL     OW20644   2.721   2.347   8.061  0.6168  0.1958  0.3495
 3061SOL    HW120645   2.710   2.259   8.097 -1.3086  0.2994  0.0251
 3061SOL    HW220646   2.780   2.388   8.124  2.3157  0.3765 -1.3824
 3062SOL     OW20647   1.461   2.614  13.767  0.6051 -0.3690  0.8138
 3062SOL    HW120648   1.452   2.686  13.830  0.8222  0.5664 -0.2248
 3062SOL    HW220649   1.375   2.573  13.764  0.8070 -0.8244  1.2491
 3063SOL     OW20650   3.112   1.900  11.916 -0.2634  0.3548  0.2081
 3063SOL    HW120651   3.077   1.842  11.849  1.4754  1.8176 -1.9972
 3063SOL    HW220652   3.169   1.958  11.865 -0.3562  1.1726  1.0274
 3064SOL     OW20653   1.301   3.400   7.335  0.0474  0.3556 -0.1492
 3064SOL    HW120654   1.391   3.370   7.337 -0.3316 -0.7184  0.5666
 3064SOL    HW220655   1.257   3.315   7.331  1.8367 -0.6126  1.1268
 3065SOL     OW20656   0.449   1.463  12.308 -0.0283  0.5258  0.2638
 3065SOL    HW120657   0.409   1.376  12.302  0.0256  0.4456  1.1461
 3065SOL    HW220658   0.524   1.451  12.249 -0.2984 -0.3231  0.0929
 3066SOL     OW20659   2.922   0.257   9.681 -0.2851  0.6342 -0.1372
 3066SOL    HW120660   2.952   0.265   9.771 -2.1070 -0.8016  0.5909
 3066SOL    HW220661   2.888   0.168   9.691  0.4718  0.2788 -0.6976
 3067SOL     OW20662   0.127   1.604  14.017  0.8677 -0.3559 -0.8456
 3067SOL    HW120663   0.042   1.561  14.015 -0.5738  2.6003 -3.6111
 3067SOL    HW220664   0.184   1.537  13.981 -0.0373 -1.6525  0.1469
 3068SOL     OW20665   3.809   4.033   2.923 -0.7119 -0.1406 -0.4799
 3068SOL    HW120666   3.731   4.037   2.867 -1.0297  1.0589  0.0602
 3068SOL    HW220667   3.776   3.996   3.004 -0.0593  2.2617  0.8662
 3069SOL     OW20668   2.915   2.460  10.566  0.2798 -0.7469 -0.5028
 3069SOL    HW120669   2.892   2.414  10.647 -0.0045 -1.3850 -0.9462
 3069SOL    HW220670   2.855   2.535  10.563  1.5920  0.3868  2.0863
 3070SOL     OW20671   0.148   1.689   4.041 -0.5958  0.1422  0.2750
 3070SOL    HW120672   0.068   1.639   4.056  2.0056 -4.0918 -0.0729
 3070SOL    HW220673   0.191   1.631   3.979 -2.1720 -0.6664 -0.0606
 3071SOL     OW20674   2.518   0.715  13.121  0.6920 -0.0068  0.0047
 3071SOL    HW120675   2.608   0.734  13.095  0.5310  0.9344  0.1408
 3071SOL    HW220676   2.491   0.670  13.041 -1.1275 -0.9024  1.1385
 3072SOL     OW20677   0.624   1.622   0.773  0.2817  0.2036  0.6469
 3072SOL    HW120678   0.595   1.697   0.721  0.4546  0.6156  1.1412
 3072SOL    HW220679   0.551   1.635   0.833 -0.8209 -0.5877 -0.5339
 3073SOL     OW20680   1.290   4.518   9.221  0.0893  0.3072 -0.1456
 3073SOL    HW120681   1.276   4.464   9.144  0.7105 -2.5358  1.7203
 3073SOL    HW220682   1.347   4.583   9.179  0.5183 -0.5034 -0.8129
 3074SOL     OW20683   3.799   1.340   0.988  0.2539 -0.1179  0.3474
 3074SOL    HW120684   3.739   1.266   1.002  0.1981 -0.1024  0.1985
 3074SOL    HW220685   3.766   1.409   1.045 -1.8088  0.5989 -1.7205
 3075SOL     OW20686   4.185   0.170   0.951 -0.2331  0.1809 -0.0220
 3075SOL    HW120687   4.145   0.256   0.965  0.5163  0.5070  0.1436
 3075SOL    HW220688   4.269   0.182   0.996 -1.4735  2.3928  1.6737
 3076SOL     OW20689   0.599   1.276   3.480 -0.1078  0.4987 -0.4885
 3076SOL    HW120690   0.628   1.189   3.507  0.7937  0.5934 -1.1441
 3076SOL    HW220691   0.563   1.313   3.560  1.4735 -0.1504  0.5202
 3077SOL     OW20692   2.498   3.662   5.932  0.0403  0.1316 -0.0232
 3077SOL    HW120693   2.414   3.618   5.948  0.4903 -0.6781  0.1511
 3077SOL    HW220694   2.478   3.676   5.839  1.0873  0.3947 -0.2097
 3078SOL     OW20695   0.484   1.603   5.432  0.2102 -0.6936  0.2835
 3078SOL    HW120696   0.523   1.673   5.379 -1.5717  0.2525  0.2227
 3078SOL    HW220697   0.557   1.566   5.481  0.3901  1.7805  1.8526
 3079SOL     OW20698   1.444   1.976   2.116  0.3716  0.5255  0.1543
 3079SOL    HW120699   1.523   2.003   2.162 -0.2019  1.9320  0.3180
 3079SOL    HW220700   1.400   1.928   2.187  1.3263  0.3952  0.6557
 3080SOL     OW20701   3.862   3.573   7.068 -0.0941  0.3956  1.0032
 3080SOL    HW120702   3.823   3.506   7.124 -1.1283 -0.4430 -0.7404
 3080SOL    HW220703   3.809   3.557   6.990 -0.3810  0.9549  1.0852
 3081SOL     OW20704   3.015   4.310   1.686  0.3652 -0.2091  0.1704
 3081SOL    HW120705   2.960   4.382   1.718 -0.2195 -1.1558  1.2714
 3081SOL    HW220706   2.969   4.300   1.602 -1.4837 -1.6450  1.3485
 3082SOL     OW20707   4.577   2.965   4.705 -0.1857  0.5054  0.2241
 3082SOL    HW120708   4.668   2.939   4.716  0.4555  1.3711 -3.0021
 3082SOL    HW220709   4.584   3.033   4.637 -0.5892  0.0581 -0.2607
 3083SOL     OW20710   0.414   3.986  13.263 -0.8835 -0.2284  0.3033
 3083SOL    HW120711   0.409   4.067  13.313  0.6290 -0.2669  0.5171
 3083SOL    HW220712   0.328   3.983  13.221 -0.0342 -0.3841 -1.4172
 3084SOL     OW20713   3.428   1.306   2.799 -0.6161  0.0015  0.2845
 3084SOL    HW120714   3.450   1.391   2.762 -0.5205 -0.5521 -0.9105
 3084SOL    HW220715   3.393   1.261   2.722  1.9637  1.2330 -1.5965
 3085SOL     OW20716   1.998   3.145  15.458  0.1402 -0.0964  0.2165
 3085SOL    HW120717   2.078   3.106  15.493 -1.6246 -2.0661  2.0527
 3085SOL    HW220718   1.954   3.068  15.424  0.7296  0.5890 -2.0826
 3086SOL     OW20719   2.212   2.442   2.858 -0.2162 -0.1806  0.7628
 3086SOL    HW120720   2.295   2.395   2.859 -0.6039 -0.9451 -2.2800
 3086SOL    HW220721   2.175   2.405   2.778 -1.4960 -1.8358  2.1331
 3087SOL     OW20722   1.419   3.126   3.799 -0.5343  0.5935  0.3970
 3087SOL    HW120723   1.407   3.173   3.882  0.6057 -1.3491  1.6560
 3087SOL    HW220724   1.355   3.056   3.806  0.8847 -0.8108 -0.7048
 3088SOL     OW20725   2.753   3.591  11.678 -0.4307 -0.1934  0.1579
 3088SOL    HW120726   2.695   3.641  11.735 -1.0831  0.8281 -1.4106
 3088SOL    HW220727   2.759   3.655  11.606 -3.8353 -3.2155 -2.8315
 3089SOL     OW20728   4.294   3.343  11.842 -0.3542  0.6163 -0.8193
 3089SOL    HW120729   4.290   3.287  11.765  0.3832 -1.7643  0.8756
 3089SOL    HW220730   4.368   3.402  11.826 -0.3885  0.5424 -1.2508
 3090SOL     OW20731   0.201   4.291   6.119  0.7874  0.4461  0.2216
 3090SOL    HW120732   0.124   4.299   6.063  0.3880 -2.7442  0.2660
 3090SOL    HW220733   0.236   4.379   6.132  1.2216  0.3716 -0.4562
 3091SOL     OW20734   4.169   0.796   1.661  0.4449 -0.0001 -0.3681
 3091SOL    HW120735   4.256   0.835   1.653  1.0767 -1.2381  0.3293
 3091SOL    HW220736   4.154   0.782   1.754 -1.0906 -3.3362 -1.0973
 3092SOL     OW20737   1.961   4.163   1.567 -0.6831 -0.8117 -0.3311
 3092SOL    HW120738   2.017   4.085   1.566 -2.8960 -2.3842 -2.3140
 3092SOL    HW220739   1.967   4.186   1.660  0.3648 -1.6756 -0.1848
 3093SOL     OW20740   0.840   2.790  15.619 -0.2245  0.0864  0.2827
 3093SOL    HW120741   0.880   2.827  15.541  0.9081 -0.5935  0.5379
 3093SOL    HW220742   0.831   2.866  15.676 -0.3283 -0.0471  0.4436
 3094SOL     OW20743   1.304   3.949   3.134  0.4395  0.1098 -0.3817
 3094SOL    HW120744   1.284   3.856   3.129  1.0859  0.0853 -2.8771
 3094SOL    HW220745   1.237   3.978   3.196  1.2576  1.1587  0.0116
 3095SOL     OW20746   0.642   4.445   4.296 -0.3423 -0.1291 -0.0206
 3095SOL    HW120747   0.683   4.375   4.245  0.3187  0.9337 -0.9359
 3095SOL    HW220748   0.683   4.525   4.266 -0.8269  0.9720  2.2357
 3096SOL     OW20749   4.274   2.500   7.671 -0.6387  0.1821  0.2658
 3096SOL    HW120750   4.340   2.570   7.676  0.0965 -0.5977  1.4600
 3096SOL    HW220751   4.330   2.422   7.664 -1.2345 -0.3307  1.3367
 3097SOL     OW20752   1.858   2.283   4.754  0.1768  0.1764 -0.0632
 3097SOL    HW120753   1.909   2.339   4.813  0.5726  0.7768 -0.9839
 3097SOL    HW220754   1.926   2.219   4.737  0.3023  0.2550  0.1396
 3098SOL     OW20755   2.721   0.593   5.238  0.2023  0.2821  0.4007
 3098SOL    HW120756   2.657   0.600   5.168 -1.0389 -0.4842  1.4610
 3098SOL    HW220757   2.764   0.510   5.216  2.8838  1.3076  1.8124
 3099SOL     OW20758   4.682   1.610  15.335 -0.3522 -0.4711  0.4449
 3099SOL    HW120759   4.672   1.704  15.324  0.3574 -0.5304 -0.6346
 3099SOL    HW220760   0.005   1.594  15.255 -0.5285  1.7223 -0.0912
 3100SOL     OW20761   3.387   1.948   2.236 -0.6535 -0.6164 -0.1622
 3100SOL    HW120762   3.470   1.912   2.205 -0.5256 -0.9969  0.6153
 3100SOL    HW220763   3.349   1.867   2.268 -1.1371  0.8489  2.9934
 3101SOL     OW20764   2.872   3.902  11.265 -0.0898  0.5051  0.3770
 3101SOL    HW120765   2.946   3.884  11.208 -1.4024 -1.6965 -0.6092
 3101SOL    HW220766   2.841   3.977  11.214  0.4665 -0.9394 -2.0786
 3102SOL     OW20767   3.579   1.552  15.610 -0.1388 -0.1636  0.1343
 3102SOL    HW120768   3.647   1.488  15.590 -1.0373 -0.8956 -0.5605
 3102SOL    HW220769   3.524   1.510  15.676 -0.5095  2.2038  1.3360
 3103SOL     OW20770   3.512   3.595   8.433 -0.3855 -0.2546  0.2976
 3103SOL    HW120771   3.479   3.644   8.509 -0.7157  0.0653 -0.0501
 3103SOL    HW220772   3.557   3.527   8.482 -0.5758 -0.2438  0.4887
 3104SOL     OW20773   4.563   1.628  16.025 -0.9134  0.5574  0.6649
 3104SOL    HW120774   4.575   1.578  15.944  1.4442  1.8561  0.2274
 3104SOL    HW220775   4.641   1.595  16.068 -0.1600 -1.3229 -2.0949
 3105SOL     OW20776   3.365   3.821   0.254 -0.4364 -0.6781 -0.0488
 3105SOL    HW120777   3.428   3.873   0.305 -0.3549 -2.4279  1.6458
 3105SOL    HW220778   3.400   3.732   0.254  3.1517  0.7155  1.0725
 3106SOL     OW20779   0.326   4.524   7.781  0.0735  0.4721  0.4599
 3106SOL    HW120780   0.279   4.447   7.749 -1.2929  1.5588 -0.1309
 3106SOL    HW220781   0.266   4.590   7.746 -0.4648  0.4211  1.2874
 3107SOL     OW20782   0.482   3.187   4.981  0.0495 -0.2294 -0.6000
 3107SOL    HW120783   0.539   3.216   5.052 -0.3090  1.5321 -1.0354
 3107SOL    HW220784   0.396   3.179   5.024 -0.1948  0.8224 -0.9030
 3108SOL     OW20785   0.272   3.239   7.693 -0.4605 -0.0574 -0.0773
 3108SOL    HW120786   0.249   3.326   7.725 -0.0602  0.1892 -0.4694
 3108SOL    HW220787   0.195   3.227   7.638  0.6605 -0.0632 -1.6329
 3109SOL     OW20788   3.493   4.630   7.479  0.2869 -0.1318 -0.0318
 3109SOL    HW120789   3.467   4.538   7.475  0.4920 -0.1207 -1.8201
 3109SOL    HW220790   3.561   4.635   7.412 -0.5296 -1.7825 -1.0065
 3110SOL     OW20791   1.042   3.114   4.834  0.5356 -0.3945 -0.4494
 3110SOL    HW120792   0.989   3.040   4.806  1.2137 -1.0361 -0.0235
 3110SOL    HW220793   1.106   3.081   4.897  0.2710  1.7236  0.9411
 3111SOL     OW20794   2.272   4.569  12.339 -0.1208  0.6129  0.3542
 3111SOL    HW120795   2.248   4.661  12.332  0.8384  0.8330 -0.0149
 3111SOL    HW220796   2.327   4.572  12.417 -0.8163 -0.0324  0.8714
 3112SOL     OW20797   3.664   2.808   6.825  0.1084 -0.5593  0.0504
 3112SOL    HW120798   3.707   2.744   6.769 -0.2987  0.9233 -1.9609
 3112SOL    HW220799   3.571   2.797   6.803  0.2056  0.9827 -1.1340
 3113SOL     OW20800   0.331   1.630   5.680  0.3457  0.2651  0.0028
 3113SOL    HW120801   0.256   1.688   5.686 -2.1191 -2.7360 -1.8260
 3113SOL    HW220802   0.356   1.646   5.588  1.5428  1.2661  0.4991
 3114SOL     OW20803   1.076   4.307  16.979  0.8006 -0.2629 -0.0226
 3114SOL    HW120804   1.154   4.294  16.925  0.7376 -1.6113  0.2107
 3114SOL    HW220805   1.054   4.214  16.987 -0.0450 -0.0559  0.0766
 3115SOL     OW20806   4.111   3.380   5.766 -0.6037  0.2809  0.3459
 3115SOL    HW120807   4.154   3.465   5.780  2.2141 -0.9041 -1.2548
 3115SOL    HW220808   4.181   3.317   5.784 -1.0853 -0.4608 -0.4248
 3116SOL     OW20809   2.555   4.459   5.869  0.2198  0.3759  0.3210
 3116SOL    HW120810   2.464   4.432   5.877  0.5932 -1.2633 -1.0064
 3116SOL    HW220811   2.587   4.435   5.955 -1.7183  0.6451  1.1161
 3117SOL     OW20812   4.392   0.798   0.631  0.2741 -0.1338 -0.5969
 3117SOL    HW120813   4.392   0.890   0.656 -2.5222 -0.8384  2.0122
 3117SOL    HW220814   4.420   0.796   0.539  0.4632  0.4899 -0.5484
 3118SOL     OW20815   0.769   3.314   8.953 -0.0621  0.0504 -0.4628
 3118SOL    HW120816   0.852   3.323   8.907 -0.9565  0.1394 -2.0396
 3118SOL    HW220817   0.728   3.399   8.934 -0.4634 -0.1958 -0.6987
 3119SOL     OW20818   3.719   1.394   4.077 -0.3543  0.5137 -0.0640
 3119SOL    HW120819   3.650   1.368   4.137 -0.7140  1.2159 -0.1758
 3119SOL    HW220820   3.690   1.350   3.998 -2.3396 -0.5255  1.2570
 3120SOL     OW20821   3.109   2.727   6.179 -0.0282 -0.1865 -0.0296
 3120SOL    HW120822   3.123   2.821   6.172 -1.8767 -0.0233 -1.3188
 3120SOL    HW220823   3.171   2.717   6.251 -2.1255 -1.5008  1.5886
 3121SOL     OW20824   2.975   0.381   3.393 -0.3478 -0.7964  0.2592
 3121SOL    HW120825   3.009   0.401   3.306 -0.5220  0.2354  0.4304
 3121SOL    HW220826   2.910   0.450   3.407  0.3559  0.1027 -0.9075
 3122SOL     OW20827   4.176   1.111   8.531  0.4287 -0.0720  0.2647
 3122SOL    HW120828   4.244   1.045   8.543 -1.4653 -2.5311 -2.5107
 3122SOL    HW220829   4.230   1.178   8.490 -1.2566 -0.9700 -3.4364
 3123SOL     OW20830   0.381   2.883   0.717 -0.8621  0.0421  0.0603
 3123SOL    HW120831   0.395   2.974   0.744 -2.2510 -0.2569  1.8209
 3123SOL    HW220832   0.469   2.845   0.719 -0.2020  1.6862  2.5085
 3124SOL     OW20833   1.593   1.865   9.507 -0.0564 -0.0365  0.0755
 3124SOL    HW120834   1.499   1.866   9.526 -0.2722  1.8727 -1.1070
 3124SOL    HW220835   1.609   1.805   9.434 -0.4254  0.8974 -0.7724
 3125SOL     OW20836   0.297   4.327   8.054  0.1270 -0.1127 -0.9269
 3125SOL    HW120837   0.229   4.367   8.000  0.7163 -0.2869 -1.7951
 3125SOL    HW220838   0.271   4.236   8.045  0.5908 -0.2750 -0.6389
 3126SOL     OW20839   1.462   0.986  16.341  0.7078  0.5112  0.2652
 3126SOL    HW120840   1.529   0.917  16.342 -0.7218 -0.9166 -2.1158
 3126SOL    HW220841   1.401   0.951  16.405 -0.8741  1.2061 -0.8639
 3127SOL     OW20842   2.639   0.362   0.870  0.3167  0.5567  0.1949
 3127SOL    HW120843   2.625   0.447   0.913 -1.5781  0.1091  0.4493
 3127SOL    HW220844   2.552   0.323   0.869 -0.1753  1.7263 -2.5460
 3128SOL     OW20845   2.030   2.282  11.749 -0.1243 -0.3096  0.4323
 3128SOL    HW120846   1.982   2.323  11.677 -2.3652 -1.9990  0.9674
 3128SOL    HW220847   2.080   2.352  11.792  0.6277 -0.8762  0.4706
 3129SOL     OW20848   1.397   1.880   2.767  0.0840 -0.2180  0.5163
 3129SOL    HW120849   1.466   1.915   2.824 -1.9955  0.5676  2.5246
 3129SOL    HW220850   1.444   1.804   2.733 -0.8615 -0.2473 -0.7438
 3130SOL     OW20851   0.652   2.879   2.400  0.8247 -0.4735  0.3399
 3130SOL    HW120852   0.598   2.913   2.329  1.4924  0.0175  0.0685
 3130SOL    HW220853   0.590   2.875   2.473 -0.4260 -1.3154 -0.7531
 3131SOL     OW20854   2.409   1.628   7.232 -0.0181 -0.3654 -0.1008
 3131SOL    HW120855   2.428   1.538   7.257 -0.1951 -0.1682  0.7483
 3131SOL    HW220856   2.393   1.621   7.138  1.5500 -1.3672 -0.2906
 3132SOL     OW20857   3.122   3.886   0.326 -0.3088 -0.0172 -0.1886
 3132SOL    HW120858   3.215   3.878   0.306 -0.3730 -1.0376 -0.0527
 3132SOL    HW220859   3.098   3.942   0.251  1.8942 -2.2656 -2.5420
 3133SOL     OW20860   0.086   3.064  16.119 -0.1494 -1.0792 -0.0814
 3133SOL    HW120861   0.119   3.118  16.047  0.2152 -0.7430  0.3396
 3133SOL    HW220862   0.107   3.110  16.200  0.2287  0.8365 -1.2789
 3134SOL     OW20863   4.646   2.042   6.675  0.4717 -0.2771 -0.1582
 3134SOL    HW120864   4.630   1.955   6.640  1.5382 -0.4959 -0.0911
 3134SOL    HW220865   4.586   2.041   6.749 -0.4581 -1.1575 -0.9266
 3135SOL     OW20866   4.382   3.841   8.988 -0.5986 -0.2444 -0.1262
 3135SOL    HW120867   4.303   3.789   9.004 -0.3559 -0.7971 -0.7177
 3135SOL    HW220868   4.387   3.894   9.068  1.5619  0.1964 -0.5536
 3136SOL     OW20869   3.857   4.400   4.920 -0.3242 -0.1952  0.6679
 3136SOL    HW120870   3.896   4.455   4.987  1.1249  2.2480 -2.1552
 3136SOL    HW220871   3.888   4.445   4.841  0.4861 -1.7070  0.1345
 3137SOL     OW20872   4.041   4.636   1.488  0.1617  0.2715 -0.6015
 3137SOL    HW120873   4.025   4.556   1.539  0.6833  1.8289  1.9961
 3137SOL    HW220874   3.957   4.640   1.442 -0.3871  0.5256  0.4180
 3138SOL     OW20875   3.313   4.186   4.804 -0.3605 -0.2745 -0.4227
 3138SOL    HW120876   3.319   4.098   4.841 -0.4496  0.8974  2.3018
 3138SOL    HW220877   3.265   4.163   4.724  0.6964 -1.5851 -0.6910
 3139SOL     OW20878   2.950   1.137   1.732 -0.7559 -0.3644 -0.4005
 3139SOL    HW120879   2.928   1.182   1.814  2.7263  0.1141  0.2903
 3139SOL    HW220880   2.879   1.155   1.671 -0.6801 -0.6573 -0.5772
 3140SOL     OW20881   4.094   0.725   1.429  0.3226 -0.2587 -0.1108
 3140SOL    HW120882   4.160   0.767   1.373 -1.4142 -1.3098 -2.9265
 3140SOL    HW220883   4.127   0.737   1.519 -0.4399  0.4229  0.0757
 3141SOL     OW20884   3.889   3.163   6.930  0.0720  0.4516  0.4743
 3141SOL    HW120885   3.857   3.237   6.878  0.8309  0.6498  0.2933
 3141SOL    HW220886   3.921   3.208   7.009  1.4037  0.2115  0.0624
 3142SOL     OW20887   3.116   3.815   8.278  0.1465 -0.0380 -0.1544
 3142SOL    HW120888   3.054   3.879   8.243  0.9036  1.1290  0.6570
 3142SOL    HW220889   3.112   3.748   8.209  1.0536  0.4956 -0.7313
 3143SOL     OW20890   0.459   0.459  15.824  0.9866 -0.4465 -0.4648
 3143SOL    HW120891   0.425   0.543  15.795  0.5351  0.0539  1.5150
 3143SOL    HW220892   0.388   0.397  15.811 -1.2478  1.5007  2.6584
 3144SOL     OW20893   0.955   0.734   5.951  0.9169  0.6355 -0.4916
 3144SOL    HW120894   0.996   0.698   5.873  1.0573 -1.0885  0.3828
 3144SOL    HW220895   0.899   0.809   5.928  0.5220  0.7615  0.8372
 3145SOL     OW20896   4.582   1.321   3.828  0.2150 -0.2404 -0.1734
 3145SOL    HW120897   4.664   1.367   3.809  0.2479  0.3458  1.4399
 3145SOL    HW220898   4.610   1.231   3.847 -1.3470 -0.4240  1.2208
 3146SOL     OW20899   3.809   4.118   8.595 -0.0538 -0.4387 -0.0774
 3146SOL    HW120900   3.859   4.193   8.626 -2.0398  0.4424  1.0170
 3146SOL    HW220901   3.801   4.062   8.672  0.9307  0.9027  0.9765
 3147SOL     OW20902   1.898   4.712   3.642 -0.1083  0.1010  0.1149
 3147SOL    HW120903   1.983   4.709   3.686 -0.2575  0.0497  0.3974
 3147SOL    HW220904   1.837   4.666   3.700 -0.5427  0.5112 -0.0179
 3148SOL     OW20905   0.857   0.376   4.142  0.0769 -0.0629 -0.5346
 3148SOL    HW120906   0.808   0.302   4.180  1.1738  0.5960  2.1617
 3148SOL    HW220907   0.858   0.356   4.048  0.8022  0.2975 -0.6045
 3149SOL     OW20908   3.518   4.182   6.221 -0.1087 -0.5218 -0.1606
 3149SOL    HW120909   3.439   4.230   6.197  0.7404  0.5733 -0.7626
 3149SOL    HW220910   3.504   4.167   6.315 -0.8919 -2.0722 -0.5233
 3150SOL     OW20911   3.567   3.706   6.408  0.3802  0.2011  0.1328
 3150SOL    HW120912   3.591   3.795   6.381 -3.4653  1.8328  2.0535
 3150SOL    HW220913   3.513   3.724   6.485  2.4147  0.7685  1.4346
 3151SOL     OW20914   1.012   4.660  17.172 -0.5321 -0.0721 -0.4913
 3151SOL    HW120915   0.994   4.612  17.091  1.2845 -0.5001 -0.6452
 3151SOL    HW220916   1.009   4.578  17.221 -3.3968  1.4208  1.8170
 3152SOL     OW20917   1.290   3.563  13.584  0.0050 -0.1254  0.6752
 3152SOL    HW120918   1.254   3.511  13.656  0.9802  0.3821  1.5274
 3152SOL    HW220919   1.367   3.510  13.568  0.8174  1.3233 -0.2063
 3153SOL     OW20920   0.532   0.468  14.851  0.2498 -0.2028 -0.0080
 3153SOL    HW120921   0.496   0.387  14.888  2.6084 -1.5537 -0.6529
 3153SOL    HW220922   0.596   0.421  14.796  0.1023 -1.3233  0.7740
 3154SOL     OW20923   4.074   4.715   7.357 -0.1624  0.4708 -0.1002
 3154SOL    HW120924   4.072   4.629   7.399 -0.6029 -0.6131 -2.3148
 3154SOL    HW220925   3.985   4.720   7.322 -0.3508  1.0330  0.4567
 3155SOL     OW20926   4.144   0.259   7.825 -0.1703  0.1448  0.0416
 3155SOL    HW120927   4.173   0.243   7.915 -0.1751 -0.2764 -0.0319
 3155SOL    HW220928   4.223   0.233   7.777 -0.5216 -1.8035  0.5229
 3156SOL     OW20929   2.814   0.465  15.191  0.2092 -1.1245  0.3086
 3156SOL    HW120930   2.835   0.376  15.218 -0.3966 -0.8595  1.6705
 3156SOL    HW220931   2.798   0.465  15.097 -0.6657 -0.0467  0.4507
 3157SOL     OW20932   2.934   0.000   8.429 -0.3878  0.1252  0.1283
 3157SOL    HW120933   3.019   4.686   8.451  0.6306  2.0190 -0.4121
 3157SOL    HW220934   2.889   4.713   8.512  2.8654 -0.3170  1.8292
 3158SOL     OW20935   2.709   2.089   8.185 -0.0075 -0.1566  0.2963
 3158SOL    HW120936   2.799   2.116   8.201  0.3512 -0.3223 -1.4113
 3158SOL    HW220937   2.661   2.121   8.261  1.5538  0.7763  0.8907
 3159SOL     OW20938   2.885   2.265  13.563 -0.4575  0.3145  0.1312
 3159SOL    HW120939   2.955   2.236  13.504  0.7838  1.3462  1.0902
 3159SOL    HW220940   2.820   2.274  13.493 -1.7765 -0.2112  1.3157
 3160SOL     OW20941   4.474   0.931   4.032 -0.3224 -0.3087 -0.1331
 3160SOL    HW120942   4.408   0.990   3.996  0.4273  0.4234 -0.3254
 3160SOL    HW220943   4.508   0.883   3.957 -0.6090 -0.8531  0.0803
 3161SOL     OW20944   4.373   2.827  11.580 -0.0438  0.0845  0.7193
 3161SOL    HW120945   4.353   2.880  11.503 -1.4530 -0.3454  0.7774
 3161SOL    HW220946   4.368   2.892  11.650 -1.8348  2.3919 -1.5493
 3162SOL     OW20947   0.774   0.059   6.884  0.3637  0.0282 -0.3322
 3162SOL    HW120948   0.679   0.069   6.887  0.5635  1.7162  0.8569
 3162SOL    HW220949   0.802   0.138   6.931 -1.1173 -0.1201  0.7843
 3163SOL     OW20950   2.736   3.224   2.999  0.4264  0.0278  0.2720
 3163SOL    HW120951   2.803   3.222   2.931  0.1164  0.7507 -0.0576
 3163SOL    HW220952   2.773   3.175   3.071  0.4169  1.0481  0.9669
 3164SOL     OW20953   2.641   0.427   4.960  0.1735 -0.3573 -0.4410
 3164SOL    HW120954   2.589   0.366   4.908  0.7595  0.0368 -1.4816
 3164SOL    HW220955   2.600   0.512   4.949  1.9670  0.5117 -0.3400
 3165SOL     OW20956   0.688   1.135  11.268 -0.4958  0.1491 -0.6304
 3165SOL    HW120957   0.747   1.061  11.275 -2.9598 -1.6466  1.3013
 3165SOL    HW220958   0.698   1.168  11.179  1.2084 -0.1367 -0.5392
 3166SOL     OW20959   2.866   2.621   5.156  0.0378 -0.6006  0.0211
 3166SOL    HW120960   2.938   2.606   5.217  0.1046  0.0113  0.0992
 3166SOL    HW220961   2.897   2.562   5.088  0.2614 -0.4514 -0.0086
 3167SOL     OW20962   3.502   0.493   3.648  0.3079 -0.2735  0.1305
 3167SOL    HW120963   3.436   0.534   3.592  2.1317  2.7602  0.1724
 3167SOL    HW220964   3.508   0.414   3.596 -0.8812  0.3037 -0.8851
 3168SOL     OW20965   0.712   0.686   7.894 -0.2162  0.2169 -0.3692
 3168SOL    HW120966   0.635   0.708   7.946 -0.4004 -0.4368 -0.3674
 3168SOL    HW220967   0.702   0.594   7.867  2.3262 -0.4490  0.9672
 3169SOL     OW20968   1.952   2.504   4.217 -0.3678  0.5461  0.1246
 3169SOL    HW120969   2.023   2.566   4.232  0.8653 -0.7736 -0.2754
 3169SOL    HW220970   1.945   2.465   4.304  3.0037  0.6865  0.4658
 3170SOL     OW20971   4.342   0.916   2.875 -0.3773  0.0589  0.0486
 3170SOL    HW120972   4.308   0.841   2.924 -0.0228  0.1743  0.4805
 3170SOL    HW220973   4.343   0.983   2.944 -2.5435  0.3518 -0.2068
 3171SOL     OW20974   4.179   3.883   7.221 -0.0720  0.2127 -0.3851
 3171SOL    HW120975   4.140   3.952   7.275 -1.1496  0.3164 -1.2861
 3171SOL    HW220976   4.103   3.848   7.174  0.5931 -1.7735  0.0083
 3172SOL     OW20977   1.660   2.764   9.470  0.8165 -0.6470 -0.3502
 3172SOL    HW120978   1.659   2.802   9.382  0.7836  0.0152 -0.0655
 3172SOL    HW220979   1.731   2.802   9.522  0.8616 -2.4091  0.8703
 3173SOL     OW20980   4.389   3.158  13.550 -0.1412 -0.2463  0.3456
 3173SOL    HW120981   4.484   3.159  13.538 -0.2253 -1.5926 -0.3648
 3173SOL    HW220982   4.370   3.115  13.466  0.4589  0.5738 -0.2099
 3174SOL     OW20983   1.364   0.784   4.639 -0.1417 -0.6626 -0.6001
 3174SOL    HW120984   1.281   0.774   4.593 -0.2296  0.7771 -0.7770
 3174SOL    HW220985   1.398   0.868   4.607 -0.7316 -1.3671 -3.1094
 3175SOL     OW20986   3.144   0.311  15.941 -0.1636 -0.1023 -0.0254
 3175SOL    HW120987   3.203   0.270  15.877  0.8594 -0.4985  1.1561
 3175SOL    HW220988   3.185   0.295  16.027 -0.4980  1.7073  0.4567
 3176SOL     OW20989   2.962   1.354  16.185 -0.2607  0.0796 -0.7690
 3176SOL    HW120990   2.990   1.331  16.097  2.5791  1.2359 -0.1676
 3176SOL    HW220991   3.046   1.348  16.230 -0.3110 -0.8576 -0.7951
 3177SOL     OW20992   0.223   3.462  10.008  0.1204  0.2416  0.6888
 3177SOL    HW120993   0.169   3.434   9.934 -0.2361  0.1773  0.9712
 3177SOL    HW220994   0.186   3.403  10.073  0.6367 -2.4995 -1.5118
 3178SOL     OW20995   1.315   4.188   0.531 -0.2476 -0.0881 -0.0454
 3178SOL    HW120996   1.352   4.100   0.529 -0.3133 -0.1001 -0.8656
 3178SOL    HW220997   1.389   4.244   0.555  0.4363 -0.4473 -1.2885
 3179SOL     OW20998   1.561   1.793   3.259  0.3439 -0.2015  0.5573
 3179SOL    HW120999   1.524   1.705   3.264  2.5887 -1.1743 -0.0727
 3179SOL    HW221000   1.649   1.775   3.291  0.5284 -2.3332 -1.1112
 3180SOL     OW21001   0.158   0.401   4.472  0.5819  0.3594 -0.0808
 3180SOL    HW121002   0.115   0.479   4.435 -0.0451  0.1666  0.2287
 3180SOL    HW221003   0.133   0.330   4.413  0.2993  1.0690 -0.8273
 3181SOL     OW21004   4.017   1.043   7.903 -0.0380 -0.0154 -0.1800
 3181SOL    HW121005   4.087   1.076   7.960  0.6276 -0.5630 -0.6757
 3181SOL    HW221006   4.044   1.081   7.819 -1.5703  0.7609 -0.3171
 3182SOL     OW21007   0.150   3.929  17.245 -0.5327 -0.1824 -0.5059
 3182SOL    HW121008   0.072   3.932  17.301  0.0161  1.4139  0.1697
 3182SOL    HW221009   0.112   3.913  17.158  1.0896  2.5466 -1.7038
 3183SOL     OW21010   3.187   3.407   2.974 -0.4754  0.1887 -0.0919
 3183SOL    HW121011   3.252   3.430   2.908 -1.1208  1.5909 -0.2571
 3183SOL    HW221012   3.196   3.312   2.974  0.1433  0.2506  2.8853
 3184SOL     OW21013   0.381   4.072   7.971  0.3704 -0.6489 -0.3097
 3184SOL    HW121014   0.391   4.074   7.876  2.1528  0.4280 -0.1062
 3184SOL    HW221015   0.447   4.007   7.996  1.3946  0.7140  0.4713
 3185SOL     OW21016   1.928   1.218   2.408  0.1691  0.4513  0.0367
 3185SOL    HW121017   1.962   1.139   2.451  0.8553  0.0987 -1.1414
 3185SOL    HW221018   1.840   1.229   2.444  0.1937  1.1290 -0.1128
 3186SOL     OW21019   1.279   0.422  12.434 -0.0673  0.2274  0.9520
 3186SOL    HW121020   1.288   0.350  12.371 -3.4193  0.7026 -0.0781
 3186SOL    HW221021   1.250   0.379  12.514  0.9057 -2.0114  0.1045
 3187SOL     OW21022   1.551   2.597  16.080  0.0721 -0.2015 -0.1742
 3187SOL    HW121023   1.614   2.669  16.078  1.2207 -1.2111 -0.3178
 3187SOL    HW221024   1.468   2.643  16.094 -0.5266 -1.2475 -0.2588
 3188SOL     OW21025   0.046   1.161   6.067  0.0660  0.2717  0.1895
 3188SOL    HW121026   4.709   1.092   6.088  0.2274  0.6325  1.8182
 3188SOL    HW221027   0.112   1.109   6.020 -0.0186 -1.0440  1.5401
 3189SOL     OW21028   0.516   2.509   1.653  0.0998  0.0921 -0.4066
 3189SOL    HW121029   0.551   2.420   1.653  1.9007  0.7971  0.0737
 3189SOL    HW221030   0.440   2.496   1.595  0.8222  0.1490 -1.3560
 3190SOL     OW21031   1.786   0.002  11.879 -0.1745  0.2155 -0.6668
 3190SOL    HW121032   1.851   0.047  11.824 -1.1024 -0.1967 -2.1168
 3190SOL    HW221033   1.711   0.061  11.872 -0.9733 -0.7232  0.0348
 3191SOL     OW21034   3.276   0.635   1.507 -0.7235  0.1033  0.6641
 3191SOL    HW121035   3.231   0.703   1.558 -0.9744  0.0339  0.5372
 3191SOL    HW221036   3.310   0.690   1.437  1.0374  0.1635  1.5503
 3192SOL     OW21037   3.061   0.189   7.424  0.2121  0.1480 -0.4775
 3192SOL    HW121038   3.129   0.255   7.437 -0.6765  0.7849  0.9173
 3192SOL    HW221039   3.101   0.136   7.355  1.3663  1.1511 -0.5633
 3193SOL     OW21040   0.965   4.089   3.940  0.4364 -0.1021 -0.1241
 3193SOL    HW121041   0.990   4.022   4.003  0.0448 -1.5072 -1.4562
 3193SOL    HW221042   0.990   4.165   3.993 -2.2463  1.1483 -0.6368
 3194SOL     OW21043   1.854   0.042   0.674 -0.1027  0.0687  0.0629
 3194SOL    HW121044   1.831   0.010   0.587  0.0213  0.2828 -0.0500
 3194SOL    HW221045   1.843   0.136   0.657 -1.9748 -0.2066 -0.2624
 3195SOL     OW21046   3.247   3.550   6.447 -0.2788  0.0700  0.4035
 3195SOL    HW121047   3.269   3.643   6.446 -0.7005  0.1877  2.8518
 3195SOL    HW221048   3.279   3.522   6.361 -0.0006 -0.7229  0.7649
 3196SOL     OW21049   3.474   0.660   3.403  0.6018 -0.7163  0.2375
 3196SOL    HW121050   3.412   0.592   3.377 -1.7907  1.2516  0.8186
 3196SOL    HW221051   3.506   0.692   3.319  0.5730  0.8074  0.8186
 3197SOL     OW21052   1.484   4.692   6.313  0.6540 -0.0017 -0.1698
 3197SOL    HW121053   1.512   4.602   6.333  2.1857  0.1970 -1.3198
 3197SOL    HW221054   1.415   4.707   6.376 -0.7128 -0.9630 -1.4210
 3198SOL     OW21055   1.396   2.748  17.587  0.4561  0.2534 -0.1885
 3198SOL    HW121056   1.346   2.785  17.660  0.3822  1.1343 -0.6922
 3198SOL    HW221057   1.462   2.705  17.642  0.8677 -0.2412 -1.0722
 3199SOL     OW21058   4.571   2.850   9.495 -0.1234 -0.0604  0.5578
 3199SOL    HW121059   4.532   2.788   9.557  0.8777 -0.2301  1.0041
 3199SOL    HW221060   4.489   2.879   9.455  0.6378  0.9194 -0.2810
 3200SOL     OW21061   2.108   1.526   6.714  0.5743 -0.1092  0.0545
 3200SOL    HW121062   2.133   1.433   6.713 -1.9095 -0.7815 -3.0859
 3200SOL    HW221063   2.043   1.531   6.643  1.9417  0.5956 -1.1474
 3201SOL     OW21064   2.191   4.239  13.336  0.2684 -0.2428  0.2999
 3201SOL    HW121065   2.249   4.168  13.364  0.5667  0.5360  1.6692
 3201SOL    HW221066   2.217   4.313  13.391 -0.0179 -1.2607  1.8003
 3202SOL     OW21067   0.978   0.576  11.771  0.1281 -0.0205  0.1556
 3202SOL    HW121068   1.031   0.499  11.752 -1.8652 -1.0291 -1.2436
 3202SOL    HW221069   0.993   0.591  11.864  1.1168 -1.4298  0.2175
 3203SOL     OW21070   3.225   3.596   5.513  0.0257  0.0653  0.0476
 3203SOL    HW121071   3.214   3.654   5.589  0.0749  2.8345 -2.0734
 3203SOL    HW221072   3.230   3.509   5.553 -0.2993  1.2164  2.5834
 3204SOL     OW21073   2.965   0.372   5.414 -0.6424  0.2199  0.2278
 3204SOL    HW121074   3.023   0.300   5.438 -1.2046 -0.0647  0.7213
 3204SOL    HW221075   2.951   0.356   5.320  1.6712 -0.1386 -0.0558
 3205SOL     OW21076   1.422   2.898   9.272  0.1276  0.3658 -0.2323
 3205SOL    HW121077   1.501   2.927   9.227  0.8865  1.0487  1.5028
 3205SOL    HW221078   1.373   2.851   9.204  1.4490 -2.3475  0.6965
 3206SOL     OW21079   2.388   2.991   2.081 -0.1417  0.2638 -0.2679
 3206SOL    HW121080   2.469   3.010   2.128  0.3306 -2.2624 -0.0914
 3206SOL    HW221081   2.354   2.926   2.141 -3.0663  1.7761 -0.3012
 3207SOL     OW21082   3.330   1.481   3.448 -0.1412 -0.0038 -0.0348
 3207SOL    HW121083   3.271   1.453   3.378 -2.2705 -0.7553  2.0760
 3207SOL    HW221084   3.273   1.535   3.503  0.0807  0.3960 -0.1975
 3208SOL     OW21085   0.947   2.010  14.687 -0.3518  0.0733  0.4620
 3208SOL    HW121086   1.025   2.063  14.671 -0.4466 -0.3900 -1.5360
 3208SOL    HW221087   0.933   1.971  14.600  0.0854  0.8152  0.0618
 3209SOL     OW21088   3.043   3.328   7.178  0.1381  0.4218 -0.1995
 3209SOL    HW121089   3.123   3.368   7.212  0.5275  1.6102 -2.5477
 3209SOL    HW221090   3.074   3.283   7.099 -1.1934 -0.4661 -0.2038
 3210SOL     OW21091   2.938   3.610   0.463  0.2398  0.7646 -0.2001
 3210SOL    HW121092   2.987   3.566   0.532 -0.8497  3.0754  2.0362
 3210SOL    HW221093   2.946   3.698   0.499  1.6006  0.1181  1.0867
 3211SOL     OW21094   4.070   4.034  13.856  0.2028  0.0363 -0.6534
 3211SOL    HW121095   4.095   3.956  13.905 -0.0213  0.2416 -0.2174
 3211SOL    HW221096   4.043   4.003  13.770 -3.0370 -2.0091  1.1225
 3212SOL     OW21097   3.001   3.603  12.198  0.6031 -0.2104 -0.4440
 3212SOL    HW121098   3.014   3.586  12.291 -0.2691 -5.2597 -1.2832
 3212SOL    HW221099   3.080   3.654  12.180  0.7439 -0.3993 -0.3597
 3213SOL     OW21100   3.467   1.308   7.977  0.0497  0.1000  0.6646
 3213SOL    HW121101   3.410   1.353   8.039 -0.9938 -1.3158  0.7409
 3213SOL    HW221102   3.460   1.215   7.998  0.3967 -0.3330 -1.1480
 3214SOL     OW21103   3.322   2.605  15.715  0.0345 -0.0237  0.0962
 3214SOL    HW121104   3.370   2.527  15.688  1.4211  1.2404 -1.1838
 3214SOL    HW221105   3.239   2.588  15.670 -1.1698  0.3401  2.2045
 3215SOL     OW21106   3.854   2.819   7.445  0.5558  0.7076  0.4007
 3215SOL    HW121107   3.850   2.734   7.489  0.6415 -0.3015 -1.5520
 3215SOL    HW221108   3.812   2.884   7.502 -0.0422  0.6921 -0.0281
 3216SOL     OW21109   0.812   3.321   3.858 -0.3259  0.0591  0.1052
 3216SOL    HW121110   0.758   3.334   3.780 -0.5468  0.3078  0.2986
 3216SOL    HW221111   0.833   3.228   3.859  0.4097  0.2362  1.3454
 3217SOL     OW21112   3.311   3.066   2.225  0.4347 -0.2968 -0.0112
 3217SOL    HW121113   3.288   2.974   2.219  1.4255 -0.5619  0.3261
 3217SOL    HW221114   3.405   3.055   2.209  0.6831  1.4190  0.2795
 3218SOL     OW21115   3.801   3.748   0.956 -0.2383 -0.4058 -0.2906
 3218SOL    HW121116   3.809   3.819   0.892  2.3665  0.6164  1.1640
 3218SOL    HW221117   3.797   3.669   0.902  1.0647 -0.3025 -0.5469
 3219SOL     OW21118   4.119   0.349   2.863 -0.2488  0.3503  0.0420
 3219SOL    HW121119   4.073   0.334   2.781  0.5685 -1.1852 -0.1437
 3219SOL    HW221120   4.182   0.277   2.866  0.9873  1.4368  0.3512
 3220SOL     OW21121   4.473   2.398   1.864 -0.1120 -0.0878  0.6987
 3220SOL    HW121122   4.383   2.368   1.876 -0.0137 -1.0133 -0.9038
 3220SOL    HW221123   4.455   2.478   1.816 -2.9934 -0.5461  1.0406
 3221SOL     OW21124   0.429   3.930   7.572  0.2011  0.1716  0.1725
 3221SOL    HW121125   0.346   3.889   7.595  0.2063  0.0577 -0.0052
 3221SOL    HW221126   0.410   4.022   7.554  0.4858  0.2784  0.4354
 3222SOL     OW21127   4.204   2.056   6.070 -0.6698 -0.1931  0.3320
 3222SOL    HW121128   4.280   2.004   6.097  0.7235  2.3260  1.2513
 3222SOL    HW221129   4.215   2.061   5.975 -0.2953  0.0572  0.3885
 3223SOL     OW21130   3.660   0.941   5.162  0.0502 -0.1867  0.5048
 3223SOL    HW121131   3.696   0.989   5.087 -0.5066 -1.7259 -0.7430
 3223SOL    HW221132   3.592   0.893   5.116  0.3906  0.8486 -1.0753
 3224SOL     OW21133   0.688   1.179   5.121  0.1073 -0.0612 -0.2139
 3224SOL    HW121134   0.715   1.104   5.067  1.5027 -0.2816  0.8136
 3224SOL    HW221135   0.771   1.226   5.122  0.5227 -0.7594 -1.5888
 3225SOL     OW21136   2.257   4.334   4.478  0.0018 -0.0600  0.0046
 3225SOL    HW121137   2.312   4.412   4.479 -0.9773  0.6333 -1.5966
 3225SOL    HW221138   2.300   4.275   4.541 -0.8910 -0.7159 -0.0008
 3226SOL     OW21139   0.711   0.158  13.471  0.1837  0.4858  0.1706
 3226SOL    HW121140   0.746   0.246  13.459 -0.1446  0.8283  1.7352
 3226SOL    HW221141   0.780   0.119  13.524 -0.1522 -0.9635 -0.4606
 3227SOL     OW21142   0.874   3.419   9.424 -0.2525 -0.5169 -0.9099
 3227SOL    HW121143   0.840   3.371   9.348 -0.5417 -2.5488  0.4954
 3227SOL    HW221144   0.865   3.345   9.484 -1.3214 -0.3360 -0.8523
 3228SOL     OW21145   4.548   1.903   5.342  0.0918 -0.1653 -0.1290
 3228SOL    HW121146   4.459   1.915   5.309 -0.4590 -0.8862  1.0939
 3228SOL    HW221147   4.559   1.988   5.385 -1.9653 -0.3259  0.6920
 3229SOL     OW21148   0.119   2.815   0.708 -0.0593 -0.0084  0.2294
 3229SOL    HW121149   0.214   2.826   0.704 -0.2292  1.3876 -0.2375
 3229SOL    HW221150   0.096   2.812   0.801  1.3725  1.3007  0.6318
 3230SOL     OW21151   4.520   3.969   6.047 -0.0131  0.1496 -0.1704
 3230SOL    HW121152   4.535   3.885   6.091  1.8652  0.8339  0.4692
 3230SOL    HW221153   4.523   3.944   5.955  0.5993  3.3036 -1.0032
 3231SOL     OW21154   1.201   1.852   5.290 -0.0189 -0.3776  0.7289
 3231SOL    HW121155   1.277   1.876   5.238 -0.1780 -0.5860  0.4048
 3231SOL    HW221156   1.193   1.939   5.329  0.5686 -0.9660  2.1742
 3232SOL     OW21157   4.112   4.367   4.163  0.1404 -0.3223 -0.4446
 3232SOL    HW121158   4.091   4.274   4.172 -0.8887 -0.1402 -0.9897
 3232SOL    HW221159   4.205   4.348   4.150 -0.1119 -1.0629 -1.1598
 3233SOL     OW21160   2.749   1.332  10.263 -0.5301 -0.2300  0.0785
 3233SOL    HW121161   2.827   1.322  10.209 -1.3723  0.1528 -1.1939
 3233SOL    HW221162   2.691   1.362  10.194 -0.0053 -0.8963 -0.6549
 3234SOL     OW21163   2.942   3.084   3.162  0.3512  0.2548 -0.2665
 3234SOL    HW121164   2.924   3.102   3.254  0.9886  1.9930 -0.4769
 3234SOL    HW221165   3.038   3.083   3.160  0.3637  1.2230 -0.2376
 3235SOL     OW21166   4.378   2.859   2.735  0.3355  0.0572  0.2710
 3235SOL    HW121167   4.350   2.905   2.814  1.9824  0.9817  0.3257
 3235SOL    HW221168   4.298   2.864   2.684 -1.1113 -0.0932  2.5303
 3236SOL     OW21169   1.497   3.345  13.552 -0.2261  0.4175  0.0815
 3236SOL    HW121170   1.479   3.298  13.470  0.2765  1.3721 -0.5764
 3236SOL    HW221171   1.582   3.380  13.523  0.2021 -0.7099 -0.0296
 3237SOL     OW21172   1.919   1.860   7.669 -0.0088 -0.3007  0.0938
 3237SOL    HW121173   1.849   1.916   7.701 -0.2566  1.2600 -3.1704
 3237SOL    HW221174   1.993   1.877   7.728  2.0976 -0.9907 -2.3387
 3238SOL     OW21175   0.036   3.571   7.587 -0.1014  0.1954 -0.4066
 3238SOL    HW121176   4.702   3.500   7.562  1.1094 -1.2874  0.9603
 3238SOL    HW221177   0.077   3.578   7.500  1.6231 -2.2805  0.2196
 3239SOL     OW21178   3.013   3.402  10.599 -0.0394 -0.0888  0.0820
 3239SOL    HW121179   2.927   3.437  10.574  0.4102  2.1622  1.6629
 3239SOL    HW221180   3.063   3.428  10.521  0.2297 -1.2388 -0.1245
 3240SOL     OW21181   0.970   4.388   1.885  0.0166 -0.3455  0.0681
 3240SOL    HW121182   0.900   4.451   1.903 -0.1866 -0.9546  1.4583
 3240SOL    HW221183   0.923   4.311   1.852 -3.4419  1.9682 -0.4072
 3241SOL     OW21184   3.929   0.400   4.433 -0.2447 -0.5426 -0.3710
 3241SOL    HW121185   3.877   0.395   4.514 -2.1598 -2.2083 -1.6980
 3241SOL    HW221186   3.902   0.483   4.393  1.4358 -0.4254 -1.2417
 3242SOL     OW21187   2.504   1.729   2.235  0.0501 -0.4120  0.1443
 3242SOL    HW121188   2.569   1.698   2.172 -0.1084  0.5718 -0.4958
 3242SOL    HW221189   2.536   1.686   2.315 -1.6213  0.7530  1.4281
 3243SOL     OW21190   3.532   0.185   1.686  0.1971 -0.4732 -0.6305
 3243SOL    HW121191   3.443   0.152   1.669 -0.8727  2.1110 -0.1021
 3243SOL    HW221192   3.516   0.243   1.760  1.1571  0.2438 -0.9905
 3244SOL     OW21193   0.645   3.931   0.823  0.5351  0.0753 -0.2634
 3244SOL    HW121194   0.632   3.865   0.892  2.3938  0.3655  0.3516
 3244SOL    HW221195   0.600   4.007   0.859 -0.4317  0.0737 -1.4576
 3245SOL     OW21196   2.043   3.362   2.481  0.1804  0.2286 -0.2651
 3245SOL    HW121197   1.974   3.398   2.536  0.2714  0.2617 -0.1736
 3245SOL    HW221198   1.989   3.296   2.438 -2.6650  2.2143  0.2927
 3246SOL     OW21199   2.659   1.266   8.666 -0.1502  0.1946 -0.7011
 3246SOL    HW121200   2.695   1.314   8.740 -1.9570 -2.0966  1.6451
 3246SOL    HW221201   2.598   1.206   8.709  3.1046 -2.2024  0.5018
 3247SOL     OW21202   2.046   0.940   6.057  0.2199 -0.1963  0.8359
 3247SOL    HW121203   2.125   0.946   6.111 -0.1874 -0.5055  1.4666
 3247SOL    HW221204   2.041   0.849   6.029  0.5148 -0.4218  1.5127
 3248SOL     OW21205   1.659   0.516   7.080  0.4656  0.3040  0.2403
 3248SOL    HW121206   1.608   0.532   7.000 -1.3556 -2.9135  0.7755
 3248SOL    HW221207   1.750   0.526   7.050  1.1467 -0.5949  2.0561
 3249SOL     OW21208   2.225   1.347  14.288  0.1287  0.0468 -0.1079
 3249SOL    HW121209   2.268   1.344  14.202  1.0265 -0.3432  0.3566
 3249SOL    HW221210   2.213   1.441  14.298 -0.2983  0.0248 -0.4157
 3250SOL     OW21211   2.701   0.180   0.151  0.4042 -0.1474 -0.3715
 3250SOL    HW121212   2.717   0.198   0.244 -0.0629 -0.2959 -0.2631
 3250SOL    HW221213   2.621   0.228   0.129 -0.3679 -1.5798 -0.6773
 3251SOL     OW21214   1.859   0.435   3.068  0.0483 -0.1821 -0.4263
 3251SOL    HW121215   1.796   0.461   3.000  0.8585 -0.6934 -1.3660
 3251SOL    HW221216   1.882   0.524   3.093 -1.6137  0.1777 -0.1849
 3252SOL     OW21217   0.051   0.105   9.272  0.1409 -0.4563  0.1047
 3252SOL    HW121218   0.034   0.011   9.268  1.9554 -0.7050 -1.3439
 3252SOL    HW221219   0.014   0.132   9.188 -1.3618 -2.1425  0.1999
 3253SOL     OW21220   1.137   0.416   2.177  0.4783 -0.0648  0.8226
 3253SOL    HW121221   1.102   0.501   2.206 -2.6691 -1.2984  0.5611
 3253SOL    HW221222   1.068   0.388   2.118 -0.2173  1.7776  0.7458
 3254SOL     OW21223   4.145   2.503   2.437  0.0404 -0.7486 -0.4121
 3254SOL    HW121224   4.236   2.474   2.438 -0.1584 -1.3152  1.3814
 3254SOL    HW221225   4.136   2.530   2.345  0.5434 -1.0889 -0.5587
 3255SOL     OW21226   4.473   0.358  17.373  0.4512  0.1875 -0.1932
 3255SOL    HW121227   4.460   0.364  17.468 -0.0214 -1.9224 -0.1350
 3255SOL    HW221228   4.442   0.443  17.341 -0.0902 -0.1917 -0.6700
 3256SOL     OW21229   3.094   2.528   0.317 -0.4588 -0.4487 -0.0683
 3256SOL    HW121230   3.028   2.512   0.384  1.3894  1.9735  2.3190
 3256SOL    HW221231   3.162   2.568   0.370 -0.7231  2.8676 -2.2375
 3257SOL     OW21232   0.816   4.712  10.343  0.1471 -0.0712  0.1158
 3257SOL    HW121233   0.762   0.066  10.336  2.4087  1.6815  2.0444
 3257SOL    HW221234   0.828   4.718  10.438 -0.4857  1.6282  0.0959
 3258SOL     OW21235   0.958   0.302  11.423  0.0731  0.1810  0.6474
 3258SOL    HW121236   1.003   0.217  11.420  1.1995  0.9136 -3.2343
 3258SOL    HW221237   1.004   0.342  11.497 -0.1728 -0.8524  1.3710
 3259SOL     OW21238   2.400   3.341   2.276  0.1580 -0.1871  0.4664
 3259SOL    HW121239   2.329   3.281   2.299  0.3375 -0.8770 -0.7657
 3259SOL    HW221240   2.469   3.318   2.337  0.2598  2.3540  1.3247
 3260SOL     OW21241   1.815   0.279   8.027 -0.2071 -0.4207  0.7957
 3260SOL    HW121242   1.796   0.345   8.093  0.3212  1.1269 -0.6075
 3260SOL    HW221243   1.812   0.329   7.945 -3.4743  0.1308  1.2452
 3261SOL     OW21244   2.202   2.388  10.998 -0.0072  0.2039  0.0718
 3261SOL    HW121245   2.122   2.430  10.968  0.8227  0.8587 -1.2194
 3261SOL    HW221246   2.188   2.297  10.974 -2.9281  0.4920  0.6937
 3262SOL     OW21247   3.922   1.440   5.782  0.0857 -0.2080 -0.2610
 3262SOL    HW121248   3.981   1.400   5.717  0.2733  0.3386 -0.4306
 3262SOL    HW221249   3.864   1.370   5.813  0.2603  0.9693  2.6952
 3263SOL     OW21250   2.491   1.791   6.392  0.1798  0.3750 -0.5177
 3263SOL    HW121251   2.509   1.707   6.435  2.0402  1.1049  0.1234
 3263SOL    HW221252   2.406   1.767   6.356  0.1879  0.1814 -0.4095
 3264SOL     OW21253   3.280   1.311   5.268  0.5237 -0.2242 -0.3969
 3264SOL    HW121254   3.273   1.378   5.200 -0.5132  1.2679  1.1534
 3264SOL    HW221255   3.373   1.296   5.283  0.6948 -0.1087 -1.3704
 3265SOL     OW21256   4.725   2.948   2.881  0.6687 -0.7353  0.0892
 3265SOL    HW121257   0.095   2.948   2.891  0.6568 -1.6735  0.2117
 3265SOL    HW221258   4.710   2.998   2.801  0.0930  0.2734  0.8228
 3266SOL     OW21259   1.682   0.571   2.919 -0.4862 -0.4787  0.7717
 3266SOL    HW121260   1.631   0.638   2.963  0.8541  1.6383 -0.8853
 3266SOL    HW221261   1.611   0.518   2.884  0.9192  0.1877 -3.1459
 3267SOL     OW21262   0.219   0.884  12.935  0.3437 -0.4674 -0.2032
 3267SOL    HW121263   0.224   0.878  12.840 -0.8347 -1.3970 -0.2084
 3267SOL    HW221264   0.312   0.885  12.955  0.1507 -1.3306  0.6986
 3268SOL     OW21265   1.489   0.360   6.032  0.0155  0.3354  0.2358
 3268SOL    HW121266   1.432   0.382   5.958  1.0072 -0.3309 -0.7354
 3268SOL    HW221267   1.457   0.417   6.102  0.8269  0.6676  0.3362
 3269SOL     OW21268   0.337   4.176   1.232  0.2042  0.0918 -0.0894
 3269SOL    HW121269   0.431   4.157   1.234  0.3772  0.6759 -2.5591
 3269SOL    HW221270   0.319   4.192   1.139 -0.3524  0.0344  0.0149
 3270SOL     OW21271   2.563   3.468   0.938 -1.0289 -0.4459  0.0561
 3270SOL    HW121272   2.643   3.519   0.949 -3.5290  3.8468 -1.4380
 3270SOL    HW221273   2.515   3.525   0.878 -0.3745 -0.4868 -0.4959
 3271SOL     OW21274   4.701   0.450   1.966 -0.3380  0.1510 -0.6325
 3271SOL    HW121275   4.682   0.470   2.058 -0.2017 -0.2877 -0.5107
 3271SOL    HW221276   4.715   0.538   1.931 -0.7976  0.6143  0.3273
 3272SOL     OW21277   1.004   3.200   2.932 -0.3016 -0.0111  0.2374
 3272SOL    HW121278   0.943   3.132   2.958  1.2663 -1.2695  0.6652
 3272SOL    HW221279   1.000   3.195   2.836  2.3364 -0.0211  0.1091
 3273SOL     OW21280   1.053   2.057   9.074  0.4341 -0.6448 -0.4086
 3273SOL    HW121281   0.968   2.095   9.049  0.3021  0.5452  1.8245
 3273SOL    HW221282   1.044   1.968   9.108  4.1627 -1.3102 -1.1710
 3274SOL     OW21283   2.246   1.943  10.761  0.1766 -0.4713  0.2586
 3274SOL    HW121284   2.337   1.916  10.750  0.0269 -1.0186  0.3892
 3274SOL    HW221285   2.221   1.952  10.669 -1.6357  0.9799  0.8956
 3275SOL     OW21286   3.763   1.264   3.388 -0.4462 -0.3924 -0.2320
 3275SOL    HW121287   3.781   1.171   3.379 -1.3103 -0.7707  1.8075
 3275SOL    HW221288   3.675   1.276   3.354 -0.9672  3.3635  2.4105
 3276SOL     OW21289   0.391   4.506   8.409 -0.5223  0.3076 -0.0740
 3276SOL    HW121290   0.399   4.440   8.478  2.2603  1.3641  0.6237
 3276SOL    HW221291   0.454   4.480   8.341 -1.7905  0.7519 -1.4287
 3277SOL     OW21292   4.721   3.672  17.474  0.5053 -0.9448 -0.1688
 3277SOL    HW121293   4.663   3.744  17.449 -1.7894 -2.6566  0.2361
 3277SOL    HW221294   0.082   3.713  17.483 -1.2847  2.5931  0.7513
 3278SOL     OW21295   1.347   3.371   8.714  0.3208  0.1783  0.4744
 3278SOL    HW121296   1.283   3.396   8.649  0.4021  1.9779  1.0822
 3278SOL    HW221297   1.430   3.362   8.667  0.4845  2.1903  0.3559
 3279SOL     OW21298   1.929   0.134   0.287  0.3716  0.6335  0.2001
 3279SOL    HW121299   1.834   0.125   0.276  0.3418 -1.5074  2.2930
 3279SOL    HW221300   1.961   0.108   0.201 -0.9027 -0.1386 -0.0458
 3280SOL     OW21301   4.032   4.340   1.548 -0.1620 -0.8018 -0.0149
 3280SOL    HW121302   4.081   4.282   1.606 -0.1386 -2.2321 -1.4406
 3280SOL    HW221303   3.968   4.274   1.521 -0.4008 -0.5950  0.0466
 3281SOL     OW21304   2.150   2.233   7.493 -0.2740 -0.1828 -0.2078
 3281SOL    HW121305   2.223   2.291   7.472 -0.8451  1.0913  1.3454
 3281SOL    HW221306   2.184   2.145   7.478 -1.7906 -0.2342 -3.4005
 3282SOL     OW21307   1.323   1.095   6.574 -0.4689 -0.3078  0.5886
 3282SOL    HW121308   1.385   1.157   6.612  0.4230 -1.0098  0.2941
 3282SOL    HW221309   1.321   1.016   6.628  1.2352 -0.0715  0.9853
 3283SOL     OW21310   1.809   1.633  16.482 -0.1058  0.2393  0.3167
 3283SOL    HW121311   1.871   1.706  16.478  0.4054 -0.1981  0.3641
 3283SOL    HW221312   1.771   1.644  16.394  1.0060 -1.3837 -0.3630
 3284SOL     OW21313   4.180   1.655  11.318 -0.1110  0.4117 -0.6234
 3284SOL    HW121314   4.092   1.646  11.355  0.5962  0.9265  1.1763
 3284SOL    HW221315   4.242   1.621  11.383  1.1465 -1.3492 -2.7584
 3285SOL     OW21316   1.092   3.923   5.101 -0.3806 -0.3032 -0.3472
 3285SOL    HW121317   1.009   3.876   5.103 -0.1706 -0.6962 -0.7981
 3285SOL    HW221318   1.074   3.976   5.178  0.3743  0.3315 -0.6043
 3286SOL     OW21319   4.495   1.769   5.049 -0.0758 -0.1598 -0.2660
 3286SOL    HW121320   4.510   1.829   5.122 -0.3340 -0.4889  0.0519
 3286SOL    HW221321   4.541   1.808   4.975  1.7967  0.2543  1.1200
 3287SOL     OW21322   2.836   0.839   7.177 -0.1978  0.3842 -0.2021
 3287SOL    HW121323   2.765   0.817   7.117 -0.1410 -1.2847  0.3558
 3287SOL    HW221324   2.825   0.782   7.253 -3.1601  1.7477  0.4116
 3288SOL     OW21325   2.376   0.589   3.642 -0.4108 -0.0106 -0.2566
 3288SOL    HW121326   2.452   0.541   3.674  0.1506  0.6078 -0.6617
 3288SOL    HW221327   2.330   0.546   3.570 -1.8149 -0.0655  0.6611
 3289SOL     OW21328   4.347   2.457   8.090  0.5865  0.0928 -0.4409
 3289SOL    HW121329   4.383   2.544   8.072  0.5183  0.7318  2.4961
 3289SOL    HW221330   4.408   2.425   8.157  0.8156  0.6656 -0.3686
 3290SOL     OW21331   0.781   0.503   8.589 -0.2801  0.1948 -0.4003
 3290SOL    HW121332   0.845   0.435   8.567 -1.9928 -1.4930 -0.2181
 3290SOL    HW221333   0.708   0.481   8.531 -0.2000  2.5103 -1.3651
 3291SOL     OW21334   2.806   3.801   8.411  0.0887 -0.2570 -0.2200
 3291SOL    HW121335   2.811   3.705   8.406  3.8669 -0.0504 -0.9237
 3291SOL    HW221336   2.882   3.821   8.466 -0.4279 -1.3265  0.8784
 3292SOL     OW21337   2.494   3.422   5.356  0.0044  0.4446  0.5296
 3292SOL    HW121338   2.548   3.467   5.290 -1.4897  3.3286  1.2702
 3292SOL    HW221339   2.443   3.372   5.293  2.0151 -0.7446 -0.1808
 3293SOL     OW21340   0.141   3.898   1.694 -0.1888  0.3641 -0.4716
 3293SOL    HW121341   0.062   3.845   1.705  0.1236  0.7701  3.5636
 3293SOL    HW221342   0.203   3.847   1.746  0.2159 -0.8915 -2.1997
 3294SOL     OW21343   2.873   1.475   9.945  0.1608  0.1724  0.7019
 3294SOL    HW121344   2.856   1.562   9.980  0.1098  1.4596 -2.4615
 3294SOL    HW221345   2.917   1.428  10.016 -0.5744 -0.2183  0.9060
 3295SOL     OW21346   0.634   2.104   7.997  0.3932  0.8573  0.6462
 3295SOL    HW121347   0.698   2.166   8.031  0.2366  1.7264 -0.6386
 3295SOL    HW221348   0.603   2.055   8.073  1.3058 -1.6915 -0.6451
 3296SOL     OW21349   2.142   2.536   8.877  0.2090 -0.7054  0.0433
 3296SOL    HW121350   2.085   2.589   8.933  1.1042 -0.2151  0.5021
 3296SOL    HW221351   2.133   2.585   8.796  0.4255  0.4036  0.6782
 3297SOL     OW21352   3.610   2.363   9.736 -0.4852  0.0441  0.2942
 3297SOL    HW121353   3.541   2.309   9.774 -0.8112 -0.7557 -1.4502
 3297SOL    HW221354   3.558   2.419   9.678 -3.0295 -2.9484 -0.3148
 3298SOL     OW21355   3.273   1.343  12.721  0.2858  0.0486 -0.1741
 3298SOL    HW121356   3.326   1.310  12.648 -0.3842 -0.5926 -0.3756
 3298SOL    HW221357   3.215   1.403  12.675 -2.3168 -2.1644  0.2113
 3299SOL     OW21358   4.110   4.575   8.196  0.1455 -0.0862  0.4769
 3299SOL    HW121359   4.201   4.598   8.216  0.0185 -1.0393  2.1270
 3299SOL    HW221360   4.085   4.528   8.276  0.2732 -0.4643  0.2936
 3300SOL     OW21361   0.381   1.010   3.637 -0.1782  0.7136  0.1544
 3300SOL    HW121362   0.403   0.979   3.725 -1.6074 -1.9290 -0.4257
 3300SOL    HW221363   0.449   1.078   3.637 -0.3886  0.9191 -0.3584
 3301SOL     OW21364   3.641   2.332   8.557 -0.3179  0.1797 -0.6374
 3301SOL    HW121365   3.615   2.342   8.648  0.8518  0.8822 -0.3762
 3301SOL    HW221366   3.688   2.249   8.550 -1.5995 -0.6558  0.7601
 3302SOL     OW21367   2.472   1.643   2.879  0.3158 -0.4875 -0.0865
 3302SOL    HW121368   2.546   1.610   2.829  0.3299 -0.7466  0.1042
 3302SOL    HW221369   2.413   1.568   2.887  0.7493 -0.7513  0.7254
 3303SOL     OW21370   2.847   3.981   9.163  0.4094 -0.3164 -0.0583
 3303SOL    HW121371   2.756   4.002   9.186  1.0563  0.4671  1.8031
 3303SOL    HW221372   2.889   3.957   9.245  0.3301  0.9663  0.3644
 3304SOL     OW21373   1.150   3.962   0.300  0.7211  0.1709  0.1434
 3304SOL    HW121374   1.121   3.970   0.209  3.2366 -0.1855 -0.6918
 3304SOL    HW221375   1.230   3.910   0.289  0.6736  0.1198  0.0425
 3305SOL     OW21376   4.094   1.087   6.990 -0.1605  0.6125  0.2887
 3305SOL    HW121377   4.180   1.129   6.992  1.1758 -2.1626  0.6549
 3305SOL    HW221378   4.120   1.001   6.958  0.5203  0.5009  1.1644
 3306SOL     OW21379   2.688   3.428   2.047  0.1482 -0.3093  0.2411
 3306SOL    HW121380   2.764   3.369   2.046  0.2095 -0.2312  0.2450
 3306SOL    HW221381   2.680   3.447   2.140  1.9963  1.3836  0.0669
 3307SOL     OW21382   3.355   1.443  12.411 -0.2521  0.2035 -0.1954
 3307SOL    HW121383   3.387   1.369  12.463 -1.3960 -0.5705 -0.5915
 3307SOL    HW221384   3.414   1.430  12.337 -1.1305  2.0965 -1.2218
 3308SOL     OW21385   0.399   4.137  10.740  0.9699  0.3598 -0.4858
 3308SOL    HW121386   0.388   4.217  10.792 -0.0565 -0.2640  0.2609
 3308SOL    HW221387   0.317   4.092  10.763  1.2475 -0.4207 -1.0135
 3309SOL     OW21388   4.036   2.143   4.021  0.0457  0.2892  0.2422
 3309SOL    HW121389   3.948   2.175   4.039  0.1451  0.7033  0.0001
 3309SOL    HW221390   4.048   2.189   3.938  2.8845  0.1662  0.5779
 3310SOL     OW21391   0.285   2.195   5.532 -0.5673  0.1677 -0.1895
 3310SOL    HW121392   0.364   2.246   5.548 -0.5082 -0.2411  0.8123
 3310SOL    HW221393   0.278   2.146   5.614  0.5863  1.5646  0.7371
 3311SOL     OW21394   2.907   0.356  16.105  0.5593 -0.6221 -0.4909
 3311SOL    HW121395   2.941   0.365  16.016 -1.4261 -0.4799 -1.2271
 3311SOL    HW221396   2.981   0.381  16.160 -0.5681  0.5368  0.4967
 3312SOL     OW21397   1.066   0.172  17.300 -0.0245 -0.0058  0.0953
 3312SOL    HW121398   1.151   0.171  17.255  0.9567 -0.1473  1.9737
 3312SOL    HW221399   1.024   0.096  17.260 -1.3160  0.8459 -0.1517
 3313SOL     OW21400   3.905   0.567   8.972  0.1371 -0.0210  0.2137
 3313SOL    HW121401   3.833   0.614   9.013  0.2013 -1.0157  1.4852
 3313SOL    HW221402   3.854   0.549   8.894  0.3686  0.9244 -0.1543
 3314SOL     OW21403   4.627   3.781   5.482  0.1595 -0.1681  0.5064
 3314SOL    HW121404   4.588   3.825   5.558  0.5362  0.3786  0.3840
 3314SOL    HW221405   4.663   3.858   5.438 -0.0313 -1.4155 -1.8426
 3315SOL     OW21406   4.098   4.438   3.803 -0.0469  0.1336  0.2248
 3315SOL    HW121407   4.070   4.475   3.719  1.4192  0.3314 -0.1798
 3315SOL    HW221408   4.117   4.519   3.851  0.6749 -1.1759  2.1765
 3316SOL     OW21409   0.132   3.696   2.614  0.0862 -0.1988  0.6206
 3316SOL    HW121410   0.137   3.756   2.539  0.2668 -0.2106  0.6226
 3316SOL    HW221411   0.100   3.748   2.687  0.9288  1.2060 -0.0093
 3317SOL     OW21412   3.394   3.747   3.471  0.2024 -0.1405 -0.0771
 3317SOL    HW121413   3.317   3.781   3.426 -0.6400 -2.1815 -0.1965
 3317SOL    HW221414   3.400   3.663   3.424  1.3628 -0.2566  0.2591
 3318SOL     OW21415   1.449   3.158  16.300 -0.7313 -0.0830 -0.2633
 3318SOL    HW121416   1.453   3.202  16.216 -1.9348  1.6527  0.5940
 3318SOL    HW221417   1.442   3.068  16.267 -1.0478  0.1231 -0.7546
 3319SOL     OW21418   1.036   4.586  14.913 -0.5810  0.4827  0.7369
 3319SOL    HW121419   0.943   4.601  14.896 -0.7390 -0.2533  0.9884
 3319SOL    HW221420   1.035   4.508  14.967 -1.6148  1.1932  1.7385
 3320SOL     OW21421   2.138   0.622  11.314  0.1259  0.0459 -0.6821
 3320SOL    HW121422   2.134   0.568  11.393  2.7503 -0.5566 -0.9515
 3320SOL    HW221423   2.136   0.713  11.344 -4.1493  0.6923 -2.8606
 3321SOL     OW21424   0.428   0.253   5.055 -0.4855  0.0661 -0.3865
 3321SOL    HW121425   0.439   0.235   5.148  1.4923  0.9974 -0.4566
 3321SOL    HW221426   0.386   0.338   5.068 -1.9550 -0.4566 -1.6926
 3322SOL     OW21427   0.980   1.719   3.113 -0.2230 -0.1777 -0.4908
 3322SOL    HW121428   0.900   1.770   3.104  2.1896  3.5010 -0.8006
 3322SOL    HW221429   1.044   1.756   3.053  2.3158 -0.1850  2.2252
 3323SOL     OW21430   3.987   0.076  11.370  0.4733 -0.0004 -0.0082
 3323SOL    HW121431   4.029   0.071  11.456 -1.1696 -0.6578  0.7464
 3323SOL    HW221432   4.063   0.048  11.318  1.6139  1.1945  0.9875
 3324SOL     OW21433   3.311   2.372   5.163  0.2373 -0.1378 -0.0106
 3324SOL    HW121434   3.220   2.341   5.154  0.6335 -0.8462 -1.5656
 3324SOL    HW221435   3.338   2.336   5.248  3.5360  0.8763 -0.6341
 3325SOL     OW21436   2.667   2.881   3.955  0.0087 -0.1850 -0.2157
 3325SOL    HW121437   2.608   2.813   3.923 -0.5128 -0.1592  0.6710
 3325SOL    HW221438   2.641   2.950   3.894  1.9757  0.9068  0.1605
 3326SOL     OW21439   1.347   2.846   2.321  0.0961  0.2586 -0.4137
 3326SOL    HW121440   1.332   2.797   2.240  0.4601 -0.2376 -0.1837
 3326SOL    HW221441   1.339   2.934   2.284 -0.2541  1.6103  2.8918
 3327SOL     OW21442   3.195   2.178   7.022  0.2914  0.0312 -0.2447
 3327SOL    HW121443   3.195   2.116   7.094 -1.2769  0.8487  0.4675
 3327SOL    HW221444   3.263   2.239   7.052  3.0243 -2.0514 -2.2300
 3328SOL     OW21445   3.650   2.650   5.683  0.3279  0.0469 -0.0049
 3328SOL    HW121446   3.556   2.661   5.673  0.3788 -0.6871 -1.2421
 3328SOL    HW221447   3.670   2.562   5.716 -1.2465 -0.3481 -0.1075
 3329SOL     OW21448   1.975   4.720   3.009 -0.3939 -0.7386  0.0098
 3329SOL    HW121449   2.011   0.079   3.035  1.8946 -1.8152  0.3005
 3329SOL    HW221450   2.043   4.655   3.027  0.9055  0.9383  1.1785
 3330SOL     OW21451   3.770   1.861   3.632  0.7507 -0.2175 -0.3562
 3330SOL    HW121452   3.783   1.862   3.727 -1.4697 -2.5027 -0.0217
 3330SOL    HW221453   3.767   1.956   3.616 -0.0120 -0.0249  0.9575
 3331SOL     OW21454   2.164   3.995  17.395  0.5392  0.2124  0.3778
 3331SOL    HW121455   2.234   3.943  17.435  0.7966 -0.5000 -0.9980
 3331SOL    HW221456   2.104   4.005  17.469 -0.6956  0.2490 -0.6317
 3332SOL     OW21457   4.324   0.534   7.485  0.1787 -0.0626 -0.0997
 3332SOL    HW121458   4.316   0.442   7.457 -0.0302  0.0289 -0.3410
 3332SOL    HW221459   4.267   0.578   7.422 -1.4494 -0.8446  0.8137
 3333SOL     OW21460   4.589   2.335  16.125 -0.1951 -0.4106  0.2686
 3333SOL    HW121461   4.620   2.362  16.039  0.6918 -0.7939  0.4614
 3333SOL    HW221462   4.521   2.399  16.146 -0.6188 -0.8666  0.3084
 3334SOL     OW21463   1.845   0.203  12.401  0.1766 -0.4746 -0.7613
 3334SOL    HW121464   1.854   0.111  12.377 -2.9775 -0.8806 -0.2678
 3334SOL    HW221465   1.936   0.231  12.385  0.6491 -1.4584  0.1551
 3335SOL     OW21466   1.160   0.615   6.165  0.0628 -0.4387  0.2447
 3335SOL    HW121467   1.185   0.646   6.078  0.5300 -0.9085  0.2130
 3335SOL    HW221468   1.080   0.664   6.185  0.1029  0.6284 -2.1415
 3336SOL     OW21469   4.250   1.240   7.181  0.0168 -0.1493  0.0690
 3336SOL    HW121470   4.325   1.185   7.160 -0.4355 -0.6658 -0.1923
 3336SOL    HW221471   4.268   1.315   7.124  3.1847 -0.5893  0.5022
 3337SOL     OW21472   1.719   0.540   4.990  0.0360 -0.2043  0.3077
 3337SOL    HW121473   1.739   0.633   4.999  1.2598 -0.3224 -1.0438
 3337SOL    HW221474   1.763   0.510   5.069  0.5749 -1.4264 -0.4616
 3338SOL     OW21475   0.486   3.141   3.806 -0.0948  0.2405  0.6509
 3338SOL    HW121476   0.521   3.069   3.753  0.6639  1.9990 -1.2088
 3338SOL    HW221477   0.480   3.216   3.747 -2.2472 -0.9966 -0.7100
 3339SOL     OW21478   4.565   2.837   6.975  0.2262  0.0982 -0.3619
 3339SOL    HW121479   4.627   2.849   7.047 -0.1874 -1.8994  0.3357
 3339SOL    HW221480   4.503   2.772   7.008  0.5459  0.3273  0.6859
 3340SOL     OW21481   0.798   4.699   5.248 -0.1630  0.8266  0.1445
 3340SOL    HW121482   0.850   4.649   5.185 -1.4345 -0.6745  0.2837
 3340SOL    HW221483   0.710   4.663   5.240  0.3075  0.0839 -1.8742
 3341SOL     OW21484   4.398   3.215   4.629  0.0845 -0.2645 -0.5794
 3341SOL    HW121485   4.390   3.296   4.680 -1.4992 -1.3123  0.8252
 3341SOL    HW221486   4.332   3.166   4.677 -0.2166  0.0472 -0.6676
 3342SOL     OW21487   0.007   1.707   8.579  0.0052 -0.1510 -0.6224
 3342SOL    HW121488   4.669   1.779   8.575  1.3095  0.9335 -1.6160
 3342SOL    HW221489   4.663   1.644   8.597 -0.6325  0.6827 -0.1460
 3343SOL     OW21490   1.177   0.146   5.347 -0.0127  0.3805  0.8728
 3343SOL    HW121491   1.129   0.099   5.279 -0.3642  1.8675  0.1058
 3343SOL    HW221492   1.239   0.201   5.298  0.7632 -0.7382  0.5928
 3344SOL     OW21493   0.120   0.291  13.202  0.2292  0.0337  0.2648
 3344SOL    HW121494   0.191   0.233  13.173  0.4689  2.4810 -4.0428
 3344SOL    HW221495   0.043   0.234  13.199 -0.6326  1.1959  0.2212
 3345SOL     OW21496   1.597   0.091  15.985 -0.1972  1.4084 -0.2401
 3345SOL    HW121497   1.580   0.185  15.983 -0.4844  1.3517 -0.5618
 3345SOL    HW221498   1.578   0.081  16.078  1.8162 -1.2014 -0.1217
 3346SOL     OW21499   2.131   2.840   5.916  0.4635 -1.0440 -0.0677
 3346SOL    HW121500   2.179   2.916   5.883  0.9742 -0.6603  1.6007
 3346SOL    HW221501   2.043   2.860   5.884 -0.0370  1.4746  3.0101
 3347SOL     OW21502   3.307   2.209   4.443 -0.3588 -0.1146 -0.4367
 3347SOL    HW121503   3.343   2.200   4.355  0.0556 -1.0332 -0.1783
 3347SOL    HW221504   3.391   2.210   4.491  0.3933  3.4844 -1.8558
 3348SOL     OW21505   1.181   3.878  11.586 -0.2492 -0.1621  0.2036
 3348SOL    HW121506   1.196   3.832  11.668  2.1345  1.2592  0.5878
 3348SOL    HW221507   1.090   3.903  11.599 -1.2233 -3.5674 -0.2188
 3349SOL     OW21508   0.995   0.522   3.617 -0.2947 -0.5511 -0.2739
 3349SOL    HW121509   0.947   0.537   3.535  0.7125 -1.4218 -1.0182
 3349SOL    HW221510   1.020   0.430   3.607  1.5680 -0.2250  1.6460
 3350SOL     OW21511   0.908   2.933   4.638 -0.0770  0.6853  0.0891
 3350SOL    HW121512   0.949   2.870   4.578 -1.0823  0.3756 -0.2597
 3350SOL    HW221513   0.882   2.998   4.572 -0.6808  0.3787  0.0330
 3351SOL     OW21514   4.302   1.077   8.830  0.0187 -0.1156 -0.3120
 3351SOL    HW121515   4.249   0.998   8.839  0.4556 -0.6236 -2.0242
 3351SOL    HW221516   4.350   1.062   8.748 -0.7218 -1.6320 -0.4642
 3352SOL     OW21517   3.504   3.407  10.282  0.0032 -0.0689 -0.5474
 3352SOL    HW121518   3.469   3.424  10.370 -0.6165 -0.7098 -0.6695
 3352SOL    HW221519   3.536   3.492  10.253 -0.1518  0.9252  2.1239
 3353SOL     OW21520   2.248   2.527   8.390  0.1177  0.6999  0.6563
 3353SOL    HW121521   2.271   2.459   8.453 -1.3081 -2.7386 -2.5443
 3353SOL    HW221522   2.154   2.507   8.392 -0.2702  2.3484 -1.6564
 3354SOL     OW21523   2.707   4.019   7.902 -0.6395 -0.1908  0.6054
 3354SOL    HW121524   2.727   3.938   7.855  0.1560 -1.2090  2.6581
 3354SOL    HW221525   2.688   3.979   7.988 -0.1825 -0.9121  0.3701
 3355SOL     OW21526   2.911   2.886  16.337 -0.1005 -0.4063 -0.8817
 3355SOL    HW121527   2.902   2.839  16.420  0.4715 -1.3697 -1.3668
 3355SOL    HW221528   2.823   2.921  16.328 -0.3011 -1.2211 -2.0803
 3356SOL     OW21529   0.389   4.394   2.903  0.3012  0.1936  0.0469
 3356SOL    HW121530   0.374   4.334   2.976  2.7077 -2.0987 -1.3525
 3356SOL    HW221531   0.405   4.331   2.833  2.0098  0.2050  0.4260
 3357SOL     OW21532   2.034   1.511   4.444 -0.0014  0.2346  0.2249
 3357SOL    HW121533   2.102   1.569   4.479 -0.7079  1.8623 -1.0610
 3357SOL    HW221534   2.088   1.436   4.419 -1.3972 -0.0314 -1.9991
 3358SOL     OW21535   1.078   4.431   6.415  0.0625  0.1022  0.1557
 3358SOL    HW121536   1.024   4.466   6.485  0.0949  0.6563 -0.0950
 3358SOL    HW221537   1.022   4.354   6.402 -3.3862  2.4926  0.9480
 3359SOL     OW21538   2.856   3.724   3.960  0.2114 -0.1382  0.3930
 3359SOL    HW121539   2.790   3.716   3.891 -0.1747 -0.5784  0.8139
 3359SOL    HW221540   2.837   3.810   3.998 -1.1010  0.4924 -1.6586
 3360SOL     OW21541   3.135   1.596  15.220  0.0497 -0.5457 -0.0641
 3360SOL    HW121542   3.055   1.565  15.262  1.2833 -1.0970  1.8797
 3360SOL    HW221543   3.177   1.630  15.299 -0.5472 -0.9062  0.4147
 3361SOL     OW21544   1.410   3.097   8.002  0.4008  0.2797 -0.4453
 3361SOL    HW121545   1.321   3.065   7.985 -0.6348  2.0004  1.5575
 3361SOL    HW221546   1.395   3.171   8.062 -0.6916  0.0426 -0.4144
 3362SOL     OW21547   4.344   3.845   9.931 -0.3788 -0.5001  0.1020
 3362SOL    HW121548   4.394   3.926   9.938 -0.9934 -0.0618 -0.5701
 3362SOL    HW221549   4.408   3.789   9.886  0.4296  0.3355  0.2289
 3363SOL     OW21550   4.014   0.666   4.321  0.0513  0.0876 -0.1519
 3363SOL    HW121551   4.061   0.749   4.315  2.8982 -1.6375 -2.0203
 3363SOL    HW221552   3.933   0.688   4.276 -0.1823 -1.1496 -0.3368
 3364SOL     OW21553   1.187   1.622   6.194  0.6954 -0.6753  0.2893
 3364SOL    HW121554   1.258   1.685   6.204  0.5002 -0.4829  0.4455
 3364SOL    HW221555   1.121   1.684   6.164 -1.4506 -2.5219  1.1593
 3365SOL     OW21556   3.153   1.584   8.779  0.1625 -0.2157  0.4252
 3365SOL    HW121557   3.118   1.565   8.866 -0.7471  0.5898  0.2362
 3365SOL    HW221558   3.160   1.679   8.782  0.4551 -0.2922  2.2195
 3366SOL     OW21559   0.397   3.177   2.317 -0.5284 -0.2437  0.2053
 3366SOL    HW121560   0.458   3.116   2.275 -0.7985 -0.2186 -0.2272
 3366SOL    HW221561   0.361   3.220   2.239  0.0061 -1.1671 -0.5434
 3367SOL     OW21562   3.189   0.670   3.890 -0.7792 -0.1509 -0.0186
 3367SOL    HW121563   3.205   0.747   3.835  1.0912 -0.2098  0.4437
 3367SOL    HW221564   3.275   0.664   3.933 -0.6858  1.7348  0.0693
 3368SOL     OW21565   1.916   0.060  12.112 -0.0369 -0.0634  0.4359
 3368SOL    HW121566   1.892   4.710  12.165  2.4834 -0.8069  0.5118
 3368SOL    HW221567   1.879   0.042  12.025 -1.5583  0.3641  0.9965
 3369SOL     OW21568   0.666   1.803   9.468  0.1399  0.2738  0.5774
 3369SOL    HW121569   0.589   1.821   9.521 -0.1641 -0.9890  0.5547
 3369SOL    HW221570   0.653   1.872   9.403 -0.0825 -1.2851 -1.0240
 3370SOL     OW21571   1.007   4.607  14.109 -0.0008  0.2237 -0.2344
 3370SOL    HW121572   0.942   4.628  14.043  0.4394 -0.4188 -0.8821
 3370SOL    HW221573   1.045   4.533  14.061 -1.1817 -1.4391  1.3774
 3371SOL     OW21574   2.989   3.465   1.130  0.3442  0.3226  0.1222
 3371SOL    HW121575   3.082   3.460   1.154  0.4309 -1.6854 -0.6799
 3371SOL    HW221576   2.981   3.555   1.162 -0.9409  0.1991  0.1334
 3372SOL     OW21577   4.463   0.667   7.700 -0.1750 -0.0814 -0.0605
 3372SOL    HW121578   4.511   0.722   7.639 -0.8716  0.0377 -0.5105
 3372SOL    HW221579   4.419   0.610   7.636 -1.2622 -0.9663  1.4539
 3373SOL     OW21580   4.121   0.364   5.999  0.2221 -0.0495 -0.4242
 3373SOL    HW121581   4.048   0.310   6.031  1.1436  0.0934  1.8950
 3373SOL    HW221582   4.119   0.346   5.905  0.5393  1.7185 -0.7700
 3374SOL     OW21583   0.859   0.971   3.939 -0.6994  0.0926 -0.0655
 3374SOL    HW121584   0.929   0.908   3.959  1.3195  1.5255 -2.6428
 3374SOL    HW221585   0.888   1.019   3.861  2.5907 -1.1771  0.3468
 3375SOL     OW21586   2.529   1.388   0.537  0.1374  0.1978 -0.4241
 3375SOL    HW121587   2.565   1.304   0.510 -0.5338 -0.1344 -0.2828
 3375SOL    HW221588   2.596   1.452   0.514 -0.5682  0.7037 -1.0683
 3376SOL     OW21589   1.737   3.105   3.662 -0.1513 -0.2234 -0.2623
 3376SOL    HW121590   1.739   3.012   3.686 -0.0159 -0.2898 -0.5281
 3376SOL    HW221591   1.647   3.116   3.631 -0.3943 -2.0657 -0.2399
 3377SOL     OW21592   2.459   0.258   4.805 -0.2248 -0.0270  0.4047
 3377SOL    HW121593   2.490   0.171   4.831  0.4004 -0.3303 -1.3683
 3377SOL    HW221594   2.364   0.257   4.814 -0.4304 -2.8232 -1.8935
 3378SOL     OW21595   2.937   3.351   1.690 -0.1675 -0.1273  0.0153
 3378SOL    HW121596   2.981   3.295   1.753 -2.8755 -2.7134 -0.4107
 3378SOL    HW221597   2.871   3.294   1.653 -0.2822  0.9671 -1.5025
 3379SOL     OW21598   3.902   1.111   8.662 -0.1373 -0.6998  0.0229
 3379SOL    HW121599   3.988   1.126   8.624 -0.9583  1.2889 -1.0577
 3379SOL    HW221600   3.848   1.171   8.611 -1.5586 -0.5605  1.6827
 3380SOL     OW21601   3.787   1.534   3.486 -0.4170  0.0573  0.0945
 3380SOL    HW121602   3.781   1.514   3.579  0.3867 -0.5317  0.0150
 3380SOL    HW221603   3.783   1.445   3.451  0.3978  0.4149 -0.9188
 3381SOL     OW21604   1.037   0.095  12.139 -0.2278 -0.4592  0.0978
 3381SOL    HW121605   1.020   0.002  12.121 -3.2187 -0.2991  2.2855
 3381SOL    HW221606   1.036   0.087  12.234 -2.6901  0.8949  0.1791
 3382SOL     OW21607   2.844   2.390   0.921 -0.0058 -0.0317  0.1112
 3382SOL    HW121608   2.903   2.437   0.979 -0.5661  0.0903  0.5888
 3382SOL    HW221609   2.760   2.410   0.964 -0.1471  2.3205 -1.2731
 3383SOL     OW21610   3.674   3.392   5.059  0.1635 -0.1375  0.4792
 3383SOL    HW121611   3.639   3.329   5.122  1.5299 -1.3055  0.0637
 3383SOL    HW221612   3.603   3.384   4.995 -1.8203 -0.2381  2.6929
 3384SOL     OW21613   0.542   0.627   8.961  0.3115 -0.5214 -0.2462
 3384SOL    HW121614   0.556   0.662   8.873  1.4445  1.3748  0.6933
 3384SOL    HW221615   0.470   0.679   8.995 -1.3425 -1.8685 -1.6560
 3385SOL     OW21616   0.785   4.512   7.104 -0.0915  0.1288 -1.0153
 3385SOL    HW121617   0.857   4.564   7.070  1.8011  0.0381  2.8825
 3385SOL    HW221618   0.828   4.429   7.082 -0.9420 -0.4909 -0.3141
 3386SOL     OW21619   2.309   4.058   1.773 -0.0925 -0.8269  0.0601
 3386SOL    HW121620   2.252   4.109   1.832 -0.3300 -1.5050  0.4106
 3386SOL    HW221621   2.290   3.969   1.801 -2.3188  0.8788  4.0022
 3387SOL     OW21622   3.547   1.198  15.611  0.0166  0.4069  0.4049
 3387SOL    HW121623   3.484   1.144  15.658 -0.0924  0.6984  0.5951
 3387SOL    HW221624   3.622   1.139  15.599 -0.2483  0.2828 -0.7054
 3388SOL     OW21625   0.036   3.945   6.503 -0.0026 -0.7858 -0.1609
 3388SOL    HW121626   0.084   3.972   6.424 -0.1447 -0.0267  0.0085
 3388SOL    HW221627   0.092   3.988   6.569 -0.0496  0.4569 -0.9284
 3389SOL     OW21628   2.470   2.973   4.570  0.4891  0.0771  0.2846
 3389SOL    HW121629   2.561   3.000   4.576  0.2667  0.9648 -0.3583
 3389SOL    HW221630   2.466   2.890   4.618  0.5827  0.1253  0.3729
 3390SOL     OW21631   2.820   1.899  15.644 -0.1562 -0.1115  0.4037
 3390SOL    HW121632   2.899   1.849  15.622 -0.4971 -0.5543  0.1729
 3390SOL    HW221633   2.751   1.833  15.651 -0.8397  0.4823 -0.6604
 3391SOL     OW21634   1.874   3.046   6.448  0.1487 -0.6239  0.3174
 3391SOL    HW121635   1.900   2.981   6.382 -0.1552 -0.0146 -0.3998
 3391SOL    HW221636   1.907   3.003   6.526 -0.3857 -0.3858  0.6713
 3392SOL     OW21637   0.080   4.617  15.528  0.5834 -0.2020  0.2376
 3392SOL    HW121638   0.091   4.526  15.557 -0.5778 -0.5317 -0.3643
 3392SOL    HW221639   0.069   4.603  15.434  0.0058 -1.3081  0.4676
 3393SOL     OW21640   1.414   3.180   7.566  0.5585  0.7143  0.1333
 3393SOL    HW121641   1.467   3.113   7.522  2.4323  1.8787  0.6148
 3393SOL    HW221642   1.468   3.258   7.571  1.9650 -0.3894  2.0078
 3394SOL     OW21643   2.805   1.060   6.675 -0.0517  0.0937 -0.0289
 3394SOL    HW121644   2.758   0.976   6.680 -1.9955  1.0612 -2.0794
 3394SOL    HW221645   2.738   1.125   6.694 -0.6521 -0.9260  1.3423
 3395SOL     OW21646   3.638   3.020  12.870 -0.0458 -0.2087  0.8697
 3395SOL    HW121647   3.601   3.096  12.915 -2.1188 -0.4205 -0.5003
 3395SOL    HW221648   3.662   3.062  12.787  1.8941 -2.3414  0.3459
 3396SOL     OW21649   4.298   1.776  15.882  0.4228  0.3585 -0.3324
 3396SOL    HW121650   4.202   1.769  15.887  0.4871 -0.4966 -0.1774
 3396SOL    HW221651   4.303   1.830  15.804 -0.3006 -0.7439 -1.1497
 3397SOL     OW21652   2.729   4.638  17.474  0.0948  0.0534 -0.4102
 3397SOL    HW121653   2.784   4.564  17.498 -0.9235 -0.6441 -0.2322
 3397SOL    HW221654   2.748   4.695  17.549  1.0212  1.4250 -1.6775
 3398SOL     OW21655   0.266   0.284  17.590  0.5035  0.3462 -0.5730
 3398SOL    HW121656   0.357   0.270  17.564  0.7675  1.2577 -0.1566
 3398SOL    HW221657   0.249   0.355  17.527 -0.2694  0.4042 -0.2933
 3399SOL     OW21658   0.897   0.015   1.870  0.3094  0.2688  0.3224
 3399SOL    HW121659   0.827   4.675   1.863  0.0595  0.8106 -2.4877
 3399SOL    HW221660   0.858   0.076   1.933 -1.2327  1.1325 -1.4345
 3400SOL     OW21661   2.877   4.339   5.151  0.3188 -0.2210  0.3421
 3400SOL    HW121662   2.803   4.334   5.212  0.6240  0.5822  0.7836
 3400SOL    HW221663   2.947   4.294   5.197 -0.6419 -1.8693  0.2047
 3401SOL     OW21664   0.359   1.743   2.514 -0.0685 -0.0822  1.0283
 3401SOL    HW121665   0.351   1.839   2.513  0.1897 -0.0526  4.3877
 3401SOL    HW221666   0.438   1.728   2.565  1.9664  2.8188 -1.2471
 3402SOL     OW21667   4.055   1.220   3.724 -0.0088 -0.1412  0.1943
 3402SOL    HW121668   4.114   1.254   3.657 -2.0962 -0.6516 -1.9487
 3402SOL    HW221669   4.041   1.128   3.702 -0.4016  0.2767 -1.3558
 3403SOL     OW21670   0.258   3.338   8.577 -0.4893  0.5666 -0.5627
 3403SOL    HW121671   0.305   3.361   8.496 -0.7291 -0.7070 -1.0577
 3403SOL    HW221672   0.325   3.308   8.638  0.1798  1.7554 -0.7142
 3404SOL     OW21673   0.435   1.520   6.445  0.0798 -0.3152 -0.0689
 3404SOL    HW121674   0.454   1.432   6.478 -2.5967 -0.2467  1.7018
 3404SOL    HW221675   0.509   1.572   6.476  0.0357 -0.0700 -0.3790
 3405SOL     OW21676   0.853   3.524   4.447  0.4956 -0.3089 -0.5670
 3405SOL    HW121677   0.887   3.438   4.472  1.0643  0.3805  1.0109
 3405SOL    HW221678   0.759   3.516   4.434  0.7226 -2.4729 -0.8002
 3406SOL     OW21679   3.375   4.205   5.136  0.7169 -0.5292  0.1194
 3406SOL    HW121680   3.335   4.118   5.135  0.7812 -0.5669  1.2333
 3406SOL    HW221681   3.425   4.209   5.054 -1.3411  3.5998 -0.9262
 3407SOL     OW21682   1.783   0.870   6.953 -0.0018  0.1907 -0.1298
 3407SOL    HW121683   1.844   0.924   7.004  0.2769 -0.2763  0.0280
 3407SOL    HW221684   1.846   0.810   6.915  0.6787  0.2369  0.9388
 3408SOL     OW21685   3.136   0.260   6.106 -0.2813  0.1441 -0.1342
 3408SOL    HW121686   3.220   0.214   6.103 -0.6321 -0.5449  0.5899
 3408SOL    HW221687   3.108   0.277   6.016  1.6831  1.5508 -0.4695
 3409SOL     OW21688   4.672   3.549   2.979 -0.0836 -0.4984 -0.2821
 3409SOL    HW121689   0.013   3.581   3.040 -0.4548 -1.7413  0.7625
 3409SOL    HW221690   4.666   3.458   3.006  0.5032 -0.7979 -1.1528
 3410SOL     OW21691   1.661   4.651   7.659  0.1864 -0.2430  0.3219
 3410SOL    HW121692   1.677   4.622   7.749  0.7286  2.9827  1.2583
 3410SOL    HW221693   1.664   0.021   7.667  0.9294 -0.2084 -0.3230
 3411SOL     OW21694   3.450   3.008  12.051  0.2643 -0.2199 -0.1967
 3411SOL    HW121695   3.375   2.961  12.016  0.4116 -1.1668  0.7374
 3411SOL    HW221696   3.420   3.099  12.057  0.1977 -0.2636  0.1482
 3412SOL     OW21697   1.790   1.066   8.765  0.5792 -0.0268  0.1272
 3412SOL    HW121698   1.752   1.141   8.811 -1.3923 -0.7016 -0.3997
 3412SOL    HW221699   1.831   1.013   8.834 -2.0976 -0.7271  1.1755
 3413SOL     OW21700   0.585   4.483   3.172 -1.0326 -0.0837  0.4194
 3413SOL    HW121701   0.530   4.508   3.246  0.0697  1.9260  0.5610
 3413SOL    HW221702   0.521   4.458   3.106  0.2325 -0.4547 -0.6779
 3414SOL     OW21703   3.114   3.849   4.119 -0.2202 -0.9671  0.3365
 3414SOL    HW121704   3.064   3.846   4.037  0.6490 -0.7874 -0.2073
 3414SOL    HW221705   3.088   3.936   4.150  0.3669 -0.9512  0.7879
 3415SOL     OW21706   3.859   2.247   8.265  0.1619 -0.6800 -0.7591
 3415SOL    HW121707   3.788   2.291   8.218 -0.5787  0.1091  1.1159
 3415SOL    HW221708   3.933   2.303   8.244 -0.5431  0.8051  0.8158
 3416SOL     OW21709   4.242   0.708  16.119  0.2676 -0.1874 -0.1843
 3416SOL    HW121710   4.180   0.768  16.161 -0.1398 -0.1158 -0.8829
 3416SOL    HW221711   4.216   0.624  16.156 -2.0515  0.6381  0.0817
 3417SOL     OW21712   1.439   1.166   5.171 -0.0016 -0.4188 -0.4699
 3417SOL    HW121713   1.441   1.240   5.110 -2.0825  0.9430  1.1361
 3417SOL    HW221714   1.533   1.151   5.185 -0.4213 -0.5780  2.0363
 3418SOL     OW21715   4.276   3.183   8.202  0.1521  0.2078  0.1915
 3418SOL    HW121716   4.234   3.150   8.281 -1.0045 -1.4284 -1.0997
 3418SOL    HW221717   4.201   3.187   8.142  1.4959 -2.0278 -1.6488
 3419SOL     OW21718   4.338   4.711   1.432  0.2519  0.1682 -0.0169
 3419SOL    HW121719   4.313   4.653   1.504 -1.7876  0.8195 -0.2055
 3419SOL    HW221720   4.256   0.034   1.434  1.6593  2.5925 -0.2735
 3420SOL     OW21721   4.431   1.873   6.726 -0.0651  0.3968  0.0837
 3420SOL    HW121722   4.416   1.824   6.808 -0.6461  1.1384  0.4173
 3420SOL    HW221723   4.402   1.808   6.662  0.7205  0.5943 -0.4730
 3421SOL     OW21724   1.770   2.571   9.268 -0.4408 -0.4099 -0.4939
 3421SOL    HW121725   1.820   2.644   9.304 -0.9372 -0.7341  0.8551
 3421SOL    HW221726   1.743   2.516   9.341  0.6000 -2.0935 -1.3792
 3422SOL     OW21727   1.094   3.051  12.554 -0.0875 -0.1593 -0.0577
 3422SOL    HW121728   1.118   2.958  12.549  3.7807  0.7706  1.2674
 3422SOL    HW221729   1.175   3.096  12.529 -0.4153  0.4588  0.0081
 3423SOL     OW21730   2.871   1.181   7.479 -0.0304  0.2320  0.4973
 3423SOL    HW121731   2.805   1.157   7.413 -0.0275  1.0951  0.1676
 3423SOL    HW221732   2.864   1.276   7.466  3.5971  0.2003 -1.6939
 3424SOL     OW21733   0.441   0.163   7.192 -0.1656  0.0052 -0.3708
 3424SOL    HW121734   0.493   0.083   7.199  1.0517  0.9659  1.5893
 3424SOL    HW221735   0.476   0.194   7.108 -0.6301 -0.3099 -0.6801
 3425SOL     OW21736   2.001   2.950   3.192 -0.5142 -0.3654  0.1279
 3425SOL    HW121737   2.048   2.870   3.215  2.2664  0.7704 -1.5745
 3425SOL    HW221738   2.001   2.994   3.278 -3.0933  0.2880 -0.2237
 3426SOL     OW21739   0.550   4.140   0.948  0.1764 -0.5371 -0.2410
 3426SOL    HW121740   0.464   4.183   0.949  1.6489  2.3746 -0.0430
 3426SOL    HW221741   0.604   4.219   0.943 -0.5001 -0.0060  0.8107
 3427SOL     OW21742   2.241   0.329  14.065 -0.3440  0.1000 -0.5523
 3427SOL    HW121743   2.272   0.385  13.994 -2.5176  1.2201 -0.6287
 3427SOL    HW221744   2.146   0.333  14.054 -0.1029  0.6453 -2.4335
 3428SOL     OW21745   0.241   1.283   7.496  0.4043 -0.9674 -0.0501
 3428SOL    HW121746   0.262   1.214   7.432  0.6330 -1.0539  0.1198
 3428SOL    HW221747   0.305   1.275   7.566 -1.6487 -0.9432  1.8297
 3429SOL     OW21748   1.802   0.206   2.055 -0.5064 -0.3558 -0.0001
 3429SOL    HW121749   1.830   0.242   2.139  3.1180  0.7125 -1.6730
 3429SOL    HW221750   1.884   0.170   2.021  0.0752 -0.6759  1.7679
 3430SOL     OW21751   0.161   0.991  10.910 -0.1903 -0.0436 -0.5428
 3430SOL    HW121752   0.174   1.024  10.999  0.0673 -0.8921 -0.2716
 3430SOL    HW221753   0.114   0.911  10.933 -0.5582  0.9247  2.1283
 3431SOL     OW21754   1.491   1.660  15.174  0.3466  0.9589 -0.2227
 3431SOL    HW121755   1.531   1.650  15.087  2.8517 -0.2099  1.0503
 3431SOL    HW221756   1.544   1.732  15.208  1.6175 -0.3601  0.6124
 3432SOL     OW21757   0.532   3.950  14.590  0.4469 -0.4370  0.4126
 3432SOL    HW121758   0.605   3.914  14.539  1.2170 -1.3007  2.1279
 3432SOL    HW221759   0.473   3.875  14.590  0.3892 -0.4552 -6.0513
 3433SOL     OW21760   2.225   3.207   5.583 -0.4278  0.1093  0.1180
 3433SOL    HW121761   2.174   3.288   5.573 -0.8786 -0.0215  1.3200
 3433SOL    HW221762   2.270   3.227   5.665  0.0046 -0.1390 -0.0603
 3434SOL     OW21763   3.374   3.051   0.850 -0.0463 -0.4712  0.2981
 3434SOL    HW121764   3.387   2.977   0.909 -0.4694 -1.4856 -0.8778
 3434SOL    HW221765   3.453   3.040   0.797 -0.5765  2.6591 -1.1481
 3435SOL     OW21766   2.154   1.918  10.511  0.2836 -0.1446  0.9029
 3435SOL    HW121767   2.098   1.842  10.529  1.3840 -1.4651 -1.2083
 3435SOL    HW221768   2.095   1.962  10.451  0.1796  0.0705  1.1602
 3436SOL     OW21769   0.635   1.086  11.564 -0.7026 -0.4573 -0.3112
 3436SOL    HW121770   0.624   1.013  11.503 -0.2243  1.2102 -2.3788
 3436SOL    HW221771   0.716   1.062  11.608 -0.0337  2.1774 -0.0672
 3437SOL     OW21772   1.286   0.559   6.966 -0.1990  0.1157 -0.0162
 3437SOL    HW121773   1.359   0.557   6.904  0.0069 -0.1392  0.2394
 3437SOL    HW221774   1.326   0.571   7.052  0.2392 -1.5108  0.0061
 3438SOL     OW21775   0.356   3.123   0.391  0.6023 -0.0228 -0.0853
 3438SOL    HW121776   0.418   3.182   0.432  1.4169 -0.9180 -0.0338
 3438SOL    HW221777   0.404   3.081   0.319  0.4226  0.2235 -0.3495
 3439SOL     OW21778   0.923   1.906  11.503 -0.3195 -0.2489 -0.1493
 3439SOL    HW121779   0.940   1.939  11.591 -1.7286 -0.3010  0.1510
 3439SOL    HW221780   1.007   1.924  11.461 -0.2053 -0.4893 -0.0265
 3440SOL     OW21781   2.084   2.652   6.176 -0.5120 -0.0091  0.0136
 3440SOL    HW121782   2.075   2.679   6.084  3.6074 -0.6597 -0.5409
 3440SOL    HW221783   2.058   2.561   6.160 -1.1037 -0.0392  1.1220
 3441SOL     OW21784   0.982   1.554  11.766 -0.1002 -0.5462 -1.3650
 3441SOL    HW121785   1.037   1.608  11.822 -0.8325  0.7142 -1.8483
 3441SOL    HW221786   0.914   1.611  11.729 -0.6524 -0.5070 -0.2867
 3442SOL     OW21787   0.444   0.967   5.331 -0.1342  0.0164 -0.1590
 3442SOL    HW121788   0.365   0.943   5.282 -0.3801 -1.9632  1.1841
 3442SOL    HW221789   0.442   1.062   5.336  2.2652  0.0279  0.6022
 3443SOL     OW21790   1.401   2.016   3.311 -0.1192  0.1735 -0.1664
 3443SOL    HW121791   1.339   2.026   3.238 -0.0847 -1.2222 -0.3815
 3443SOL    HW221792   1.436   1.931   3.286  1.0005 -0.0666  2.2666
 3444SOL     OW21793   2.088   4.475   7.969 -0.3141 -0.0723  0.4470
 3444SOL    HW121794   2.068   4.558   7.925  1.4945 -0.3435 -0.8627
 3444SOL    HW221795   2.179   4.456   7.951 -1.0656 -1.4344 -1.8106
 3445SOL     OW21796   4.488   3.040   5.448 -0.5149  0.5824 -0.1192
 3445SOL    HW121797   4.433   3.016   5.523 -1.0084 -0.0017 -0.6634
 3445SOL    HW221798   4.464   2.984   5.374 -0.7598 -0.1073  0.4807
 3446SOL     OW21799   3.740   0.401   0.549 -0.1788  0.0668  0.1461
 3446SOL    HW121800   3.826   0.376   0.583  0.4497  1.3272 -0.5304
 3446SOL    HW221801   3.746   0.494   0.528 -2.1242  0.0632 -0.3907
 3447SOL     OW21802   3.408   1.071   4.837 -0.3380 -0.2736 -0.3106
 3447SOL    HW121803   3.472   1.074   4.767 -0.1595  2.3983 -0.0308
 3447SOL    HW221804   3.448   1.126   4.904 -2.9905  0.2433  0.8538
 3448SOL     OW21805   3.717   4.537  15.537  0.1819 -0.2529  0.2483
 3448SOL    HW121806   3.796   4.590  15.545 -0.4552  0.6387  0.7151
 3448SOL    HW221807   3.739   4.492  15.456  0.9616  0.6210 -0.0256
 3449SOL     OW21808   0.625   2.018   9.770  0.1711  0.0851  0.4370
 3449SOL    HW121809   0.556   1.999   9.706 -1.4740 -1.0426  2.5558
 3449SOL    HW221810   0.583   2.010   9.856 -0.2782 -0.2792  0.1813
 3450SOL     OW21811   4.700   4.493   5.794  0.3275  0.0508 -0.0469
 3450SOL    HW121812   4.696   4.429   5.866 -0.6702  0.9058  0.6518
 3450SOL    HW221813   0.043   4.555   5.820  4.0043 -3.0727 -2.0655
 3451SOL     OW21814   0.465   0.327   3.526  0.5405  0.5083 -0.3325
 3451SOL    HW121815   0.378   0.364   3.515  0.3051  0.2294  0.6070
 3451SOL    HW221816   0.504   0.376   3.598  0.3236 -0.5012  0.4792
 3452SOL     OW21817   2.483   2.716   7.319 -0.1924  0.0004  0.1358
 3452SOL    HW121818   2.506   2.809   7.312 -0.0345 -0.2225 -2.3290
 3452SOL    HW221819   2.414   2.708   7.385 -0.9189 -3.0746 -1.0541
 3453SOL     OW21820   1.124   3.196   5.837  0.0996 -0.0949  0.2223
 3453SOL    HW121821   1.202   3.159   5.877 -0.2421 -0.8827  0.1608
 3453SOL    HW221822   1.078   3.244   5.907  1.5959  1.1127  0.3693
 3454SOL     OW21823   3.026   2.868   2.878 -0.2207  0.1216  0.1407
 3454SOL    HW121824   3.082   2.791   2.890  0.9118  0.7207 -1.2958
 3454SOL    HW221825   3.053   2.923   2.952  1.1014  0.2419 -0.4241
 3455SOL     OW21826   0.002   3.762   8.655 -0.3597 -0.0239 -0.0206
 3455SOL    HW121827   4.637   3.735   8.673  0.1843 -2.0908 -0.4301
 3455SOL    HW221828   0.037   3.680   8.622  0.9483 -0.6142  2.8330
 3456SOL     OW21829   2.325   2.918  13.402  0.4607  0.6267  0.0128
 3456SOL    HW121830   2.360   2.976  13.335  0.3744  3.2841  2.2637
 3456SOL    HW221831   2.230   2.916  13.387  0.1904  0.7745  1.6404
 3457SOL     OW21832   0.669   0.771   3.426  0.8971  0.3852 -0.0516
 3457SOL    HW121833   0.738   0.705   3.423  0.1014 -0.3469 -2.1366
 3457SOL    HW221834   0.694   0.830   3.354  1.3198 -1.0195 -1.0525
 3458SOL     OW21835   3.980   2.867   5.295 -0.0674 -0.2733  0.0477
 3458SOL    HW121836   4.031   2.877   5.375 -0.1567 -0.9505  0.1925
 3458SOL    HW221837   3.906   2.925   5.314 -1.9661 -1.9545 -2.1554
 3459SOL     OW21838   3.823   2.652   6.663 -1.0609 -0.2259 -0.4917
 3459SOL    HW121839   3.875   2.572   6.658  1.2333  1.1372  1.3188
 3459SOL    HW221840   3.893   2.715   6.684 -0.0054 -1.5564 -0.0142
 3460SOL     OW21841   2.896   1.125   5.025  0.1686  0.1700  0.6248
 3460SOL    HW121842   2.940   1.091   4.946  0.0006 -0.4637  0.8047
 3460SOL    HW221843   2.964   1.105   5.089  0.9249 -1.2848 -0.6224
 3461SOL     OW21844   2.333   3.424   7.684  0.1021 -0.0526 -0.3770
 3461SOL    HW121845   2.399   3.472   7.633  0.1108  1.2994  0.9115
 3461SOL    HW221846   2.316   3.486   7.755 -0.4804 -2.4031  1.5184
 3462SOL     OW21847   0.722   1.382  12.501  0.4341 -0.2995 -0.2953
 3462SOL    HW121848   0.769   1.312  12.547 -1.0059 -0.1253  1.4299
 3462SOL    HW221849   0.662   1.324  12.454  1.4292 -2.4558  1.1267
 3463SOL     OW21850   2.112   0.269   0.725  0.1601  0.0926  0.0241
 3463SOL    HW121851   2.076   0.213   0.656 -0.4771 -0.7417  1.0326
 3463SOL    HW221852   2.136   0.218   0.803  1.0426  0.8858  0.2729
 3464SOL     OW21853   1.978   0.753   2.804  0.1941 -0.5539 -0.1896
 3464SOL    HW121854   1.985   0.703   2.723  1.7021 -1.5839  0.5886
 3464SOL    HW221855   2.060   0.802   2.805  0.4525 -1.0151  0.8076
 3465SOL     OW21856   1.225   4.255   9.604 -0.0770  0.4885  0.4395
 3465SOL    HW121857   1.233   4.198   9.680  0.8818 -1.4831 -1.1307
 3465SOL    HW221858   1.247   4.342   9.638  0.4210  0.5473 -0.0278
 3466SOL     OW21859   0.428   3.158   9.149  0.6018  0.4764  0.3412
 3466SOL    HW121860   0.477   3.238   9.170 -0.4264  1.1947 -0.0353
 3466SOL    HW221861   0.387   3.134   9.232 -0.0617  2.5864  0.6326
 3467SOL     OW21862   1.044   2.632   9.455  0.2617 -0.3588 -0.0223
 3467SOL    HW121863   1.114   2.644   9.519  0.0830  0.6335 -0.0094
 3467SOL    HW221864   1.086   2.566   9.400 -1.8769 -1.8349  0.1681
 3468SOL     OW21865   0.232   2.134  13.085  0.3610  0.4339 -0.0159
 3468SOL    HW121866   0.226   2.074  13.160 -0.2968  0.3364 -0.1448
 3468SOL    HW221867   0.251   2.085  13.005 -0.2748 -0.0105  0.1071
 3469SOL     OW21868   0.316   2.980   6.048  0.0019 -0.4570  0.1247
 3469SOL    HW121869   0.368   2.927   5.987 -0.2585 -1.1593  0.5050
 3469SOL    HW221870   0.385   3.035   6.086  1.1096  0.8063 -3.6782
 3470SOL     OW21871   4.617   2.283   9.254 -0.1392  0.3788  0.0828
 3470SOL    HW121872   4.686   2.240   9.305  1.5044  1.5958 -1.1403
 3470SOL    HW221873   4.626   2.378   9.268  0.2010  0.3070  0.3688
 3471SOL     OW21874   2.610   1.296   2.722 -0.0992  0.8871  0.2506
 3471SOL    HW121875   2.638   1.332   2.806 -2.2003 -1.0134  1.7628
 3471SOL    HW221876   2.688   1.257   2.684 -0.9541 -2.5097  1.9731
 3472SOL     OW21877   4.381   1.478   9.805  0.0590 -0.4442  0.4132
 3472SOL    HW121878   4.329   1.513   9.733  0.3171 -1.8125 -0.4280
 3472SOL    HW221879   4.457   1.535   9.797  0.6180 -1.3325 -0.5554
 3473SOL     OW21880   3.503   3.413   0.341 -0.5323 -0.6814  0.1373
 3473SOL    HW121881   3.534   3.483   0.283 -0.2684  0.3021  1.4599
 3473SOL    HW221882   3.422   3.452   0.374  0.6506 -1.3427  3.8309
 3474SOL     OW21883   1.451   4.685   4.900 -0.4267 -0.2898 -0.1096
 3474SOL    HW121884   1.438   0.021   4.973 -3.4392 -1.0332 -0.0245
 3474SOL    HW221885   1.538   4.656   4.926 -0.4338  0.2375  0.5055
 3475SOL     OW21886   2.312   3.628   8.595  0.1447  0.9998  0.0095
 3475SOL    HW121887   2.334   3.544   8.636 -0.1981  0.9325  0.0600
 3475SOL    HW221888   2.400   3.653   8.568  0.4522 -0.4178 -0.3071
 3476SOL     OW21889   1.193   1.347   2.720 -0.2926 -0.3271  0.0646
 3476SOL    HW121890   1.194   1.348   2.624 -0.1309  0.4794  0.0764
 3476SOL    HW221891   1.220   1.437   2.737 -2.0112 -0.1410  1.7306
 3477SOL     OW21892   2.978   4.003   8.162 -0.4192 -0.8548  0.5369
 3477SOL    HW121893   3.003   4.076   8.218  0.5716 -0.7512 -0.0483
 3477SOL    HW221894   3.022   4.017   8.079  1.8330  1.4428  2.1355
 3478SOL     OW21895   1.511   0.530   3.213  0.3218 -0.1174  0.2061
 3478SOL    HW121896   1.584   0.488   3.258 -0.0741  0.4345  1.3594
 3478SOL    HW221897   1.533   0.622   3.232  0.6753 -0.8531  3.3538
 3479SOL     OW21898   3.065   1.334   2.226 -0.0036 -0.2270  0.6444
 3479SOL    HW121899   3.042   1.414   2.274 -2.8210 -1.2922  1.0198
 3479SOL    HW221900   3.159   1.348   2.211  0.0898 -1.3772  0.1831
 3480SOL     OW21901   4.246   2.067   6.608 -0.1600 -0.1755 -0.2438
 3480SOL    HW121902   4.322   2.024   6.649 -1.3815 -2.9650 -0.9367
 3480SOL    HW221903   4.264   2.053   6.515 -0.9404  0.6372 -0.5118
 3481SOL     OW21904   0.541   1.536  10.161  0.2219 -0.3935 -0.5073
 3481SOL    HW121905   0.595   1.500  10.091  0.8478  0.4182 -0.4527
 3481SOL    HW221906   0.522   1.626  10.132 -2.6952 -0.5813  0.8260
 3482SOL     OW21907   1.391   4.442   5.589  0.1479  0.1551  0.5098
 3482SOL    HW121908   1.333   4.446   5.664 -0.0134 -0.0800  0.3958
 3482SOL    HW221909   1.362   4.364   5.542  2.9849 -1.3910  1.3366
 3483SOL     OW21910   1.034   1.847  15.606  0.0090 -0.3889  0.2656
 3483SOL    HW121911   1.092   1.809  15.672 -1.2724 -1.1945  0.9109
 3483SOL    HW221912   0.957   1.861  15.661  1.7941  2.0713  2.1091
 3484SOL     OW21913   2.335   0.771   3.822  0.3584 -0.6112  0.6461
 3484SOL    HW121914   2.290   0.720   3.889 -1.0837  1.0093  0.9181
 3484SOL    HW221915   2.345   0.707   3.751 -3.0176  0.0451 -0.3857
 3485SOL     OW21916   4.497   3.664   4.358  0.7130 -0.4034  0.6820
 3485SOL    HW121917   4.521   3.583   4.312  0.6127 -1.0339  1.7278
 3485SOL    HW221918   4.568   3.723   4.334  0.2860 -1.1597 -2.4405
 3486SOL     OW21919   2.099   4.549   6.578  0.7324 -0.3298 -0.5763
 3486SOL    HW121920   2.137   4.616   6.635  2.0124 -0.3886 -1.3524
 3486SOL    HW221921   2.169   4.495   6.542 -0.1153 -0.3988 -2.1063
 3487SOL     OW21922   1.854   3.230   9.134  0.6004  1.4455 -0.3481
 3487SOL    HW121923   1.777   3.277   9.168  0.0349  1.6181 -1.8933
 3487SOL    HW221924   1.903   3.222   9.216 -2.1494  0.2917  1.1950
 3488SOL     OW21925   4.155   1.309   6.717 -0.8584 -0.7520 -0.6823
 3488SOL    HW121926   4.102   1.229   6.714 -0.5295 -1.0064  0.7596
 3488SOL    HW221927   4.138   1.348   6.631  0.4117 -0.0399 -0.6069
 3489SOL     OW21928   4.153   0.640   2.240  0.0965  0.5334 -0.0711
 3489SOL    HW121929   4.222   0.704   2.222  1.5481 -1.1521 -0.6228
 3489SOL    HW221930   4.104   0.622   2.160 -1.9597  3.5762  0.5306
 3490SOL     OW21931   2.537   1.144   3.108 -0.2183 -0.3317  0.3242
 3490SOL    HW121932   2.612   1.130   3.050 -1.3668 -0.7499 -1.0649
 3490SOL    HW221933   2.580   1.189   3.181  1.6186  0.8282 -1.4632
 3491SOL     OW21934   2.598   2.512   9.206  0.6212 -0.2451  0.5488
 3491SOL    HW121935   2.678   2.464   9.227 -0.0846 -1.9009 -0.5935
 3491SOL    HW221936   2.626   2.599   9.236  0.1957 -0.4610  1.5690
 3492SOL     OW21937   4.504   2.377   8.685 -0.1970  0.9583  0.1504
 3492SOL    HW121938   4.582   2.429   8.704  0.5398  0.3116 -1.1149
 3492SOL    HW221939   4.538   2.292   8.711 -2.5738  1.3283  4.3895
 3493SOL     OW21940   1.827   1.074  10.586  0.4171  0.8342  0.3596
 3493SOL    HW121941   1.734   1.096  10.595 -0.1850 -1.5050 -0.2714
 3493SOL    HW221942   1.840   1.111  10.498 -0.5332  0.6652  0.1383
 3494SOL     OW21943   1.893   0.628  15.560 -0.2227 -0.2910  0.1901
 3494SOL    HW121944   1.815   0.580  15.589  0.0604 -0.9604 -0.1610
 3494SOL    HW221945   1.887   0.697  15.626 -0.1968 -0.3653  0.2708
 3495SOL     OW21946   1.058   4.605   9.369  0.0082  0.3133  0.1221
 3495SOL    HW121947   1.047   4.699   9.355 -0.0306  0.4484  1.0442
 3495SOL    HW221948   1.137   4.580   9.322  0.6975  0.7688  1.0396
 3496SOL     OW21949   4.050   0.186   6.485 -0.1666 -1.1779 -0.3367
 3496SOL    HW121950   4.017   0.100   6.458 -0.5743 -0.6823 -1.4393
 3496SOL    HW221951   4.080   0.152   6.569 -1.3768 -0.2927  0.4447
 3497SOL     OW21952   4.206   1.691  11.940  0.6371  0.6295  0.1502
 3497SOL    HW121953   4.285   1.745  11.950 -0.7824  2.6993  0.3008
 3497SOL    HW221954   4.218   1.642  12.022  2.6969 -0.4028 -0.7905
 3498SOL     OW21955   0.907   4.632   8.782 -0.7556 -0.2977 -0.1068
 3498SOL    HW121956   0.984   4.578   8.766 -0.9364 -0.2589 -1.0955
 3498SOL    HW221957   0.908   4.693   8.708  2.3077  0.4061  0.5157
 3499SOL     OW21958   2.571   1.427  15.378  0.6664  0.0084  0.3095
 3499SOL    HW121959   2.600   1.345  15.419  4.3191  1.3872  0.4261
 3499SOL    HW221960   2.548   1.397  15.290  1.9088  0.0733 -0.0303
 3500SOL     OW21961   3.591   0.247   0.990 -0.4332 -0.1226  0.5323
 3500SOL    HW121962   3.562   0.327   0.945  0.1076 -1.3920 -2.0929
 3500SOL    HW221963   3.563   0.172   0.936 -0.1486 -0.7876  1.3146
 3501SOL     OW21964   1.931   0.118  11.666 -0.8385 -0.3915 -0.2164
 3501SOL    HW121965   1.971   0.136  11.582 -0.1935  1.1648  0.4324
 3501SOL    HW221966   1.837   0.132  11.651 -1.0047  0.2423  1.3477
 3502SOL     OW21967   2.435   1.585   4.628 -0.0847 -0.3778  0.1891
 3502SOL    HW121968   2.398   1.497   4.616 -0.3501 -0.2114 -0.2037
 3502SOL    HW221969   2.509   1.563   4.571  0.4659 -0.2741  0.8607
 3503SOL     OW21970   3.360   3.768  10.637 -0.2622  0.3213  0.4515
 3503SOL    HW121971   3.276   3.801  10.604 -2.0615 -4.1454  0.6709
 3503SOL    HW221972   3.338   3.724  10.718 -0.7626  1.7265  1.0864
 3504SOL     OW21973   1.350   1.600   7.142  0.5366 -0.0637 -0.1205
 3504SOL    HW121974   1.294   1.677   7.141  2.3124  1.2183  0.1674
 3504SOL    HW221975   1.416   1.622   7.208 -1.1243  2.3233  0.7641
 3505SOL     OW21976   2.384   3.072   0.439  0.6954 -0.1193 -0.0762
 3505SOL    HW121977   2.469   3.107   0.411  0.6814  1.5486  1.8980
 3505SOL    HW221978   2.317   3.139   0.425  0.0604 -0.8840 -0.6701
 3506SOL     OW21979   2.401   0.994   7.608  0.6546  0.4830 -0.2636
 3506SOL    HW121980   2.314   0.974   7.643  1.7838 -0.3942  2.0868
 3506SOL    HW221981   2.415   1.078   7.653 -1.1245  0.2870  0.6448
 3507SOL     OW21982   2.457   4.724   4.890  0.4306  0.1944  0.5893
 3507SOL    HW121983   2.533   4.685   4.934  1.3748  0.5777 -0.7199
 3507SOL    HW221984   2.422   4.646   4.847 -1.7495  0.3520  2.0572
 3508SOL     OW21985   0.329   4.539   3.761 -0.1738  0.3559 -0.0102
 3508SOL    HW121986   0.386   4.607   3.725  0.6352  0.1166  0.8050
 3508SOL    HW221987   0.366   4.544   3.850 -1.0829 -0.8533  0.4204
 3509SOL     OW21988   0.704   1.001   7.606  0.7276 -0.0883  0.2249
 3509SOL    HW121989   0.722   0.987   7.513 -0.3754 -0.4829  0.0609
 3509SOL    HW221990   0.707   1.096   7.608  0.2829 -0.0763  0.4502
 3510SOL     OW21991   2.115   2.276  13.383  0.6374 -0.1906  0.1926
 3510SOL    HW121992   2.154   2.205  13.434 -1.3214 -1.4526 -0.0704
 3510SOL    HW221993   2.106   2.344  13.451 -0.7146  0.4499 -0.6255
 3511SOL     OW21994   4.254   1.071   3.913  0.2279 -0.2433  0.2021
 3511SOL    HW121995   4.202   1.132   3.966  1.9356 -0.5065  2.1302
 3511SOL    HW221996   4.190   1.040   3.848 -0.1422 -0.3297  0.6116
 3512SOL     OW21997   4.314   4.484   1.637  0.2771 -0.2060  0.3182
 3512SOL    HW121998   4.394   4.443   1.670 -0.3842  0.9236  3.2666
 3512SOL    HW221999   4.264   4.410   1.603 -1.4462  0.9912  0.2412
 3513SOL     OW22000   1.530   0.558   6.815 -0.2165 -0.2671 -0.5758
 3513SOL    HW122001   1.506   0.487   6.756 -2.1218  1.8345 -2.3390
 3513SOL    HW222002   1.597   0.605   6.764 -0.5743  1.4058  0.4730
 3514SOL     OW22003   4.670   1.175   5.214 -0.3070  0.0757  0.2384
 3514SOL    HW122004   4.692   1.255   5.165 -0.4839  0.3410  0.5921
 3514SOL    HW222005   4.723   1.104   5.177  0.4256  1.0452 -0.5971
 3515SOL     OW22006   1.243   0.853   3.475  0.0987  0.0333  0.0997
 3515SOL    HW122007   1.336   0.845   3.495  0.2718 -0.7110 -1.0361
 3515SOL    HW222008   1.212   0.830   3.563  0.7987 -0.3399  0.2502
 3516SOL     OW22009   3.661   4.531   5.202  0.0408 -0.3948 -0.1599
 3516SOL    HW122010   3.665   4.624   5.224  0.0072  0.1048 -2.3563
 3516SOL    HW222011   3.752   4.515   5.179 -0.4514  0.4674 -2.6601
 3517SOL     OW22012   0.494   2.903   7.535 -0.2885 -0.1904  0.3271
 3517SOL    HW122013   0.458   2.823   7.496 -0.9864  0.8751 -1.2127
 3517SOL    HW222014   0.587   2.896   7.512 -0.4220 -0.5511 -0.1116
 3518SOL     OW22015   4.030   1.607   0.809 -0.4318  0.2044 -0.0818
 3518SOL    HW122016   4.041   1.550   0.884  0.2089  1.0615  0.4816
 3518SOL    HW222017   4.115   1.651   0.815 -0.7630  0.7731  0.4107
 3519SOL     OW22018   4.257   1.753   6.225  0.4448  0.4584  0.3711
 3519SOL    HW122019   4.313   1.682   6.257  1.0052  1.4509  1.6300
 3519SOL    HW222020   4.274   1.740   6.132 -1.1041  1.3135 -0.0343
 3520SOL     OW22021   0.408   3.758   2.685 -0.2019  0.2596 -0.6293
 3520SOL    HW122022   0.319   3.773   2.653  0.4875  1.2045 -2.1268
 3520SOL    HW222023   0.414   3.663   2.691  3.2007  0.5873  1.1374
 3521SOL     OW22024   2.536   1.311   4.229  0.3414 -0.2682 -0.1339
 3521SOL    HW122025   2.589   1.231   4.227  1.0284  0.1401  1.4931
 3521SOL    HW222026   2.593   1.354   4.292 -1.6385 -0.2724  1.6633
 3522SOL     OW22027   3.024   1.151   8.300 -0.3808  0.2234  0.3214
 3522SOL    HW122028   2.968   1.085   8.260  0.2911  0.4094 -0.9109
 3522SOL    HW222029   2.994   1.153   8.391 -1.7744  1.8244 -0.1891
 3523SOL     OW22030   3.128   0.084  13.919 -0.3102 -0.3786  0.4580
 3523SOL    HW122031   3.195   0.152  13.908 -1.5714  0.5643 -1.3956
 3523SOL    HW222032   3.110   0.077  14.013 -0.6038 -1.4187  0.3166
 3524SOL     OW22033   2.631   3.048  12.776  0.4871  0.0741 -0.3571
 3524SOL    HW122034   2.671   2.962  12.759 -0.4597 -0.6032  0.8131
 3524SOL    HW222035   2.639   3.052  12.872 -1.6450 -1.1351 -0.1184
 3525SOL     OW22036   1.579   0.902   9.171  0.1663 -0.4455  0.2072
 3525SOL    HW122037   1.619   0.942   9.248 -0.3488  0.4027  0.0426
 3525SOL    HW222038   1.590   0.970   9.104 -0.2253  1.2479  1.8291
 3526SOL     OW22039   2.529   0.478   6.235  0.4292 -0.2130 -0.1504
 3526SOL    HW122040   2.617   0.442   6.227  0.5318 -0.2658  1.1178
 3526SOL    HW222041   2.511   0.501   6.144  0.5672 -2.0431 -0.6326
 3527SOL     OW22042   4.693   1.373  14.237  0.1374  0.4417 -0.3616
 3527SOL    HW122043   4.619   1.313  14.224  1.2602 -1.1185  0.4032
 3527SOL    HW222044   0.034   1.317  14.196  0.6866  2.0994 -1.7350
 3528SOL     OW22045   1.702   1.572   0.743  0.4123  0.6540  0.4107
 3528SOL    HW122046   1.748   1.637   0.796  1.4992 -0.3562  0.7068
 3528SOL    HW222047   1.653   1.530   0.814 -0.8269  0.3993 -0.5987
 3529SOL     OW22048   0.989   1.028   2.069 -0.3307 -0.1068  0.4619
 3529SOL    HW122049   0.910   1.017   2.122 -0.1513  1.7418  1.1002
 3529SOL    HW222050   1.026   0.941   2.079  3.3620  1.7269  2.7781
 3530SOL     OW22051   1.535   1.465  12.196 -0.2834  0.0098 -0.5669
 3530SOL    HW122052   1.615   1.429  12.157  1.1648  2.0606  0.5543
 3530SOL    HW222053   1.569   1.546  12.232  0.1155 -0.3023 -0.2359
 3531SOL     OW22054   0.950   3.623   5.508 -0.0714 -0.0561  0.4560
 3531SOL    HW122055   0.936   3.716   5.491  0.4540  0.2418  1.6058
 3531SOL    HW222056   1.024   3.622   5.570  0.7577 -0.5283 -0.5358
 3532SOL     OW22057   3.290   2.676   5.135  0.5030  0.4550  0.3494
 3532SOL    HW122058   3.342   2.707   5.061 -1.6718 -0.7513 -1.6866
 3532SOL    HW222059   3.286   2.582   5.116 -0.6846  0.7172 -0.6559
 3533SOL     OW22060   0.167   3.192   5.665 -0.3859  0.3811 -0.1624
 3533SOL    HW122061   0.127   3.279   5.653 -0.3160  0.5166  0.6034
 3533SOL    HW222062   0.106   3.139   5.717 -0.1629  0.2275 -0.0586
 3534SOL     OW22063   0.509   0.348   3.837  0.3344 -0.5184  0.1241
 3534SOL    HW122064   0.496   0.418   3.902 -1.2726  0.4052 -1.1769
 3534SOL    HW222065   0.415   0.337   3.821 -0.1209  2.6975  0.4757
 3535SOL     OW22066   0.450   2.485  11.010 -0.0843  0.4263 -0.2209
 3535SOL    HW122067   0.435   2.400  10.968  0.6146  0.0080  0.3635
 3535SOL    HW222068   0.433   2.542  10.935  1.8216  0.3517 -0.7164
 3536SOL     OW22069   3.528   3.534   3.063 -0.0041 -0.2734 -0.5204
 3536SOL    HW122070   3.553   3.610   3.011  2.6007 -1.4283 -0.9560
 3536SOL    HW222071   3.589   3.543   3.136 -0.8714 -0.3388  0.2142
 3537SOL     OW22072   0.947   3.640   6.309  0.6099  0.3824 -0.1639
 3537SOL    HW122073   0.873   3.672   6.258  1.4693  0.1432 -1.5538
 3537SOL    HW222074   0.985   3.711   6.360 -1.4990 -0.2072  2.2335
 3538SOL     OW22075   2.011   4.257   6.682 -0.1444  0.5617  0.3068
 3538SOL    HW122076   2.014   4.336   6.737  0.7995  0.4629  0.3987
 3538SOL    HW222077   1.952   4.199   6.731 -2.9943  0.7125 -2.9721
 3539SOL     OW22078   4.264   2.678   2.163 -0.2505 -0.1563  0.0197
 3539SOL    HW122079   4.259   2.770   2.190  0.5574 -0.5918  1.6345
 3539SOL    HW222080   4.350   2.671   2.122 -1.0558 -2.1112 -1.3047
 3540SOL     OW22081   4.608   2.478  15.201 -0.9284 -0.3622 -0.1540
 3540SOL    HW122082   4.698   2.508  15.211 -0.5524 -2.5315  3.1137
 3540SOL    HW222083   4.560   2.561  15.210 -2.1012 -1.4171  3.4159
 3541SOL     OW22084   1.426   0.720  13.220 -0.1223  0.0037  1.0364
 3541SOL    HW122085   1.370   0.749  13.148 -2.1532 -3.0091  1.4101
 3541SOL    HW222086   1.395   0.771  13.295 -2.2551  2.0560 -1.2235
 3542SOL     OW22087   3.970   2.727  12.427 -0.6056  0.6470 -0.0424
 3542SOL    HW122088   4.002   2.667  12.494 -0.9349 -1.2981 -1.6479
 3542SOL    HW222089   4.001   2.809  12.467 -1.3709  1.3539 -0.9078
 3543SOL     OW22090   0.779   1.332   2.538  0.2610  0.1892  0.5438
 3543SOL    HW122091   0.826   1.310   2.457 -1.1465  1.7994 -0.7144
 3543SOL    HW222092   0.839   1.322   2.611 -0.1052 -0.5596  0.7396
 3544SOL     OW22093   1.039   0.442   4.380 -0.0233  0.4625 -0.1151
 3544SOL    HW122094   1.086   0.364   4.409 -0.8942 -0.7363 -1.9077
 3544SOL    HW222095   0.951   0.413   4.355  0.4198 -0.5827 -0.4846
 3545SOL     OW22096   2.904   2.885   8.485 -0.9112  0.0788 -0.1014
 3545SOL    HW122097   2.990   2.870   8.446 -1.1464  0.3490 -0.7275
 3545SOL    HW222098   2.909   2.824   8.559  0.2541  1.2123  0.7598
 3546SOL     OW22099   2.855   0.344   7.536 -0.4214 -0.2094  0.3601
 3546SOL    HW122100   2.904   0.275   7.491 -0.6624 -0.4012  0.3954
 3546SOL    HW222101   2.890   0.424   7.495 -3.5480  1.3310  0.7004
 3547SOL     OW22102   3.261   3.015   4.951  0.1587  0.4504 -0.4153
 3547SOL    HW122103   3.196   3.085   4.940 -0.5314 -0.6473 -3.3422
 3547SOL    HW222104   3.285   3.007   4.859  0.0214  1.8777 -0.5756
 3548SOL     OW22105   3.728   0.247   5.304 -0.5431 -0.7048 -0.1129
 3548SOL    HW122106   3.810   0.203   5.327 -0.6201 -0.0124  1.4894
 3548SOL    HW222107   3.674   0.178   5.267  0.2508  0.1553 -2.8543
 3549SOL     OW22108   0.291   1.026  10.651  0.2531  0.2085  0.2476
 3549SOL    HW122109   0.293   0.931  10.647 -1.5461  0.1680  0.2463
 3549SOL    HW222110   0.261   1.057  10.737 -2.0442 -4.0837  0.9797
 3550SOL     OW22111   1.574   1.108   3.518  0.3065 -0.4925  0.2891
 3550SOL    HW122112   1.625   1.177   3.561  1.2888 -0.9337 -0.1620
 3550SOL    HW222113   1.590   1.128   3.426  2.6724 -1.2617  0.5340
 3551SOL     OW22114   3.444   2.502   4.106  1.0627 -0.3564  0.0887
 3551SOL    HW122115   3.464   2.435   4.171 -1.7859  0.1483  1.4564
 3551SOL    HW222116   3.447   2.447   4.028 -0.4815  0.5473 -0.6141
 3552SOL     OW22117   4.033   0.541   8.679  0.2589 -0.1003 -0.1773
 3552SOL    HW122118   4.098   0.508   8.617  0.9363 -0.2828  0.6336
 3552SOL    HW222119   3.978   0.466   8.704 -1.7328  0.8287 -1.8600
 3553SOL     OW22120   4.487   0.325   5.359 -0.3205 -0.2989  0.5069
 3553SOL    HW122121   4.415   0.313   5.421 -0.1154 -2.7486  0.3004
 3553SOL    HW222122   4.556   0.294   5.418  0.1771 -1.4054 -0.6547
 3554SOL     OW22123   2.875   2.098   6.812  0.0345  0.3867  0.0840
 3554SOL    HW122124   2.842   2.078   6.900  2.0204 -1.9567  0.3159
 3554SOL    HW222125   2.788   2.112   6.777  1.1164 -0.1779 -2.8250
 3555SOL     OW22126   3.627   2.134   3.042  0.2931  0.1187 -0.4791
 3555SOL    HW122127   3.631   2.039   3.053 -0.9939  0.2054  0.7152
 3555SOL    HW222128   3.638   2.162   3.133  1.4814  1.3003 -0.9899
 3556SOL     OW22129   0.612   1.739   2.595 -0.3478  0.0453  0.2830
 3556SOL    HW122130   0.653   1.801   2.535 -1.3364  0.0890 -0.3593
 3556SOL    HW222131   0.615   1.781   2.680 -0.5657  0.8479 -0.1067
 3557SOL     OW22132   3.904   4.663   6.189  0.0220 -0.9416  0.2301
 3557SOL    HW122133   3.834   4.673   6.254 -2.0002 -2.0369 -1.7855
 3557SOL    HW222134   3.845   4.651   6.115 -2.7257  1.6871  1.9860
 3558SOL     OW22135   2.632   2.340   7.514 -0.5332  0.1086  0.0442
 3558SOL    HW122136   2.677   2.424   7.526  2.8077 -1.6085 -0.2699
 3558SOL    HW222137   2.618   2.322   7.607  3.1804  2.2744  1.0393
 3559SOL     OW22138   3.983   3.155   0.449 -0.5330  0.2058  0.3307
 3559SOL    HW122139   3.906   3.102   0.427  0.4421 -1.5689  1.1573
 3559SOL    HW222140   4.053   3.125   0.391 -0.6468  0.2361  0.1771
 3560SOL     OW22141   2.792   4.498   3.756  0.1897 -0.6215 -0.9222
 3560SOL    HW122142   2.781   4.421   3.811 -1.5265  0.0930 -0.2751
 3560SOL    HW222143   2.710   4.541   3.777  1.0031  0.7059 -0.4554
 3561SOL     OW22144   1.745   2.753   5.273  0.3073 -0.8363 -0.1144
 3561SOL    HW122145   1.755   2.816   5.202  2.2026 -0.8091  0.1872
 3561SOL    HW222146   1.836   2.749   5.302  0.7419 -0.3592 -1.4451
 3562SOL     OW22147   1.672   3.821  16.001 -0.2782 -0.3771 -0.3600
 3562SOL    HW122148   1.647   3.783  15.917 -0.8254 -0.9207  0.0437
 3562SOL    HW222149   1.583   3.845  16.028  0.8011  3.6635 -0.4689
 3563SOL     OW22150   2.189   4.548   3.070 -0.5102  0.1263 -0.4094
 3563SOL    HW122151   2.189   4.454   3.087  2.3613  0.5931  2.0027
 3563SOL    HW222152   2.274   4.556   3.027 -0.3831  0.8913 -0.0195
 3564SOL     OW22153   3.409   2.175   5.967 -0.3499  0.2120 -0.0607
 3564SOL    HW122154   3.401   2.115   6.041  0.6627 -0.7207 -0.7181
 3564SOL    HW222155   3.495   2.211   5.987 -0.7371  0.6765  0.7582
 3565SOL     OW22156   3.551   3.215   5.229  0.0941  0.5043 -0.6745
 3565SOL    HW122157   3.564   3.237   5.321  0.2112 -0.2364 -0.5161
 3565SOL    HW222158   3.462   3.247   5.217 -0.4296 -0.4463  0.6196
 3566SOL     OW22159   2.489   2.706  17.503 -0.1449  0.1354  0.2095
 3566SOL    HW122160   2.559   2.665  17.554  1.5011 -0.6012 -2.6789
 3566SOL    HW222161   2.440   2.754  17.571 -0.0562 -0.8022  0.9427
 3567SOL     OW22162   3.773   1.000   7.199 -0.1325  0.2272 -0.2466
 3567SOL    HW122163   3.811   0.932   7.143  0.8143  0.4258  0.1679
 3567SOL    HW222164   3.784   1.082   7.152 -1.5337  0.7999  0.4226
 3568SOL     OW22165   4.274   3.714  15.856  0.3025  0.0652  0.2209
 3568SOL    HW122166   4.228   3.797  15.870 -0.5944 -0.2883 -0.6335
 3568SOL    HW222167   4.203   3.651  15.869  0.3940  0.0149  0.4647
 3569SOL     OW22168   0.272   0.988   3.989  0.2929 -0.0657  0.4580
 3569SOL    HW122169   0.365   0.996   3.970  0.2213 -0.7773 -0.2232
 3569SOL    HW222170   0.266   0.923   4.059  2.4002 -1.3377 -0.5474
 3570SOL     OW22171   1.216   0.236   7.457  0.6630 -0.0797 -0.0956
 3570SOL    HW122172   1.309   0.253   7.445 -0.1598  1.4574 -4.3119
 3570SOL    HW222173   1.222   0.153   7.505 -0.6691 -0.0102  0.1785
 3571SOL     OW22174   4.202   0.969  10.749 -0.0138 -0.4650  0.2084
 3571SOL    HW122175   4.164   1.054  10.728  1.7853  0.4351  0.5232
 3571SOL    HW222176   4.206   0.932  10.660  0.5748  0.9807 -0.3666
 3572SOL     OW22177   1.747   4.644   0.432 -0.1714  0.0064  0.4713
 3572SOL    HW122178   1.787   4.655   0.345 -0.0037  0.6366  0.6305
 3572SOL    HW222179   1.655   4.662   0.412  0.2408  0.4244 -1.1223
 3573SOL     OW22180   2.338   3.638   3.743 -0.2183  0.2797 -0.0137
 3573SOL    HW122181   2.269   3.670   3.800 -0.9347 -2.8558  0.8561
 3573SOL    HW222182   2.289   3.592   3.675  3.5192 -0.4404 -2.2321
 3574SOL     OW22183   1.011   2.139  17.046  0.8062  0.1922 -0.0155
 3574SOL    HW122184   0.946   2.157  16.978  1.7056  3.0642 -0.1392
 3574SOL    HW222185   0.980   2.057  17.084  0.4057  0.4298  0.1653
 3575SOL     OW22186   0.123   0.298   8.651  0.2883  0.3092  0.8337
 3575SOL    HW122187   0.153   0.291   8.741  1.5466 -0.3908  0.3567
 3575SOL    HW222188   0.029   0.292   8.670 -0.1451 -0.5036 -1.6003
 3576SOL     OW22189   4.625   2.348   5.289  0.3251  0.2390 -0.1331
 3576SOL    HW122190   4.693   2.401   5.245 -0.9871  0.9225 -1.3243
 3576SOL    HW222191   4.550   2.359   5.231 -0.9703  0.5163  1.6190
 3577SOL     OW22192   1.875   0.722   3.078 -1.1931 -0.8883  0.0204
 3577SOL    HW122193   1.877   0.698   2.985 -0.5111  1.3059 -0.5197
 3577SOL    HW222194   1.847   0.813   3.074 -0.4257 -0.5898  1.5915
 3578SOL     OW22195   1.814   3.902   0.584 -0.2821  0.1810 -0.4511
 3578SOL    HW122196   1.834   3.986   0.542  0.9705  0.3318  0.4402
 3578SOL    HW222197   1.875   3.904   0.659  1.1988  2.2418 -1.6866
 3579SOL     OW22198   0.349   2.987  15.495 -0.4506 -0.0149 -0.4478
 3579SOL    HW122199   0.254   2.980  15.486 -0.4807 -0.2942  0.0205
 3579SOL    HW222200   0.389   2.964  15.411  0.7774  0.3984  0.0237
 3580SOL     OW22201   3.614   2.788   5.183  0.3126  0.1655 -0.4919
 3580SOL    HW122202   3.589   2.844   5.110  0.0139 -2.5916 -2.4955
 3580SOL    HW222203   3.647   2.854   5.244  0.1741 -0.9331  0.7889
 3581SOL     OW22204   0.753   3.777   4.552  0.6427 -0.5169  0.3414
 3581SOL    HW122205   0.699   3.726   4.612  1.6596 -0.1630  1.5765
 3581SOL    HW222206   0.812   3.709   4.519 -0.6145 -1.2088 -0.4712
 3582SOL     OW22207   0.420   3.724   2.320 -0.1705 -0.8598 -0.0500
 3582SOL    HW122208   0.428   3.650   2.260  1.5790  1.2907 -2.4724
 3582SOL    HW222209   0.328   3.751   2.313  0.0475  0.0684  0.7581
 3583SOL     OW22210   2.413   4.377   3.721  0.5712 -0.0785 -0.4285
 3583SOL    HW122211   2.399   4.374   3.815  4.9385 -1.7549  0.1590
 3583SOL    HW222212   2.457   4.295   3.702  2.0284  0.7241 -0.4962
 3584SOL     OW22213   1.304   1.748   2.265 -0.2981  0.2518  0.0176
 3584SOL    HW122214   1.296   1.657   2.296  2.6248  0.1121  0.3011
 3584SOL    HW222215   1.272   1.734   2.176 -0.6510 -1.1169  0.3470
 3585SOL     OW22216   3.582   1.985  10.707 -0.3272 -0.0690  0.3005
 3585SOL    HW122217   3.626   2.070  10.717 -1.4380  0.2977  2.2295
 3585SOL    HW222218   3.632   1.939  10.775 -0.6304 -1.9685 -0.8034
 3586SOL     OW22219   2.969   0.733   1.296  0.0689  0.8350  0.7923
 3586SOL    HW122220   3.062   0.712   1.289 -0.1324  1.0502 -2.2729
 3586SOL    HW222221   2.959   0.814   1.246 -0.0291 -0.8774 -1.9663
 3587SOL     OW22222   2.560   3.807   5.405  0.6038 -0.0771 -0.2821
 3587SOL    HW122223   2.604   3.747   5.345 -2.2824 -1.8962 -0.5995
 3587SOL    HW222224   2.527   3.874   5.345  0.5988 -0.3108 -0.5420
 3588SOL     OW22225   4.208   4.705   3.456  0.1983 -0.1578  0.1728
 3588SOL    HW122226   4.292   4.659   3.464 -0.7155 -1.5188  1.9897
 3588SOL    HW222227   4.160   4.630   3.420 -2.4304  2.0212 -0.8448
 3589SOL     OW22228   4.312   4.212   0.113 -0.1208  0.2244  0.0081
 3589SOL    HW122229   4.381   4.272   0.143 -0.9808  1.2469 -0.0583
 3589SOL    HW222230   4.323   4.143   0.178  0.1755 -0.7094 -1.0334
 3590SOL     OW22231   0.811   0.500  17.436 -1.0323  0.1192 -0.2440
 3590SOL    HW122232   0.864   0.437  17.484  1.0708 -1.2164 -4.2527
 3590SOL    HW222233   0.839   0.491  17.345  0.9944 -0.9300  0.4877
 3591SOL     OW22234   1.421   3.595  14.797  0.1928  0.1315  0.3293
 3591SOL    HW122235   1.377   3.520  14.838 -1.1021  0.2122 -0.9172
 3591SOL    HW222236   1.473   3.543  14.735  0.7619  2.8104 -1.4197
 3592SOL     OW22237   4.112   1.817  14.956 -0.2586 -0.1992 -0.0127
 3592SOL    HW122238   4.161   1.878  15.010  1.5010 -0.8428 -0.8603
 3592SOL    HW222239   4.021   1.832  14.980 -0.6551  0.2011 -1.7232
 3593SOL     OW22240   4.423   3.352  10.703  0.8819 -0.4081  0.3789
 3593SOL    HW122241   4.485   3.423  10.683  0.8807 -0.6825 -0.6071
 3593SOL    HW222242   4.384   3.334  10.618 -0.0410  0.9251  0.5261
 3594SOL     OW22243   3.359   2.937  12.736  0.1917  0.0893  0.2603
 3594SOL    HW122244   3.432   2.884  12.705  0.5073 -0.8426  2.5926
 3594SOL    HW222245   3.382   3.020  12.694 -1.5232 -0.0339 -0.9043
 3595SOL     OW22246   1.544   2.566   5.202  0.2023 -0.0495  0.5950
 3595SOL    HW122247   1.456   2.595   5.226 -0.3190  0.4476 -1.9160
 3595SOL    HW222248   1.597   2.640   5.231  1.9703 -1.5254  1.0818
 3596SOL     OW22249   3.082   0.036   6.839  0.3512 -0.3091 -0.3772
 3596SOL    HW122250   3.002   0.049   6.787 -0.9530  0.9459  1.9545
 3596SOL    HW222251   3.147   0.042   6.769  0.0713  1.1679 -0.5125
 3597SOL     OW22252   3.990   1.015   6.503 -0.7390  0.1108  0.3470
 3597SOL    HW122253   4.070   1.035   6.453 -0.5046 -0.9830  0.2874
 3597SOL    HW222254   4.006   0.924   6.528  0.1478 -0.2900 -1.6927
 3598SOL     OW22255   3.576   3.223   0.525 -0.1442  0.1464 -0.0896
 3598SOL    HW122256   3.565   3.275   0.445 -2.0650  0.7355  0.5497
 3598SOL    HW222257   3.631   3.148   0.505 -0.9287  0.1563 -2.3053
 3599SOL     OW22258   0.677   3.091   0.588 -0.1990 -0.6901 -0.0176
 3599SOL    HW122259   0.659   3.014   0.641  0.5650 -0.3642  0.7119
 3599SOL    HW222260   0.750   3.133   0.634  1.3937 -1.5339 -1.7610
 3600SOL     OW22261   0.006   1.784  16.348  0.2843  0.4256  0.2059
 3600SOL    HW122262   0.090   1.810  16.386  2.1732 -2.7331 -1.7721
 3600SOL    HW222263   0.028   1.763  16.257  0.6917  1.7784 -0.0085
 3601SOL     OW22264   2.216   3.744   7.655 -0.2562 -0.9627  0.1882
 3601SOL    HW122265   2.164   3.776   7.582 -0.2724 -0.4524  0.4236
 3601SOL    HW222266   2.281   3.711   7.593  0.8199 -3.2060  2.5308
 3602SOL     OW22267   1.217   1.950   8.299 -0.1186  0.3902  0.1669
 3602SOL    HW122268   1.259   2.032   8.275  0.5313  0.0841  0.2561
 3602SOL    HW222269   1.291   1.890   8.291  0.4102  0.9429  0.9552
 3603SOL     OW22270   1.164   1.852   4.558  0.3523 -0.7498  0.0779
 3603SOL    HW122271   1.134   1.879   4.644  1.5952 -2.2177  0.9757
 3603SOL    HW222272   1.248   1.898   4.551  0.5708 -1.3640 -1.3728
 3604SOL     OW22273   2.756   3.941  12.148 -0.1391  0.8128  0.1226
 3604SOL    HW122274   2.817   3.909  12.082  0.3453  0.8264  0.5656
 3604SOL    HW222275   2.790   3.896  12.225 -2.0472  3.0301  2.2438
 3605SOL     OW22276   0.757   0.556   7.509  0.7450 -0.7145 -0.2026
 3605SOL    HW122277   0.671   0.596   7.523  0.5691 -1.7051  1.4343
 3605SOL    HW222278   0.743   0.471   7.468  0.7476  0.4659 -2.6491
 3606SOL     OW22279   2.412   3.083   6.144 -0.0076  0.1674  0.4474
 3606SOL    HW122280   2.464   3.004   6.156  0.8454  0.6608 -0.0239
 3606SOL    HW222281   2.322   3.050   6.154 -0.3437  1.2461  1.0775
 3607SOL     OW22282   0.886   1.831  16.585  0.5594 -0.1263  0.5197
 3607SOL    HW122283   0.828   1.907  16.578 -1.6304 -2.0624 -2.1929
 3607SOL    HW222284   0.925   1.834  16.673  0.2193 -0.9831  0.7003
 3608SOL     OW22285   0.077   0.176   0.038  0.2237 -0.0048 -0.0431
 3608SOL    HW122286   0.016   0.207  17.673 -0.1317 -1.3279 -0.3251
 3608SOL    HW222287   0.159   0.214   0.006 -1.1665  2.0867 -1.0946
 3609SOL     OW22288   1.427   0.864   9.786  0.0521 -0.0735 -0.3300
 3609SOL    HW122289   1.337   0.897   9.792  0.0909  0.2073 -1.3467
 3609SOL    HW222290   1.404   0.774   9.761 -0.8553  0.4153 -1.2499
 3610SOL     OW22291   4.148   1.616   1.207 -0.0455 -0.2800  0.4331
 3610SOL    HW122292   4.131   1.537   1.156  1.0547  0.1436 -0.5960
 3610SOL    HW222293   4.118   1.590   1.294 -1.0671  2.1274  0.7941
 3611SOL     OW22294   0.083   3.370  13.355 -0.0187  0.5982 -0.2606
 3611SOL    HW122295   0.160   3.410  13.316  2.1085 -2.4888  0.7839
 3611SOL    HW222296   0.126   3.332  13.432 -0.5605  1.2357  0.3611
 3612SOL     OW22297   1.948   3.283   6.266 -0.4249  0.3430 -0.0180
 3612SOL    HW122298   2.005   3.352   6.301 -0.7057  1.6674 -2.1758
 3612SOL    HW222299   1.911   3.242   6.345 -2.3333 -0.8443 -1.5060
 3613SOL     OW22300   0.535   4.332   7.894  0.4453  0.0280  0.0686
 3613SOL    HW122301   0.496   4.419   7.883  1.0714  0.0628 -1.9059
 3613SOL    HW222302   0.475   4.306   7.964 -1.8783  3.0564 -0.7927
 3614SOL     OW22303   1.938   4.683   1.893  0.3515 -0.0133 -0.2490
 3614SOL    HW122304   1.979   4.620   1.834 -0.6613 -1.1399  0.2495
 3614SOL    HW222305   1.858   4.636   1.919  0.8673 -0.9985 -0.4343
 3615SOL     OW22306   0.474   3.851  10.704 -0.4067  0.6786 -0.4726
 3615SOL    HW122307   0.469   3.937  10.663 -0.5254  1.2748  0.8053
 3615SOL    HW222308   0.443   3.799  10.629 -2.6210 -0.8858  1.5581
 3616SOL     OW22309   0.884   2.779   3.457  0.3507  0.2167 -0.1272
 3616SOL    HW122310   0.976   2.804   3.461  0.2340  0.1370  2.7336
 3616SOL    HW222311   0.869   2.696   3.503 -1.0071  0.1953 -0.6046
 3617SOL     OW22312   4.411   0.983   8.589 -0.4883 -0.3128 -0.2850
 3617SOL    HW122313   4.434   0.915   8.526  0.0205  0.0889 -0.5353
 3617SOL    HW222314   4.497   1.015   8.616 -1.0192  0.8425  0.0112
 3618SOL     OW22315   4.352   3.451   3.831  0.5931 -0.7288 -0.2978
 3618SOL    HW122316   4.402   3.409   3.761  1.4384 -0.8958  0.4061
 3618SOL    HW222317   4.304   3.370   3.848 -1.9663  0.7923 -0.3480
 3619SOL     OW22318   1.899   1.482   3.711 -0.1770  0.1308  0.4699
 3619SOL    HW122319   1.963   1.468   3.781  2.2399  0.0796 -1.7802
 3619SOL    HW222320   1.866   1.392   3.709  1.2603 -0.4041  0.5135
 3620SOL     OW22321   1.260   0.607   8.807  0.2941 -0.3178 -0.0840
 3620SOL    HW122322   1.187   0.561   8.848  0.9794 -1.2846  0.0455
 3620SOL    HW222323   1.255   0.568   8.719  1.5781  0.7311 -0.6180
 3621SOL     OW22324   1.568   4.173   0.301  0.0861  0.3441 -0.3317
 3621SOL    HW122325   1.640   4.144   0.356  0.9660  0.0209 -1.6420
 3621SOL    HW222326   1.531   4.230   0.368 -1.2787 -0.4450 -0.4154
 3622SOL     OW22327   2.759   3.877   2.345 -0.0148  0.4286  0.3233
 3622SOL    HW122328   2.687   3.937   2.365 -1.2576 -0.4893 -1.3360
 3622SOL    HW222329   2.820   3.927   2.292 -0.2591  0.2612 -0.1212
 3623SOL     OW22330   3.168   0.081   2.093 -0.3414  0.2849 -0.3738
 3623SOL    HW122331   3.242   0.137   2.114 -1.5749  1.3344  1.1929
 3623SOL    HW222332   3.136   0.065   2.182 -0.7131 -2.1126 -0.9269
 3624SOL     OW22333   2.740   2.652  10.662 -0.0220  0.5246 -0.0980
 3624SOL    HW122334   2.735   2.748  10.660 -1.9151  0.5038  3.1013
 3624SOL    HW222335   2.654   2.634  10.702 -0.4272  1.3119 -0.6112
 3625SOL     OW22336   0.262   0.073   8.100 -0.4820 -0.1206  0.1960
 3625SOL    HW122337   0.181   0.026   8.122 -1.7142  1.2179 -1.3973
 3625SOL    HW222338   0.338   0.033   8.141  0.2439 -0.2430 -1.2726
 3626SOL     OW22339   0.348   1.382  13.160 -0.0649  0.2443 -0.0150
 3626SOL    HW122340   0.306   1.386  13.074 -0.0186  1.8675  0.0290
 3626SOL    HW222341   0.372   1.475  13.170 -0.7666  0.6230 -1.7943
 3627SOL     OW22342   4.497   3.613   0.017  0.0746  0.0422  0.0971
 3627SOL    HW122343   4.476   3.700  17.685 -0.2573 -0.3059 -0.5728
 3627SOL    HW222344   4.516   3.642   0.107 -1.5586 -1.9510  1.0770
 3628SOL     OW22345   0.999   4.124   6.657 -0.4251 -0.1012  0.1147
 3628SOL    HW122346   0.949   4.184   6.601  0.9047 -0.4946 -1.4580
 3628SOL    HW222347   0.978   4.156   6.746 -2.2602 -1.3276  0.1297
 3629SOL     OW22348   3.945   3.237   9.742 -0.3252  0.2432 -0.5401
 3629SOL    HW122349   3.907   3.222   9.829  2.2349  1.4670  0.7825
 3629SOL    HW222350   3.874   3.207   9.686 -0.6502 -1.4486  0.7794
 3630SOL     OW22351   3.044   2.232   5.084  0.2341  0.2319  0.7898
 3630SOL    HW122352   3.029   2.137   5.090  1.1501 -0.0349 -1.1794
 3630SOL    HW222353   3.044   2.245   5.179 -0.1711  1.6331  0.5921
 3631SOL     OW22354   0.308   0.604  12.868  0.4755  0.4476 -0.1656
 3631SOL    HW122355   0.268   0.661  12.802  1.4558  2.0061  0.5915
 3631SOL    HW222356   0.240   0.555  12.914  1.6360 -0.7605  0.2681
 3632SOL     OW22357   2.507   2.985  14.450 -0.2343 -0.2698  0.0320
 3632SOL    HW122358   2.520   3.052  14.517  1.5974 -1.5832  0.9570
 3632SOL    HW222359   2.527   2.906  14.500  1.1912  0.2936  0.3429
 3633SOL     OW22360   1.275   0.453   9.096  0.1197 -0.1398  0.2734
 3633SOL    HW122361   1.205   0.484   9.039 -0.4981  0.7831  1.5579
 3633SOL    HW222362   1.332   0.530   9.095  0.7596 -0.5977  0.9215
 3634SOL     OW22363   2.584   4.508   6.989 -0.1718  0.6334 -0.1863
 3634SOL    HW122364   2.547   4.562   7.059 -0.3658 -1.9435  1.6800
 3634SOL    HW222365   2.611   4.568   6.919  0.4845  0.4034 -0.1283
 3635SOL     OW22366   1.145   3.954   5.378  0.3433 -0.2230  0.4713
 3635SOL    HW122367   1.148   3.865   5.342 -0.1184  0.7527 -1.9948
 3635SOL    HW222368   1.123   3.938   5.470 -2.3123  1.9342  0.2185
 3636SOL     OW22369   4.489   3.968   4.881  0.1905  0.4025 -0.1628
 3636SOL    HW122370   4.579   3.991   4.904  0.0688 -0.2998  1.0243
 3636SOL    HW222371   4.447   4.006   4.959 -0.4385  2.2472 -1.3929
 3637SOL     OW22372   0.438   3.505   2.741  0.4667 -0.2745  0.1562
 3637SOL    HW122373   0.527   3.483   2.767  0.9586 -0.2950 -1.5241
 3637SOL    HW222374   0.384   3.429   2.760  0.1205  0.0118  0.3220
 3638SOL     OW22375   2.887   0.595  13.595  0.1895  0.0287 -0.3790
 3638SOL    HW122376   2.888   0.588  13.690  0.6018 -0.2255 -0.4042
 3638SOL    HW222377   2.876   0.688  13.576 -2.3980 -0.0512  0.7287
 3639SOL     OW22378   1.261   0.343   0.828  0.1002 -0.1138 -0.3307
 3639SOL    HW122379   1.249   0.372   0.737  0.9224 -0.5804 -0.5847
 3639SOL    HW222380   1.352   0.315   0.833 -0.5817 -2.2851  0.2225
 3640SOL     OW22381   4.320   0.572   0.754  0.2777  0.3197  0.0606
 3640SOL    HW122382   4.365   0.498   0.712  2.1531  0.8880  1.0705
 3640SOL    HW222383   4.353   0.635   0.690  1.6495  1.4242  1.8579
 3641SOL     OW22384   0.283   2.991   1.076 -0.0861  0.7673  0.2708
 3641SOL    HW122385   0.377   3.005   1.087  0.1558 -0.1920 -0.5119
 3641SOL    HW222386   0.272   2.934   0.999 -1.9794 -0.0567  1.1421
 3642SOL     OW22387   4.525   0.111  13.859  0.1019 -0.4551  0.4010
 3642SOL    HW122388   4.550   0.201  13.836 -0.2606 -0.7908 -1.2685
 3642SOL    HW222389   4.481   0.123  13.944 -0.1845 -0.1114  0.2067
 3643SOL     OW22390   1.706   0.689   3.936  0.1841  0.0303  0.2178
 3643SOL    HW122391   1.686   0.628   4.007 -0.2905 -1.6026 -1.2913
 3643SOL    HW222392   1.622   0.732   3.924  0.2982 -0.3812 -2.2303
 3644SOL     OW22393   4.218   0.453   1.450 -0.1211  0.1650 -0.0206
 3644SOL    HW122394   4.220   0.438   1.545  0.0933  1.8887  0.2489
 3644SOL    HW222395   4.169   0.536   1.448  0.0088  0.2561  0.6168
 3645SOL     OW22396   4.227   2.154   3.213  0.4732 -0.1883  0.3935
 3645SOL    HW122397   4.207   2.232   3.161  0.4221 -0.2700  0.2915
 3645SOL    HW222398   4.152   2.096   3.207  2.4674 -2.6180 -0.8960
 3646SOL     OW22399   0.964   3.954   5.870 -0.4196 -0.5281 -0.4712
 3646SOL    HW122400   0.925   4.041   5.884  0.6304  0.2379 -2.2480
 3646SOL    HW222401   0.913   3.925   5.795 -0.3240  0.1936 -0.8135
 3647SOL     OW22402   1.554   3.987   4.265 -0.2441 -0.5605 -0.1230
 3647SOL    HW122403   1.584   3.950   4.348  2.1411 -0.2232 -0.8349
 3647SOL    HW222404   1.551   4.081   4.286 -0.6722  0.3540 -4.3208
 3648SOL     OW22405   0.988   4.265   4.160  0.8089 -0.3495 -0.6674
 3648SOL    HW122406   1.067   4.317   4.148  0.9713 -0.0296  1.8834
 3648SOL    HW222407   0.973   4.295   4.249  0.4499 -0.6415 -0.6275
 3649SOL     OW22408   3.471   3.481  17.080 -0.2078 -0.3321 -0.3981
 3649SOL    HW122409   3.531   3.509  17.011  1.8170 -1.5218  0.8453
 3649SOL    HW222410   3.473   3.386  17.064  0.2726 -0.4884  0.5382
 3650SOL     OW22411   0.565   2.141   3.493  0.0665  0.3320 -0.7139
 3650SOL    HW122412   0.539   2.170   3.580  2.8220 -1.9213  0.8571
 3650SOL    HW222413   0.483   2.135   3.445  0.3623  1.7872 -1.4146
 3651SOL     OW22414   1.603   3.503  13.337 -0.0684  0.0785  0.8468
 3651SOL    HW122415   1.683   3.536  13.297 -0.0454  1.8600  2.3409
 3651SOL    HW222416   1.578   3.584  13.381 -3.7332  0.0602 -1.2626
 3652SOL     OW22417   2.822   0.416   9.089 -0.0572  0.6074  0.1235
 3652SOL    HW122418   2.885   0.437   9.159 -0.6016 -0.6080  0.9764
 3652SOL    HW222419   2.884   0.380   9.026 -0.3033  0.9952 -0.3414
 3653SOL     OW22420   1.495   0.322   7.443  0.4455 -0.1881 -0.0718
 3653SOL    HW122421   1.547   0.287   7.515  0.5681  0.4562  0.1513
 3653SOL    HW222422   1.532   0.410   7.439  0.8472 -0.2928  1.4703
 3654SOL     OW22423   1.896   2.041  16.241  0.1017 -0.5501  0.4317
 3654SOL    HW122424   1.985   2.013  16.261  0.1013  0.3473  1.6282
 3654SOL    HW222425   1.892   2.022  16.147 -1.4514 -1.2166  0.6166
 3655SOL     OW22426   2.160   1.082   5.853  0.6089  0.2259 -0.1336
 3655SOL    HW122427   2.111   1.057   5.931 -0.0355  1.7299 -0.0501
 3655SOL    HW222428   2.091   1.076   5.786  0.3042  1.1201  0.1065
 3656SOL     OW22429   2.556   4.247   6.996  0.0832 -0.0486 -0.5131
 3656SOL    HW122430   2.501   4.235   6.919  0.4736  0.6722 -0.9017
 3656SOL    HW222431   2.565   4.342   7.000 -1.0012  0.1027 -1.8729
 3657SOL     OW22432   0.064   0.070  17.262 -0.0302  0.4098  0.3769
 3657SOL    HW122433   0.028   0.159  17.250 -1.6990 -0.2342  0.5331
 3657SOL    HW222434   0.034   0.021  17.186  2.3279  0.3645 -0.4949
 3658SOL     OW22435   4.464   2.964   7.887  0.1924  0.1960 -0.2432
 3658SOL    HW122436   4.424   3.051   7.882 -2.4306 -0.9118  1.3325
 3658SOL    HW222437   4.552   2.987   7.918  0.9353 -2.0184 -0.7469
 3659SOL     OW22438   1.553   0.138   6.528 -0.3639 -0.2508  0.2551
 3659SOL    HW122439   1.464   0.139   6.491 -0.8486  0.3580  1.4717
 3659SOL    HW222440   1.599   0.098   6.453 -0.1961  1.9617 -0.8099
 3660SOL     OW22441   3.255   1.298  16.194  0.4204 -0.3917  0.6441
 3660SOL    HW122442   3.256   1.205  16.171 -0.9524 -0.8028  2.2878
 3660SOL    HW222443   3.342   1.319  16.161  0.8545 -1.3740  1.2079
 3661SOL     OW22444   2.562   0.121   6.089  0.4588 -0.3989 -0.7019
 3661SOL    HW122445   2.603   0.063   6.024  2.3965 -1.4241  1.4201
 3661SOL    HW222446   2.539   0.047   6.145 -2.0877  0.0890 -1.1030
 3662SOL     OW22447   1.397   0.525   1.356 -0.1423 -0.1318 -0.2460
 3662SOL    HW122448   1.385   0.619   1.372 -2.8995 -0.7471  1.3179
 3662SOL    HW222449   1.420   0.515   1.263 -1.1133  0.4288 -0.5573
 3663SOL     OW22450   0.620   2.578   2.769 -0.3548  0.2832 -0.6512
 3663SOL    HW122451   0.542   2.558   2.717  0.8853 -1.3187 -1.9397
 3663SOL    HW222452   0.583   2.630   2.840  0.0757 -0.5685  0.2001
 3664SOL     OW22453   2.810   1.631  11.847 -0.0068 -0.2688 -0.1634
 3664SOL    HW122454   2.865   1.681  11.786 -0.1725 -0.1611 -0.2273
 3664SOL    HW222455   2.823   1.686  11.924  1.5649 -1.7695  0.6473
 3665SOL     OW22456   3.312   0.501  17.428 -0.2410 -0.0620  0.1474
 3665SOL    HW122457   3.376   0.433  17.410  0.2579  0.5864 -0.5466
 3665SOL    HW222458   3.377   0.572  17.422 -0.2027 -0.1197 -0.1282
 3666SOL     OW22459   3.470   2.672  10.861 -0.2172 -0.1985  0.5219
 3666SOL    HW122460   3.376   2.682  10.876 -0.5582 -0.1092 -1.7537
 3666SOL    HW222461   3.485   2.579  10.880 -0.2262 -0.2858  0.0814
 3667SOL     OW22462   3.817   4.050   3.597  0.0936 -0.2921 -0.1722
 3667SOL    HW122463   3.727   4.032   3.569  0.5552  0.4301 -2.1099
 3667SOL    HW222464   3.858   4.018   3.517 -0.6530 -1.2732 -0.1702
 3668SOL     OW22465   0.308   3.482   4.178 -0.1210  0.1400 -0.6418
 3668SOL    HW122466   0.226   3.504   4.221  0.5606  0.8326  0.3157
 3668SOL    HW222467   0.324   3.400   4.225 -0.4319  0.2451 -0.3557
 3669SOL     OW22468   1.182   3.606   0.029 -0.2361  0.0145  0.2571
 3669SOL    HW122469   1.150   3.603  17.641 -0.7569  0.8311  0.4166
 3669SOL    HW222470   1.196   3.700   0.038 -1.3586  0.1592  0.4929
 3670SOL     OW22471   0.211   2.488   1.817  0.3938  0.5342  0.0189
 3670SOL    HW122472   0.262   2.545   1.874  1.6011  0.4922 -1.0237
 3670SOL    HW222473   0.211   2.542   1.738  0.4789 -1.3502 -1.2931
 3671SOL     OW22474   1.756   4.000   9.205  0.0825 -0.1042 -0.2148
 3671SOL    HW122475   1.663   4.014   9.219  0.1678  0.0045  0.2360
 3671SOL    HW222476   1.772   4.086   9.166  0.4271  0.2012  0.6119
 3672SOL     OW22477   3.793   4.026   7.199  0.1638 -0.2836 -0.5701
 3672SOL    HW122478   3.844   3.946   7.189  0.3987 -0.3829  1.6389
 3672SOL    HW222479   3.706   3.989   7.179 -0.5276  1.0242  0.0390
 3673SOL     OW22480   0.329   2.023   5.771 -0.1888 -0.1807 -0.0191
 3673SOL    HW122481   0.251   1.970   5.754 -0.9184  0.3014  1.8373
 3673SOL    HW222482   0.296   2.078   5.841  1.9383 -1.9596  2.3735
 3674SOL     OW22483   3.355   2.332   3.074 -0.1331  0.4166  0.5663
 3674SOL    HW122484   3.427   2.275   3.102 -2.0245 -2.0385  0.3874
 3674SOL    HW222485   3.357   2.312   2.980 -0.0692  1.0797  0.4290
 3675SOL     OW22486   1.876   2.219   5.949 -0.1319 -0.2429 -0.0301
 3675SOL    HW122487   1.912   2.177   5.871 -2.2411  0.4325 -1.3567
 3675SOL    HW222488   1.951   2.273   5.974  0.5054  0.2203 -2.9765
 3676SOL     OW22489   0.619   3.543   3.813  0.6708  0.1643  0.0427
 3676SOL    HW122490   0.582   3.594   3.885  1.0003 -0.5142  0.6884
 3676SOL    HW222491   0.713   3.549   3.828  0.9767  1.0705 -2.1426
 3677SOL     OW22492   0.124   2.553  11.798 -0.5351  0.3221 -0.3472
 3677SOL    HW122493   0.172   2.531  11.718 -0.6126  0.1214 -0.3405
 3677SOL    HW222494   0.191   2.591  11.854 -1.8750  0.8853  0.8597
 3678SOL     OW22495   3.695   3.398   6.874 -0.0862 -0.2760 -0.4086
 3678SOL    HW122496   3.618   3.359   6.916  0.2038  1.1279  1.4347
 3678SOL    HW222497   3.661   3.424   6.789  0.2205 -2.0623 -1.0774
 3679SOL     OW22498   0.287   3.983  11.376  0.0047  0.0524  0.0322
 3679SOL    HW122499   0.246   3.896  11.379 -0.3108  0.2497  1.4155
 3679SOL    HW222500   0.226   4.017  11.310 -0.2833 -2.6453 -1.1027
 3680SOL     OW22501   4.508   2.394  14.523 -0.7669  0.1907  0.0440
 3680SOL    HW122502   4.450   2.433  14.458 -2.3041 -0.2108  1.1767
 3680SOL    HW222503   4.588   2.372  14.475 -1.4600 -0.1507 -0.9449
 3681SOL     OW22504   4.594   0.099   1.376 -0.0270 -0.3818 -0.2273
 3681SOL    HW122505   4.585   0.084   1.282 -1.4477  0.4660 -0.2318
 3681SOL    HW222506   4.506   0.068   1.398 -0.7608  1.9292  0.1001
 3682SOL     OW22507   4.150   2.081   7.377 -0.1285 -0.3296  0.3363
 3682SOL    HW122508   4.228   2.088   7.321  0.8768 -1.0751  1.6276
 3682SOL    HW222509   4.179   2.103   7.466 -0.8614 -0.7264  0.6704
 3683SOL     OW22510   0.389   1.067   5.706 -0.1581 -0.1253  0.5199
 3683SOL    HW122511   0.304   1.087   5.668  0.2878  0.7855 -0.0013
 3683SOL    HW222512   0.453   1.056   5.636 -0.1878  0.3189  0.4221
 3684SOL     OW22513   2.879   3.169   3.423 -0.2472 -0.4309 -0.0331
 3684SOL    HW122514   2.856   3.077   3.428 -0.6576 -0.2962  0.5467
 3684SOL    HW222515   2.907   3.183   3.514 -1.7011 -0.4154  0.4188
 3685SOL     OW22516   3.520   2.841   1.485 -0.1151 -0.2437 -0.2623
 3685SOL    HW122517   3.556   2.865   1.570  1.2811 -0.3075 -0.8328
 3685SOL    HW222518   3.443   2.898   1.486  0.5154  0.6371 -1.6037
 3686SOL     OW22519   2.905   0.090   3.457  0.3738 -0.1535  0.3679
 3686SOL    HW122520   2.899   0.162   3.520 -1.0405  1.0880 -1.1677
 3686SOL    HW222521   2.831   0.123   3.405  0.5457 -0.3897 -0.0297
 3687SOL     OW22522   3.767   3.082   3.480  0.5720 -0.1068  0.4693
 3687SOL    HW122523   3.690   3.136   3.464  2.5749  1.7530 -2.7695
 3687SOL    HW222524   3.768   3.038   3.395 -2.5905  1.4094 -0.3405
 3688SOL     OW22525   1.955   0.135   8.845  0.0401  0.3868  0.2455
 3688SOL    HW122526   1.922   0.218   8.811  1.0889  0.9166  0.5005
 3688SOL    HW222527   1.977   0.164   8.934  1.9161 -2.3943  0.6732
 3689SOL     OW22528   0.212   3.713  11.399 -0.4257 -0.7982  0.6941
 3689SOL    HW122529   0.151   3.646  11.428 -0.0687  0.3364  4.0463
 3689SOL    HW222530   0.228   3.691  11.307  0.3244  0.8568  0.4274
 3690SOL     OW22531   0.850   1.549   6.253 -0.1457 -0.1177  0.3908
 3690SOL    HW122532   0.901   1.479   6.295 -0.6796 -0.9882 -0.4019
 3690SOL    HW222533   0.916   1.614   6.230  0.2043 -1.1388 -1.4846
 3691SOL     OW22534   0.688   0.270   3.334 -0.4280 -0.1978  0.3544
 3691SOL    HW122535   0.625   0.316   3.390  1.3126  2.2653  0.2719
 3691SOL    HW222536   0.664   0.178   3.344 -0.0373 -0.4137 -0.7120
 3692SOL     OW22537   2.238   1.847   5.045  0.8500  0.3787  0.3044
 3692SOL    HW122538   2.316   1.799   5.071  0.6274  0.3684  0.9539
 3692SOL    HW222539   2.220   1.812   4.958  0.5442  1.2980 -0.0071
 3693SOL     OW22540   3.425   3.291  17.672 -0.2412  0.1788 -0.4003
 3693SOL    HW122541   3.348   3.284  17.616  0.7117  0.8975 -1.7787
 3693SOL    HW222542   3.473   3.365  17.634 -0.0728  0.0562 -0.4258
 3694SOL     OW22543   2.989   1.986  12.950 -0.3841 -0.3779  0.6503
 3694SOL    HW122544   3.059   1.939  12.995 -0.5236  0.6158  1.9320
 3694SOL    HW222545   3.001   2.072  12.991 -0.7952 -0.4208  0.8594
 3695SOL     OW22546   1.724   1.559   2.912 -0.3665 -0.2374  0.5321
 3695SOL    HW122547   1.780   1.500   2.861 -1.6974 -2.3134  1.4548
 3695SOL    HW222548   1.771   1.641   2.904 -0.0711 -0.5579 -1.0125
 3696SOL     OW22549   0.420   4.247  13.354  0.0204  0.1768 -0.0048
 3696SOL    HW122550   0.407   4.340  13.337 -0.5548  0.2293  0.7114
 3696SOL    HW222551   0.433   4.242  13.448  1.5456 -0.3542 -0.2522
 3697SOL     OW22552   3.371   4.659  17.527 -0.5107  0.1283  0.2223
 3697SOL    HW122553   3.427   0.010  17.542 -1.3894  0.6522  0.8302
 3697SOL    HW222554   3.429   4.611  17.467  1.1389  2.7437 -0.2858
 3698SOL     OW22555   1.772   4.436   0.904  0.0625  0.6236 -0.1552
 3698SOL    HW122556   1.809   4.386   0.976  0.1447 -0.6153 -1.0540
 3698SOL    HW222557   1.845   4.495   0.888 -0.6241  0.7580 -2.8792
 3699SOL     OW22558   2.357   3.580   4.298 -0.0639  0.6719 -0.2765
 3699SOL    HW122559   2.354   3.565   4.204 -1.8346  0.3123 -0.1530
 3699SOL    HW222560   2.268   3.612   4.311 -0.2800  0.2955 -0.8519
 3700SOL     OW22561   3.645   4.231  17.541  0.6308  0.1054  0.2005
 3700SOL    HW122562   3.713   4.262  17.481  1.9324 -2.5953  0.2860
 3700SOL    HW222563   3.692   4.167  17.595 -1.9806 -2.8669 -1.0230
 3701SOL     OW22564   3.790   2.520   6.036  0.5896  0.6315  0.1114
 3701SOL    HW122565   3.773   2.514   5.942 -2.5965  0.4062  0.6965
 3701SOL    HW222566   3.883   2.539   6.026  0.9023 -1.2775 -0.5854
 3702SOL     OW22567   0.902   2.667  13.722 -0.5977 -0.5037  0.3169
 3702SOL    HW122568   0.841   2.667  13.795 -0.7657  0.3718  0.1811
 3702SOL    HW222569   0.989   2.675  13.761 -1.1117 -0.9618  1.5456
 3703SOL     OW22570   2.822   1.178   2.611 -0.0328 -0.6614 -0.7129
 3703SOL    HW122571   2.824   1.111   2.543  1.6299  0.1125 -1.4149
 3703SOL    HW222572   2.864   1.126   2.680  1.7142  2.1407  0.3425
 3704SOL     OW22573   0.432   0.039   3.656  0.3501  0.0640  0.0963
 3704SOL    HW122574   0.400   0.098   3.587 -0.0218 -0.4170 -0.1438
 3704SOL    HW222575   0.525   0.028   3.638  0.5086 -0.2834  1.1265
 3705SOL     OW22576   2.253   2.168  10.306 -0.0560  0.0778 -0.4681
 3705SOL    HW122577   2.250   2.191  10.214  1.9775 -2.2621 -1.1305
 3705SOL    HW222578   2.170   2.124  10.321 -0.8017  0.4031 -3.8221
 3706SOL     OW22579   4.434   0.364   0.609  0.3893 -0.7162 -0.2418
 3706SOL    HW122580   4.462   0.371   0.518  0.6485 -1.0311 -0.1875
 3706SOL    HW222581   4.379   0.286   0.598 -1.2722  0.4792 -0.4517
 3707SOL     OW22582   4.455   4.544   3.433 -0.2572  0.2843  0.4902
 3707SOL    HW122583   4.533   4.593   3.408 -1.4359  1.1729 -1.4841
 3707SOL    HW222584   4.462   4.462   3.383  1.7955  1.6545 -1.4455
 3708SOL     OW22585   3.622   4.050   0.669  0.5942  0.6518 -0.1708
 3708SOL    HW122586   3.560   4.048   0.742 -1.1604 -0.9187 -1.7080
 3708SOL    HW222587   3.660   4.137   0.676  0.8636  0.2438  3.7028
 3709SOL     OW22588   1.404   0.120  15.339 -0.6578 -0.4785  0.0833
 3709SOL    HW122589   1.330   0.103  15.280 -0.1507 -1.6745 -0.2098
 3709SOL    HW222590   1.466   0.048  15.329  1.6690  1.2603  1.9792
 3710SOL     OW22591   2.906   3.704   2.837  0.0463 -0.0213  0.4478
 3710SOL    HW122592   2.952   3.731   2.758  0.1645  0.8006  0.7971
 3710SOL    HW222593   2.828   3.654   2.814  1.5270 -1.2783 -1.8096
 3711SOL     OW22594   0.095   2.133   4.751  0.2023 -0.5552  0.4392
 3711SOL    HW122595   0.054   2.118   4.836  1.0865 -0.2504  0.9203
 3711SOL    HW222596   0.187   2.126   4.774  0.4811 -0.2960 -0.6026
 3712SOL     OW22597   2.145   1.413   3.234 -0.1138 -0.5620  0.1850
 3712SOL    HW122598   2.067   1.396   3.182 -1.6615  0.8516  2.0358
 3712SOL    HW222599   2.214   1.415   3.167  1.2649 -2.9965  1.5516
 3713SOL     OW22600   2.867   0.483   1.245  0.0128 -0.3883  0.6467
 3713SOL    HW122601   2.880   0.566   1.292 -1.7690  0.2326  0.0524
 3713SOL    HW222602   2.782   0.500   1.204  0.8436  0.0696 -0.8690
 3714SOL     OW22603   0.232   3.269   6.399  0.2068  0.0763 -0.2421
 3714SOL    HW122604   0.182   3.302   6.474 -0.0991 -1.3548  0.1716
 3714SOL    HW222605   0.207   3.178   6.385 -3.3397  0.6483  2.1645
 3715SOL     OW22606   3.770   2.853   5.812 -0.0107  0.2856  0.2746
 3715SOL    HW122607   3.749   2.768   5.772  2.1340 -0.2758  0.3646
 3715SOL    HW222608   3.710   2.859   5.886 -0.7043  1.2206 -0.3651
 3716SOL     OW22609   0.650   1.599   3.954  0.0573 -0.1877  0.6547
 3716SOL    HW122610   0.625   1.690   3.966 -1.8157 -0.5041 -0.8818
 3716SOL    HW222611   0.732   1.593   4.003  0.1948 -0.9697  0.3330
 3717SOL     OW22612   2.529   3.806   9.886  0.1999  0.5250 -0.2009
 3717SOL    HW122613   2.501   3.756   9.963 -0.2205  1.2754  0.1374
 3717SOL    HW222614   2.621   3.778   9.887 -0.0155 -0.1748 -0.4028
 3718SOL     OW22615   0.430   4.346   8.649 -0.7141 -0.7923  0.3341
 3718SOL    HW122616   0.409   4.261   8.610 -0.6612  0.3331 -2.1321
 3718SOL    HW222617   0.523   4.336   8.665 -0.0377  2.9648 -1.3154
 3719SOL     OW22618   1.711   2.033   2.349  0.2476 -0.0144  0.8652
 3719SOL    HW122619   1.633   1.981   2.366 -0.5746  0.7782 -0.5105
 3719SOL    HW222620   1.778   1.972   2.378 -0.9756 -1.6617  0.1678
 3720SOL     OW22621   1.676   2.303   4.334 -0.1508 -0.1188  0.0080
 3720SOL    HW122622   1.639   2.214   4.330 -1.7616  0.5688 -0.2931
 3720SOL    HW222623   1.756   2.287   4.384  1.3711 -2.8890 -3.2854
 3721SOL     OW22624   3.998   2.323   5.422 -0.3134 -0.5172 -0.4998
 3721SOL    HW122625   4.002   2.288   5.511 -1.6421 -1.9771 -1.0168
 3721SOL    HW222626   3.928   2.388   5.422  1.4145  1.3656  0.4489
 3722SOL     OW22627   4.460   4.213  17.571  0.0836 -0.5136 -0.4964
 3722SOL    HW122628   4.519   4.231  17.644  1.9499  1.2494 -2.4276
 3722SOL    HW222629   4.380   4.222  17.622  0.7872 -1.7229  0.8305
 3723SOL     OW22630   4.484   3.775  10.930  0.2115 -0.2911 -0.5913
 3723SOL    HW122631   4.402   3.736  10.961 -0.6940  1.2941 -0.9641
 3723SOL    HW222632   4.535   3.695  10.941 -0.1333 -0.5343 -0.7814
 3724SOL     OW22633   2.100   3.030   3.433  0.2643 -0.6445  0.0220
 3724SOL    HW122634   2.086   3.062   3.522 -2.5853  0.8755 -0.9809
 3724SOL    HW222635   2.149   2.949   3.451  2.2130  0.9777  2.0519
 3725SOL     OW22636   1.305   4.623   4.403  0.5025  0.0851  0.0012
 3725SOL    HW122637   1.306   4.528   4.391 -0.5575  0.2270 -1.1820
 3725SOL    HW222638   1.330   4.650   4.315  1.4074 -1.2592 -0.1673
 3726SOL     OW22639   4.482   0.388   6.590 -0.3366  0.2232  0.0885
 3726SOL    HW122640   4.545   0.366   6.659 -0.8737 -0.6139  0.3115
 3726SOL    HW222641   4.525   0.352   6.512 -0.3521 -1.9015  1.0390
 3727SOL     OW22642   1.270   0.190   9.904 -0.5843 -0.4309  1.1396
 3727SOL    HW122643   1.348   0.167   9.955 -0.5617  0.8551  1.6715
 3727SOL    HW222644   1.316   0.211   9.822 -2.0124  2.7674  1.1913
 3728SOL     OW22645   3.322   3.397   8.825 -0.2660  0.4732  0.5672
 3728SOL    HW122646   3.297   3.469   8.767 -2.0519  0.0659  0.8461
 3728SOL    HW222647   3.310   3.319   8.772 -1.9488  0.4200  1.0251
 3729SOL     OW22648   1.460   3.076   9.664 -0.2708  0.3188 -0.2735
 3729SOL    HW122649   1.475   3.146   9.600  1.1673 -1.0993 -1.4879
 3729SOL    HW222650   1.366   3.064   9.650  0.3061  0.5072 -4.1187
 3730SOL     OW22651   3.845   3.270  15.608 -0.0628 -0.2073  0.2425
 3730SOL    HW122652   3.761   3.304  15.639 -0.1866 -2.1837  2.0657
 3730SOL    HW222653   3.863   3.209  15.679  0.4153 -0.4085 -0.0479
 3731SOL     OW22654   2.345   3.877  10.554  0.0572  0.8289  0.2204
 3731SOL    HW122655   2.290   3.848  10.627  0.6186 -0.8333 -0.0076
 3731SOL    HW222656   2.291   3.848  10.480  0.5624 -0.0287  0.1870
 3732SOL     OW22657   3.452   2.313  14.529 -0.3499  0.1321 -0.3421
 3732SOL    HW122658   3.510   2.279  14.597 -1.5783  1.5894  1.4493
 3732SOL    HW222659   3.471   2.406  14.545  3.7087 -0.6131 -0.7088
 3733SOL     OW22660   4.575   3.911   7.938  0.2898 -0.1354  0.4113
 3733SOL    HW122661   4.492   3.890   7.895  1.0121  3.7014 -2.8237
 3733SOL    HW222662   4.560   3.889   8.030 -1.7961 -1.7652 -0.2949
 3734SOL     OW22663   0.240   2.083   5.276 -0.4506  0.6218  0.1616
 3734SOL    HW122664   0.198   1.997   5.281  1.8780 -0.6963 -2.9597
 3734SOL    HW222665   0.257   2.099   5.369 -0.1219  2.9027 -0.3008
 3735SOL     OW22666   4.235   0.182   9.169 -0.0666 -0.1888  0.3659
 3735SOL    HW122667   4.223   0.199   9.076  0.9121  0.6419  0.3861
 3735SOL    HW222668   4.215   0.270   9.202  1.1696  0.3194 -0.2261
 3736SOL     OW22669   3.309   2.002   7.741  0.0020 -0.2464  0.2527
 3736SOL    HW122670   3.280   1.941   7.809 -0.4567 -1.6147 -1.1643
 3736SOL    HW222671   3.398   2.024   7.768  0.6128 -1.6801 -0.6390
 3737SOL     OW22672   1.717   0.847  13.295 -0.2157  0.9663 -0.4495
 3737SOL    HW122673   1.645   0.910  13.304 -1.1869 -0.2008  0.0692
 3737SOL    HW222674   1.738   0.836  13.203 -1.9323  0.4515 -0.7913
 3738SOL     OW22675   1.246   3.250   5.602 -0.3187 -0.3587 -0.2390
 3738SOL    HW122676   1.277   3.164   5.573 -0.8341  0.1312 -2.2079
 3738SOL    HW222677   1.227   3.229   5.694  1.6733 -1.0191  0.0402
 3739SOL     OW22678   3.293   4.305   2.679  0.2645 -0.3837  0.3083
 3739SOL    HW122679   3.216   4.261   2.717 -1.4518  2.0791 -0.2993
 3739SOL    HW222680   3.361   4.277   2.739  0.5334 -1.2497 -0.4079
 3740SOL     OW22681   3.851   1.587   7.765  0.1044 -0.7923  0.0582
 3740SOL    HW122682   3.858   1.492   7.756  1.2991 -0.8923  2.0270
 3740SOL    HW222683   3.843   1.588   7.860  0.8627  0.1849  0.1152
 3741SOL     OW22684   0.169   1.304   6.262 -0.0226  0.2318 -0.0117
 3741SOL    HW122685   0.134   1.238   6.202  3.0118 -1.2573 -0.1834
 3741SOL    HW222686   0.248   1.339   6.219 -0.9231  0.2957 -1.6106
 3742SOL     OW22687   0.592   0.469  14.521 -0.4031 -0.2141  0.4645
 3742SOL    HW122688   0.634   0.457  14.606  0.4690  1.7727  0.3145
 3742SOL    HW222689   0.498   0.463  14.540 -0.8564 -2.1548 -2.3155
 3743SOL     OW22690   3.822   3.768   5.458 -0.2037 -0.7897 -0.3129
 3743SOL    HW122691   3.742   3.761   5.406 -0.9381  1.9699  0.4517
 3743SOL    HW222692   3.885   3.773   5.385  0.2151 -0.2214  0.0939
 3744SOL     OW22693   1.461   0.713   1.761  0.1099  0.2170 -0.1948
 3744SOL    HW122694   1.478   0.628   1.801  0.5599  0.7803  0.8241
 3744SOL    HW222695   1.501   0.709   1.674  1.7776  0.5740  0.5551
 3745SOL     OW22696   2.430   1.958  10.371 -0.5811  0.1051  0.1781
 3745SOL    HW122697   2.356   1.898  10.368 -1.4180  1.1343  0.0524
 3745SOL    HW222698   2.387   2.032  10.327 -0.5599 -0.9013 -1.5202
 3746SOL     OW22699   0.585   1.946  13.416  0.5156 -0.0421 -0.3047
 3746SOL    HW122700   0.577   1.920  13.508 -0.9937  0.4342 -0.3066
 3746SOL    HW222701   0.543   1.876  13.367 -0.7347  1.3500 -1.2175
 3747SOL     OW22702   0.292   1.861   2.833 -0.0062  0.1323  0.1322
 3747SOL    HW122703   0.243   1.812   2.767  1.3343 -0.4465 -0.4394
 3747SOL    HW222704   0.299   1.945   2.788  1.5761 -0.5374 -0.9152
 3748SOL     OW22705   2.847   2.894   5.180 -0.4253 -0.8026 -0.3261
 3748SOL    HW122706   2.936   2.919   5.157 -1.4259  0.1658 -3.1722
 3748SOL    HW222707   2.860   2.799   5.174 -0.2055 -0.7610 -0.4718
 3749SOL     OW22708   4.006   1.271   3.198  0.1141  0.3732  0.4116
 3749SOL    HW122709   4.041   1.193   3.241  0.7888  0.1640 -0.5063
 3749SOL    HW222710   3.933   1.285   3.258 -0.0393  0.8585  0.1177
 3750SOL     OW22711   0.902   0.315   4.637  0.2462 -0.3349 -0.3006
 3750SOL    HW122712   0.851   0.256   4.692 -0.3293 -0.6003 -1.1237
 3750SOL    HW222713   0.972   0.259   4.603  0.7049  0.1999 -0.2517
 3751SOL     OW22714   3.323   2.065   8.357 -0.5271 -0.3451 -0.6878
 3751SOL    HW122715   3.367   2.058   8.441  0.0245 -0.5389 -0.9990
 3751SOL    HW222716   3.234   2.038   8.380 -0.1781  0.9923  2.2299
 3752SOL     OW22717   4.192   4.171   5.642 -0.0678  0.3851 -0.3093
 3752SOL    HW122718   4.212   4.104   5.577  0.3332  1.9753 -1.8144
 3752SOL    HW222719   4.194   4.119   5.722 -2.5514  0.0553 -0.4548
 3753SOL     OW22720   2.654   2.532   5.746  0.2799  0.3447  0.5651
 3753SOL    HW122721   2.587   2.595   5.772  0.2281 -0.0081  1.2806
 3753SOL    HW222722   2.666   2.567   5.657 -2.2393 -3.1125 -1.1601
 3754SOL     OW22723   2.997   4.593   5.721 -0.4744 -0.0745 -1.3239
 3754SOL    HW122724   3.090   4.585   5.743 -0.2103  3.0845 -1.2152
 3754SOL    HW222725   2.984   4.572   5.628  1.2803  0.1774 -1.6215
 3755SOL     OW22726   4.637   1.636  14.313 -0.5195 -0.4091  0.0246
 3755SOL    HW122727   4.617   1.695  14.240 -0.3537 -0.8457 -0.3763
 3755SOL    HW222728   4.631   1.561  14.254 -0.1543 -0.6295  0.2709
 3756SOL     OW22729   4.166   0.677   6.240  0.1885  0.4550  0.3625
 3756SOL    HW122730   4.182   0.623   6.164 -1.6628  1.6259 -0.8581
 3756SOL    HW222731   4.230   0.643   6.303 -0.6078 -1.5872  0.0812
 3757SOL     OW22732   2.809   2.932   1.071 -0.0464 -0.3751 -0.2517
 3757SOL    HW122733   2.903   2.951   1.064  0.4891 -2.8841  0.1254
 3757SOL    HW222734   2.779   3.003   1.127 -1.5872 -1.7687  0.6731
 3758SOL     OW22735   1.222   2.506   5.048 -0.4424 -0.0450  0.7770
 3758SOL    HW122736   1.198   2.480   5.137  0.2823  0.3070  1.0783
 3758SOL    HW222737   1.169   2.584   5.029  0.9537  0.6008 -0.4899
 3759SOL     OW22738   4.653   2.341   6.886  0.2094 -0.3634  0.3851
 3759SOL    HW122739   4.590   2.409   6.913  0.2702 -0.1059 -0.1159
 3759SOL    HW222740   4.597   2.265   6.874  0.2222 -0.5640  1.5733
 3760SOL     OW22741   1.085   3.611   3.400 -0.1713  0.3179  0.5450
 3760SOL    HW122742   1.140   3.539   3.431 -0.1284  0.2207  0.2421
 3760SOL    HW222743   1.006   3.567   3.369 -1.0643  1.4276  1.2566
 3761SOL     OW22744   4.434   4.401   4.368  0.0337 -0.2403 -0.3666
 3761SOL    HW122745   4.494   4.339   4.410  1.0715  0.4452 -0.8511
 3761SOL    HW222746   4.394   4.338   4.308 -0.5983  0.1121 -0.3124
 3762SOL     OW22747   4.618   2.410  12.928 -0.1420  0.2375 -0.2851
 3762SOL    HW122748   4.533   2.365  12.925 -0.6109  1.2447 -2.1284
 3762SOL    HW222749   4.622   2.457  12.845 -0.2802  0.5318 -0.1247
 3763SOL     OW22750   3.844   1.726   5.268  0.6199  0.3840 -0.0289
 3763SOL    HW122751   3.848   1.654   5.205 -1.1883  0.4088 -0.1807
 3763SOL    HW222752   3.856   1.673   5.346  1.5262  0.7543  0.0849
 3764SOL     OW22753   2.026   4.296   9.292  0.4231  0.3081  0.0752
 3764SOL    HW122754   2.046   4.367   9.230  2.9777 -0.7792 -0.3717
 3764SOL    HW222755   2.006   4.224   9.232  0.3481  0.5760 -0.2244
 3765SOL     OW22756   3.944   0.017   9.323 -0.0185  0.0661 -0.5668
 3765SOL    HW122757   4.038   0.002   9.318  0.3840  2.0265  1.2381
 3765SOL    HW222758   3.921   0.042   9.233 -0.1076  0.7503 -0.3479
 3766SOL     OW22759   0.021   3.249   7.021 -0.4492 -0.4449  0.7921
 3766SOL    HW122760   4.655   3.250   7.051 -0.8827  0.1281 -0.5040
 3766SOL    HW222761   0.033   3.161   6.983 -2.4200 -0.4966  0.2703
 3767SOL     OW22762   0.213   3.780   7.635  0.7602 -0.3744  0.0752
 3767SOL    HW122763   0.148   3.711   7.650  1.2814 -0.9554 -0.3298
 3767SOL    HW222764   0.233   3.805   7.725 -1.4959  0.6145  0.2967
 3768SOL     OW22765   3.012   0.137   0.553 -0.7734  0.3363 -0.3120
 3768SOL    HW122766   2.972   0.087   0.624  0.4098  1.0517  0.8597
 3768SOL    HW222767   3.003   0.078   0.478  2.1170 -0.4983  0.0012
 3769SOL     OW22768   4.029   0.586   5.691  0.1427  0.4728  0.2896
 3769SOL    HW122769   4.044   0.547   5.605  0.4817  0.5902  0.2953
 3769SOL    HW222770   4.010   0.679   5.679  0.8357  0.4249 -1.3096
 3770SOL     OW22771   1.236   0.738   4.877 -0.9580  0.5134  0.0913
 3770SOL    HW122772   1.292   0.755   4.801  1.2210 -2.7261  0.9495
 3770SOL    HW222773   1.251   0.823   4.918 -1.4439  1.0883 -0.9371
 3771SOL     OW22774   0.909   2.418   6.073 -0.1235  0.6541 -0.1117
 3771SOL    HW122775   0.946   2.408   5.985  2.3494  0.2527  0.9806
 3771SOL    HW222776   0.940   2.341   6.121  1.8388  0.5338 -1.5975
 3772SOL     OW22777   2.720   3.874   0.320  0.3398  0.4092  0.3304
 3772SOL    HW122778   2.723   3.936   0.247  2.2428 -0.1893 -0.1067
 3772SOL    HW222779   2.769   3.798   0.288 -0.5922  0.8655 -2.1683
 3773SOL     OW22780   3.203   2.916  11.889  0.0881 -0.0498  0.2647
 3773SOL    HW122781   3.232   2.846  11.830 -0.6069  1.2850 -1.6726
 3773SOL    HW222782   3.221   2.870  11.971 -1.8520  1.3356  1.4753
 3774SOL     OW22783   2.218   3.492   3.004  0.2272 -0.0770  0.2043
 3774SOL    HW122784   2.265   3.416   2.972  0.7670  0.4910 -0.3275
 3774SOL    HW222785   2.279   3.543   3.056 -0.6017  0.6352  0.4863
 3775SOL     OW22786   1.095   0.010   5.108 -0.5051  0.4239 -0.4736
 3775SOL    HW122787   1.075   4.648   5.073  1.4406 -1.4200  2.9181
 3775SOL    HW222788   1.125   0.055   5.029  0.5237 -0.2229 -0.4546
 3776SOL     OW22789   2.025   0.912  13.050  0.1968 -0.0736 -0.0812
 3776SOL    HW122790   2.111   0.928  13.088 -0.1078 -0.8965  0.9344
 3776SOL    HW222791   2.044   0.832  13.000 -2.1749 -1.8942  1.9775
 3777SOL     OW22792   4.438   0.572   7.208 -0.1854  0.2498  0.0189
 3777SOL    HW122793   4.500   0.638   7.239  0.4081 -0.0973 -0.4215
 3777SOL    HW222794   4.358   0.610   7.245 -1.5048 -1.8635 -0.6245
 3778SOL     OW22795   2.977   1.429   4.512  0.2711  0.1136  0.1956
 3778SOL    HW122796   3.020   1.509   4.483  0.7834 -0.1433  0.2587
 3778SOL    HW222797   3.016   1.424   4.599  0.6833  4.0667  0.2316
 3779SOL     OW22798   2.213   3.551  10.364  0.5298  0.0382  0.5491
 3779SOL    HW122799   2.152   3.486  10.400 -0.3175  2.1070  2.8637
 3779SOL    HW222800   2.163   3.632  10.375 -3.3259 -2.3584  0.5605
 3780SOL     OW22801   1.964   1.611   5.195  0.7813  0.2004  0.0075
 3780SOL    HW122802   1.894   1.569   5.247  1.6680 -3.1553 -1.4889
 3780SOL    HW222803   2.027   1.540   5.203 -2.3428 -2.7264 -1.2319
 3781SOL     OW22804   0.620   4.296  15.342 -0.3456 -0.1870 -0.0113
 3781SOL    HW122805   0.637   4.297  15.436 -1.3856 -0.2038  0.1746
 3781SOL    HW222806   0.569   4.375  15.324  0.7640  0.5117 -0.1032
 3782SOL     OW22807   2.978   1.197   1.025  0.2597  0.2311  0.3372
 3782SOL    HW122808   2.951   1.259   1.093  0.1968  1.1728 -0.5482
 3782SOL    HW222809   2.980   1.110   1.065 -0.7659 -0.6604 -1.5635
 3783SOL     OW22810   1.975   0.242   7.694 -0.2537  0.1090  0.4582
 3783SOL    HW122811   2.040   0.189   7.740  0.3597  1.6064  1.3013
 3783SOL    HW222812   2.029   0.321   7.692 -0.8011  0.5240  2.0003
 3784SOL     OW22813   1.582   0.902   1.904 -0.0041 -0.4230  0.6395
 3784SOL    HW122814   1.523   0.842   1.859  0.1212 -0.8784  1.0895
 3784SOL    HW222815   1.594   0.961   1.829 -0.0629 -0.5169  0.5567
 3785SOL     OW22816   3.519   2.228   7.930 -0.0217 -0.5703  0.1793
 3785SOL    HW122817   3.482   2.302   7.881  0.2207  0.2131  1.1671
 3785SOL    HW222818   3.572   2.189   7.861  0.8886  0.0978  0.4972
 3786SOL     OW22819   4.669   0.916   7.071  0.3165 -0.3167 -0.2788
 3786SOL    HW122820   0.026   0.949   7.107  0.3042  0.3850 -0.8845
 3786SOL    HW222821   4.643   0.865   7.148 -1.8905  2.2464  0.6897
 3787SOL     OW22822   2.513   1.839  11.859 -0.2226 -0.0490  0.2405
 3787SOL    HW122823   2.598   1.845  11.815 -1.3450  1.5630 -1.7126
 3787SOL    HW222824   2.533   1.809  11.948  0.3117 -0.1397  0.0891
 3788SOL     OW22825   3.818   3.309  13.627 -0.0214  0.1964 -0.0809
 3788SOL    HW122826   3.879   3.374  13.661  1.5616 -0.2448 -2.0942
 3788SOL    HW222827   3.867   3.227  13.627 -1.8944 -0.9344  0.0559
 3789SOL     OW22828   3.935   0.806   7.067  0.2411 -0.1612  0.3519
 3789SOL    HW122829   3.944   0.775   6.977 -0.2527 -0.4347  0.3985
 3789SOL    HW222830   3.937   0.724   7.116 -1.4538 -0.3726  0.0534
 3790SOL     OW22831   0.913   3.912   3.475  0.4058 -0.0274  0.5089
 3790SOL    HW122832   0.879   3.943   3.559 -1.8687  3.1439 -1.5396
 3790SOL    HW222833   0.837   3.907   3.416 -0.2898  0.3549  1.3607
 3791SOL     OW22834   1.950   2.618   0.531 -0.3004 -0.3457 -0.3267
 3791SOL    HW122835   2.001   2.699   0.529  1.2132 -1.2728  0.0530
 3791SOL    HW222836   1.901   2.635   0.612 -2.8368 -1.2826 -1.6749
 3792SOL     OW22837   3.887   1.781   5.997 -0.0761 -0.0600  0.2373
 3792SOL    HW122838   3.851   1.861   6.034 -1.3490  0.0180 -1.1362
 3792SOL    HW222839   3.805   1.745   5.962 -0.1092  0.2002  0.0426
 3793SOL     OW22840   1.024   2.171  13.605  0.1492  0.4625  1.0633
 3793SOL    HW122841   0.963   2.155  13.533 -0.0770 -0.6816  1.5081
 3793SOL    HW222842   1.019   2.266  13.609  0.9937  0.5542 -0.3149
 3794SOL     OW22843   3.109   1.086   2.778 -0.2213 -0.0836 -0.1744
 3794SOL    HW122844   3.104   1.148   2.705  0.5182  1.4679  1.0872
 3794SOL    HW222845   3.030   1.033   2.769 -0.7165  0.7947 -1.0781
 3795SOL     OW22846   1.384   0.356   5.186  0.2578 -0.3838 -0.5474
 3795SOL    HW122847   1.420   0.267   5.183 -1.9424 -1.3044 -0.0427
 3795SOL    HW222848   1.422   0.396   5.108  2.0977  1.3831  1.2415
 3796SOL     OW22849   4.158   1.910  13.497  0.5456 -0.3367  0.2474
 3796SOL    HW122850   4.109   1.991  13.514 -1.1235 -1.7027  1.9312
 3796SOL    HW222851   4.228   1.913  13.562  1.3843 -0.0880 -0.6682
 3797SOL     OW22852   1.301   4.272  16.791  0.1153  0.4987  0.2433
 3797SOL    HW122853   1.273   4.186  16.761  0.6715  0.6351 -0.6773
 3797SOL    HW222854   1.305   4.328  16.713  0.1903  2.1885  1.4463
 3798SOL     OW22855   4.024   0.551   4.800  0.2441 -0.5344  0.5384
 3798SOL    HW122856   4.036   0.470   4.848 -3.5705 -2.0097 -0.9879
 3798SOL    HW222857   3.944   0.581   4.842  2.2637  3.2811  1.6433
 3799SOL     OW22858   1.894   1.410   7.319  0.4566 -0.3513 -0.0508
 3799SOL    HW122859   1.915   1.502   7.302  1.3955 -0.3137  1.2460
 3799SOL    HW222860   1.870   1.410   7.412  2.3266 -0.4665  0.4357
 3800SOL     OW22861   4.276   3.609  12.865 -0.3397 -0.4019  0.2458
 3800SOL    HW122862   4.244   3.602  12.775 -0.9602 -0.2577  0.4544
 3800SOL    HW222863   4.344   3.674  12.850 -1.7792  0.7303 -1.4047
 3801SOL     OW22864   0.333   4.427   1.375 -0.8132  0.0256 -0.3214
 3801SOL    HW122865   0.362   4.498   1.319  0.0726 -0.4162 -0.4238
 3801SOL    HW222866   0.358   4.349   1.326 -3.9826 -0.1901 -1.6088
 3802SOL     OW22867   0.478   3.587   5.138  0.2965  0.0371 -0.3434
 3802SOL    HW122868   0.542   3.635   5.190  0.2557  0.5039 -0.7223
 3802SOL    HW222869   0.513   3.499   5.152  1.6158  0.5336 -0.4774
 3803SOL     OW22870   2.164   3.716  16.589  0.2483  0.1837  0.0566
 3803SOL    HW122871   2.103   3.784  16.562 -0.8175 -0.6465  0.3595
 3803SOL    HW222872   2.119   3.636  16.561  1.3393  0.1205 -1.4993
 3804SOL     OW22873   2.371   2.413   7.449 -0.2316 -0.0129 -0.2618
 3804SOL    HW122874   2.385   2.490   7.504  1.2403  0.0856 -0.7665
 3804SOL    HW222875   2.454   2.372   7.472 -0.3611  0.0189  0.2527
 3805SOL     OW22876   2.667   3.791   3.124 -0.1380 -0.5251 -0.3893
 3805SOL    HW122877   2.685   3.705   3.085  2.0539 -1.9004  3.6551
 3805SOL    HW222878   2.577   3.771   3.150 -0.4051  0.1325 -0.7861
 3806SOL     OW22879   0.453   3.713   3.520 -0.1412 -0.5425  0.2774
 3806SOL    HW122880   0.412   3.729   3.605  1.9913 -0.0278  1.2165
 3806SOL    HW222881   0.405   3.773   3.463  2.7625  0.6195 -0.9974
 3807SOL     OW22882   2.323   3.200   4.481 -0.0625  0.1239 -0.1705
 3807SOL    HW122883   2.276   3.189   4.564  0.7024 -0.4164  0.1868
 3807SOL    HW222884   2.365   3.115   4.487  0.5898  0.4060 -0.8305
 3808SOL     OW22885   0.485   1.201  14.930 -0.0930 -0.0061 -0.0798
 3808SOL    HW122886   0.479   1.113  14.969  0.3317  0.7745  1.7623
 3808SOL    HW222887   0.415   1.249  14.974 -0.1383 -0.8438  0.7633
 3809SOL     OW22888   2.396   2.751   4.792  0.1408  0.1238 -0.5935
 3809SOL    HW122889   2.345   2.817   4.838 -0.2336  0.5109 -1.5737
 3809SOL    HW222890   2.476   2.751   4.845 -0.0703 -1.5289 -0.2693
 3810SOL     OW22891   3.142   4.029   5.538 -0.1131  0.1830 -0.3072
 3810SOL    HW122892   3.098   4.066   5.614 -1.9997 -2.0925 -0.2741
 3810SOL    HW222893   3.232   4.017   5.569 -0.7562 -0.4181  1.3059
 3811SOL     OW22894   1.630   3.578   3.021  0.2891 -0.3924  1.4436
 3811SOL    HW122895   1.642   3.494   3.066  1.4252 -1.2144 -0.3967
 3811SOL    HW222896   1.621   3.634   3.098 -1.3598 -1.5153  2.0850
 3812SOL     OW22897   2.537   0.042   3.038 -0.3062  0.1002 -0.3222
 3812SOL    HW122898   2.500   4.711   2.970 -1.0672  1.0204 -0.6632
 3812SOL    HW222899   2.630   0.022   3.031 -0.4666 -0.7356  0.0144
 3813SOL     OW22900   4.381   2.084   7.242 -0.2686  0.8598 -0.1888
 3813SOL    HW122901   4.457   2.142   7.244  0.1031  0.3713 -0.1055
 3813SOL    HW222902   4.422   2.011   7.194 -0.3049  0.5589  0.2425
 3814SOL     OW22903   0.200   3.088   7.904  0.6686  0.3750  0.1201
 3814SOL    HW122904   0.226   3.132   7.823  0.7077 -0.2699 -0.2192
 3814SOL    HW222905   0.124   3.044   7.865  1.2604 -1.1373  0.6424
 3815SOL     OW22906   2.747   0.373   0.364  0.2027  0.0375  0.0018
 3815SOL    HW122907   2.668   0.405   0.321 -0.6285 -1.3917  0.4684
 3815SOL    HW222908   2.750   0.431   0.440 -2.6830 -0.1058  0.2243
 3816SOL     OW22909   2.922   3.445   8.195 -0.4750 -0.0031 -0.6008
 3816SOL    HW122910   2.901   3.357   8.166 -1.2009 -0.5391  1.5404
 3816SOL    HW222911   2.964   3.465   8.111 -0.7798  0.3830 -0.6648
 3817SOL     OW22912   0.516   3.788   1.958 -0.3254  0.1307  1.1342
 3817SOL    HW122913   0.543   3.845   1.886 -1.7178  0.3227  0.7635
 3817SOL    HW222914   0.555   3.824   2.038  0.3249  1.4973  0.2087
 3818SOL     OW22915   4.712   3.483   3.404  0.3650  0.3718  0.1967
 3818SOL    HW122916   4.709   3.388   3.387 -0.3543  0.5667 -0.7501
 3818SOL    HW222917   0.034   3.486   3.486  0.0196 -0.6681  0.4444
 3819SOL     OW22918   3.883   3.213   2.105 -0.7606 -0.1877 -0.4648
 3819SOL    HW122919   3.923   3.188   2.022 -2.0613 -1.4441 -0.7266
 3819SOL    HW222920   3.938   3.170   2.169 -2.1856  0.0564  0.9167
 3820SOL     OW22921   1.446   4.598   5.354  0.1348 -0.4761  0.2924
 3820SOL    HW122922   1.384   4.559   5.293  0.7872  0.4282 -0.9637
 3820SOL    HW222923   1.438   4.532   5.423  1.1598 -0.1086  0.7665
 3821SOL     OW22924   3.447   3.036   2.528 -0.5945  0.2828 -0.0434
 3821SOL    HW122925   3.352   3.037   2.542 -0.2821 -2.2236  2.3983
 3821SOL    HW222926   3.462   3.104   2.463 -1.3917 -0.5691 -1.1249
 3822SOL     OW22927   4.200   2.454   1.853  0.4359 -0.0950 -0.0873
 3822SOL    HW122928   4.122   2.481   1.805  1.8943  0.7620 -1.9623
 3822SOL    HW222929   4.169   2.477   1.941 -0.9981 -1.6018 -0.1923
 3823SOL     OW22930   0.770   4.536   0.654  0.3832 -0.0024  0.2620
 3823SOL    HW122931   0.765   4.467   0.588  0.1276 -0.0854  0.3663
 3823SOL    HW222932   0.861   4.563   0.650  0.0056  1.0746 -1.0441
 3824SOL     OW22933   2.885   1.200   8.535  0.4624  0.0072  0.1460
 3824SOL    HW122934   2.819   1.212   8.603  0.2046  1.3798 -0.3454
 3824SOL    HW222935   2.930   1.285   8.537 -0.4458  0.4776  0.6508
 3825SOL     OW22936   2.517   4.377   4.746  0.6244 -0.5510 -0.5966
 3825SOL    HW122937   2.520   4.305   4.682 -1.5849 -0.4944 -0.7834
 3825SOL    HW222938   2.481   4.454   4.701  0.0489  1.0787  2.7031
 3826SOL     OW22939   2.680   3.011   1.801 -0.0956  0.8726 -0.0670
 3826SOL    HW122940   2.603   2.981   1.752 -0.9101  1.5233  0.8134
 3826SOL    HW222941   2.739   2.940   1.774  0.0291  0.7599  0.5084
 3827SOL     OW22942   2.128   3.575   7.075  0.0992  0.3040 -0.5075
 3827SOL    HW122943   2.109   3.526   6.995  0.0546  0.8202 -0.8128
 3827SOL    HW222944   2.196   3.520   7.112 -0.0176  1.1444  0.9715
 3828SOL     OW22945   0.942   4.340   4.416  0.2683  0.5285  0.6252
 3828SOL    HW122946   0.929   4.409   4.481  0.6614  0.3636  0.8742
 3828SOL    HW222947   0.873   4.276   4.437  0.7830 -0.3202 -0.2570
 3829SOL     OW22948   0.933   3.280  10.065  0.2085 -0.1542  0.9787
 3829SOL    HW122949   1.019   3.319  10.048  0.5150 -2.5590 -2.9228
 3829SOL    HW222950   0.951   3.188  10.045 -0.0610 -0.1851  0.8894
 3830SOL     OW22951   3.827   2.585   2.068 -0.2174  0.2712 -0.0937
 3830SOL    HW122952   3.757   2.607   2.130 -0.0582  0.1524  0.1317
 3830SOL    HW222953   3.784   2.516   2.019  0.4468  0.1077 -0.4501
 3831SOL     OW22954   3.713   2.588   1.706  0.2702 -0.0202  0.0109
 3831SOL    HW122955   3.706   2.679   1.677 -2.6473 -0.2059  0.1123
 3831SOL    HW222956   3.626   2.566   1.738  0.4620 -0.4787  0.2198
 3832SOL     OW22957   4.181   2.653  11.492  0.1299 -0.0594  0.0972
 3832SOL    HW122958   4.254   2.701  11.531 -1.1406  3.8368 -2.3191
 3832SOL    HW222959   4.110   2.673  11.553  0.7180 -1.7308  1.3429
 3833SOL     OW22960   3.365   0.433   2.457  0.6573 -0.0357 -0.0421
 3833SOL    HW122961   3.309   0.510   2.451  1.0170  0.2029 -0.3104
 3833SOL    HW222962   3.304   0.359   2.456 -1.3462  1.6414 -1.8722
 3834SOL     OW22963   4.519   4.084   4.639  0.1722  0.0426  0.2053
 3834SOL    HW122964   4.445   4.071   4.579  1.1684  2.4610 -1.5696
 3834SOL    HW222965   4.503   4.025   4.713 -0.3408 -1.3270 -0.9784
 3835SOL     OW22966   2.367   4.302   3.190  0.2591 -0.1798 -0.6706
 3835SOL    HW122967   2.427   4.232   3.213  1.5471  0.7772 -1.1224
 3835SOL    HW222968   2.366   4.345   3.276 -2.8967 -0.0552 -0.7587
 3836SOL     OW22969   2.231   2.233   9.799  0.3744 -0.1562  0.4129
 3836SOL    HW122970   2.304   2.229   9.737 -1.3715  0.1313 -1.6713
 3836SOL    HW222971   2.191   2.315   9.770  0.0374  0.3654  2.3230
 3837SOL     OW22972   0.328   2.788   1.397 -0.5839  0.2263 -0.0234
 3837SOL    HW122973   0.291   2.800   1.485  1.8460  0.3604  0.9964
 3837SOL    HW222974   0.417   2.822   1.412 -0.1547 -0.6919 -0.4938
 3838SOL     OW22975   0.534   4.029   3.322  0.3968 -0.0018 -0.2724
 3838SOL    HW122976   0.576   3.986   3.247 -1.0946 -1.0454 -0.5241
 3838SOL    HW222977   0.468   3.961   3.341  0.2541  0.2468  0.1145
 3839SOL     OW22978   0.145   1.401  12.961  0.2533 -0.1263  0.2178
 3839SOL    HW122979   0.059   1.422  12.923  0.2910 -2.2994 -1.0445
 3839SOL    HW222980   0.156   1.490  12.995  0.5539 -0.8226  1.9305
 3840SOL     OW22981   2.959   0.624   5.519  0.3491  0.4844 -0.1163
 3840SOL    HW122982   2.864   0.622   5.533  1.0230 -0.8910  4.1107
 3840SOL    HW222983   2.966   0.552   5.456  2.3138 -0.1113  0.7936
 3841SOL     OW22984   2.017   4.293   1.802 -0.9993  0.0034  0.0194
 3841SOL    HW122985   2.092   4.291   1.862  0.9290  0.6853 -2.3745
 3841SOL    HW222986   1.944   4.306   1.862 -0.3853 -0.1337  0.8047
 3842SOL     OW22987   1.781   1.583   5.831  0.3066  0.5234 -0.1445
 3842SOL    HW122988   1.710   1.613   5.888 -0.5071  0.8847 -1.3498
 3842SOL    HW222989   1.792   1.492   5.857 -0.4181  0.5147  0.1437
 3843SOL     OW22990   0.839   2.791  16.588  0.2658  0.4086  0.1921
 3843SOL    HW122991   0.798   2.708  16.611  1.9775 -0.3297  0.6291
 3843SOL    HW222992   0.809   2.841  16.664 -1.9493  1.3555 -1.3317
 3844SOL     OW22993   2.787   3.132  15.146 -0.2294  0.0877  0.2898
 3844SOL    HW122994   2.713   3.072  15.153  0.2742 -0.6316 -0.5585
 3844SOL    HW222995   2.787   3.177  15.230 -1.5028  1.1325 -0.2727
 3845SOL     OW22996   0.815   4.171  16.667  1.1096 -0.1737 -0.9992
 3845SOL    HW122997   0.790   4.082  16.689  0.1018  0.6302  1.1490
 3845SOL    HW222998   0.733   4.192  16.622  0.8670 -0.5924 -0.7550
 3846SOL     OW22999   2.251   2.926   2.932 -0.0423  0.3215 -0.4226
 3846SOL    HW123000   2.210   2.842   2.955 -0.7248  0.8031  0.0940
 3846SOL    HW223001   2.176   2.975   2.898 -0.0306  0.0813 -0.7996
 3847SOL     OW23002   2.407   2.792  10.765  0.0553 -0.1579  1.0145
 3847SOL    HW123003   2.495   2.826  10.748 -0.0033 -0.5044  0.0421
 3847SOL    HW223004   2.423   2.700  10.783  1.5553 -0.1898 -0.4680
 3848SOL     OW23005   1.954   3.664  15.982 -0.1587 -0.7317 -0.3814
 3848SOL    HW123006   1.873   3.714  15.985  0.4934  0.1795  1.6969
 3848SOL    HW223007   1.969   3.657  16.076  0.1422 -0.7137 -0.4278
 3849SOL     OW23008   2.430   1.553  14.953 -0.3409  0.4901 -0.2210
 3849SOL    HW123009   2.381   1.522  14.876 -0.0427  2.1236 -1.0587
 3849SOL    HW223010   2.389   1.636  14.976  0.1442  0.1459  1.8218
 3850SOL     OW23011   4.028   3.277   3.818  0.0604  0.0846 -0.1040
 3850SOL    HW123012   3.939   3.304   3.842  1.0614  3.0194  0.2662
 3850SOL    HW223013   4.011   3.255   3.726 -1.7276 -1.1879  0.5278
 3851SOL     OW23014   3.785   0.872   0.888 -0.9574 -0.5937  0.1875
 3851SOL    HW123015   3.749   0.784   0.880 -0.0892 -1.0061  0.8949
 3851SOL    HW223016   3.816   0.889   0.799 -0.6772  0.4012  0.4800
 3852SOL     OW23017   3.102   2.187   1.067  0.0086  0.7773 -0.2599
 3852SOL    HW123018   3.181   2.225   1.030  1.0785 -2.6193 -1.4410
 3852SOL    HW223019   3.040   2.248   1.028 -0.3652 -0.0426 -0.9535
 3853SOL     OW23020   1.929   2.984   3.878  0.1319  0.0016  0.0129
 3853SOL    HW123021   1.834   2.985   3.870  0.0130 -0.1751  1.3267
 3853SOL    HW223022   1.941   2.953   3.968 -0.8642 -1.3177 -0.3091
 3854SOL     OW23023   1.145   0.355  13.146  0.1271 -0.1363 -0.4016
 3854SOL    HW123024   1.053   0.373  13.168  0.8041  2.9604 -0.1249
 3854SOL    HW223025   1.176   0.336  13.234  0.3576 -2.4293 -0.9624
 3855SOL     OW23026   1.666   2.134   7.302  0.3176  0.0367 -0.2993
 3855SOL    HW123027   1.604   2.207   7.295  1.5160  1.3464  2.8498
 3855SOL    HW223028   1.606   2.066   7.331  0.2219  0.4156  0.4125
 3856SOL     OW23029   1.689   0.142   9.342 -0.6954  0.1220 -0.6804
 3856SOL    HW123030   1.607   0.156   9.390  1.2253  1.7347  2.0974
 3856SOL    HW223031   1.731   0.227   9.356 -0.9163  0.1859 -0.3919
 3857SOL     OW23032   0.526   2.097  15.786  0.5494 -0.1297 -0.3929
 3857SOL    HW123033   0.600   2.157  15.793  0.9062 -0.6173  0.0796
 3857SOL    HW223034   0.559   2.024  15.734 -0.7791 -2.1524  1.5777
 3858SOL     OW23035   4.221   0.061   4.343  0.0471  0.4750 -0.3145
 3858SOL    HW123036   4.225   0.051   4.248  1.1420 -0.1057 -0.2075
 3858SOL    HW223037   4.301   0.013   4.363 -0.2978  0.7098  1.6467
 3859SOL     OW23038   2.853   2.406   4.076 -0.2919 -0.1323  0.0049
 3859SOL    HW123039   2.862   2.325   4.026  0.6342 -1.3738  2.1736
 3859SOL    HW223040   2.844   2.370   4.164 -0.9328  0.9928  0.3933
 3860SOL     OW23041   3.872   0.500   2.278  0.3352 -0.2228 -0.7321
 3860SOL    HW123042   3.808   0.450   2.227 -0.2793  1.7544 -1.9051
 3860SOL    HW223043   3.922   0.521   2.199 -0.0763  3.1049 -0.1033
 3861SOL     OW23044   1.071   1.171   6.570 -0.8029  0.0837 -0.1289
 3861SOL    HW123045   1.069   1.189   6.476 -1.7499  3.0924  0.4567
 3861SOL    HW223046   1.157   1.130   6.578 -1.4949 -1.6747 -1.7761
 3862SOL     OW23047   3.693   2.984   8.755 -0.5994  0.0434  0.1538
 3862SOL    HW123048   3.696   3.076   8.780 -1.4083  0.2133 -0.3908
 3862SOL    HW223049   3.599   2.968   8.749 -0.9181  2.3940 -1.0639
 3863SOL     OW23050   0.466   3.622   0.595 -0.1486 -0.5710  0.0800
 3863SOL    HW123051   0.509   3.700   0.559 -0.4716  0.1785  1.3228
 3863SOL    HW223052   0.484   3.550   0.533  1.6387 -0.6098  0.6325
 3864SOL     OW23053   1.278   4.364   1.680  0.4461 -0.0037 -0.2593
 3864SOL    HW123054   1.255   4.278   1.717  0.6002  0.7599  1.6029
 3864SOL    HW223055   1.293   4.340   1.589  2.6032 -2.2913  0.6905
 3865SOL     OW23056   1.190   0.851   9.057  0.0371 -0.3025  0.3273
 3865SOL    HW123057   1.132   0.843   9.133  1.5054 -0.5523  1.4233
 3865SOL    HW223058   1.262   0.792   9.080  0.2260  0.4200  1.5932
 3866SOL     OW23059   0.505   4.046   7.238 -0.4139 -0.5862  0.6668
 3866SOL    HW123060   0.450   3.971   7.215 -1.7519  0.0832  1.6780
 3866SOL    HW223061   0.574   3.998   7.284  0.8786 -0.4471 -1.1381
 3867SOL     OW23062   1.710   0.746   7.626 -0.9285  0.0496 -0.1451
 3867SOL    HW123063   1.653   0.817   7.657  0.8032  0.5049  2.0142
 3867SOL    HW223064   1.774   0.742   7.698 -0.5295 -0.9643 -0.5722
 3868SOL     OW23065   4.582   1.510   4.633  0.6174 -0.1991 -0.4607
 3868SOL    HW123066   4.523   1.557   4.692 -1.0827 -2.1482 -0.6135
 3868SOL    HW223067   4.537   1.463   4.563  0.5903  0.9496 -1.2172
 3869SOL     OW23068   2.350   0.783   5.853 -0.1313 -0.4271 -0.0242
 3869SOL    HW123069   2.405   0.839   5.798  0.7933 -0.7260  0.6163
 3869SOL    HW223070   2.278   0.845   5.844  0.7071  0.6749  1.0095
 3870SOL     OW23071   2.381   2.303   5.418 -0.1405  0.1947 -0.1703
 3870SOL    HW123072   2.429   2.305   5.335 -1.8570 -0.2354 -1.1688
 3870SOL    HW223073   2.406   2.214   5.442 -1.4901  0.3159  1.6370
 3871SOL     OW23074   1.626   4.455   8.529 -0.0648 -0.2695  0.5425
 3871SOL    HW123075   1.551   4.503   8.564 -0.6472 -1.0592  0.3843
 3871SOL    HW223076   1.699   4.488   8.581 -0.6920  2.4094 -0.2629
 3872SOL     OW23077   2.505   2.963   8.333  0.3744  0.6476 -0.2264
 3872SOL    HW123078   2.542   2.876   8.346  0.8629  0.9195  0.1960
 3872SOL    HW223079   2.419   2.953   8.374 -0.5899  0.2885 -2.3225
 3873SOL     OW23080   4.257   1.438   2.062 -0.1860 -0.0446  0.2885
 3873SOL    HW123081   4.243   1.512   2.121 -2.0560  0.3860 -0.7085
 3873SOL    HW223082   4.275   1.494   1.987 -0.2102  0.4582  0.6586
 3874SOL     OW23083   1.551   2.567  13.042  0.1614 -0.3412  0.4902
 3874SOL    HW123084   1.493   2.553  13.116 -1.4444  2.5850 -0.2166
 3874SOL    HW223085   1.625   2.508  13.059  2.1933  1.6760 -1.2482
 3875SOL     OW23086   4.656   0.164  15.136  0.3113  0.8112  0.2713
 3875SOL    HW123087   4.686   0.238  15.083 -0.4803 -0.0264 -1.3604
 3875SOL    HW223088   4.561   0.177  15.128  0.5283  2.3245  0.1738
 3876SOL     OW23089   1.896   2.098  14.000 -0.5790  0.1519 -0.4738
 3876SOL    HW123090   1.961   2.105  14.071  0.3403  2.1764 -1.5030
 3876SOL    HW223091   1.922   2.011  13.970 -1.9256 -0.1796 -0.6605
 3877SOL     OW23092   0.106   1.333   5.067 -0.3524  0.0937  0.0575
 3877SOL    HW123093   0.167   1.262   5.046  0.8790  0.8657  0.9848
 3877SOL    HW223094   0.065   1.340   4.981 -0.8265  0.4744  0.3181
 3878SOL     OW23095   3.695   0.705   8.122  0.2735 -0.0131  0.0272
 3878SOL    HW123096   3.667   0.701   8.030  2.0429 -1.9186 -0.4160
 3878SOL    HW223097   3.607   0.713   8.158  0.9698 -1.2292  1.9739
 3879SOL     OW23098   2.288   1.396   8.036 -0.9106 -0.2202  0.7328
 3879SOL    HW123099   2.265   1.394   7.944  0.2511  0.4625  0.4298
 3879SOL    HW223100   2.208   1.423   8.082 -0.8457 -0.6796  1.1193
 3880SOL     OW23101   2.994   4.088   4.258  0.1322 -0.4173 -0.0490
 3880SOL    HW123102   2.979   4.011   4.313 -1.8177  0.7461  1.0415
 3880SOL    HW223103   2.913   4.082   4.207  1.5160 -1.3301 -2.1555
 3881SOL     OW23104   3.532   4.646   3.339 -0.3594  0.1024 -0.0496
 3881SOL    HW123105   3.512   4.721   3.395 -1.7635 -0.5688  0.3417
 3881SOL    HW223106   3.578   4.585   3.397  1.0660 -0.1208 -1.4257
 3882SOL     OW23107   2.713   3.823  10.963  0.3494 -0.2642 -0.7155
 3882SOL    HW123108   2.618   3.825  10.954  0.1931 -0.1062  1.1374
 3882SOL    HW223109   2.728   3.913  10.991 -0.0453 -0.3992 -0.0974
 3883SOL     OW23110   2.144   1.274  12.268 -0.2085 -0.4070  0.0678
 3883SOL    HW123111   2.083   1.264  12.340 -0.1683 -0.6983  0.0631
 3883SOL    HW223112   2.088   1.254  12.193  1.0745  0.9950 -1.2797
 3884SOL     OW23113   1.911   3.985  13.671  0.7574  0.2597  0.3508
 3884SOL    HW123114   1.958   3.936  13.604 -3.2896 -1.0605 -1.5240
 3884SOL    HW223115   1.824   3.962  13.639 -0.3350  2.3972  1.7299
 3885SOL     OW23116   1.487   4.459   4.216  0.3230  0.4022 -0.5027
 3885SOL    HW123117   1.547   4.410   4.161 -1.1858  0.2294 -2.0180
 3885SOL    HW223118   1.539   4.479   4.293 -0.0197 -1.3789  0.1704
 3886SOL     OW23119   3.036   4.630   6.224  0.2854  0.1389 -0.1733
 3886SOL    HW123120   3.120   4.621   6.178  0.2077  2.2557 -0.7051
 3886SOL    HW223121   2.975   4.618   6.151  0.5620  0.1595 -0.4059
 3887SOL     OW23122   1.599   2.618   6.622  0.5226 -0.2905  0.2589
 3887SOL    HW123123   1.512   2.606   6.659  0.3676 -2.4062 -0.8050
 3887SOL    HW223124   1.637   2.530   6.617 -0.3359 -0.5253 -2.3609
 3888SOL     OW23125   2.127   4.502   7.152  0.5576 -0.4146 -0.2176
 3888SOL    HW123126   2.165   4.480   7.237  2.0372  0.5978 -0.6142
 3888SOL    HW223127   2.041   4.530   7.182  0.0512 -0.0921 -1.9680
 3889SOL     OW23128   4.281   2.977  11.385  0.7563 -0.2310 -0.1870
 3889SOL    HW123129   4.352   3.034  11.356  1.3586  0.1495  2.1031
 3889SOL    HW223130   4.202   3.005  11.338 -0.7940 -1.9637  1.3805
 3890SOL     OW23131   2.909   0.554  10.000  0.1295 -0.6605  0.0015
 3890SOL    HW123132   3.003   0.543   9.983  0.2477  0.7471 -0.2345
 3890SOL    HW223133   2.907   0.619  10.070 -1.8466  0.1496 -0.7998
 3891SOL     OW23134   2.028   3.031  17.152  0.1883 -0.0424  0.1822
 3891SOL    HW123135   1.975   3.084  17.212  0.4484  0.9527 -0.4527
 3891SOL    HW223136   2.115   3.067  17.169  0.0195  0.8576 -0.8245
 3892SOL     OW23137   2.264   0.453   6.685  0.0543  0.3145  0.3690
 3892SOL    HW123138   2.246   0.435   6.777  1.1735 -0.4278  0.4491
 3892SOL    HW223139   2.355   0.424   6.674 -0.1672  0.1260 -0.9980
 3893SOL     OW23140   1.785   2.645  10.515 -0.4602 -0.2659 -0.0812
 3893SOL    HW123141   1.832   2.661  10.597  0.8181  2.4228 -1.3456
 3893SOL    HW223142   1.759   2.730  10.482  1.8356  0.9383  1.2524
 3894SOL     OW23143   4.040   4.508   3.358  0.7829 -0.5390  0.0142
 3894SOL    HW123144   3.997   4.439   3.409 -1.1888  0.1915 -0.6383
 3894SOL    HW223145   4.091   4.462   3.291 -0.0580 -2.5051  0.7329
 3895SOL     OW23146   0.827   4.715  12.362 -0.3515  0.3320 -0.2746
 3895SOL    HW123147   0.807   4.670  12.444  0.3829  2.5698  1.1339
 3895SOL    HW223148   0.835   4.640  12.302  1.6784  1.7719 -1.8038
 3896SOL     OW23149   1.989   1.080   5.520  0.3010 -0.0102 -0.2537
 3896SOL    HW123150   2.029   1.014   5.463 -0.1728  0.3097 -0.9636
 3896SOL    HW223151   1.897   1.072   5.497  0.5268  0.1830 -1.2504
 3897SOL     OW23152   2.626   0.288   2.081  0.2483 -0.2961  0.0380
 3897SOL    HW123153   2.572   0.223   2.127  0.3792 -0.3355  0.1359
 3897SOL    HW223154   2.711   0.252   2.103 -0.5233 -0.8595  2.1174
 3898SOL     OW23155   2.846   3.168   7.734 -0.0666 -0.1457 -0.1631
 3898SOL    HW123156   2.759   3.171   7.695  0.9899 -0.5969 -2.5548
 3898SOL    HW223157   2.821   3.177   7.826  1.6714  2.0940  0.1132
 3899SOL     OW23158   0.545   0.518  12.135  0.1133  0.1691  0.3283
 3899SOL    HW123159   0.456   0.488  12.120 -0.3749  2.5410 -1.6137
 3899SOL    HW223160   0.534   0.562  12.220  0.0424 -2.6214  1.7453
 3900SOL     OW23161   3.930   1.322   0.717  0.0503  0.2014 -0.0713
 3900SOL    HW123162   3.861   1.344   0.780  0.1450  0.4125 -0.0411
 3900SOL    HW223163   3.881   1.272   0.652 -1.0014  1.6126 -0.3631
 3901SOL     OW23164   2.432   3.365   8.034 -0.1740  0.2603 -0.2426
 3901SOL    HW123165   2.470   3.389   8.118  0.5292  0.6809 -0.6847
 3901SOL    HW223166   2.458   3.444   7.986  0.5925 -2.2518 -3.9501
 3902SOL     OW23167   0.997   3.662   7.443  0.5651 -0.0473  0.0877
 3902SOL    HW123168   1.039   3.635   7.525 -1.9263  1.3467  1.8149
 3902SOL    HW223169   0.907   3.637   7.465  0.5777 -1.6699 -1.7159
 3903SOL     OW23170   1.067   3.522   5.266 -0.2244 -0.1215  0.1359
 3903SOL    HW123171   1.020   3.538   5.349  1.8717  1.3382  1.0428
 3903SOL    HW223172   1.136   3.588   5.271 -1.7316  1.5209 -0.2947
 3904SOL     OW23173   3.248   3.104   3.160 -0.4231 -0.3615 -0.4510
 3904SOL    HW123174   3.328   3.150   3.135 -0.9236  0.4980 -0.4735
 3904SOL    HW223175   3.229   3.147   3.244  0.2080 -0.1710 -0.4060
 3905SOL     OW23176   2.475   0.462   8.411 -0.0574  0.3284 -0.8295
 3905SOL    HW123177   2.541   0.418   8.465 -0.8463  0.4194  0.2211
 3905SOL    HW223178   2.516   0.537   8.368  0.6854  0.8592  0.7836
 3906SOL     OW23179   3.749   4.497   1.183 -0.3154 -0.3015  0.1672
 3906SOL    HW123180   3.732   4.453   1.100 -1.7401 -0.4316  0.5293
 3906SOL    HW223181   3.727   4.585   1.154  2.7334 -0.2218 -1.9431
 3907SOL     OW23182   2.621   3.805  10.482  0.6611 -0.2099 -0.3824
 3907SOL    HW123183   2.530   3.813  10.453  0.8330  1.6043 -0.4303
 3907SOL    HW223184   2.634   3.889  10.527  1.2621  0.2065 -1.3353
 3908SOL     OW23185   2.663   1.749   3.986 -0.1392  0.4943 -1.1198
 3908SOL    HW123186   2.755   1.735   3.966  0.0481 -0.6508  0.5885
 3908SOL    HW223187   2.616   1.666   3.976  1.7713 -0.8757  1.2046
 3909SOL     OW23188   3.308   2.761   5.858 -0.0445  0.0718 -0.2835
 3909SOL    HW123189   3.213   2.763   5.867 -0.1795  0.4751 -1.7485
 3909SOL    HW223190   3.339   2.671   5.870 -0.1842 -0.1312 -1.4080
 3910SOL     OW23191   3.634   1.293   2.971  0.0547 -0.0965 -0.5223
 3910SOL    HW123192   3.658   1.386   2.965 -0.3469 -0.0216 -0.9493
 3910SOL    HW223193   3.560   1.306   2.912 -1.8497 -1.4684  1.5891
 3911SOL     OW23194   4.318   3.704  14.167  0.2262  0.3249 -0.3186
 3911SOL    HW123195   4.232   3.738  14.141  1.0860  0.3496 -3.1712
 3911SOL    HW223196   4.328   3.759  14.244  1.3433 -0.5540  0.1537
 3912SOL     OW23197   2.239   2.840   2.289  0.1570  0.2888 -0.0099
 3912SOL    HW123198   2.150   2.807   2.277 -0.4855  2.1605 -0.3546
 3912SOL    HW223199   2.295   2.774   2.249  1.4623  1.4275 -0.0671
 3913SOL     OW23200   1.830   3.655   4.769 -0.0585 -0.6043  0.0200
 3913SOL    HW123201   1.737   3.665   4.745 -0.6125 -3.6468  0.9617
 3913SOL    HW223202   1.842   3.668   4.863  1.7804 -1.7993 -0.0606
 3914SOL     OW23203   4.561   3.549  14.521 -0.3359  0.4528  0.3470
 3914SOL    HW123204   4.545   3.642  14.503  1.0795  0.7505  0.5950
 3914SOL    HW223205   4.621   3.530  14.449 -1.3416  0.2632 -0.4340
 3915SOL     OW23206   4.546   2.140  15.505 -0.3704 -0.6967 -0.2329
 3915SOL    HW123207   4.631   2.175  15.529 -1.1844 -0.7953  2.8051
 3915SOL    HW223208   4.557   2.134  15.410  1.1385  0.8227 -0.1444
 3916SOL     OW23209   0.526   3.658   7.300 -0.1620  0.2148 -0.1802
 3916SOL    HW123210   0.480   3.592   7.351  0.5904 -1.1871 -1.3316
 3916SOL    HW223211   0.488   3.650   7.213  1.7824  0.2142 -1.0395
 3917SOL     OW23212   0.939   0.814   5.187 -0.6266  0.7285  0.0767
 3917SOL    HW123213   0.867   0.788   5.245 -1.2061  0.3627 -0.7998
 3917SOL    HW223214   0.953   0.737   5.133 -1.2246 -0.9600  2.3121
 3918SOL     OW23215   4.489   0.337   3.781  0.5416  0.3090  0.2764
 3918SOL    HW123216   4.584   0.328   3.790  0.5336 -0.2722 -0.3016
 3918SOL    HW223217   4.477   0.272   3.712  1.6980  0.6239 -0.2240
 3919SOL     OW23218   1.394   0.657   7.712  0.5774 -0.3652 -0.4917
 3919SOL    HW123219   1.308   0.699   7.714  0.3366 -0.8212 -1.2263
 3919SOL    HW223220   1.447   0.725   7.669  1.2931 -0.6117 -0.0055
 3920SOL     OW23221   2.260   2.876   7.691 -0.1018  0.5471 -0.2886
 3920SOL    HW123222   2.171   2.894   7.719 -0.0085 -1.1208  1.0455
 3920SOL    HW223223   2.307   2.857   7.772  0.9525  0.7500 -0.8449
 3921SOL     OW23224   3.542   4.151   2.787 -0.4992 -0.4494  0.3476
 3921SOL    HW123225   3.519   4.099   2.864  0.4792  2.3193  2.5379
 3921SOL    HW223226   3.521   4.086   2.720  2.2477  1.4219 -2.3089
 3922SOL     OW23227   4.672   0.216   1.062  0.2266  0.1162  0.3500
 3922SOL    HW123228   0.015   0.171   1.013  0.6958 -0.3225  1.4080
 3922SOL    HW223229   4.681   0.303   1.024  1.0400  0.2027  0.7543
 3923SOL     OW23230   4.542   2.491  13.830  0.1653 -0.3802 -0.1460
 3923SOL    HW123231   4.572   2.580  13.849 -0.6928 -0.2311  0.4814
 3923SOL    HW223232   4.491   2.500  13.749 -0.3664 -1.2217  0.0961
 3924SOL     OW23233   0.208   2.496   6.132  0.7678 -0.0204 -0.6618
 3924SOL    HW123234   0.177   2.418   6.179 -0.2460 -0.4011 -1.9500
 3924SOL    HW223235   0.141   2.556   6.164  0.2869 -0.5651 -0.6444
 3925SOL     OW23236   0.135   2.152  11.800 -0.2366  0.3962 -0.4244
 3925SOL    HW123237   0.209   2.202  11.835  1.1810 -1.3028 -0.9275
 3925SOL    HW223238   0.061   2.210  11.784 -0.1226  0.8817  0.8240
 3926SOL     OW23239   2.853   4.301   2.425 -0.1016 -0.0654 -0.2648
 3926SOL    HW123240   2.946   4.322   2.412 -0.2603  1.6540  1.3132
 3926SOL    HW223241   2.853   4.256   2.510 -1.0172  1.7736  0.7060
 3927SOL     OW23242   3.992   2.260  10.879 -0.1299 -0.3700  0.5311
 3927SOL    HW123243   4.011   2.198  10.949 -1.6048 -2.2834 -0.7460
 3927SOL    HW223244   4.083   2.279  10.858 -0.1272 -0.6029  0.3273
 3928SOL     OW23245   2.425   4.596   4.085 -0.0533  0.2080  0.1029
 3928SOL    HW123246   2.473   4.608   4.002  1.6513 -0.7190  0.9490
 3928SOL    HW223247   2.359   4.532   4.061 -0.3872  0.2274  0.9936
 3929SOL     OW23248   0.280   2.486   5.390  0.5071 -0.1855  0.3643
 3929SOL    HW123249   0.352   2.524   5.340  0.2471  0.6124  0.5963
 3929SOL    HW223250   0.322   2.418   5.443  0.7625 -0.4875 -0.2274
 3930SOL     OW23251   3.196   1.873   7.033  0.3812 -0.3389  0.3783
 3930SOL    HW123252   3.246   1.896   7.112  1.1888 -0.7797 -0.0059
 3930SOL    HW223253   3.114   1.842   7.071  0.4761  1.0950  1.7810
 3931SOL     OW23254   1.032   4.437  13.897  0.4094  0.8064 -0.2834
 3931SOL    HW123255   1.075   4.490  13.830 -0.2478  0.4129 -1.0103
 3931SOL    HW223256   1.090   4.362  13.905 -1.7603 -0.6736  1.6940
 3932SOL     OW23257   3.571   2.377   0.203 -0.2151  0.3049  0.8688
 3932SOL    HW123258   3.625   2.301   0.221 -0.3821 -0.5421 -2.2667
 3932SOL    HW223259   3.583   2.431   0.281  0.1476 -0.9399  1.6577
 3933SOL     OW23260   2.049   4.608  15.664  0.5956  0.1646 -0.1232
 3933SOL    HW123261   1.995   4.575  15.736  1.1355 -1.0245 -0.2711
 3933SOL    HW223262   2.105   4.534  15.644 -1.2361 -0.9842 -0.9455
 3934SOL     OW23263   3.986   2.248   6.977  0.2987  0.3979 -0.6485
 3934SOL    HW123264   4.071   2.281   6.948  0.3942  0.1783 -0.6165
 3934SOL    HW223265   3.930   2.229   6.902 -0.2954  1.7938 -0.5717
 3935SOL     OW23266   1.653   0.696   1.544  0.2481 -0.4633 -0.1021
 3935SOL    HW123267   1.668   0.689   1.639 -3.0922  1.9524  0.6017
 3935SOL    HW223268   1.734   0.743   1.525  0.8308 -1.8717 -1.0832
 3936SOL     OW23269   4.441   4.658   4.424 -0.5854 -0.2745  0.3585
 3936SOL    HW123270   4.474   4.661   4.514 -0.4295 -1.8484  0.3501
 3936SOL    HW223271   4.429   4.564   4.411 -1.1471 -0.3209  1.2021
 3937SOL     OW23272   0.496   0.468  13.185 -0.1460  0.2643 -0.1614
 3937SOL    HW123273   0.464   0.471  13.276 -1.0521  0.3736 -0.4865
 3937SOL    HW223274   0.511   0.559  13.163  1.8347 -0.4450 -1.7426
 3938SOL     OW23275   1.344   3.920   1.530 -0.0896 -0.0863 -0.3176
 3938SOL    HW123276   1.380   3.839   1.566  0.0923  0.7476  1.3581
 3938SOL    HW223277   1.409   3.940   1.463 -0.7991  0.0516 -0.9605
 3939SOL     OW23278   3.219   3.318   0.199 -0.2239  0.1836  0.5157
 3939SOL    HW123279   3.173   3.401   0.208  0.9225  1.2616 -3.5924
 3939SOL    HW223280   3.147   3.256   0.186  0.9980 -1.1319  0.0477
 3940SOL     OW23281   1.198   2.394   7.290  0.8016 -0.1102 -0.6453
 3940SOL    HW123282   1.245   2.423   7.212  0.6217 -0.7595 -1.0019
 3940SOL    HW223283   1.207   2.300   7.273  3.3358  0.1303 -0.5505
 3941SOL     OW23284   4.256   2.718   6.894  0.8782  0.6266 -0.2552
 3941SOL    HW123285   4.161   2.728   6.907  0.8348  0.7569 -0.6689
 3941SOL    HW223286   4.267   2.792   6.834 -2.3255  1.1424 -0.2256
 3942SOL     OW23287   0.067   3.953   9.415 -0.6042  0.1198 -0.1320
 3942SOL    HW123288   0.155   3.952   9.378 -0.9855  0.4152 -1.0404
 3942SOL    HW223289   0.025   3.877   9.375 -0.7614 -0.5459  1.2734
 3943SOL     OW23290   2.366   3.042  11.548  0.6798 -0.3774  0.5048
 3943SOL    HW123291   2.356   3.129  11.509  0.0773 -1.0692 -0.8751
 3943SOL    HW223292   2.276   3.020  11.571  0.0837 -1.9902 -3.4353
 3944SOL     OW23293   1.877   3.867   4.533 -0.2204 -0.5827 -0.4183
 3944SOL    HW123294   1.902   3.793   4.589 -0.0432  1.2964  1.9564
 3944SOL    HW223295   1.901   3.941   4.589  2.5870 -1.3425 -0.6203
 3945SOL     OW23296   3.286   0.831   1.761  0.0047 -0.4002 -0.4846
 3945SOL    HW123297   3.199   0.824   1.799 -0.4486  2.5163 -1.0231
 3945SOL    HW223298   3.334   0.767   1.813  0.1015  0.2205  0.1844
 3946SOL     OW23299   0.278   4.494   6.865  0.3401  0.0509 -0.0439
 3946SOL    HW123300   0.256   4.413   6.911  1.9619 -0.2459  0.1904
 3946SOL    HW223301   0.349   4.533   6.916  1.1327 -3.0537  1.2134
 3947SOL     OW23302   3.187   3.252   0.958 -0.0886 -0.6406  0.4079
 3947SOL    HW123303   3.226   3.324   1.007  1.9085 -0.5593 -1.2938
 3947SOL    HW223304   3.265   3.207   0.924 -0.7940 -1.2490 -0.3887
 3948SOL     OW23305   1.559   2.667   7.922  0.2735  0.4229  0.4604
 3948SOL    HW123306   1.483   2.649   7.978 -1.2261  0.8136 -1.4721
 3948SOL    HW223307   1.522   2.735   7.866 -0.1582  2.0305  2.6671
 3949SOL     OW23308   3.904   2.536   6.964  0.5511  0.0062  0.4393
 3949SOL    HW123309   3.871   2.579   7.042  0.7655  2.9696 -1.0918
 3949SOL    HW223310   3.937   2.453   6.999 -2.5511 -1.4615 -0.0780
 3950SOL     OW23311   3.851   2.605   5.338 -0.3197 -0.0778 -0.4599
 3950SOL    HW123312   3.806   2.629   5.419 -0.4794  1.1589 -0.9159
 3950SOL    HW223313   3.899   2.683   5.310  0.7283 -0.9174 -0.9984
 3951SOL     OW23314   2.347   2.120  10.014  0.3469  0.3944 -0.1542
 3951SOL    HW123315   2.316   2.179   9.945 -4.0543  0.8521  2.2012
 3951SOL    HW223316   2.437   2.099   9.987 -0.3097 -0.7905 -1.3984
 3952SOL     OW23317   2.095   0.149   6.309 -0.4405 -0.2046 -0.1782
 3952SOL    HW123318   2.191   0.146   6.304 -0.3639  0.3936  1.1827
 3952SOL    HW223319   2.085   0.182   6.398  2.7362  1.9478 -0.5996
 3953SOL     OW23320   3.002   4.183  11.465  0.6479  0.3204  0.8900
 3953SOL    HW123321   3.051   4.134  11.530  3.0470 -0.9110 -1.8554
 3953SOL    HW223322   3.054   4.161  11.388 -1.9201 -0.1396 -0.7411
 3954SOL     OW23323   0.871   2.273   6.721 -0.1843 -0.1156 -0.4357
 3954SOL    HW123324   0.922   2.329   6.780  1.0273 -0.7990 -0.8310
 3954SOL    HW223325   0.790   2.256   6.769 -0.1221  0.2343 -0.1987
 3955SOL     OW23326   1.600   1.697   6.009  0.6854 -0.0027 -0.5795
 3955SOL    HW123327   1.525   1.736   6.055  0.9212 -1.4937  1.1038
 3955SOL    HW223328   1.556   1.665   5.931 -0.3829 -1.0119  0.4213
 3956SOL     OW23329   4.308   2.445  14.888  0.4606  0.0295 -0.4549
 3956SOL    HW123330   4.314   2.488  14.803 -0.3624 -2.1994 -1.6317
 3956SOL    HW223331   4.401   2.435  14.909  0.2362 -0.0991  0.4873
 3957SOL     OW23332   0.751   2.364   7.115 -0.1850 -0.3961 -0.2621
 3957SOL    HW123333   0.736   2.273   7.091 -0.5916 -0.5731  0.6763
 3957SOL    HW223334   0.846   2.358   7.121 -0.0390  1.1801 -1.0061
 3958SOL     OW23335   3.262   3.764  14.126 -0.3820 -0.1364 -0.3021
 3958SOL    HW123336   3.216   3.680  14.118 -1.0421  0.2576 -0.6036
 3958SOL    HW223337   3.340   3.739  14.175  0.1149  0.4618 -0.7912
 3959SOL     OW23338   3.344   3.513   0.866 -1.1394 -0.1171  0.1185
 3959SOL    HW123339   3.368   3.606   0.874  0.9242 -0.5270 -1.2552
 3959SOL    HW223340   3.385   3.504   0.780 -0.6351 -2.2736  0.5912
 3960SOL     OW23341   2.106   3.428  12.932 -0.4415 -0.3260  0.3300
 3960SOL    HW123342   2.025   3.408  12.979  0.5672 -1.3400  1.6360
 3960SOL    HW223343   2.081   3.518  12.912  1.1685 -0.1053 -0.6987
 3961SOL     OW23344   1.280   3.987   4.534 -0.1208  0.5740  0.8458
 3961SOL    HW123345   1.310   3.932   4.462  0.1582  1.1328  0.5403
 3961SOL    HW223346   1.187   4.001   4.516  0.4909  3.2757 -0.2236
 3962SOL     OW23347   3.148   3.548  13.420 -0.3143  0.2861  0.1453
 3962SOL    HW123348   3.119   3.587  13.503  4.1483  2.2135  0.7892
 3962SOL    HW223349   3.242   3.552  13.437 -0.0748 -1.5797 -0.7663
 3963SOL     OW23350   4.630   1.974   9.692  0.0822 -0.2682 -0.2131
 3963SOL    HW123351   4.568   2.005   9.626 -1.1939  0.1673  1.1995
 3963SOL    HW223352   4.597   2.029   9.763  0.1844 -0.1830 -0.2310
 3964SOL     OW23353   1.711   4.364   1.647  0.4299  0.4337  0.3942
 3964SOL    HW123354   1.779   4.297   1.651 -2.7513 -2.6576  3.2971
 3964SOL    HW223355   1.642   4.325   1.702  1.7512 -0.4601  1.4151
 3965SOL     OW23356   2.104   2.495  13.558 -0.2890 -0.7661  0.6238
 3965SOL    HW123357   2.179   2.518  13.612 -1.4488  1.4287  1.3047
 3965SOL    HW223358   2.040   2.566  13.556 -1.0572 -1.3881  2.5082
 3966SOL     OW23359   3.321   0.599  16.121 -0.3861 -0.6498  0.2091
 3966SOL    HW123360   3.397   0.542  16.113 -1.0384 -1.4462 -0.2507
 3966SOL    HW223361   3.361   0.683  16.147 -0.0333 -0.1863 -1.8586
 3967SOL     OW23362   3.368   1.208  10.472 -0.0557  0.4492 -0.0774
 3967SOL    HW123363   3.326   1.226  10.556  1.4982  2.1559  0.3366
 3967SOL    HW223364   3.457   1.177  10.490  0.2626  1.6760  0.4336
 3968SOL     OW23365   0.971   3.334   7.417  0.1261 -0.3473  0.3451
 3968SOL    HW123366   0.925   3.397   7.362  0.2645  0.7472  1.4904
 3968SOL    HW223367   0.945   3.372   7.501  0.2332 -2.2354  1.2356
 3969SOL     OW23368   1.957   0.141   1.679  0.3461 -0.2324 -0.0318
 3969SOL    HW123369   1.952   0.062   1.626 -0.0523  0.1788 -0.6070
 3969SOL    HW223370   1.944   0.099   1.764 -0.7774  0.1804 -0.0068
 3970SOL     OW23371   0.862   3.289   8.110 -0.2900  0.1994  0.5973
 3970SOL    HW123372   0.886   3.256   8.023 -2.1589 -2.4788  1.0912
 3970SOL    HW223373   0.913   3.225   8.160 -0.5016  0.0197  0.5879
 3971SOL     OW23374   4.074   1.312   1.801 -0.4566 -0.0381  0.2951
 3971SOL    HW123375   4.121   1.323   1.718 -0.9875 -1.4182 -0.1974
 3971SOL    HW223376   4.061   1.218   1.790 -0.2538 -0.0616  0.2642
 3972SOL     OW23377   3.968   3.727  11.022 -0.0174 -0.6242 -0.2836
 3972SOL    HW123378   3.882   3.730  10.981  0.6563  1.3109 -1.5497
 3972SOL    HW223379   3.961   3.783  11.099  1.0902 -0.6761 -0.1388
 3973SOL     OW23380   0.061   4.206   2.406 -0.5097  0.0596  0.0912
 3973SOL    HW123381   0.127   4.180   2.342 -0.4595  1.0706 -0.2508
 3973SOL    HW223382   4.713   4.149   2.378  1.0608 -2.4090  0.9851
 3974SOL     OW23383   0.247   3.999   6.931 -0.1671  0.1844  0.5171
 3974SOL    HW123384   0.214   4.089   6.940 -1.0122  0.0810 -1.5293
 3974SOL    HW223385   0.240   3.974   7.023  0.3176  2.6204  1.2231
 3975SOL     OW23386   2.338   2.923  17.279  0.1835 -0.1375  0.6762
 3975SOL    HW123387   2.371   3.005  17.243  0.8594 -0.6939  0.0225
 3975SOL    HW223388   2.418   2.869  17.286  1.7475  2.0895 -0.0356
 3976SOL     OW23389   4.721   4.622   4.301  0.2136 -0.4961  0.7245
 3976SOL    HW123390   4.669   4.545   4.322  1.5720 -0.8735  2.7206
 3976SOL    HW223391   4.680   4.639   4.216  1.0893  2.2086  0.8337
 3977SOL     OW23392   2.224   1.722   7.413  0.4165  0.4184  0.4788
 3977SOL    HW123393   2.275   1.679   7.344  0.9741 -0.1148  1.2327
 3977SOL    HW223394   2.266   1.692   7.493  1.3979 -0.2241 -0.2840
 3978SOL     OW23395   3.703   3.091   6.715  0.2917 -0.4486 -0.4215
 3978SOL    HW123396   3.686   3.074   6.807  1.0790 -0.6280 -0.3090
 3978SOL    HW223397   3.618   3.075   6.674 -0.0096 -0.7576  0.3239
 3979SOL     OW23398   2.575   1.720  12.130 -0.0573 -0.6053 -0.3434
 3979SOL    HW123399   2.599   1.633  12.161  3.0613  0.2370 -0.4009
 3979SOL    HW223400   2.652   1.773  12.150  0.0169 -0.5307 -0.8225
 3980SOL     OW23401   4.402   2.398   2.961 -0.0789  0.9632 -0.0956
 3980SOL    HW123402   4.414   2.459   2.889  1.1242  1.6119  0.6725
 3980SOL    HW223403   4.309   2.417   2.977  0.0575 -0.7252  2.7664
 3981SOL     OW23404   3.249   3.309   5.509  0.2611 -0.5456  0.1403
 3981SOL    HW123405   3.268   3.293   5.416  0.4405 -0.3442  0.1399
 3981SOL    HW223406   3.336   3.296   5.548 -0.3262  3.3675  2.7937
 3982SOL     OW23407   1.544   0.783  11.617  0.1972 -0.5473 -0.5335
 3982SOL    HW123408   1.479   0.780  11.686  0.7152 -0.8313 -0.0573
 3982SOL    HW223409   1.621   0.733  11.644 -0.3939 -0.9472  0.3826
 3983SOL     OW23410   1.990   4.268   6.400 -0.3906  0.0458  0.9159
 3983SOL    HW123411   1.913   4.323   6.384  1.8968  2.7142 -0.9714
 3983SOL    HW223412   1.988   4.285   6.494 -1.7092 -1.2173  1.1220
 3984SOL     OW23413   3.849   4.139  11.413 -0.4898  0.9708 -0.3933
 3984SOL    HW123414   3.753   4.146  11.418 -0.3324  1.3070  2.2457
 3984SOL    HW223415   3.856   4.045  11.431 -0.1394  0.8132 -1.3400
 3985SOL     OW23416   0.507   4.514   0.772 -0.2407 -0.7343 -0.3422
 3985SOL    HW123417   0.601   4.530   0.781 -0.6832  2.0154 -0.6391
 3985SOL    HW223418   0.509   4.434   0.720 -0.9774  0.7684 -2.6916
 3986SOL     OW23419   2.353   2.954   6.554 -0.4506 -0.3800  0.9367
 3986SOL    HW123420   2.294   2.947   6.478  0.6901 -0.8974  0.1055
 3986SOL    HW223421   2.299   3.009   6.611  0.1213  0.8619  0.2708
 3987SOL     OW23422   0.465   1.311   3.201  0.1282  0.5454  0.4168
 3987SOL    HW123423   0.500   1.270   3.280 -1.2405 -0.6480  0.3935
 3987SOL    HW223424   0.543   1.303   3.146  0.8153  0.7051  1.3666
 3988SOL     OW23425   3.564   1.529   0.003 -1.0462 -0.1628  0.0388
 3988SOL    HW123426   3.483   1.486   0.033 -1.3820  1.0512  0.9095
 3988SOL    HW223427   3.624   1.493   0.068 -0.5990  0.5222  0.0051
 3989SOL     OW23428   1.853   4.398   5.123 -0.3145  0.0014 -0.3150
 3989SOL    HW123429   1.836   4.405   5.217 -1.1709 -0.3316 -0.4532
 3989SOL    HW223430   1.923   4.333   5.130  0.1544  0.3373 -1.8246
 3990SOL     OW23431   0.307   0.157   7.853 -0.2843  0.0008  0.2558
 3990SOL    HW123432   0.292   0.112   7.936  2.1214  0.9036  1.1887
 3990SOL    HW223433   0.219   0.188   7.832 -0.5461  0.6147  2.2366
 3991SOL     OW23434   3.252   4.488  13.815  0.2690 -0.0376  0.2583
 3991SOL    HW123435   3.296   4.404  13.820 -1.4299 -1.0792 -1.9054
 3991SOL    HW223436   3.229   4.501  13.907  1.2142  0.7714  0.3766
 3992SOL     OW23437   4.075   2.101   1.658 -0.5422 -0.0307  0.7774
 3992SOL    HW123438   4.018   2.167   1.619 -0.4769  0.8268  2.1092
 3992SOL    HW223439   4.057   2.019   1.613 -2.1701  0.9883 -0.4469
 3993SOL     OW23440   1.559   0.047   4.249  0.3031  0.0895  0.4600
 3993SOL    HW123441   1.652   0.069   4.237  0.7772 -1.5112  1.1230
 3993SOL    HW223442   1.541   0.003   4.165  2.1092  1.4755 -0.6607
 3994SOL     OW23443   2.801   2.729   2.548  0.0395 -0.0001  0.2726
 3994SOL    HW123444   2.783   2.636   2.533  2.4959 -0.5024  0.3459
 3994SOL    HW223445   2.759   2.767   2.471 -0.3037 -2.2489 -0.6561
 3995SOL     OW23446   2.121   3.331   3.259 -0.3879  0.2292  0.7430
 3995SOL    HW123447   2.134   3.360   3.168 -2.1891 -1.3394 -0.0014
 3995SOL    HW223448   2.197   3.273   3.266 -0.0544  0.5545 -0.0834
 3996SOL     OW23449   0.532   2.301   5.033  0.4870 -0.6424 -0.0509
 3996SOL    HW123450   0.552   2.313   4.940  2.6129 -1.5102  0.2832
 3996SOL    HW223451   0.494   2.385   5.056  1.5520 -0.5228  1.2976
 3997SOL     OW23452   1.589   2.959   5.423 -0.4293  0.3040 -0.1891
 3997SOL    HW123453   1.606   2.881   5.371 -1.5737 -0.4396  0.5484
 3997SOL    HW223454   1.655   2.963   5.492 -0.5408  0.2710 -0.0802
 3998SOL     OW23455   4.069   2.689  17.521  0.0645  0.0173  0.1955
 3998SOL    HW123456   4.070   2.619  17.586  2.6734 -0.4033 -0.3247
 3998SOL    HW223457   4.114   2.761  17.565 -0.7874 -1.3227  3.3028
 3999SOL     OW23458   4.453   1.268   6.084 -0.3015  0.2993  0.3089
 3999SOL    HW123459   4.396   1.277   6.160  1.8396  2.2622  1.6882
 3999SOL    HW223460   4.481   1.177   6.097 -0.1699  0.3027  0.0361
 4000SOL     OW23461   3.362   1.335   6.636 -0.4923  0.1945  0.2828
 4000SOL    HW123462   3.449   1.296   6.623  0.6945  2.7666  0.5859
 4000SOL    HW223463   3.382   1.424   6.663  3.6713  0.1387 -2.6668
 4001SOL     OW23464   1.427   0.358   7.746  0.6911  0.0842 -0.2208
 4001SOL    HW123465   1.410   0.451   7.736  0.1014 -0.3220 -3.1104
 4001SOL    HW223466   1.517   0.350   7.714  0.4149 -0.2676 -0.9161
 4002SOL     OW23467   4.097   3.264   7.685 -0.1317 -0.2211 -0.2918
 4002SOL    HW123468   4.103   3.169   7.685  0.6212 -0.1863 -2.9136
 4002SOL    HW223469   4.007   3.275   7.715  0.6741  1.0009  1.6782
 4003SOL     OW23470   2.290   1.728   6.695 -0.7165 -0.1393 -0.8388
 4003SOL    HW123471   2.335   1.720   6.611  0.4016  2.2575 -0.4756
 4003SOL    HW223472   2.236   1.649   6.691  0.8144 -1.1696 -1.3060
 4004SOL     OW23473   1.485   0.198   8.836  0.3857  0.0760  0.4163
 4004SOL    HW123474   1.397   0.235   8.821 -0.1075 -0.0818  2.9299
 4004SOL    HW223475   1.540   0.252   8.779 -1.2440  1.3208 -0.0079
 4005SOL     OW23476   0.633   0.706   6.262 -0.0696  0.3947  0.6160
 4005SOL    HW123477   0.680   0.693   6.345 -1.9597 -1.8129  1.3472
 4005SOL    HW223478   0.704   0.671   6.208 -0.2175  0.7801  0.1752
 4006SOL     OW23479   3.134   0.422  16.236  0.0642  0.4776 -0.3095
 4006SOL    HW123480   3.223   0.387  16.245 -0.5898 -0.3765  2.7508
 4006SOL    HW223481   3.163   0.501  16.191  0.1515  1.8226  2.1229
 4007SOL     OW23482   1.027   4.065   9.569 -0.6520  0.0184 -0.6409
 4007SOL    HW123483   1.076   4.143   9.543 -1.0896  0.3736 -0.4060
 4007SOL    HW223484   1.093   3.998   9.588 -1.2090 -0.4090 -0.2116
 4008SOL     OW23485   0.021   0.957   2.581 -0.3015 -0.6366  0.0332
 4008SOL    HW123486   4.668   0.905   2.603  0.1490 -1.0601  0.6488
 4008SOL    HW223487   0.064   0.894   2.525  1.3317  2.5428 -2.2703
 4009SOL     OW23488   2.657   0.469  10.132 -0.3833  0.8701  0.3533
 4009SOL    HW123489   2.732   0.473  10.072 -1.7605 -1.2377 -1.5056
 4009SOL    HW223490   2.703   0.436  10.209 -0.3759  2.2313  0.9265
 4010SOL     OW23491   0.062   4.082  11.271 -0.2276  0.0185 -0.2354
 4010SOL    HW123492   0.080   4.132  11.191 -2.2858  0.4843 -0.4015
 4010SOL    HW223493   4.714   4.036  11.230 -1.6054  2.5024 -0.5567
 4011SOL     OW23494   1.804   4.539   2.423 -0.0915  0.1236 -0.6983
 4011SOL    HW123495   1.789   4.446   2.409  2.5956 -0.4723  0.3671
 4011SOL    HW223496   1.860   4.542   2.501  0.7347 -2.4495 -1.2168
 4012SOL     OW23497   0.457   2.527   6.036  0.4936 -0.6204 -0.2900
 4012SOL    HW123498   0.477   2.437   6.012  0.7895 -0.5424 -0.3355
 4012SOL    HW223499   0.361   2.519   6.034  0.5974 -1.5687 -0.9754
 4013SOL     OW23500   0.231   0.629   7.305 -0.7739  0.7878 -0.8595
 4013SOL    HW123501   0.233   0.534   7.296 -1.8294  0.6476  0.3658
 4013SOL    HW223502   0.218   0.649   7.212 -0.1258 -0.9084 -1.3206
 4014SOL     OW23503   1.386   4.635   8.049 -0.4444 -0.1892  0.0828
 4014SOL    HW123504   1.438   4.555   8.052  0.4907  0.4566  1.2586
 4014SOL    HW223505   1.441   4.705   8.013 -0.7257 -0.3287 -0.6225
 4015SOL     OW23506   3.168   4.377   3.470  0.0137  0.1484  0.1373
 4015SOL    HW123507   3.106   4.315   3.508  1.0242  0.9688  3.0987
 4015SOL    HW223508   3.122   4.454   3.504 -2.0320 -1.0231  0.0527
 4016SOL     OW23509   1.463   3.693   2.836 -0.0376 -0.2269  0.3631
 4016SOL    HW123510   1.508   3.777   2.823  0.4040 -0.7515 -1.5330
 4016SOL    HW223511   1.527   3.651   2.894 -0.1034  1.4772  1.6943
 4017SOL     OW23512   0.147   1.366   6.528  0.6983 -0.7525 -0.3793
 4017SOL    HW123513   0.153   1.360   6.432 -0.7732 -3.9292 -0.2962
 4017SOL    HW223514   0.178   1.277   6.544  1.9528  0.0734  1.7237
 4018SOL     OW23515   2.465   2.738   5.817  0.2057  0.4150 -1.1053
 4018SOL    HW123516   2.394   2.765   5.758 -0.9171  1.2268  0.6348
 4018SOL    HW223517   2.412   2.697   5.885  0.7189 -0.4993 -1.2573
 4019SOL     OW23518   2.521   4.200   5.735 -0.2290  0.5624 -0.0457
 4019SOL    HW123519   2.534   4.119   5.783 -0.5802  0.0034 -0.9059
 4019SOL    HW223520   2.547   4.269   5.796  0.2571  2.3456 -2.2737
 4020SOL     OW23521   2.483   1.238   7.719 -0.1213  0.0041  0.0764
 4020SOL    HW123522   2.401   1.266   7.759 -0.8974  1.6908 -2.7142
 4020SOL    HW223523   2.503   1.329   7.698  0.3529  0.2744  1.7141
 4021SOL     OW23524   1.825   0.886   2.149 -0.1078 -0.8924 -0.7375
 4021SOL    HW123525   1.824   0.981   2.157  1.3940 -0.7100 -2.6295
 4021SOL    HW223526   1.777   0.875   2.231 -1.0650  0.0765 -1.1662
 4022SOL     OW23527   3.000   3.046  17.239 -0.0889  0.1854  0.0782
 4022SOL    HW123528   3.071   2.997  17.281 -2.6772 -2.1927  1.6616
 4022SOL    HW223529   2.982   3.109  17.310  0.9932  0.2237  0.3212
 4023SOL     OW23530   1.856   4.402   0.411  0.1591 -0.6092 -0.4840
 4023SOL    HW123531   1.805   4.483   0.414  1.7838  0.3635  1.5752
 4023SOL    HW223532   1.934   4.430   0.363 -0.3222 -0.5554 -1.2351
 4024SOL     OW23533   3.541   0.628   1.077 -0.2771 -0.9070 -0.8085
 4024SOL    HW123534   3.524   0.604   0.986 -0.8496  1.0397 -1.2041
 4024SOL    HW223535   3.484   0.559   1.110 -0.3645  1.0780  3.1105
 4025SOL     OW23536   4.374   3.261   5.243 -0.2557  0.3343  0.1443
 4025SOL    HW123537   4.440   3.238   5.177 -0.5002  1.5102 -0.5035
 4025SOL    HW223538   4.319   3.183   5.251  0.5944 -0.3359 -0.5026
 4026SOL     OW23539   0.612   3.017  13.211 -0.3333 -0.0332 -0.4661
 4026SOL    HW123540   0.687   3.066  13.178  1.4146 -0.1598  3.3633
 4026SOL    HW223541   0.543   3.073  13.176 -1.3447 -0.8320  0.2407
 4027SOL     OW23542   1.594   1.106  16.111  0.4233 -0.6348 -0.5746
 4027SOL    HW123543   1.585   1.195  16.144  1.1555 -1.0156  0.6494
 4027SOL    HW223544   1.581   1.060  16.194 -0.4351 -0.8481 -0.8222
 4028SOL     OW23545   3.164   3.206   2.659  0.4202 -0.8291 -0.0998
 4028SOL    HW123546   3.084   3.242   2.697  0.6399 -0.5072  0.0628
 4028SOL    HW223547   3.220   3.197   2.736  1.7461 -0.0934 -0.9679
 4029SOL     OW23548   0.388   2.157   8.727  0.4873 -0.2973  0.7890
 4029SOL    HW123549   0.406   2.246   8.696  0.1045 -0.8062 -0.8878
 4029SOL    HW223550   0.302   2.176   8.766 -0.5913 -1.8072 -0.8643
 4030SOL     OW23551   2.319   4.634  10.894 -0.0061  0.4712 -0.1450
 4030SOL    HW123552   2.249   4.605  10.835 -0.6520  1.2707  0.2352
 4030SOL    HW223553   2.363   4.709  10.854  0.2041  0.4373  0.0239
 4031SOL     OW23554   3.310   3.801   2.440 -0.0299 -0.5061 -0.0831
 4031SOL    HW123555   3.274   3.795   2.529  2.3178  0.3562  0.9382
 4031SOL    HW223556   3.293   3.710   2.415 -1.6267  0.5118 -2.6702
 4032SOL     OW23557   2.302   2.792   6.323 -0.0061 -0.0563 -0.4059
 4032SOL    HW123558   2.369   2.782   6.255  0.0738 -0.5374 -0.2601
 4032SOL    HW223559   2.245   2.716   6.308  1.4742 -0.6469 -3.1687
 4033SOL     OW23560   1.765   2.052   6.935 -0.3842 -0.4060  0.4679
 4033SOL    HW123561   1.848   2.088   6.966 -0.2465 -2.2120  2.1899
 4033SOL    HW223562   1.778   1.958   6.947 -0.3362 -0.4641 -0.0387
 4034SOL     OW23563   0.800   0.403   5.844  0.6450  0.2251 -0.1855
 4034SOL    HW123564   0.857   0.472   5.809  1.1598 -0.8205 -1.4235
 4034SOL    HW223565   0.862   0.360   5.903  1.3831  0.0869 -1.0484
 4035SOL     OW23566   0.394   2.744   5.507  0.0158 -0.4641 -0.9136
 4035SOL    HW123567   0.319   2.688   5.525  0.0276  0.1489  1.1013
 4035SOL    HW223568   0.371   2.826   5.551  2.8204 -0.3442  0.3444
 4036SOL     OW23569   0.248   4.578   2.086 -0.3648  0.2637  0.5659
 4036SOL    HW123570   0.263   4.664   2.125 -0.0977  0.2925  0.3912
 4036SOL    HW223571   0.192   4.604   2.013  2.5064  1.5377 -1.1409
 4037SOL     OW23572   3.847   1.225   7.063  0.4901  0.6365  0.0199
 4037SOL    HW123573   3.877   1.313   7.085  0.4617  0.6946 -0.1804
 4037SOL    HW223574   3.929   1.189   7.028  1.6657  3.1560  0.1776
 4038SOL     OW23575   3.823   1.296  14.370  0.0904  0.2344  0.1875
 4038SOL    HW123576   3.755   1.354  14.406  0.1309 -0.3286  1.1772
 4038SOL    HW223577   3.837   1.238  14.445 -1.4268  1.3792  1.3596
 4039SOL     OW23578   3.071   1.222   3.655 -0.3367 -0.5168 -0.0902
 4039SOL    HW123579   2.987   1.235   3.612  0.5190  0.5606 -1.4622
 4039SOL    HW223580   3.096   1.141   3.611  1.8364  0.1547 -0.1013
 4040SOL     OW23581   1.477   3.561   3.743 -0.4718  0.5193 -0.2646
 4040SOL    HW123582   1.504   3.533   3.830  0.9897  1.6895 -0.3605
 4040SOL    HW223583   1.435   3.645   3.763  0.4775  0.7704  0.6481
 4041SOL     OW23584   0.864   1.079   6.073 -0.2825 -0.0046 -0.1497
 4041SOL    HW123585   0.806   1.021   6.023  0.2258 -2.6466  2.2937
 4041SOL    HW223586   0.874   1.151   6.011  1.5131 -0.0449  0.1186
 4042SOL     OW23587   2.041   1.536  12.104  0.5595 -0.6033 -0.0557
 4042SOL    HW123588   2.061   1.449  12.070  0.7263 -0.6028  0.0400
 4042SOL    HW223589   2.124   1.583  12.113 -0.2027  0.4448  1.5781
 4043SOL     OW23590   0.739   0.444  13.480  0.7155  0.0361  0.3870
 4043SOL    HW123591   0.675   0.441  13.551  1.8354 -2.0804  1.2883
 4043SOL    HW223592   0.718   0.526  13.435  2.0727  1.0441  1.5675
 4044SOL     OW23593   3.811   2.707   7.165  0.1538 -0.2722 -0.0517
 4044SOL    HW123594   3.880   2.757   7.121 -0.6063  0.7422 -0.0946
 4044SOL    HW223595   3.839   2.708   7.256 -2.1446 -0.3012  0.6576
 4045SOL     OW23596   1.155   4.623   1.167 -0.3896 -0.2530  0.4707
 4045SOL    HW123597   1.131   4.561   1.099  0.3729 -1.5527  1.3726
 4045SOL    HW223598   1.246   4.600   1.187 -0.2152  0.6364  0.7068
 4046SOL     OW23599   0.701   3.367  16.779  0.3144 -0.1281 -0.0150
 4046SOL    HW123600   0.781   3.412  16.753  0.7855 -0.4668  0.8436
 4046SOL    HW223601   0.690   3.307  16.705 -2.3996 -0.3585  0.5851
 4047SOL     OW23602   3.392   1.872   6.863 -0.1879 -0.2686 -0.1939
 4047SOL    HW123603   3.376   1.962   6.836  1.4738 -0.2547 -1.1793
 4047SOL    HW223604   3.329   1.862   6.934  1.0162 -2.7897  0.5382
 4048SOL     OW23605   3.422   0.391   2.782  0.4546 -0.2561  0.1492
 4048SOL    HW123606   3.475   0.455   2.735 -1.3331 -0.2453 -1.8182
 4048SOL    HW223607   3.491   0.342   2.828  1.1858 -1.4047 -2.1973
 4049SOL     OW23608   0.758   1.179   6.304 -1.0354  0.0689  0.2230
 4049SOL    HW123609   0.666   1.159   6.287 -0.5903 -1.6080 -0.2179
 4049SOL    HW223610   0.795   1.125   6.234 -1.7792  1.2746 -1.0907
 4050SOL     OW23611   4.665   1.420   6.085  0.9852 -0.1660 -0.3058
 4050SOL    HW123612   0.009   1.356   6.101 -0.6189 -1.7589  0.2290
 4050SOL    HW223613   4.587   1.365   6.085  0.3685  0.7184  0.0800
 4051SOL     OW23614   1.849   3.732   5.666 -0.2857  0.7216  0.0180
 4051SOL    HW123615   1.873   3.823   5.681  3.0298  0.0711 -1.2439
 4051SOL    HW223616   1.779   3.731   5.602 -0.8540  0.8760  0.6334
 4052SOL     OW23617   0.184   4.025  16.862  0.1197 -0.0085 -0.0859
 4052SOL    HW123618   0.177   4.111  16.903  0.9866  0.3603 -0.7045
 4052SOL    HW223619   0.095   3.999  16.883 -0.3475 -1.9728 -4.4739
 4053SOL     OW23620   1.312   4.058  12.186 -0.2936 -0.1571 -0.1073
 4053SOL    HW123621   1.407   4.061  12.197 -0.2614 -1.5383  0.0094
 4053SOL    HW223622   1.301   3.963  12.189 -2.9120  0.1083 -0.9189
 4054SOL     OW23623   3.648   3.229  14.234  0.4837  1.0405 -0.2306
 4054SOL    HW123624   3.647   3.266  14.322  1.8935 -2.4376  1.2694
 4054SOL    HW223625   3.556   3.230  14.208 -0.0257 -0.8906  1.4974
 4055SOL     OW23626   0.829   2.341   5.336  0.6145  0.5677  0.0862
 4055SOL    HW123627   0.760   2.401   5.309  0.7654  1.6511  2.0787
 4055SOL    HW223628   0.816   2.265   5.280 -0.2147 -1.2927  2.8244
 4056SOL     OW23629   1.944   4.617  14.300 -0.7295  0.0900  0.0301
 4056SOL    HW123630   1.985   4.615  14.386 -1.6872 -0.7455  0.4717
 4056SOL    HW223631   2.008   4.585  14.236  1.9973  1.0653  2.2813
 4057SOL     OW23632   0.891   4.405   2.823 -0.0484 -0.4674  0.5426
 4057SOL    HW123633   0.831   4.479   2.809 -0.2783 -0.3672  2.0208
 4057SOL    HW223634   0.960   4.427   2.760 -0.7859  0.9258  0.2012
 4058SOL     OW23635   1.033   2.541   2.937 -0.2782 -0.1818  0.1099
 4058SOL    HW123636   1.107   2.593   2.967 -0.0388  0.4163 -1.5378
 4058SOL    HW223637   1.056   2.536   2.844  1.6792 -0.0886  0.6075
 4059SOL     OW23638   0.842   2.265   8.067  0.2266 -0.6334  0.6151
 4059SOL    HW123639   0.860   2.316   7.989  1.1283 -1.3984  0.3230
 4059SOL    HW223640   0.872   2.330   8.131  0.1497 -0.6470  0.6655
 4060SOL     OW23641   3.127   1.087   5.163 -0.7659 -0.4805  0.3597
 4060SOL    HW123642   3.178   1.038   5.228 -0.8578  0.8907  1.4582
 4060SOL    HW223643   3.143   1.176   5.194 -1.6323 -0.4352  0.6779
 4061SOL     OW23644   3.598   0.135   4.841 -0.0820  0.0374 -0.7394
 4061SOL    HW123645   3.685   0.112   4.809  0.3218 -0.0472  0.4205
 4061SOL    HW223646   3.551   0.053   4.860 -0.6230  0.8869  1.7050
 4062SOL     OW23647   3.959   0.197   3.967  0.0710  0.0123  0.3889
 4062SOL    HW123648   4.049   0.204   3.935 -0.9960  1.8244 -2.2120
 4062SOL    HW223649   3.965   0.181   4.061 -0.3088 -1.6757  0.1262
 4063SOL     OW23650   1.247   1.412   7.546 -0.1856 -0.8153 -0.0695
 4063SOL    HW123651   1.177   1.383   7.604 -0.7991  2.3965  0.7896
 4063SOL    HW223652   1.327   1.390   7.594  0.4830 -0.6820 -1.1385
 4064SOL     OW23653   0.201   0.024   5.524 -0.1931  0.2216  0.1652
 4064SOL    HW123654   0.296   0.033   5.527 -0.0954 -0.1543 -1.9115
 4064SOL    HW223655   0.191   4.659   5.493  1.3651  0.5731 -1.3750
 4065SOL     OW23656   1.430   0.512  10.900 -0.3214  0.2171 -0.3734
 4065SOL    HW123657   1.473   0.589  10.938  1.4740  0.0731 -2.1713
 4065SOL    HW223658   1.339   0.538  10.886 -0.5053 -0.4898 -0.4722
 4066SOL     OW23659   3.679   0.370  11.730 -0.0333  0.8013 -0.5962
 4066SOL    HW123660   3.761   0.388  11.776  0.7710  0.1002 -1.7407
 4066SOL    HW223661   3.704   0.303  11.666  1.2053  0.8740 -0.1826
 4067SOL     OW23662   0.149   0.388   3.069  0.0638  0.0578 -0.5744
 4067SOL    HW123663   0.231   0.437   3.064  0.7780 -0.8505  2.2551
 4067SOL    HW223664   0.092   0.461   3.092 -0.7339 -1.0611  0.9599
 4068SOL     OW23665   4.358   1.884  12.058  0.4302  0.5816 -0.1374
 4068SOL    HW123666   4.438   1.836  12.036 -0.5873 -0.1298 -2.2904
 4068SOL    HW223667   4.396   1.960  12.103 -0.0558  1.4558 -1.2090
 4069SOL     OW23668   3.980   1.133   2.242  0.3809  0.0219  0.2509
 4069SOL    HW123669   3.933   1.134   2.159  0.0793 -1.9693  0.3837
 4069SOL    HW223670   3.946   1.049   2.273  2.8336 -1.8617 -2.1807
 4070SOL     OW23671   2.563   4.214  11.238  0.3893  0.1207  0.0748
 4070SOL    HW123672   2.508   4.147  11.198 -2.0753 -0.1878  4.0202
 4070SOL    HW223673   2.619   4.170  11.302  0.6893 -0.3803 -0.5427
 4071SOL     OW23674   1.027   2.761   8.313  1.0382 -0.0777  0.8302
 4071SOL    HW123675   0.979   2.813   8.249 -0.7121  2.0734  3.8796
 4071SOL    HW223676   0.971   2.771   8.391  0.3490  0.5687  0.2508
 4072SOL     OW23677   0.808   1.726   1.039 -0.2253 -0.3997  0.2434
 4072SOL    HW123678   0.900   1.736   1.019 -0.4553  1.4127  0.0693
 4072SOL    HW223679   0.766   1.713   0.954 -0.5787 -1.7920  0.6304
 4073SOL     OW23680   3.545   0.754   4.460  0.5377 -0.2058  0.2880
 4073SOL    HW123681   3.595   0.773   4.539 -0.9852  3.7344  0.2765
 4073SOL    HW223682   3.556   0.660   4.447 -1.4829 -0.6839  2.1303
 4074SOL     OW23683   2.157   4.706   5.607 -0.5220  0.0229  0.3748
 4074SOL    HW123684   2.109   0.019   5.680 -2.4384 -0.9733 -0.3866
 4074SOL    HW223685   2.115   0.032   5.538  0.8084 -0.2524 -0.6484
 4075SOL     OW23686   3.289   3.177   1.688 -0.0196  0.3323 -0.1461
 4075SOL    HW123687   3.207   3.162   1.734  1.6721 -0.8750  2.4250
 4075SOL    HW223688   3.298   3.103   1.628 -1.6367  0.4804 -0.5696
 4076SOL     OW23689   4.521   2.889  15.014  0.4821  0.5260  0.1628
 4076SOL    HW123690   4.603   2.844  15.030  0.7210  0.8743 -0.0687
 4076SOL    HW223691   4.531   2.901  14.919  0.3474 -1.0419 -0.0358
 4077SOL     OW23692   2.757   2.662   0.753  0.4203  0.6561 -0.3863
 4077SOL    HW123693   2.846   2.697   0.750  0.9238 -0.4691  1.1558
 4077SOL    HW223694   2.774   2.606   0.829  1.6818 -0.1393 -1.2453
 4078SOL     OW23695   3.411   2.396   6.914  0.3568  0.1411  0.0770
 4078SOL    HW123696   3.436   2.424   7.002  0.3261  1.4528 -0.3183
 4078SOL    HW223697   3.489   2.422   6.864  0.2590 -0.5844 -0.4471
 4079SOL     OW23698   1.259   3.296   0.043  0.0876 -0.8666  0.3432
 4079SOL    HW123699   1.245   3.375  17.692  1.1151 -0.3491  0.8421
 4079SOL    HW223700   1.335   3.325   0.094  1.0445 -0.8222 -1.1132
 4080SOL     OW23701   1.182   3.056  11.874  0.0384  0.4355 -0.7612
 4080SOL    HW123702   1.148   2.975  11.836 -1.6316  0.3030  1.0161
 4080SOL    HW223703   1.102   3.087  11.916  1.9113  1.4230  2.0338
 4081SOL     OW23704   2.286   4.504  15.148  0.2193  0.6015 -0.1666
 4081SOL    HW123705   2.370   4.530  15.110 -0.6332  1.7259 -1.3135
 4081SOL    HW223706   2.256   4.425  15.104 -2.0681  1.5081 -0.2692
 4082SOL     OW23707   0.521   2.722   8.510  0.3244 -0.1002  0.4267
 4082SOL    HW123708   0.533   2.640   8.462 -2.1111 -0.1101 -0.1588
 4082SOL    HW223709   0.581   2.710   8.584 -1.2118  1.6391  1.9684
 4083SOL     OW23710   3.361   1.039   5.393  0.0079  0.1020 -0.2888
 4083SOL    HW123711   3.315   1.122   5.378  0.3307  0.7893  2.4735
 4083SOL    HW223712   3.292   0.984   5.431  0.6328 -1.0746 -0.8535
 4084SOL     OW23713   1.755   1.177   1.312  0.3638 -0.2556  0.1577
 4084SOL    HW123714   1.746   1.107   1.377  1.2278  0.4905  1.0925
 4084SOL    HW223715   1.848   1.196   1.321  0.2916  0.3536 -0.3815
 4085SOL     OW23716   4.414   1.479   5.679  0.2205  0.0394 -0.1926
 4085SOL    HW123717   4.449   1.398   5.640  0.6117  0.9082 -1.6807
 4085SOL    HW223718   4.344   1.443   5.733  1.5630 -1.2257  0.7225
 4086SOL     OW23719   2.963   3.884   0.563  0.0936 -0.4224 -0.0062
 4086SOL    HW123720   3.023   3.893   0.490 -1.2981 -1.2915 -1.2694
 4086SOL    HW223721   2.955   3.975   0.592 -0.6553 -0.8089  1.0228
 4087SOL     OW23722   2.848   3.592  12.638 -0.1285  0.0540  0.2680
 4087SOL    HW123723   2.778   3.622  12.695 -0.5975 -1.8653  0.7056
 4087SOL    HW223724   2.853   3.502  12.670  0.1410  0.2963  0.8981
 4088SOL     OW23725   3.765   2.341   4.909 -0.6050 -0.4542 -0.1136
 4088SOL    HW123726   3.734   2.376   4.993  1.3171  1.3345 -0.1228
 4088SOL    HW223727   3.795   2.428   4.880 -1.6239 -0.4572 -1.1647
 4089SOL     OW23728   3.769   0.124   2.639  0.0442  0.6569 -0.1420
 4089SOL    HW123729   3.745   0.183   2.712  2.9563  1.8682 -0.1863
 4089SOL    HW223730   3.688   0.119   2.587 -0.0195 -0.3801  0.0677
 4090SOL     OW23731   1.113   0.756   3.712  0.2454  0.0574  0.3602
 4090SOL    HW123732   1.072   0.681   3.668  0.8804 -0.0035 -0.1344
 4090SOL    HW223733   1.109   0.732   3.804  0.7529 -0.3162  0.2887
 4091SOL     OW23734   1.246   1.667  13.001  0.0544  0.1889  0.0171
 4091SOL    HW123735   1.226   1.648  13.092  1.3083 -0.9712  0.0498
 4091SOL    HW223736   1.341   1.659  12.996  0.1852  1.0243  1.3693
 4092SOL     OW23737   1.422   0.204   8.355 -0.2589 -0.2571 -0.4807
 4092SOL    HW123738   1.479   0.169   8.287  0.0392 -0.5808 -0.0641
 4092SOL    HW223739   1.487   0.247   8.410 -1.3631 -0.3692  0.9331
 4093SOL     OW23740   0.282   2.775   3.564 -0.1475 -0.3011 -0.3345
 4093SOL    HW123741   0.250   2.693   3.600  0.3925 -0.2324  0.3033
 4093SOL    HW223742   0.306   2.823   3.644 -2.3215 -0.0714  0.1833
 4094SOL     OW23743   2.310   2.864  12.324  0.2924 -0.0426  0.4175
 4094SOL    HW123744   2.346   2.840  12.238  3.0747  0.1937  1.5378
 4094SOL    HW223745   2.364   2.815  12.385  0.9806 -0.5846 -0.6265
 4095SOL     OW23746   4.339   3.262   7.845 -0.0088  0.0480  0.0789
 4095SOL    HW123747   4.293   3.308   7.916 -3.4419 -0.7001 -1.6500
 4095SOL    HW223748   4.271   3.242   7.780 -0.4836 -1.4387  1.0088
 4096SOL     OW23749   4.022   2.811   8.144 -0.0741  0.4686  0.8327
 4096SOL    HW123750   4.061   2.832   8.229 -0.9636 -1.6584  1.7770
 4096SOL    HW223751   3.984   2.727   8.169  0.8244 -0.1627  0.0909
 4097SOL     OW23752   0.703   2.140   3.114 -0.9818  0.4520 -0.1810
 4097SOL    HW123753   0.616   2.168   3.086 -1.9380 -0.1123  2.2809
 4097SOL    HW223754   0.752   2.213   3.075 -0.0402 -0.6496 -1.0400
 4098SOL     OW23755   3.210   3.568   6.802 -0.0185  0.1061 -0.1158
 4098SOL    HW123756   3.118   3.567   6.830 -0.3584 -0.9757 -1.2925
 4098SOL    HW223757   3.215   3.616   6.720  0.1782 -0.0289 -0.1821
 4099SOL     OW23758   0.924   3.843   1.183  0.5754 -0.5067  0.7306
 4099SOL    HW123759   0.866   3.768   1.173  1.8849 -1.3811 -0.1722
 4099SOL    HW223760   0.889   3.901   1.116  0.1366  0.3474  1.6845
 4100SOL     OW23761   3.467   3.463   9.505 -0.0335 -0.2892 -0.4910
 4100SOL    HW123762   3.507   3.538   9.549  0.5992 -1.0056  0.1627
 4100SOL    HW223763   3.424   3.417   9.577 -0.4464 -0.5718 -0.9248
 4101SOL     OW23764   1.818   2.128   2.598 -0.0570 -0.1910 -0.0812
 4101SOL    HW123765   1.758   2.187   2.644 -0.7422 -1.0306  0.0937
 4101SOL    HW223766   1.756   2.096   2.533  0.8571  0.1845 -1.1381
 4102SOL     OW23767   2.094   1.940   3.580  0.3564 -0.0983  0.0187
 4102SOL    HW123768   2.035   1.962   3.651 -0.0665 -0.8310 -0.1043
 4102SOL    HW223769   2.159   1.888   3.627  0.7819 -1.4668 -2.0427
 4103SOL     OW23770   4.441   1.773   2.630  0.4447  0.2587  0.0594
 4103SOL    HW123771   4.488   1.712   2.686  1.4177 -0.1134 -1.1664
 4103SOL    HW223772   4.518   1.801   2.581  1.2944  0.9525  1.8146
 4104SOL     OW23773   0.485   0.731   0.764 -0.7017 -0.0445 -0.0120
 4104SOL    HW123774   0.525   0.758   0.681  2.4795 -0.8067  1.2779
 4104SOL    HW223775   0.547   0.679   0.814 -1.4531 -0.0443  0.9201
 4105SOL     OW23776   2.829   3.096   2.545  0.8354 -0.2008 -0.4266
 4105SOL    HW123777   2.870   3.081   2.630 -1.6868 -1.5407  0.5606
 4105SOL    HW223778   2.895   3.057   2.487  1.4077  0.4087 -0.1842
 4106SOL     OW23779   0.426   4.162   5.930 -0.1019 -0.6786 -0.3352
 4106SOL    HW123780   0.374   4.168   6.010 -0.3053  0.1057 -0.5262
 4106SOL    HW223781   0.438   4.067   5.928  2.3246 -0.3975  0.6059
 4107SOL     OW23782   1.419   0.892   5.054  0.1841 -0.1996 -0.5171
 4107SOL    HW123783   1.372   0.857   5.130  1.7638 -0.4157  0.3381
 4107SOL    HW223784   1.409   0.985   5.070  0.6076 -0.3260  0.4632
 4108SOL     OW23785   3.164   3.897   2.906 -0.4652 -0.1231  0.7394
 4108SOL    HW123786   3.102   3.850   2.962  0.7989 -0.7631  1.5831
 4108SOL    HW223787   3.153   3.981   2.951  2.2802 -0.3620  1.8230
 4109SOL     OW23788   4.276   1.328  16.096 -0.6536  0.4767 -0.2849
 4109SOL    HW123789   4.222   1.300  16.170 -0.5139 -0.2761 -0.4749
 4109SOL    HW223790   4.273   1.420  16.121 -0.2972  0.6875 -1.0083
 4110SOL     OW23791   1.521   3.506   8.122 -0.0337 -0.7715 -0.1386
 4110SOL    HW123792   1.582   3.441   8.156 -0.4084 -0.3788  1.2789
 4110SOL    HW223793   1.567   3.549   8.050 -3.8847  2.3482 -0.7365
 4111SOL     OW23794   2.507   1.572   6.577  0.2510 -0.6211 -0.0605
 4111SOL    HW123795   2.479   1.493   6.623  1.0438 -0.6782  0.3094
 4111SOL    HW223796   2.578   1.602   6.633 -0.2589  0.0407  0.2383
 4112SOL     OW23797   3.908   2.939   8.910  0.2499 -0.1127 -0.0967
 4112SOL    HW123798   3.873   2.960   8.997  0.8506  2.4930 -0.5106
 4112SOL    HW223799   3.824   2.947   8.864  0.0595  2.0858  0.6348
 4113SOL     OW23800   2.068   3.646   8.878 -0.6496  0.4311  0.1198
 4113SOL    HW123801   2.156   3.645   8.916 -0.7331 -0.1714  0.2979
 4113SOL    HW223802   2.034   3.562   8.908  1.3131 -0.1355  0.7681
 4114SOL     OW23803   3.073   0.791   1.926  0.1458  0.6285 -0.1782
 4114SOL    HW123804   3.050   0.699   1.912  2.1335  0.2774 -1.0825
 4114SOL    HW223805   2.992   0.825   1.888 -0.1247 -2.0012 -1.9785
 4115SOL     OW23806   3.008   0.823   7.593 -0.2794 -0.4858 -0.5971
 4115SOL    HW123807   2.993   0.747   7.538 -2.2508 -0.3034 -0.3041
 4115SOL    HW223808   3.066   0.796   7.664  1.5546  0.6617 -1.6681
 4116SOL     OW23809   1.520   0.978   7.681 -0.0083  0.2043  0.0283
 4116SOL    HW123810   1.445   1.032   7.707  1.3910  0.7168  3.0812
 4116SOL    HW223811   1.511   0.997   7.588 -1.0234 -1.2499 -0.1806
 4117SOL     OW23812   0.969   0.092   1.112  0.1792  0.3610  0.7038
 4117SOL    HW123813   0.908   0.094   1.186 -0.3359 -3.0267  0.3663
 4117SOL    HW223814   1.031   0.023   1.134 -0.7198 -0.1433  1.6278
 4118SOL     OW23815   1.855   3.067   5.487  0.4141  0.0507 -0.6929
 4118SOL    HW123816   1.938   3.030   5.515  0.2139  1.2924  1.5553
 4118SOL    HW223817   1.877   3.094   5.398  1.2052 -0.3736 -0.6187
 4119SOL     OW23818   1.960   0.921   9.404 -0.0339  0.1663 -0.6308
 4119SOL    HW123819   1.897   0.965   9.346 -1.5729  0.6621  1.3893
 4119SOL    HW223820   1.907   0.893   9.479  0.1388 -0.0146 -0.5781
 4120SOL     OW23821   2.328   3.000   8.739  0.0341 -0.2421  0.3430
 4120SOL    HW123822   2.421   3.023   8.744  0.7007 -2.6121 -1.6185
 4120SOL    HW223823   2.310   2.953   8.821  1.5802 -0.9471  0.2688
 4121SOL     OW23824   0.811   1.696  17.614  0.7707  0.0523 -0.4616
 4121SOL    HW123825   0.780   1.765  17.673 -0.2425  0.3353 -1.3283
 4121SOL    HW223826   0.826   1.744  17.533 -0.7755 -0.8273 -1.2499
 4122SOL     OW23827   4.544   2.263   9.752 -0.1851  0.0284  0.1654
 4122SOL    HW123828   4.624   2.288   9.705 -1.7070 -1.2674 -3.1611
 4122SOL    HW223829   4.474   2.308   9.704  1.7405  2.4797 -0.3324
 4123SOL     OW23830   0.880   1.871  13.633  0.1750  0.0763  0.6625
 4123SOL    HW123831   0.865   1.945  13.574  2.1143 -0.7773 -0.8803
 4123SOL    HW223832   0.882   1.797  13.573 -0.2349  1.8373 -1.5107
 4124SOL     OW23833   3.693   4.222   1.825  0.0594 -0.2679  0.0330
 4124SOL    HW123834   3.602   4.229   1.795  0.1381 -3.2002 -0.8836
 4124SOL    HW223835   3.729   4.310   1.834  3.1348 -1.4139 -0.8283
 4125SOL     OW23836   4.496   2.689   8.004  0.7045  0.4676  0.0210
 4125SOL    HW123837   4.508   2.658   7.915 -4.2602 -0.0328 -0.5051
 4125SOL    HW223838   4.486   2.783   7.987  1.5340  0.3022 -1.3091
 4126SOL     OW23839   4.609   0.716   6.870  0.0994  0.5400 -0.6546
 4126SOL    HW123840   4.615   0.763   6.953  0.5021 -1.6595  0.5764
 4126SOL    HW223841   4.651   0.635   6.900 -3.7797 -1.6124 -0.9916
 4127SOL     OW23842   3.734   2.770  12.231  0.0761 -0.1594  0.4679
 4127SOL    HW123843   3.823   2.737  12.215 -0.0937 -0.8344  0.9217
 4127SOL    HW223844   3.681   2.690  12.226 -1.0641  0.5802  0.9304
 4128SOL     OW23845   0.091   4.118   7.939 -0.0121 -0.5355 -0.2801
 4128SOL    HW123846   0.129   4.046   7.988 -0.1446 -0.3839  0.0449
 4128SOL    HW223847   0.031   4.156   8.003  1.6557  2.4682 -0.4873
 4129SOL     OW23848   2.670   2.739   4.873 -0.0817  0.0105 -0.0597
 4129SOL    HW123849   2.758   2.740   4.837 -0.0299  1.3488  0.1218
 4129SOL    HW223850   2.652   2.647   4.854  1.0152 -0.2135 -0.0299
 4130SOL     OW23851   2.101   4.450  10.786 -0.5485  0.1339  0.8353
 4130SOL    HW123852   2.043   4.454  10.710 -1.2887 -3.3492  1.2043
 4130SOL    HW223853   2.034   4.420  10.848 -0.2022  2.4074  2.2869
 4131SOL     OW23854   2.344   0.266  10.985 -0.2252  0.1992 -0.3997
 4131SOL    HW123855   2.402   0.259  11.061  0.1259  1.9563 -0.5218
 4131SOL    HW223856   2.275   0.313  11.033 -1.6267 -0.7193 -1.5273
 4132SOL     OW23857   2.259   1.699   2.358 -0.1604  0.4500  0.1239
 4132SOL    HW123858   2.351   1.704   2.332  0.6540 -0.8494  2.7628
 4132SOL    HW223859   2.274   1.647   2.437 -0.8083 -1.9995 -1.3712
 4133SOL     OW23860   4.465   3.822   1.444  0.2496  0.3499  0.0325
 4133SOL    HW123861   4.460   3.735   1.482  2.8340  0.8109  1.4845
 4133SOL    HW223862   4.469   3.797   1.352  0.3821 -0.1363  0.1746
 4134SOL     OW23863   2.775   0.213   3.047  0.2354 -0.3405 -0.0741
 4134SOL    HW123864   2.706   0.272   3.015  0.0709  0.0033  0.9144
 4134SOL    HW223865   2.833   0.205   2.971 -0.3180 -0.3617 -0.5010
 4135SOL     OW23866   4.685   3.411   4.829 -0.2759  0.6391 -0.5910
 4135SOL    HW123867   4.697   3.482   4.892 -0.9829 -0.4149  0.7299
 4135SOL    HW223868   4.591   3.399   4.815 -0.8259  2.7378  1.5194
 4136SOL     OW23869   1.050   2.659   4.848  0.0667  0.3763  0.3106
 4136SOL    HW123870   1.115   2.729   4.850 -0.6822  1.0528  1.7071
 4136SOL    HW223871   1.010   2.684   4.932 -0.4416 -1.8505  0.7307
 4137SOL     OW23872   1.779   4.719   1.094  0.6187  0.2014  0.3211
 4137SOL    HW123873   1.717   0.059   1.061 -0.9016 -0.8611  1.0877
 4137SOL    HW223874   1.805   4.685   1.008  1.4302  1.7218 -0.0302
 4138SOL     OW23875   0.965   1.846   8.295 -0.1150  0.2694 -0.2860
 4138SOL    HW123876   0.922   1.924   8.330 -1.9559 -1.0493  0.4085
 4138SOL    HW223877   1.057   1.871   8.292 -0.2718  0.5951 -2.2474
 4139SOL     OW23878   1.660   3.025  11.915  0.3648  0.7403  0.5579
 4139SOL    HW123879   1.581   3.019  11.861 -1.1519 -0.3953  2.8917
 4139SOL    HW223880   1.646   3.101  11.972 -0.7720  1.5738 -0.8526
 4140SOL     OW23881   4.652   3.440   9.931 -0.3459 -0.0407  0.5731
 4140SOL    HW123882   4.625   3.362   9.883 -0.9511  0.4373  0.1351
 4140SOL    HW223883   4.628   3.436  10.023  0.4312  0.8684  0.8158
 4141SOL     OW23884   1.938   3.873   1.553 -0.4626 -0.4090 -0.4541
 4141SOL    HW123885   2.011   3.825   1.592 -2.0184 -2.2003  0.2504
 4141SOL    HW223886   1.859   3.841   1.597 -0.1093 -0.9502 -0.2178
 4142SOL     OW23887   0.039   4.079   0.273 -0.2247 -0.5740  0.5501
 4142SOL    HW123888   0.132   4.055   0.277  0.1739  1.2597  1.9347
 4142SOL    HW223889   0.036   4.140   0.347 -0.1873  0.9989 -0.7387
 4143SOL     OW23890   4.177   2.301   6.788 -0.3651 -0.2639 -0.0045
 4143SOL    HW123891   4.261   2.311   6.832 -0.0531 -1.1794 -0.3895
 4143SOL    HW223892   4.185   2.215   6.745 -2.6170  0.3735 -1.7437
 4144SOL     OW23893   1.125   3.153   8.496 -0.0772  0.5395 -0.2811
 4144SOL    HW123894   1.160   3.084   8.552 -0.2784 -1.5628 -2.7615
 4144SOL    HW223895   1.206   3.183   8.454  0.6788 -1.0276  0.0250
 4145SOL     OW23896   2.503   4.382  17.020 -0.0779  0.3601  0.0908
 4145SOL    HW123897   2.566   4.422  17.080 -0.9938  0.0336  1.2615
 4145SOL    HW223898   2.471   4.466  16.988 -1.8731  0.5004  2.2614
 4146SOL     OW23899   2.680   3.489   1.470  0.9086 -0.1206 -0.2181
 4146SOL    HW123900   2.628   3.569   1.477  1.2289  0.0842 -0.2361
 4146SOL    HW223901   2.629   3.429   1.414 -0.2130  1.4817 -0.9289
 4147SOL     OW23902   4.681   3.364   5.853  0.1663  0.4027  0.4182
 4147SOL    HW123903   4.687   3.272   5.826  0.9608  0.2279  1.1905
 4147SOL    HW223904   0.043   3.370   5.893  0.3045  0.7075  0.0603
 4148SOL     OW23905   3.914   0.838   8.508 -0.3343  0.2442  0.1369
 4148SOL    HW123906   3.876   0.765   8.558 -0.9546  1.4302  1.3986
 4148SOL    HW223907   3.995   0.854   8.556 -0.5095 -0.0257  0.5269
 4149SOL     OW23908   1.202   0.893   5.581  0.1303  0.1729 -0.3030
 4149SOL    HW123909   1.150   0.899   5.501 -1.2237  1.0182  0.6367
 4149SOL    HW223910   1.167   0.959   5.641 -2.0276  0.5424 -1.9835
 4150SOL     OW23911   1.570   0.442   8.768 -0.1947  0.2908 -0.2371
 4150SOL    HW123912   1.569   0.461   8.674 -0.7579 -1.4715 -0.5977
 4150SOL    HW223913   1.513   0.515   8.793 -0.4884  0.5479 -1.6185
 4151SOL     OW23914   4.561   1.962   8.371 -0.2909  0.1504 -0.3109
 4151SOL    HW123915   4.584   2.032   8.431 -0.0422 -1.7981  1.8872
 4151SOL    HW223916   4.496   1.912   8.420 -0.6123  0.0932 -0.7938
 4152SOL     OW23917   0.064   0.353   6.144 -0.0152  0.3701  0.8888
 4152SOL    HW123918   0.101   0.270   6.114 -1.5485  0.4964 -1.3773
 4152SOL    HW223919   0.064   0.397   6.058  1.6671 -2.5041 -0.5900
 4153SOL     OW23920   1.409   4.208  13.106  0.5751  0.6663 -0.4222
 4153SOL    HW123921   1.399   4.301  13.129  0.8413  0.6123 -0.0919
 4153SOL    HW223922   1.446   4.213  13.017  3.1075  0.1563  0.5940
 4154SOL     OW23923   1.891   2.905   5.803 -0.5502  0.3689 -0.1431
 4154SOL    HW123924   1.951   2.925   5.730 -1.0084 -0.1423 -0.6619
 4154SOL    HW223925   1.835   2.842   5.757  0.7155 -1.6193  1.0383
 4155SOL     OW23926   0.789   3.628   0.500  0.2266  0.2066 -0.4992
 4155SOL    HW123927   0.872   3.674   0.516  0.5500  0.2607 -2.3536
 4155SOL    HW223928   0.787   3.640   0.405 -1.0532  3.0472 -0.1264
 4156SOL     OW23929   4.375   0.200   6.938  0.4133  0.1172  0.2483
 4156SOL    HW123930   4.369   0.117   6.986  1.6634 -1.2297 -1.9401
 4156SOL    HW223931   4.421   0.248   7.007 -0.7684  0.5291  0.7561
 4157SOL     OW23932   4.239   2.654   4.368  0.3869  0.2936  0.0276
 4157SOL    HW123933   4.330   2.662   4.394 -0.3630 -0.3845  2.8024
 4157SOL    HW223934   4.238   2.560   4.348 -3.4704  0.3008  0.1528
 4158SOL     OW23935   3.120   2.788   3.958  0.0764 -0.5265  0.0193
 4158SOL    HW123936   3.086   2.877   3.960  0.5672 -0.3088 -1.3515
 4158SOL    HW223937   3.214   2.801   3.972 -0.0463 -0.5701  0.8390
 4159SOL     OW23938   3.461   1.627   6.751 -0.0273 -0.2065  0.1062
 4159SOL    HW123939   3.427   1.707   6.791  1.8656  1.8873 -2.4855
 4159SOL    HW223940   3.538   1.607   6.805  0.4107 -0.8117 -0.7364
 4160SOL     OW23941   2.025   4.222   5.778  0.3063  0.0215  0.2108
 4160SOL    HW123942   2.003   4.241   5.869 -1.0578 -0.2322 -0.0707
 4160SOL    HW223943   2.070   4.304   5.761 -3.7062  2.4212  1.2481
 4161SOL     OW23944   1.603   3.944   6.079  0.0589  0.1411  0.1382
 4161SOL    HW123945   1.576   3.890   6.005  0.6134  2.1630 -1.5196
 4161SOL    HW223946   1.575   4.030   6.048 -0.3129 -0.2346 -0.5688
 4162SOL     OW23947   3.453   4.576  12.735 -0.2562 -0.5425 -0.8142
 4162SOL    HW123948   3.359   4.559  12.744 -0.5745  1.8863  0.4608
 4162SOL    HW223949   3.470   4.534  12.650 -2.2147 -1.2801 -0.8410
 4163SOL     OW23950   4.284   3.686   6.955 -0.5289  0.0371 -0.5945
 4163SOL    HW123951   4.262   3.624   7.025  1.7599 -1.0658 -0.8645
 4163SOL    HW223952   4.374   3.715   6.969  0.5588 -3.7013  0.0612
 4164SOL     OW23953   4.490   0.596   9.071 -0.1160 -0.0605 -0.4977
 4164SOL    HW123954   4.402   0.564   9.049  0.2457 -2.0522  0.9217
 4164SOL    HW223955   4.518   0.631   8.987 -1.4762 -1.2516 -1.4690
 4165SOL     OW23956   4.419   4.568   3.956 -0.5425  0.3869 -0.0305
 4165SOL    HW123957   4.486   4.636   3.959 -0.1754 -0.0360  1.1842
 4165SOL    HW223958   4.420   4.543   3.863  0.5521 -1.3488  0.4470
 4166SOL     OW23959   4.405   2.734  12.029 -0.1442  0.0360  0.6543
 4166SOL    HW123960   4.417   2.728  12.124  1.0818 -0.3959  0.4739
 4166SOL    HW223961   4.490   2.715  11.989 -1.4285 -2.1665 -1.0732
 4167SOL     OW23962   1.999   3.496   5.985  0.1054  0.2040  0.4238
 4167SOL    HW123963   1.997   3.539   5.900 -4.3563 -0.3565  0.2539
 4167SOL    HW223964   1.920   3.532   6.024  1.7224  3.1056  1.0036
 4168SOL     OW23965   3.242   1.926   0.805  0.4817  0.4782 -0.2949
 4168SOL    HW123966   3.279   1.967   0.883  2.0322  1.8147 -1.7404
 4168SOL    HW223967   3.178   1.995   0.785 -0.9791 -0.3042  1.6434
 4169SOL     OW23968   0.118   0.368  10.803  0.3340 -0.1153 -0.0270
 4169SOL    HW123969   0.108   0.456  10.769  0.6159  0.6876  1.9594
 4169SOL    HW223970   0.070   0.308  10.746 -0.1302  0.4160 -0.1900
 4170SOL     OW23971   4.288   1.385   0.620 -0.0362 -0.0087  0.3581
 4170SOL    HW123972   4.346   1.460   0.612  0.9203 -0.8200 -0.2279
 4170SOL    HW223973   4.297   1.352   0.710  2.0865  0.2417  0.2223
 4171SOL     OW23974   0.318   0.735   5.476 -0.4395 -0.0190  0.1617
 4171SOL    HW123975   0.328   0.762   5.384 -0.7862  1.1745  0.4811
 4171SOL    HW223976   0.233   0.773   5.498 -0.5245  1.2052 -2.2041
 4172SOL     OW23977   2.652   4.057   0.513  0.1587 -0.5863 -0.4752
 4172SOL    HW123978   2.665   3.980   0.458 -0.5485 -0.3939 -0.9036
 4172SOL    HW223979   2.745   4.078   0.529 -0.3972 -0.9725  3.2999
 4173SOL     OW23980   4.111   3.110  11.214 -0.1837  0.3204 -0.1296
 4173SOL    HW123981   4.074   3.089  11.129 -0.4601 -1.6164  0.4701
 4173SOL    HW223982   4.040   3.165  11.248  0.6859 -0.1417  2.4013
 4174SOL     OW23983   1.287   3.686   5.360 -0.0920  0.2662 -0.5251
 4174SOL    HW123984   1.322   3.768   5.396 -2.6293  0.3312  1.8539
 4174SOL    HW223985   1.311   3.627   5.432 -0.3658 -0.6524 -1.1899
 4175SOL     OW23986   4.244   4.660   9.230 -0.0249  0.5435  0.1386
 4175SOL    HW123987   4.240   0.030   9.231 -1.3070  0.4959 -0.1656
 4175SOL    HW223988   4.308   4.657   9.158  0.5592 -0.7945  0.7126
 4176SOL     OW23989   2.321   4.281   4.231  0.1771  0.5047 -0.1551
 4176SOL    HW123990   2.276   4.281   4.316  2.4413 -1.0474  1.0242
 4176SOL    HW223991   2.409   4.311   4.255 -0.1105  0.3157  1.1621
 4177SOL     OW23992   0.859   0.062  14.258 -0.1867 -0.3266 -0.1570
 4177SOL    HW123993   0.804   0.139  14.270 -0.9284 -0.8793 -0.0231
 4177SOL    HW223994   0.797   0.005  14.214  0.4147  0.7120 -2.3364
 4178SOL     OW23995   2.469   3.511  12.028 -0.1107 -0.3616 -0.3289
 4178SOL    HW123996   2.561   3.537  12.037 -0.6877  1.9330 -0.8869
 4178SOL    HW223997   2.430   3.587  12.071 -1.0381 -1.3935  0.6498
 4179SOL     OW23998   0.200   3.369   5.408  0.3594  0.1062 -0.2715
 4179SOL    HW123999   0.146   3.416   5.472 -1.6173 -3.9898  1.0758
 4179SOL    HW224000   0.150   3.287   5.405 -0.6915  0.6377  2.0605
 4180SOL     OW24001   0.216   4.237  10.492 -0.0068 -0.5013  0.4215
 4180SOL    HW124002   0.295   4.287  10.469 -0.1774 -0.5263 -0.2003
 4180SOL    HW224003   0.175   4.230  10.406  1.4077 -0.0558 -0.2876
 4181SOL     OW24004   0.247   1.604   8.371  0.0985  0.2803  0.3976
 4181SOL    HW124005   0.242   1.609   8.467 -1.4122 -1.6533  0.4201
 4181SOL    HW224006   0.326   1.656   8.358 -1.3433  2.6730  1.2824
 4182SOL     OW24007   4.382   2.267   7.769 -0.0161 -0.1382  0.2507
 4182SOL    HW124008   4.444   2.213   7.817  1.3576  1.0465 -0.1864
 4182SOL    HW224009   4.364   2.346   7.820 -0.4717 -0.2015  0.1870
 4183SOL     OW24010   0.770   4.266   7.354  0.3461  0.5383 -0.1451
 4183SOL    HW124011   0.800   4.304   7.271 -0.4581  0.9241 -0.2603
 4183SOL    HW224012   0.706   4.203   7.323  0.1784  1.1008 -0.9513
 4184SOL     OW24013   3.865   0.785  16.232 -0.9359 -0.6499 -0.3643
 4184SOL    HW124014   3.844   0.825  16.316 -0.9325 -0.4312 -0.4676
 4184SOL    HW224015   3.952   0.819  16.209 -1.3202 -0.1293 -1.0182
 4185SOL     OW24016   0.605   1.539   3.386 -0.7912 -0.0599  0.3532
 4185SOL    HW124017   0.689   1.576   3.359 -0.0484 -1.2113  1.1252
 4185SOL    HW224018   0.620   1.445   3.388 -0.8198 -0.0428  1.1752
 4186SOL     OW24019   3.529   3.024   7.376  0.2319  0.1516 -0.0326
 4186SOL    HW124020   3.512   2.930   7.375 -0.2461  0.2257  1.0813
 4186SOL    HW224021   3.562   3.030   7.465  2.8207 -1.9357 -0.8508
 4187SOL     OW24022   2.217   4.476   2.469  0.8166  0.2657 -0.3203
 4187SOL    HW124023   2.136   4.504   2.426  0.2310  0.6667  1.0403
 4187SOL    HW224024   2.202   4.504   2.559  1.2430  0.2763 -0.2508
 4188SOL     OW24025   2.618   0.965   4.026  0.0145 -0.1619 -0.3688
 4188SOL    HW124026   2.628   0.968   3.931  2.1903  0.1641 -0.1319
 4188SOL    HW224027   2.705   0.936   4.053  0.0962 -0.9366 -1.4669
 4189SOL     OW24028   4.559   3.277  16.617  0.3638  0.0501  0.8066
 4189SOL    HW124029   4.593   3.297  16.705  2.7260  2.3487 -0.6273
 4189SOL    HW224030   4.566   3.182  16.610  1.0591  0.1659 -0.0721
 4190SOL     OW24031   3.995   3.128  12.121 -0.3861 -0.6581  0.0642
 4190SOL    HW124032   3.956   3.056  12.072 -0.3072  0.9062 -2.2884
 4190SOL    HW224033   3.936   3.201  12.102  1.0924  0.8803  1.2742
 4191SOL     OW24034   0.265   2.115   3.383 -0.0497  0.4830  0.4277
 4191SOL    HW124035   0.234   2.050   3.446 -0.3590 -0.5682 -0.8027
 4191SOL    HW224036   0.207   2.186   3.413 -0.6610 -0.5197  1.6035
 4192SOL     OW24037   4.343   1.427   3.563  0.1287 -0.3810  0.3130
 4192SOL    HW124038   4.348   1.336   3.591  0.2084 -0.6799 -0.6767
 4192SOL    HW224039   4.382   1.419   3.476  0.5859 -1.5427  0.6254
 4193SOL     OW24040   3.665   4.043   9.948  0.1345 -0.4310 -0.2998
 4193SOL    HW124041   3.717   4.042   9.867 -2.6903 -2.1423 -2.0998
 4193SOL    HW224042   3.651   4.137   9.961  2.4217 -0.1452  0.0070
 4194SOL     OW24043   1.379   0.265  14.803  0.1819  0.0468 -0.1341
 4194SOL    HW124044   1.294   0.230  14.829  0.3237 -0.7155 -0.7063
 4194SOL    HW224045   1.426   0.279  14.886 -0.0830  0.2764 -0.0214
 4195SOL     OW24046   3.318   3.405  11.309 -0.0969 -0.2815  0.0572
 4195SOL    HW124047   3.369   3.485  11.315 -0.2831 -0.2340  1.0560
 4195SOL    HW224048   3.336   3.347  11.383  0.3474  0.3098  0.4073
 4196SOL     OW24049   0.179   0.511   6.360 -0.6915 -0.4232  0.0355
 4196SOL    HW124050   0.255   0.453   6.354 -0.6110 -0.0237 -2.6511
 4196SOL    HW224051   0.133   0.473   6.286  0.9003  0.2025 -1.2742
 4197SOL     OW24052   1.474   3.842  14.873 -0.1735 -0.0544 -0.3115
 4197SOL    HW124053   1.475   3.752  14.839 -0.6928  0.2509 -1.1052
 4197SOL    HW224054   1.485   3.891  14.792 -1.8750  2.2736  0.8588
 4198SOL     OW24055   1.373   3.605   4.921 -0.1391  0.5050 -0.4383
 4198SOL    HW124056   1.303   3.655   4.881  0.0700 -0.1324 -1.6145
 4198SOL    HW224057   1.323   3.543   4.975  1.8648 -1.2931 -0.5995
 4199SOL     OW24058   1.789   3.430   3.207  0.5853 -0.0374 -0.1704
 4199SOL    HW124059   1.769   3.423   3.300  1.1449 -3.8982 -0.3711
 4199SOL    HW224060   1.821   3.342   3.189  0.9718 -0.2191  1.4613
 4200SOL     OW24061   4.432   0.413   4.308  0.3291  0.1090 -0.0282
 4200SOL    HW124062   4.364   0.421   4.241 -0.7203 -0.5944  0.9650
 4200SOL    HW224063   4.504   0.440   4.251  1.6665  0.4185  1.7978
 4201SOL     OW24064   1.332   4.229   1.060  0.0515 -0.7618 -0.3860
 4201SOL    HW124065   1.309   4.137   1.045 -1.0984 -0.0514 -2.8889
 4201SOL    HW224066   1.420   4.214   1.096  0.2194 -0.2019 -0.5555
 4202SOL     OW24067   1.970   2.630   7.342  0.0233  0.0444 -0.0124
 4202SOL    HW124068   1.910   2.589   7.279  0.9675  1.2448 -1.6940
 4202SOL    HW224069   2.033   2.559   7.342  1.0270  0.9351 -0.8828
 4203SOL     OW24070   1.406   1.195  12.138 -1.0497  0.2926 -0.0702
 4203SOL    HW124071   1.432   1.260  12.204 -0.3409  0.9729 -1.0270
 4203SOL    HW224072   1.490   1.192  12.092  0.5175  1.4295  2.7228
 4204SOL     OW24073   3.698   3.295  10.858 -0.0854  0.0980 -0.5048
 4204SOL    HW124074   3.752   3.219  10.836 -0.1005  0.0051 -0.2218
 4204SOL    HW224075   3.689   3.352  10.782 -1.3907  1.6899  0.8601
 4205SOL     OW24076   2.912   4.053   2.203  0.5003 -0.4311 -0.5304
 4205SOL    HW124077   2.827   4.098   2.205  1.9662  2.2906  0.6580
 4205SOL    HW224078   2.961   4.109   2.144  0.9728 -0.1904  0.0878
 4206SOL     OW24079   2.785   1.779  17.629  0.3230 -0.3043  0.6382
 4206SOL    HW124080   2.757   1.863  17.593  2.0491 -0.6436 -1.5430
 4206SOL    HW224081   2.825   1.822   0.002 -0.9482 -0.0183  1.1432
 4207SOL     OW24082   3.706   0.643   7.278  0.1264  0.2367  0.0837
 4207SOL    HW124083   3.665   0.603   7.202 -2.0762 -1.2897  2.0926
 4207SOL    HW224084   3.661   0.728   7.286 -1.1592 -0.4646  0.2489
 4208SOL     OW24085   2.072   2.700   2.636 -0.1393 -0.1658 -0.8053
 4208SOL    HW124086   1.997   2.744   2.676  0.5015 -0.3591  0.5922
 4208SOL    HW224087   2.029   2.639   2.577 -0.3803  0.4157 -1.2344
 4209SOL     OW24088   0.954   1.904   4.108  0.1030 -0.1399 -0.0514
 4209SOL    HW124089   0.988   1.885   4.021  2.9904  1.1695  0.7736
 4209SOL    HW224090   0.991   1.990   4.131 -2.6979  1.1910 -0.6099
 4210SOL     OW24091   3.657   4.344   2.601 -1.1740  0.1081  0.1563
 4210SOL    HW124092   3.637   4.299   2.682  1.4257 -2.7135 -0.7758
 4210SOL    HW224093   3.649   4.434   2.633  2.5061  1.0081 -1.4513
 4211SOL     OW24094   1.036   1.084   5.763  0.3039  0.1622 -0.0654
 4211SOL    HW124095   1.112   1.082   5.821 -1.5400 -1.8690  2.2512
 4211SOL    HW224096   0.981   1.149   5.807  0.6668  1.3772 -1.3971
 4212SOL     OW24097   4.284   1.978   9.760  0.2002  0.9566  0.4521
 4212SOL    HW124098   4.345   2.017   9.697 -0.3603  2.0100  0.5655
 4212SOL    HW224099   4.203   1.998   9.713  0.3153  1.4868  0.4813
 4213SOL     OW24100   2.729   2.077   7.050 -0.7328 -0.0408 -0.2064
 4213SOL    HW124101   2.705   2.166   7.022  0.0364  0.8683  2.0299
 4213SOL    HW224102   2.650   2.026   7.063 -1.5699  0.3048 -3.9475
 4214SOL     OW24103   0.977   3.169  10.770  0.5444 -0.4564 -0.3644
 4214SOL    HW124104   1.005   3.119  10.847  0.3899  0.0584  0.0227
 4214SOL    HW224105   1.035   3.244  10.782  0.1994 -0.3795  0.8378
 4215SOL     OW24106   4.217   4.145   3.533 -0.4858  0.2622 -0.0793
 4215SOL    HW124107   4.219   4.167   3.440 -0.0699  0.1540 -0.0943
 4215SOL    HW224108   4.265   4.062   3.538  1.6222  1.5169  0.3881
 4216SOL     OW24109   0.161   4.561   4.726  0.3423 -0.8650 -0.3181
 4216SOL    HW124110   0.253   4.582   4.741  0.0519  2.0034 -2.4836
 4216SOL    HW224111   0.150   4.607   4.643  3.6158  0.1293 -0.2125
 4217SOL     OW24112   1.540   4.241  15.522 -0.8109  0.0382  0.0347
 4217SOL    HW124113   1.499   4.249  15.436 -1.9257 -0.8464  0.4842
 4217SOL    HW224114   1.628   4.274  15.503 -0.7463  0.2667  0.7632
 4218SOL     OW24115   3.572   3.529  10.971  0.4569  0.8827  0.5720
 4218SOL    HW124116   3.570   3.540  11.066 -0.5255  1.6970  0.4520
 4218SOL    HW224117   3.589   3.435  10.959  0.9530  1.1011 -0.4125
 4219SOL     OW24118   4.280   3.671   4.515 -0.1089 -0.1865 -0.3462
 4219SOL    HW124119   4.316   3.714   4.593  0.6270  0.5154 -1.0749
 4219SOL    HW224120   4.360   3.659   4.464 -0.4211 -1.0575 -0.6431
 4220SOL     OW24121   1.485   1.118   7.446  0.4251 -0.1061 -0.1961
 4220SOL    HW124122   1.392   1.095   7.453 -0.1791  1.8505 -1.6884
 4220SOL    HW224123   1.481   1.197   7.393 -2.9219  2.0642  3.2862
 4221SOL     OW24124   4.529   3.486  10.994 -0.3362  0.2560 -0.2738
 4221SOL    HW124125   4.478   3.429  11.052 -0.2161  0.2257 -0.1978
 4221SOL    HW224126   4.616   3.454  11.017  0.0263 -0.3691 -2.5844
 4222SOL     OW24127   1.306   2.897   2.653  0.0203 -0.3815 -0.3206
 4222SOL    HW124128   1.263   2.813   2.668 -1.6984  1.1122  3.0463
 4222SOL    HW224129   1.237   2.962   2.635  0.5551  0.2661 -0.0347
 4223SOL     OW24130   1.484   1.936   2.439  0.4444  0.5643 -0.0116
 4223SOL    HW124131   1.433   1.863   2.405  0.9571  1.1486 -2.0202
 4223SOL    HW224132   1.456   1.946   2.530 -0.1123 -0.7477 -0.0422
 4224SOL     OW24133   0.237   4.260   5.115 -0.2066  0.0265 -0.5878
 4224SOL    HW124134   0.219   4.242   5.022 -0.3045  2.9516 -1.1478
 4224SOL    HW224135   0.328   4.288   5.115 -0.0687 -0.4626  2.3999
 4225SOL     OW24136   1.090   4.149  16.625  0.1799 -0.1635 -0.1727
 4225SOL    HW124137   1.002   4.177  16.650 -0.6704 -4.1368  1.2979
 4225SOL    HW224138   1.069   4.092  16.551 -0.3481 -0.2272  0.0251
 4226SOL     OW24139   1.579   1.927  13.960 -0.7167  0.7423 -0.8022
 4226SOL    HW124140   1.581   1.966  14.047  1.5450  0.7999 -0.8569
 4226SOL    HW224141   1.529   1.989  13.907  0.9676  0.8622 -2.2602
 4227SOL     OW24142   3.674   2.409  15.339  0.3310  0.2587  0.2188
 4227SOL    HW124143   3.728   2.406  15.417 -0.1009  1.6561  0.5679
 4227SOL    HW224144   3.671   2.501  15.311  0.1220 -0.1137 -1.0031
 4228SOL     OW24145   0.183   4.081   5.667 -0.3006  0.4291  0.5843
 4228SOL    HW124146   0.132   4.162   5.672 -1.1508 -0.1495  1.4356
 4228SOL    HW224147   0.194   4.075   5.572 -0.5821  2.6351  0.4276
 4229SOL     OW24148   4.323   0.513   1.750  0.1793  0.7846 -0.2944
 4229SOL    HW124149   4.317   0.589   1.808  1.2174  1.7513 -1.4538
 4229SOL    HW224150   4.407   0.523   1.705  0.3850  0.6632  0.0612
 4230SOL     OW24151   3.394   1.978   3.108 -0.0283 -0.0358 -0.5830
 4230SOL    HW124152   3.318   1.982   3.166 -1.6310  0.3535 -2.7072
 4230SOL    HW224153   3.470   1.980   3.166 -0.5086  2.0728 -0.0588
 4231SOL     OW24154   2.484   3.364   2.720  0.3872  0.1652 -0.1210
 4231SOL    HW124155   2.405   3.378   2.668 -0.5957  3.8125  2.2847
 4231SOL    HW224156   2.511   3.278   2.689 -0.1096  0.4739 -1.4199
 4232SOL     OW24157   0.182   3.786   4.653 -0.0853 -0.0238  0.5291
 4232SOL    HW124158   0.189   3.704   4.604  2.3074 -0.4961  1.6260
 4232SOL    HW224159   0.137   3.841   4.590  0.8882  0.6743  0.4331
 4233SOL     OW24160   3.736   3.739   1.654 -1.0346 -0.0497 -0.6215
 4233SOL    HW124161   3.763   3.721   1.564  0.4989  0.9645 -0.3639
 4233SOL    HW224162   3.705   3.829   1.639  1.2540  1.0120  0.9795
 4234SOL     OW24163   3.457   4.422   8.180 -0.0731 -0.0265 -0.2152
 4234SOL    HW124164   3.437   4.497   8.124  1.9392 -0.5635 -1.6949
 4234SOL    HW224165   3.549   4.439   8.203 -0.2921  2.1416 -0.9377
 4235SOL     OW24166   1.342   2.695  15.298 -0.0831  0.2688  0.5268
 4235SOL    HW124167   1.365   2.603  15.284  0.1507  0.3505  0.3703
 4235SOL    HW224168   1.248   2.690  15.316  0.2652  0.7413  2.4724
 4236SOL     OW24169   0.849   1.892   9.668 -1.1676 -0.3333 -0.1591
 4236SOL    HW124170   0.791   1.937   9.729 -0.1491  0.5296  0.1868
 4236SOL    HW224171   0.780   1.846   9.621 -1.2022 -0.9592  0.5127
 4237SOL     OW24172   1.645   0.048  11.625 -0.3443 -0.5558 -0.5210
 4237SOL    HW124173   1.575   0.088  11.676 -0.0394  0.3169 -0.7967
 4237SOL    HW224174   1.638   4.682  11.653 -0.1811  0.3497  2.4742
 4238SOL     OW24175   1.105   2.726  11.508 -0.4172  0.3372  0.3316
 4238SOL    HW124176   1.111   2.739  11.603 -1.1885  0.5377  0.3483
 4238SOL    HW224177   1.026   2.774  11.484 -0.1199  0.6859  0.0609
 4239SOL     OW24178   2.493   3.640   4.998  0.0410 -0.5380 -0.2144
 4239SOL    HW124179   2.411   3.622   5.045  0.5322  0.7248  1.1132
 4239SOL    HW224180   2.455   3.692   4.927 -0.2903 -2.2508 -1.2941
 4240SOL     OW24181   1.670   2.315  16.130  0.3155  0.2444 -0.2945
 4240SOL    HW124182   1.618   2.366  16.068  1.3409  1.7436  0.0842
 4240SOL    HW224183   1.679   2.371  16.207 -3.6705 -0.6190  0.8507
 4241SOL     OW24184   4.695   1.786   9.334 -0.2160 -0.4001  0.1896
 4241SOL    HW124185   4.658   1.757   9.251  1.0310 -1.8410  0.1227
 4241SOL    HW224186   0.005   1.699   9.355  1.1004 -0.0876 -0.7566
 4242SOL     OW24187   2.752   2.145   5.305  0.4716  0.2154 -0.0710
 4242SOL    HW124188   2.709   2.230   5.291 -1.7198 -0.7825  0.5992
 4242SOL    HW224189   2.835   2.173   5.341  0.8589 -0.4702 -0.4271
 4243SOL     OW24190   2.398   0.927   8.129 -0.1969  0.1485  0.7948
 4243SOL    HW124191   2.332   0.888   8.187 -1.3542  1.3006  0.2551
 4243SOL    HW224192   2.364   0.892   8.047  2.6167  0.8889 -0.6951
 4244SOL     OW24193   1.576   1.634   7.984 -0.3946 -0.1162 -0.2386
 4244SOL    HW124194   1.620   1.636   7.899  1.1940 -2.6713  0.5354
 4244SOL    HW224195   1.579   1.540   8.001 -3.4439 -0.0009  0.9352
 4245SOL     OW24196   1.603   4.589   2.227 -0.1119 -0.3927  0.4186
 4245SOL    HW124197   1.579   4.676   2.258 -1.6583 -0.2592 -1.1919
 4245SOL    HW224198   1.695   4.602   2.205 -0.4344 -1.1681 -1.4220
 4246SOL     OW24199   4.179   2.270   2.100  0.2304  0.1614  0.4170
 4246SOL    HW124200   4.138   2.356   2.107 -0.5116 -0.0510 -1.4320
 4246SOL    HW224201   4.219   2.262   2.186 -1.1576 -0.3628  1.0187
 4247SOL     OW24202   1.930   0.125   2.446 -0.3061  0.0708 -0.1427
 4247SOL    HW124203   1.838   0.142   2.467 -0.6211  0.8967 -2.1210
 4247SOL    HW224204   1.963   0.108   2.534  1.7061  1.8991 -0.5290
 4248SOL     OW24205   4.263   1.695   4.947 -0.3324  0.6947  0.1931
 4248SOL    HW124206   4.208   1.771   4.967 -0.7622 -0.2146  2.5051
 4248SOL    HW224207   4.341   1.717   4.997 -0.4383 -2.6133  1.7927
 4249SOL     OW24208   1.783   0.967   3.003  0.6399  0.3463 -0.9687
 4249SOL    HW124209   1.708   0.995   2.952 -0.8170  1.5823  1.8396
 4249SOL    HW224210   1.857   1.024   2.983  1.1353 -0.6420 -1.9004
 4250SOL     OW24211   0.586   1.300   4.314 -1.0204 -0.2069 -0.0769
 4250SOL    HW124212   0.624   1.220   4.276 -1.9592 -1.1980  1.0777
 4250SOL    HW224213   0.559   1.259   4.396 -0.7866  1.7828  0.9816
 4251SOL     OW24214   4.464   0.495   2.463 -0.2659 -0.5751 -0.1675
 4251SOL    HW124215   4.375   0.482   2.429 -1.6002  3.1006  1.9307
 4251SOL    HW224216   4.444   0.506   2.556 -1.3758 -0.2684 -0.4393
 4252SOL     OW24217   2.733   1.039   3.363 -0.3013  0.3646 -0.0458
 4252SOL    HW124218   2.675   0.966   3.344  0.9875 -0.7257  0.1986
 4252SOL    HW224219   2.818   1.001   3.388 -0.6990 -0.3383  0.2204
 4253SOL     OW24220   2.495   0.046   7.428 -0.1908  0.3462 -0.9158
 4253SOL    HW124221   2.589   0.048   7.448 -0.3820  0.4482 -0.0049
 4253SOL    HW224222   2.466   4.711   7.497  0.8407  0.9143  0.0159
 4254SOL     OW24223   1.341   4.244  16.280 -0.2449 -0.2490  0.3901
 4254SOL    HW124224   1.390   4.225  16.200  3.0730 -0.1395  2.3693
 4254SOL    HW224225   1.405   4.272  16.345  2.5439 -1.6364 -1.7503
 4255SOL     OW24226   1.144   3.824   9.226 -0.9237  0.0339  1.1768
 4255SOL    HW124227   1.130   3.776   9.308  0.9968 -0.1741  1.3845
 4255SOL    HW224228   1.052   3.845   9.207 -0.9234 -2.1886 -1.2227
 4256SOL     OW24229   3.170   0.924   9.152  0.1753 -0.6644  0.0462
 4256SOL    HW124230   3.096   0.967   9.109  0.9409  0.1956 -0.4196
 4256SOL    HW224231   3.137   0.835   9.164 -1.1055  0.0066  1.5425
 4257SOL     OW24232   3.221   4.215   5.795 -0.2804 -0.6620 -0.5189
 4257SOL    HW124233   3.304   4.227   5.747 -0.4411 -0.9615 -0.8707
 4257SOL    HW224234   3.246   4.140   5.849  2.5930  0.4382 -0.2954
 4258SOL     OW24235   2.105   4.529   9.124 -0.3073 -0.2758 -0.4796
 4258SOL    HW124236   2.010   4.537   9.109 -0.1366  1.2936 -0.6799
 4258SOL    HW224237   2.128   4.484   9.042 -0.6240 -0.9977 -0.1773
 4259SOL     OW24238   1.538   2.066   4.345  0.0921 -0.6486  0.1097
 4259SOL    HW124239   1.573   1.977   4.347  0.7023 -0.4059  0.3169
 4259SOL    HW224240   1.485   2.068   4.425  1.6063 -1.1195  1.1143
 4260SOL     OW24241   3.935   3.393   3.002  0.0680 -0.1264  0.2839
 4260SOL    HW124242   3.935   3.474   2.952  0.8084  0.3548  1.0681
 4260SOL    HW224243   3.871   3.414   3.071  1.2203 -3.5040  2.4102
 4261SOL     OW24244   0.919   3.775   6.847  0.0334 -0.7143  0.2378
 4261SOL    HW124245   0.826   3.787   6.866  0.3459 -0.3630  1.5641
 4261SOL    HW224246   0.937   3.710   6.916 -1.9242 -0.7971  0.6708
 4262SOL     OW24247   3.437   4.170   3.617 -0.2095 -0.9564  0.1918
 4262SOL    HW124248   3.383   4.236   3.574  0.3887  0.4826  1.6672
 4262SOL    HW224249   3.513   4.218   3.651 -1.1170  1.3020 -0.9452
 4263SOL     OW24250   1.868   1.214   0.913 -0.7787 -0.4708  0.0735
 4263SOL    HW124251   1.907   1.185   0.995 -0.2993 -0.7144 -0.2361
 4263SOL    HW224252   1.930   1.198   0.841 -1.2471  2.3823 -0.9794
 4264SOL     OW24253   2.737   3.796   8.812  0.3932 -0.4805 -0.0293
 4264SOL    HW124254   2.687   3.876   8.799 -1.0867 -1.1993  1.3196
 4264SOL    HW224255   2.822   3.835   8.834  0.7366 -1.3326  0.1815
 4265SOL     OW24256   2.378   4.085  15.920 -0.2608 -0.0732  0.5307
 4265SOL    HW124257   2.302   4.030  15.942 -2.5754  1.7457 -2.8930
 4265SOL    HW224258   2.409   4.113  16.006 -1.1599 -2.1112  1.5441
 4266SOL     OW24259   1.586   2.310   1.198 -0.2452  0.4698  0.7526
 4266SOL    HW124260   1.562   2.384   1.253 -1.1198 -0.8990  2.2211
 4266SOL    HW224261   1.505   2.310   1.146 -0.3795  1.7313  0.9637
 4267SOL     OW24262   2.105   1.923   7.918  0.6346 -0.2340  0.0391
 4267SOL    HW124263   2.152   1.877   7.987 -0.9984 -0.6293  0.8864
 4267SOL    HW224264   2.035   1.972   7.963  0.1337 -1.1486  0.2477
 4268SOL     OW24265   2.205   0.372   8.073  0.0838 -0.4114  0.6581
 4268SOL    HW124266   2.215   0.285   8.034 -3.2741 -1.4009  1.9960
 4268SOL    HW224267   2.245   0.356   8.158 -1.4221  1.3085  1.6833
 4269SOL     OW24268   0.501   1.740   4.343  0.2029 -0.5019  0.3337
 4269SOL    HW124269   0.540   1.799   4.278 -1.4686  1.7463  1.3759
 4269SOL    HW224270   0.530   1.780   4.425 -0.1248  1.9324 -0.7228
 4270SOL     OW24271   1.658   2.458  11.592  0.5731 -0.0701  0.2448
 4270SOL    HW124272   1.632   2.478  11.501  1.0002  0.1709  0.1759
 4270SOL    HW224273   1.753   2.458  11.589  0.6631 -0.6651  3.6126
 4271SOL     OW24274   0.806   1.457   4.337 -0.2652 -0.0805  0.1359
 4271SOL    HW124275   0.733   1.395   4.328 -0.9364  0.6397  0.6044
 4271SOL    HW224276   0.824   1.476   4.245  1.1689  0.1354  0.4679
 4272SOL     OW24277   3.979   2.365   7.436 -0.3579 -0.6358 -0.1248
 4272SOL    HW124278   4.024   2.284   7.463  1.7754  0.6941  0.3186
 4272SOL    HW224279   4.048   2.400   7.379 -0.6718 -0.7445 -0.5768
 4273SOL     OW24280   1.165   4.322   0.736 -0.1132 -0.2745  0.2288
 4273SOL    HW124281   1.240   4.300   0.680  0.7317 -1.4141  1.8127
 4273SOL    HW224282   1.121   4.238   0.751 -1.7725  0.4481 -0.5931
 4274SOL     OW24283   2.908   1.454   2.627 -0.1119  0.1451 -0.7637
 4274SOL    HW124284   2.897   1.360   2.616 -1.1305  0.5099 -2.7797
 4274SOL    HW224285   3.003   1.460   2.637 -0.1499 -1.2892  0.4232
 4275SOL     OW24286   1.831   4.364   3.074 -0.2115  0.2025  0.1543
 4275SOL    HW124287   1.808   4.393   2.986 -2.8079 -1.5311  0.2674
 4275SOL    HW224288   1.885   4.289   3.050  1.2506  0.4780  2.6289
 4276SOL     OW24289   0.701   0.533  12.556  0.0991  0.2623  0.3416
 4276SOL    HW124290   0.641   0.469  12.517 -0.2411  0.8570 -0.1020
 4276SOL    HW224291   0.764   0.477  12.602 -0.2146 -0.4021 -0.0303
 4277SOL     OW24292   0.121   1.900   3.044  0.1783  0.3975 -0.2414
 4277SOL    HW124293   0.176   1.917   2.967 -0.1560  1.3761 -0.2509
 4277SOL    HW224294   0.173   1.900   3.124 -0.0107 -2.0346 -0.1101
 4278SOL     OW24295   3.441   3.174  12.630 -0.0490  0.2853 -0.0636
 4278SOL    HW124296   3.535   3.161  12.645  0.1529  2.3747  0.4204
 4278SOL    HW224297   3.439   3.190  12.536  0.0667 -0.4521 -0.1960
 4279SOL     OW24298   4.416   3.906   9.243 -0.3594  0.3786  0.3815
 4279SOL    HW124299   4.494   3.853   9.262 -0.9615 -0.7923 -0.4220
 4279SOL    HW224300   4.349   3.850   9.283 -1.4587  0.2967 -1.5854
 4280SOL     OW24301   3.650   1.837  17.237 -0.1595  1.0031 -1.0541
 4280SOL    HW124302   3.570   1.888  17.251 -1.8607 -1.6237 -1.1237
 4280SOL    HW224303   3.611   1.749  17.243 -0.6250  1.2492 -0.5276
 4281SOL     OW24304   0.680   1.869   4.530 -0.0212 -0.5318 -0.1561
 4281SOL    HW124305   0.716   1.877   4.619  1.6935  0.2933 -0.9364
 4281SOL    HW224306   0.743   1.810   4.489 -0.3699 -0.0136 -1.4304
 4282SOL     OW24307   2.663   2.675   0.520 -0.1848  0.1194 -0.6381
 4282SOL    HW124308   2.638   2.766   0.506  2.0713  0.7662 -0.5205
 4282SOL    HW224309   2.696   2.671   0.610 -1.1929 -0.7835 -0.3132
 4283SOL     OW24310   1.090   2.269   2.230 -0.5573  0.4102  0.5716
 4283SOL    HW124311   1.072   2.351   2.183  1.1009 -0.1653 -1.0545
 4283SOL    HW224312   1.000   2.240   2.244  0.1865 -0.8017  2.8265
 4284SOL     OW24313   0.429   0.255   0.780 -0.0515  0.1358 -0.4001
 4284SOL    HW124314   0.413   0.229   0.871 -1.2669 -3.1798 -1.5666
 4284SOL    HW224315   0.369   0.194   0.736  1.3312 -2.4079  1.2652
 4285SOL     OW24316   0.146   0.474   2.375  0.2462 -0.1973  0.4298
 4285SOL    HW124317   0.127   0.416   2.449  2.2984  2.4147  3.0232
 4285SOL    HW224318   0.240   0.462   2.371  0.1255 -0.8494 -0.4045
 4286SOL     OW24319   1.772   1.783  10.655 -0.5742 -0.1538 -0.1904
 4286SOL    HW124320   1.827   1.777  10.733 -0.3082 -0.3892 -0.3932
 4286SOL    HW224321   1.844   1.776  10.591  0.5468 -0.5395  1.1078
 4287SOL     OW24322   2.516   4.568   3.337 -0.7492  0.6009  0.0255
 4287SOL    HW124323   2.567   4.490   3.362 -0.2539  0.5807 -1.0556
 4287SOL    HW224324   2.427   4.536   3.347 -1.1575  2.0057  0.8744
 4288SOL     OW24325   1.329   3.126  12.153  0.0026 -1.0921 -0.4223
 4288SOL    HW124326   1.285   3.088  12.078  0.2153 -1.4753 -0.3513
 4288SOL    HW224327   1.368   3.208  12.123  1.4664 -1.2784  0.9782
 4289SOL     OW24328   4.392   3.157  15.512  0.5895 -0.4842 -0.6186
 4289SOL    HW124329   4.356   3.204  15.437 -2.7832  0.3318  1.5144
 4289SOL    HW224330   4.325   3.090  15.520 -0.3600  0.4980 -0.3202
 4290SOL     OW24331   4.298   0.144   2.888 -0.3146  0.0988 -0.2661
 4290SOL    HW124332   4.322   0.141   2.795 -0.6846  1.2415 -0.4058
 4290SOL    HW224333   4.384   0.140   2.930  0.6122 -0.9717 -2.2420
 4291SOL     OW24334   2.233   0.824   5.324  0.6451  0.2542  0.6087
 4291SOL    HW124335   2.283   0.742   5.324  2.1896  1.1865  0.9284
 4291SOL    HW224336   2.164   0.800   5.386  0.5855 -0.1687  0.3803
 4292SOL     OW24337   3.492   1.395  16.115 -0.8173 -0.3980  0.5242
 4292SOL    HW124338   3.457   1.414  16.028  0.0393 -0.2137  0.2182
 4292SOL    HW224339   3.507   1.484  16.148 -1.4076 -0.5007  1.0787
 4293SOL     OW24340   1.715   4.389  17.044 -0.2316  0.3603  0.1054
 4293SOL    HW124341   1.641   4.349  16.998  0.3373  1.0626 -1.4358
 4293SOL    HW224342   1.767   4.314  17.072 -0.1077 -0.0581 -1.2406
 4294SOL     OW24343   2.244   4.008   5.522  0.5142 -0.3338  0.3796
 4294SOL    HW124344   2.199   4.057   5.454 -2.0483 -2.1213  0.7831
 4294SOL    HW224345   2.304   4.075   5.556  1.5226  0.1618 -2.4038
 4295SOL     OW24346   0.919   3.475  12.669 -0.4508 -0.0877 -0.5454
 4295SOL    HW124347   0.949   3.437  12.751  3.1762  1.9327 -0.9654
 4295SOL    HW224348   1.004   3.509  12.643  0.2874 -1.4349  0.1264
 4296SOL     OW24349   3.546   3.866   7.131 -0.5388  0.2044 -0.3082
 4296SOL    HW124350   3.492   3.916   7.193 -1.7652 -1.7167  0.1723
 4296SOL    HW224351   3.487   3.863   7.056  0.2299  1.7774 -0.9849
 4297SOL     OW24352   0.875   1.711   4.437 -0.3156 -0.1445 -0.5714
 4297SOL    HW124353   0.823   1.637   4.407 -1.2827  0.2544  0.1008
 4297SOL    HW224354   0.943   1.715   4.370 -1.8423  1.4359 -2.0047
 4298SOL     OW24355   0.097   0.330   7.774 -0.2836 -0.0538 -0.2424
 4298SOL    HW124356   0.090   0.298   7.684 -1.1632 -0.7594  0.0845
 4298SOL    HW224357   0.085   0.425   7.764 -1.9325 -0.2030  0.3388
 4299SOL     OW24358   4.245   1.540   9.016 -0.0503  0.4071  0.4172
 4299SOL    HW124359   4.276   1.451   9.002  0.0141  0.2035  1.8694
 4299SOL    HW224360   4.162   1.537   8.968 -1.3131 -1.9263  2.7785
 4300SOL     OW24361   2.951   4.685   5.145  0.5390 -0.0755  0.4435
 4300SOL    HW124362   2.948   4.591   5.159 -1.7795 -0.2323 -1.0447
 4300SOL    HW224363   3.038   4.713   5.174  1.7800 -3.4507 -0.0488
 4301SOL     OW24364   1.225   1.436  13.818 -0.8399 -0.5338  0.1608
 4301SOL    HW124365   1.217   1.423  13.723  0.0760 -1.0876  0.1662
 4301SOL    HW224366   1.153   1.386  13.857 -0.2444 -1.1832  0.4058
 4302SOL     OW24367   3.136   2.997   0.731 -0.1218  0.4303  0.1788
 4302SOL    HW124368   3.197   2.958   0.669  0.8729  0.8103  0.9093
 4302SOL    HW224369   3.196   3.030   0.798 -0.4196  1.7464 -0.2127
 4303SOL     OW24370   3.675   2.044   7.264  0.4498  0.1893 -0.1658
 4303SOL    HW124371   3.645   2.027   7.175 -1.1095 -2.4903  0.8552
 4303SOL    HW224372   3.767   2.056   7.242  0.6413 -1.5721 -0.3745
 4304SOL     OW24373   2.966   0.551   1.958  0.2356 -0.0028 -0.6740
 4304SOL    HW124374   2.874   0.552   1.932 -0.3600  0.6484  1.4608
 4304SOL    HW224375   2.979   0.468   2.002 -0.1995  0.6344  0.6490
 4305SOL     OW24376   3.338   0.259   9.702  0.3478  0.7792 -0.0456
 4305SOL    HW124377   3.399   0.332   9.695  1.8676 -0.4324  0.5784
 4305SOL    HW224378   3.404   0.193   9.724 -0.0271  0.8554  1.3374
 4306SOL     OW24379   2.332   0.944   4.063 -0.2363  0.1979 -0.0469
 4306SOL    HW124380   2.421   0.973   4.082  0.1791 -1.0717 -0.0689
 4306SOL    HW224381   2.340   0.910   3.974  0.7682  2.3308 -0.7617
 4307SOL     OW24382   4.409   2.193   3.886  0.3430 -0.0765  0.0229
 4307SOL    HW124383   4.489   2.149   3.856  0.3373  0.8693 -1.3883
 4307SOL    HW224384   4.413   2.154   3.973  0.1099 -1.4900 -0.5930
 4308SOL     OW24385   2.514   3.777   2.734 -0.7825 -0.2349 -0.2208
 4308SOL    HW124386   2.555   3.770   2.820 -2.1942 -0.0003  0.4745
 4308SOL    HW224387   2.434   3.729   2.757 -1.3067  0.9418  0.3539
 4309SOL     OW24388   0.290   1.659  12.926  0.4683 -0.2030  0.2784
 4309SOL    HW124389   0.369   1.611  12.903 -0.3424 -0.5588 -1.8340
 4309SOL    HW224390   0.329   1.744  12.943  1.9757 -0.8160 -0.1595
 4310SOL     OW24391   1.523   2.223  13.006  0.8428 -0.0443 -0.1722
 4310SOL    HW124392   1.510   2.161  12.935  1.8769 -0.8071  0.3030
 4310SOL    HW224393   1.612   2.195  13.024  0.1781 -1.9918  0.0632
 4311SOL     OW24394   2.349   2.002  14.507  0.0389 -0.2049  0.3196
 4311SOL    HW124395   2.267   2.033  14.467  0.0433  2.3554  2.2356
 4311SOL    HW224396   2.336   1.958  14.591 -0.5041  0.3318  0.5172
 4312SOL     OW24397   0.875   1.815  15.830 -0.4550  0.4526 -0.2428
 4312SOL    HW124398   0.804   1.875  15.810 -2.6394 -2.7650 -2.0183
 4312SOL    HW224399   0.831   1.733  15.853  0.8497 -0.3784 -0.6948
 4313SOL     OW24400   1.938   3.482   0.311  0.3632  0.2160 -0.0946
 4313SOL    HW124401   2.023   3.488   0.266  0.6173  2.8758  0.7513
 4313SOL    HW224402   1.913   3.391   0.290  1.4184  0.0254 -0.5421
 4314SOL     OW24403   0.886   4.196   7.691  0.4610 -0.4188 -0.0621
 4314SOL    HW124404   0.896   4.108   7.655  0.4838 -0.2329 -0.5090
 4314SOL    HW224405   0.802   4.176   7.734  0.0354 -1.3408 -1.3209
 4315SOL     OW24406   3.122   1.663   7.368  0.2735  0.0787  0.5050
 4315SOL    HW124407   3.188   1.641   7.302 -1.6085  0.6281 -1.5687
 4315SOL    HW224408   3.053   1.701   7.314  0.2886  1.4853  1.4812
 4316SOL     OW24409   0.706   0.214  12.277  0.0777  0.2084  0.2392
 4316SOL    HW124410   0.627   0.216  12.332 -0.1426  1.9850 -0.1440
 4316SOL    HW224411   0.739   0.126  12.295  1.6946  0.8089  0.1585
 4317SOL     OW24412   1.714   2.423   4.098  0.1828 -0.1952  0.4839
 4317SOL    HW124413   1.683   2.386   4.181 -2.2178 -1.6326 -1.0635
 4317SOL    HW224414   1.797   2.462   4.127  0.1474 -0.3453  0.7864
 4318SOL     OW24415   4.238   3.516  15.193 -0.0858  0.3637 -1.2204
 4318SOL    HW124416   4.246   3.517  15.098  1.4498  2.6679 -1.0663
 4318SOL    HW224417   4.301   3.581  15.224  0.6484 -0.5979 -0.7264
 4319SOL     OW24418   4.132   1.827   7.504  0.0623 -0.2668  0.0079
 4319SOL    HW124419   4.141   1.912   7.462  1.3092 -0.3587  0.0881
 4319SOL    HW224420   4.211   1.778   7.482  1.2524  1.3253  0.7791
 4320SOL     OW24421   4.024   2.880   3.029  0.1196  0.3713  0.0359
 4320SOL    HW124422   4.022   2.868   3.124 -0.9052  2.4485  0.2615
 4320SOL    HW224423   3.989   2.968   3.019 -0.1984  0.1350 -0.9998
 4321SOL     OW24424   2.294   1.018   6.203  0.5145 -0.9647  0.2924
 4321SOL    HW124425   2.265   0.927   6.212  3.7410 -1.8800  1.4905
 4321SOL    HW224426   2.388   1.013   6.220  0.1156  1.4943  3.1280
 4322SOL     OW24427   2.918   1.507   6.949  0.4050  0.3350 -0.5933
 4322SOL    HW124428   3.006   1.535   6.975 -1.0538  2.3565  2.0583
 4322SOL    HW224429   2.934   1.412   6.951 -1.1250  0.1135  1.1498
 4323SOL     OW24430   3.993   3.525   8.627  0.7134  0.0777  0.3170
 4323SOL    HW124431   3.990   3.608   8.581  1.1232  0.4802  1.0227
 4323SOL    HW224432   4.061   3.538   8.694 -1.5941 -0.6434  2.7714
 4324SOL     OW24433   1.993   3.858   3.051  0.1111  0.2498  0.6094
 4324SOL    HW124434   1.917   3.915   3.038  0.3271  0.4337  0.1834
 4324SOL    HW224435   1.955   3.776   3.084  0.7704 -1.2468 -2.3850
 4325SOL     OW24436   2.362   0.669   2.200 -0.0794  0.4615  0.2396
 4325SOL    HW124437   2.368   0.688   2.294 -1.4570 -1.0642  0.6193
 4325SOL    HW224438   2.322   0.749   2.167 -2.5612 -1.5876 -1.6414
 4326SOL     OW24439   1.636   4.631   6.075  0.3342 -0.0268  0.2870
 4326SOL    HW124440   1.612   4.705   6.020  2.0916  1.0074  0.9163
 4326SOL    HW224441   1.579   4.647   6.151  0.5802  2.2535 -0.0093
 4327SOL     OW24442   3.745   1.271   4.405 -0.2522 -0.2499  0.1924
 4327SOL    HW124443   3.674   1.278   4.342  0.3043 -4.8018 -0.9884
 4327SOL    HW224444   3.801   1.214   4.352 -0.7843 -0.7084  0.1317
 4328SOL     OW24445   2.761   1.711   4.673 -0.5819  0.1847 -0.3743
 4328SOL    HW124446   2.818   1.643   4.708 -0.6724 -0.1202 -0.8128
 4328SOL    HW224447   2.714   1.652   4.614  1.6908 -1.6839 -0.3026
 4329SOL     OW24448   3.091   1.301  11.899  0.2637 -0.3382  0.5471
 4329SOL    HW124449   3.093   1.319  11.805 -1.4589 -0.7874  0.4258
 4329SOL    HW224450   3.177   1.262  11.913 -0.0126 -1.6031 -1.2749
 4330SOL     OW24451   1.614   4.423   3.677 -0.2596 -0.0419 -0.6484
 4330SOL    HW124452   1.640   4.448   3.588 -1.2836  0.2071 -0.8699
 4330SOL    HW224453   1.528   4.390   3.652 -0.2685 -2.4693  2.5846
 4331SOL     OW24454   2.171   4.099  17.139 -0.1766  0.4006  0.2866
 4331SOL    HW124455   2.171   4.013  17.097  2.8846  0.5118  0.1048
 4331SOL    HW224456   2.182   4.068  17.229 -1.9102 -1.6167 -0.1812
 4332SOL     OW24457   4.352   4.580  13.989  0.2395  0.4887 -0.0345
 4332SOL    HW124458   4.389   4.667  14.000  3.6635 -0.9145 -0.6274
 4332SOL    HW224459   4.263   4.585  14.025 -0.6578 -2.4177 -1.8527
 4333SOL     OW24460   1.612   3.757  17.415  0.3572 -0.2515  0.0053
 4333SOL    HW124461   1.549   3.817  17.456 -0.6964 -0.3709 -1.4679
 4333SOL    HW224462   1.606   3.683  17.475 -1.3407  0.7493  1.1017
 4334SOL     OW24463   0.412   0.928   4.683  0.2235 -1.0928  0.5841
 4334SOL    HW124464   0.403   0.833   4.678 -0.8807 -0.9981  0.7326
 4334SOL    HW224465   0.457   0.932   4.767  2.0068 -0.9593 -0.3649
 4335SOL     OW24466   0.452   2.931   6.483 -0.1334  0.4537 -0.3885
 4335SOL    HW124467   0.499   2.848   6.485 -1.5278 -0.3257 -0.3936
 4335SOL    HW224468   0.519   2.984   6.527  2.6258  0.1482 -4.2379
 4336SOL     OW24469   3.697   4.303   5.818  0.0814  0.0581 -0.3991
 4336SOL    HW124470   3.754   4.303   5.741 -1.4164  0.3385 -1.5188
 4336SOL    HW224471   3.759   4.270   5.883 -1.3458  0.6548  1.2746
 4337SOL     OW24472   3.386   3.207   8.610 -0.0173  0.5605  0.5508
 4337SOL    HW124473   3.437   3.136   8.570 -0.9065 -0.1291  0.6439
 4337SOL    HW224474   3.308   3.162   8.644  0.3720  1.2663  2.3538
 4338SOL     OW24475   3.950   1.145   5.850 -0.5241 -0.3420  0.0902
 4338SOL    HW124476   3.874   1.127   5.795  0.1012  2.2357 -1.6218
 4338SOL    HW224477   3.961   1.066   5.903  1.8384  0.2668  0.5079
 4339SOL     OW24478   3.322   2.705   2.619 -0.4215 -0.2857 -0.1361
 4339SOL    HW124479   3.289   2.794   2.625 -0.9444 -0.5999  1.4890
 4339SOL    HW224480   3.251   2.649   2.650 -1.2182 -0.4473 -2.1968
 4340SOL     OW24481   1.187   0.141   2.992  0.3493 -0.7726 -0.4808
 4340SOL    HW124482   1.254   0.084   2.955  0.4061 -1.7094  1.0497
 4340SOL    HW224483   1.245   0.209   3.025 -0.8098  0.4207 -0.9012
 4341SOL     OW24484   1.446   2.059   6.130  0.4988 -0.0509 -0.1838
 4341SOL    HW124485   1.520   2.075   6.071 -0.8473  0.5177 -1.7042
 4341SOL    HW224486   1.379   2.120   6.100 -1.7139 -2.8179 -0.8761
 4342SOL     OW24487   1.116   4.379  10.928  0.6414 -0.1603 -0.2432
 4342SOL    HW124488   1.047   4.429  10.885  1.8837  1.1033 -0.7635
 4342SOL    HW224489   1.075   4.338  11.005  0.1734  1.7989  0.5652
 4343SOL     OW24490   0.898   1.935   5.829 -0.0153 -0.4152 -0.0505
 4343SOL    HW124491   0.864   1.846   5.827 -2.4647  0.5196  0.3807
 4343SOL    HW224492   0.831   1.966   5.889  0.1477  2.1430 -1.1903
 4344SOL     OW24493   1.069   0.428   7.337  0.3567  0.1808  0.2321
 4344SOL    HW124494   1.108   0.362   7.396 -2.0904 -0.4585  1.1231
 4344SOL    HW224495   1.141   0.491   7.338 -0.3072  0.9001  1.8372
 4345SOL     OW24496   1.386   0.081  12.554  0.0776  0.1555 -0.4023
 4345SOL    HW124497   1.430   0.004  12.590 -0.2952  0.4095  0.5984
 4345SOL    HW224498   1.460   0.142  12.550 -0.1864  0.5162  0.2070
 4346SOL     OW24499   0.257   4.501   7.256  0.7360  0.0234  0.6019
 4346SOL    HW124500   0.313   4.425   7.241 -1.2220 -1.3390  0.0878
 4346SOL    HW224501   0.299   4.547   7.328  2.2951 -0.0550 -0.2473
 4347SOL     OW24502   0.034   4.518  14.996  0.4016 -1.0735 -0.0406
 4347SOL    HW124503   0.020   4.494  15.088 -4.0696 -0.9662 -0.6835
 4347SOL    HW224504   0.097   4.457  14.958  0.3744 -1.4617  0.5366
 4348SOL     OW24505   1.809   0.254   7.257 -0.2342 -0.3951  0.1105
 4348SOL    HW124506   1.811   0.338   7.210  0.4619 -1.1453 -1.1928
 4348SOL    HW224507   1.840   0.272   7.345 -0.6851 -1.5665  0.5061
 4349SOL     OW24508   0.861   3.058  16.045 -0.2156 -0.6217 -0.1175
 4349SOL    HW124509   0.839   3.006  16.122 -2.0368  1.2722  0.6512
 4349SOL    HW224510   0.950   3.087  16.064 -0.7857  0.7256  0.4733
 4350SOL     OW24511   3.942   0.937   0.340 -0.3787 -1.1690  0.6616
 4350SOL    HW124512   3.978   0.907   0.257  0.8593 -1.5832  1.3524
 4350SOL    HW224513   3.853   0.905   0.322 -1.3316  1.2462  1.0859
 4351SOL     OW24514   0.904   3.816   0.831 -0.1150  0.0041 -0.3071
 4351SOL    HW124515   0.969   3.880   0.861 -2.4125  1.8994  0.6218
 4351SOL    HW224516   0.827   3.864   0.859  0.1316 -0.7409  1.6187
 4352SOL     OW24517   1.666   0.588  13.344 -0.2543 -0.0674  0.2235
 4352SOL    HW124518   1.585   0.607  13.296  0.5407 -1.4920 -1.6637
 4352SOL    HW224519   1.708   0.674  13.346  0.4357 -0.3293 -2.9852
 4353SOL     OW24520   1.864   0.875   7.295 -0.3587  0.5854 -0.6162
 4353SOL    HW124521   1.928   0.837   7.355 -1.2839 -1.1668 -0.7436
 4353SOL    HW224522   1.914   0.884   7.214  0.5411 -1.6499 -0.2959
 4354SOL     OW24523   0.792   3.836   4.090  0.1156  0.3149 -0.6218
 4354SOL    HW124524   0.830   3.810   4.006  1.7263 -1.7524  0.7512
 4354SOL    HW224525   0.873   3.838   4.140 -0.3805  0.9080  0.1599
 4355SOL     OW24526   1.345   4.423   4.900  0.0536 -0.3965 -0.0832
 4355SOL    HW124527   1.355   4.517   4.917 -1.0000 -0.0900 -1.2337
 4355SOL    HW224528   1.340   4.428   4.805  0.3311  1.1372 -0.0288
 4356SOL     OW24529   2.751   4.713   7.502 -0.4019  0.5178  0.2765
 4356SOL    HW124530   2.838   4.707   7.462 -0.5810  2.1415 -0.3720
 4356SOL    HW224531   2.739   4.622   7.527  2.3797  0.3886  1.0677
 4357SOL     OW24532   4.278   0.359   5.065 -0.1134 -0.0135  0.5006
 4357SOL    HW124533   4.330   0.321   5.137  1.7846  3.5473  1.0411
 4357SOL    HW224534   4.328   0.338   4.986 -1.6897 -1.1163 -0.1776
 4358SOL     OW24535   4.165   2.785  14.595  0.0922  0.1093  0.4510
 4358SOL    HW124536   4.179   2.822  14.682  0.9032  0.5593  0.1273
 4358SOL    HW224537   4.147   2.693  14.615 -1.3791  0.5658  1.2717
 4359SOL     OW24538   3.063   1.089  15.481  0.1112  0.1831  0.2374
 4359SOL    HW124539   2.997   1.025  15.510  0.2590  0.4724  1.2159
 4359SOL    HW224540   3.123   1.073  15.554  0.2336  1.0084  0.3191
 4360SOL     OW24541   3.699   3.469   1.195  0.4508  0.2870 -0.0377
 4360SOL    HW124542   3.646   3.466   1.115 -1.5464 -1.3271  1.3509
 4360SOL    HW224543   3.749   3.387   1.187  0.5468  0.2337  1.0546
 4361SOL     OW24544   4.502   3.182   7.148 -0.3145 -0.3679 -0.4993
 4361SOL    HW124545   4.476   3.126   7.222  1.0161 -1.0988 -0.5909
 4361SOL    HW224546   4.511   3.271   7.184 -1.4011 -0.2550 -0.4974
 4362SOL     OW24547   3.645   2.053  15.989 -0.4521 -0.2066  0.0325
 4362SOL    HW124548   3.696   2.134  15.986  0.7566 -0.9856 -0.5545
 4362SOL    HW224549   3.615   2.062  16.079  3.3859  0.5995  1.2228
 4363SOL     OW24550   1.052   0.208   5.880 -0.7692  0.3785  0.1267
 4363SOL    HW124551   1.135   0.162   5.898 -2.1973 -1.1847  2.6430
 4363SOL    HW224552   1.038   0.167   5.794 -0.4349  0.7324 -0.0999
 4364SOL     OW24553   0.185   0.998   7.174 -0.4028 -0.1626 -0.1008
 4364SOL    HW124554   0.208   1.058   7.103  1.3529 -3.4328 -2.2742
 4364SOL    HW224555   0.253   1.013   7.239 -0.3052  0.9201 -0.4495
 4365SOL     OW24556   0.640   4.113  10.078 -0.5200  0.1194  0.6802
 4365SOL    HW124557   0.609   4.172  10.009 -0.3244  0.2441  0.6989
 4365SOL    HW224558   0.726   4.083  10.049 -0.9681 -0.9189  0.4240
 4366SOL     OW24559   3.538   3.627   0.174 -0.1208  0.5773  0.6354
 4366SOL    HW124560   3.602   3.690   0.143  1.3786  1.3361  5.2328
 4366SOL    HW224561   3.482   3.625   0.096 -2.1005  0.1987  2.0391
 4367SOL     OW24562   3.294   0.245   7.202  0.6824 -0.3120 -0.5586
 4367SOL    HW124563   3.339   0.328   7.184  1.6124 -0.9311 -1.0841
 4367SOL    HW224564   3.219   0.245   7.143  0.8144  1.2238 -0.7361
 4368SOL     OW24565   0.595   3.380   8.344 -0.5359  0.5602  0.1916
 4368SOL    HW124566   0.612   3.313   8.278  0.8682  0.9577  0.1610
 4368SOL    HW224567   0.596   3.329   8.424  3.2005  1.7870  0.9091
 4369SOL     OW24568   0.284   4.579  11.184  0.2339 -0.1805 -0.1665
 4369SOL    HW124569   0.274   4.499  11.236 -1.7258  1.4722  2.0014
 4369SOL    HW224570   0.305   4.634  11.259  0.0008 -1.1291  0.5974
 4370SOL     OW24571   0.496   0.082   1.023  0.7410  0.2654  0.0544
 4370SOL    HW124572   0.535   0.060   0.939  0.1000  1.0866 -0.4616
 4370SOL    HW224573   0.548   0.160   1.044 -0.4086  1.2634 -0.7381
 4371SOL     OW24574   3.572   3.868   4.184  0.2822  0.1383 -0.0551
 4371SOL    HW124575   3.526   3.921   4.120 -0.4748 -1.3220 -0.7325
 4371SOL    HW224576   3.497   3.809   4.194 -0.9500  1.5668 -0.9398
 4372SOL     OW24577   3.079   3.666  12.450  0.2634 -0.1482  0.1184
 4372SOL    HW124578   3.114   3.754  12.441 -0.5631  0.2911  1.0909
 4372SOL    HW224579   2.999   3.679  12.501 -1.0787  1.3366 -2.3913
 4373SOL     OW24580   1.397   4.199  12.614  0.2733 -0.3639  0.5674
 4373SOL    HW124581   1.463   4.164  12.674 -0.2737 -2.3161  0.0553
 4373SOL    HW224582   1.324   4.219  12.674  0.2473  0.6961  0.1800
 4374SOL     OW24583   1.867   0.087  14.126 -0.2955 -0.6397  0.6011
 4374SOL    HW124584   1.877   0.140  14.205  1.4189 -1.9440  1.2634
 4374SOL    HW224585   1.888   0.002  14.166  1.7856 -0.2426  0.3698
 4375SOL     OW24586   0.749   4.037   7.029  0.2174 -0.6969  0.0462
 4375SOL    HW124587   0.691   4.025   7.105 -2.7428 -0.2505 -2.1317
 4375SOL    HW224588   0.724   3.968   6.968  0.8214  1.2987 -2.4709
 4376SOL     OW24589   2.496   3.645  10.773  0.3955  0.7153 -0.2730
 4376SOL    HW124590   2.483   3.712  10.841  1.8711  0.2204  0.4984
 4376SOL    HW224591   2.407   3.611  10.766  0.5995 -0.1039  0.9862
 4377SOL     OW24592   2.053   1.602   2.975  0.1500 -0.2441 -0.3189
 4377SOL    HW124593   2.102   1.673   3.016 -2.1865 -0.2705  2.5299
 4377SOL    HW224594   1.973   1.647   2.947 -1.2648 -1.2893  2.0477
 4378SOL     OW24595   3.505   3.609  11.238  0.7303  0.1497  0.1751
 4378SOL    HW124596   3.444   3.666  11.191  2.7317  1.6989 -0.5723
 4378SOL    HW224597   3.547   3.674  11.295 -0.9948  0.8565  0.6472
 4379SOL     OW24598   4.074   1.468  12.101 -0.3917 -0.2606 -0.0100
 4379SOL    HW124599   4.060   1.450  12.008 -0.2869 -0.0774 -0.0610
 4379SOL    HW224600   4.145   1.407  12.118 -0.6926 -0.4535  0.5746
 4380SOL     OW24601   2.469   0.404   5.985  0.1335  0.4136  0.0468
 4380SOL    HW124602   2.547   0.375   5.937  0.3966  1.2905 -0.0526
 4380SOL    HW224603   2.438   0.318   6.014  1.3873 -0.3509 -0.8424
 4381SOL     OW24604   1.143   0.315  17.679 -0.0643  0.3302 -0.4524
 4381SOL    HW124605   1.235   0.298  17.698 -0.5395 -2.6672 -0.8304
 4381SOL    HW224606   1.142   0.407   0.002 -1.9389 -0.0429  0.9135
 4382SOL     OW24607   3.437   4.397  13.601 -0.0662  0.0307 -0.3310
 4382SOL    HW124608   3.463   4.342  13.675  1.6296  0.2827 -0.7198
 4382SOL    HW224609   3.388   4.459  13.654  2.6427 -0.6954  3.0384
 4383SOL     OW24610   1.951   1.552   9.147 -0.1776  0.0170 -0.1801
 4383SOL    HW124611   1.968   1.458   9.154  1.2334  0.2093 -1.3041
 4383SOL    HW224612   1.882   1.561   9.213  0.4845 -0.8829  0.6377
 4384SOL     OW24613   2.959   3.017   4.650  0.1033  0.0611  0.0281
 4384SOL    HW124614   2.970   2.922   4.656  0.3031  0.0657 -0.3033
 4384SOL    HW224615   2.983   3.042   4.561 -1.1526  0.3418 -0.2205
 4385SOL     OW24616   1.570   4.266  16.855  0.7352 -0.5134  0.1026
 4385SOL    HW124617   1.590   4.343  16.801 -1.7203  0.6190  0.8032
 4385SOL    HW224618   1.482   4.243  16.823 -0.1466 -0.0451  2.2293
 4386SOL     OW24619   1.177   3.860   6.864 -0.1853  0.3165 -0.0394
 4386SOL    HW124620   1.232   3.856   6.943  1.7580 -1.8611 -1.4818
 4386SOL    HW224621   1.091   3.839   6.899  0.5623 -3.3859 -0.3660
 4387SOL     OW24622   1.862   4.270   4.872 -0.0365  0.0250 -0.0826
 4387SOL    HW124623   1.841   4.310   4.956  0.2658  0.4579 -0.2115
 4387SOL    HW224624   1.810   4.327   4.814  0.8825 -0.0072 -0.9443
 4388SOL     OW24625   1.383   1.776  14.822 -0.3145  0.3584 -0.0909
 4388SOL    HW124626   1.478   1.773  14.828 -0.4526  0.1933  2.1255
 4388SOL    HW224627   1.354   1.712  14.887  0.5963  1.5234  1.5005
 4389SOL     OW24628   3.785   3.799   7.700  0.0303 -0.0600 -0.6781
 4389SOL    HW124629   3.809   3.886   7.734  0.2685 -0.7379  0.8899
 4389SOL    HW224630   3.768   3.750   7.781  0.4671 -0.1540 -0.6409
 4390SOL     OW24631   0.343   1.700   5.989  0.1137 -0.1359 -1.2489
 4390SOL    HW124632   0.271   1.653   6.030  0.6908  0.7211  0.7074
 4390SOL    HW224633   0.310   1.708   5.899 -1.6300  1.8256 -0.4207
 4391SOL     OW24634   2.408   2.350   0.000 -0.4047  0.6346 -0.0133
 4391SOL    HW124635   2.317   2.360   0.031 -0.5690  0.1633 -0.3477
 4391SOL    HW224636   2.444   2.291   0.067 -0.9964 -1.0848 -1.2151
 4392SOL     OW24637   4.292   4.567   7.619  0.1369 -0.0114  0.0822
 4392SOL    HW124638   4.229   4.526   7.559  1.0793 -1.5728  0.1378
 4392SOL    HW224639   4.227   4.594   7.684 -1.5939 -1.0194 -1.2326
 4393SOL     OW24640   1.983   3.697  16.265  0.1425 -0.4175 -0.1477
 4393SOL    HW124641   1.955   3.635  16.333  1.0202 -0.6501  0.0097
 4393SOL    HW224642   1.957   3.782  16.300  1.4856 -0.9925  2.2833
 4394SOL     OW24643   1.476   1.322  16.485  0.5134 -0.0364 -0.0170
 4394SOL    HW124644   1.433   1.357  16.563  0.7081 -0.1633  0.1453
 4394SOL    HW224645   1.567   1.334  16.513  1.1353 -3.9179 -0.4454
 4395SOL     OW24646   0.887   1.874   5.188  0.4224 -0.5156  0.5940
 4395SOL    HW124647   0.942   1.800   5.212  0.4455 -0.7142 -0.0707
 4395SOL    HW224648   0.824   1.831   5.130 -1.1363 -0.2172  2.0310
 4396SOL     OW24649   3.958   1.466   7.128  0.3265 -0.9192 -0.0954
 4396SOL    HW124650   3.935   1.554   7.158  0.8938 -0.8605  0.1780
 4396SOL    HW224651   4.043   1.475   7.086  0.2857 -2.2009 -0.4598
 4397SOL     OW24652   4.050   2.295   6.156  0.2319 -0.3231 -0.5322
 4397SOL    HW124653   4.106   2.235   6.108 -1.4124 -1.9518 -0.4107
 4397SOL    HW224654   3.992   2.227   6.191  0.3079 -0.5959 -0.9404
 4398SOL     OW24655   2.938   2.186  10.089 -0.4708 -0.0071  0.1371
 4398SOL    HW124656   2.914   2.219  10.176 -2.5506  1.0167 -0.8266
 4398SOL    HW224657   3.032   2.198  10.079 -0.3414 -0.2243  1.0554
 4399SOL     OW24658   3.620   0.947   6.685  0.5893 -0.0221  0.3881
 4399SOL    HW124659   3.612   1.039   6.658 -0.8173 -0.0384  0.7455
 4399SOL    HW224660   3.684   0.909   6.624  0.4084  1.0563 -0.4823
 4400SOL     OW24661   2.643   0.376   1.830  0.6000 -0.2714 -0.6928
 4400SOL    HW124662   2.631   0.340   1.918 -1.0235 -0.4312 -0.9807
 4400SOL    HW224663   2.679   0.463   1.847  1.0156 -1.4767  4.5642
 4401SOL     OW24664   1.780   3.400  13.768  0.0280  0.2083 -0.4142
 4401SOL    HW124665   1.805   3.490  13.749  0.2342  0.1737 -0.3089
 4401SOL    HW224666   1.703   3.413  13.824 -0.1894 -0.5826 -0.5315
 4402SOL     OW24667   3.404   2.289   2.446 -0.4038 -0.4526 -0.2609
 4402SOL    HW124668   3.347   2.351   2.400 -0.4085 -0.2445  0.0284
 4402SOL    HW224669   3.488   2.334   2.435 -0.5178  0.3286  2.2465
 4403SOL     OW24670   3.206   2.656   1.216 -0.5009 -0.3089 -0.3360
 4403SOL    HW124671   3.295   2.648   1.251 -1.0115  0.4412  1.1514
 4403SOL    HW224672   3.170   2.736   1.255 -0.8249  0.3570 -1.9849
 4404SOL     OW24673   4.624   2.075   4.269 -0.0023 -1.2386 -0.1316
 4404SOL    HW124674   4.552   2.012   4.262 -1.4241  0.3711 -0.0714
 4404SOL    HW224675   4.627   2.102   4.361  0.4402 -1.6963 -0.0120
 4405SOL     OW24676   0.205   3.868   0.929 -0.7624  0.6048  0.0930
 4405SOL    HW124677   0.238   3.897   0.844 -1.6714 -0.7545 -0.7328
 4405SOL    HW224678   0.148   3.944   0.943  1.2992  2.3469 -0.9831
 4406SOL     OW24679   2.937   2.742   4.720 -0.2527  0.5632  0.2903
 4406SOL    HW124680   3.017   2.690   4.714  0.0365  1.0316  0.0480
 4406SOL    HW224681   2.875   2.698   4.662 -0.9099 -0.4218  1.7415
 4407SOL     OW24682   3.290   0.811   4.853  0.1779  0.2598 -0.3595
 4407SOL    HW124683   3.215   0.864   4.880  0.2421  0.4084 -0.4727
 4407SOL    HW224684   3.291   0.842   4.762  2.0024 -1.1978 -0.8232
 4408SOL     OW24685   2.916   1.428   0.574 -0.1216  0.0972 -0.5438
 4408SOL    HW124686   2.923   1.337   0.544 -0.8974 -1.0769  2.8184
 4408SOL    HW224687   2.933   1.416   0.668 -1.5482  1.7344 -0.0736
 4409SOL     OW24688   2.391   3.893   4.876  0.2257 -0.1377 -0.5020
 4409SOL    HW124689   2.349   3.898   4.791 -0.7786  0.4302  0.0246
 4409SOL    HW224690   2.442   3.974   4.878  2.0197 -1.2454 -0.6944
 4410SOL     OW24691   1.409   3.879   5.101 -0.4871 -0.1132  0.0294
 4410SOL    HW124692   1.414   3.971   5.127  1.2906  0.5980 -2.8918
 4410SOL    HW224693   1.320   3.875   5.067 -0.3808  1.3850 -0.3973
 4411SOL     OW24694   0.030   2.519   4.196  0.5503  0.1028 -0.6422
 4411SOL    HW124695   0.066   2.436   4.166  0.5008 -0.4798  0.9134
 4411SOL    HW224696   4.719   2.551   4.113 -0.9796 -1.9495 -0.7491
 4412SOL     OW24697   0.020   1.459   2.447  0.2368 -0.0608  0.8607
 4412SOL    HW124698   0.011   1.372   2.486 -1.9418 -0.0216  0.3945
 4412SOL    HW224699   4.658   1.492   2.467 -0.0332 -1.0565  1.3041
 4413SOL     OW24700   3.724   0.629   2.898 -0.1016 -0.2431 -0.7881
 4413SOL    HW124701   3.698   0.558   2.956 -1.8345  1.9989  1.1548
 4413SOL    HW224702   3.640   0.665   2.873 -0.1599  0.0651 -0.1358
 4414SOL     OW24703   2.848   1.015  16.872 -0.1322 -0.2644  0.5913
 4414SOL    HW124704   2.940   1.037  16.859 -0.2783  0.6853  1.1399
 4414SOL    HW224705   2.840   0.947  16.805  0.3112  0.2751 -0.0096
 4415SOL     OW24706   3.217   2.804   8.047 -0.2759 -0.4027  0.4535
 4415SOL    HW124707   3.269   2.848   7.980  1.4118  1.9317  3.2761
 4415SOL    HW224708   3.272   2.792   8.124 -0.5346 -1.8985  0.4018
 4416SOL     OW24709   1.010   4.229   8.664  0.7188  0.0040  0.1242
 4416SOL    HW124710   1.070   4.156   8.684 -1.2441 -2.2647 -2.3612
 4416SOL    HW224711   0.979   4.236   8.755 -1.7947 -1.5329 -0.6197
 4417SOL     OW24712   1.477   0.146   7.950  0.1689 -0.3198  0.0341
 4417SOL    HW124713   1.533   0.214   7.914  2.5244 -1.9926  0.5236
 4417SOL    HW224714   1.410   0.198   7.994 -1.8140 -0.1390 -3.2333
 4418SOL     OW24715   3.066   1.175   3.294 -0.1408 -0.3104 -0.4579
 4418SOL    HW124716   3.128   1.148   3.225 -0.9204  1.3124 -1.7742
 4418SOL    HW224717   2.996   1.113   3.272 -1.2212  0.9045 -0.3762
 4419SOL     OW24718   4.673   1.882  15.313  0.1506 -0.0315  0.5417
 4419SOL    HW124719   0.002   1.934  15.372  0.6474 -1.7064  1.5843
 4419SOL    HW224720   4.632   1.956  15.269  0.2063  0.7585  1.8213
 4420SOL     OW24721   0.389   2.541   2.629 -0.2443  0.0384 -0.1036
 4420SOL    HW124722   0.376   2.595   2.551 -1.8394 -2.0956 -1.2899
 4420SOL    HW224723   0.310   2.487   2.627  0.5802 -1.0912 -1.9765
 4421SOL     OW24724   0.451   2.137   2.293 -0.4234  0.5559  0.6622
 4421SOL    HW124725   0.523   2.178   2.340 -0.7407  2.8352 -0.8161
 4421SOL    HW224726   0.462   2.191   2.214 -0.2990 -0.8670 -0.2865
 4422SOL     OW24727   4.640   0.264   4.914  0.5510 -0.0324  0.5534
 4422SOL    HW124728   0.008   0.245   4.902  0.4590  0.1411 -0.4446
 4422SOL    HW224729   4.641   0.358   4.934  1.8974 -0.0761  0.6954
 4423SOL     OW24730   0.194   4.256   7.721  0.0072 -0.1962 -0.6950
 4423SOL    HW124731   0.184   4.189   7.653  2.4498 -2.5713  1.2956
 4423SOL    HW224732   0.154   4.213   7.796 -0.8542  1.2492 -0.3120
 4424SOL     OW24733   2.016   1.272  12.016 -0.0989  0.7688  0.0958
 4424SOL    HW124734   2.041   1.296  11.927 -4.5215 -1.0704 -1.6385
 4424SOL    HW224735   1.998   1.180  11.996 -2.1873  0.9115  1.2816
 4425SOL     OW24736   2.053   3.205  13.096 -0.1246 -0.3499 -0.0678
 4425SOL    HW124737   2.042   3.171  13.007  1.1980 -0.6893 -0.1107
 4425SOL    HW224738   2.146   3.229  13.097  0.6351 -3.2268  0.0145
 4426SOL     OW24739   1.992   0.599  11.607  0.2937  0.2959  0.7161
 4426SOL    HW124740   2.076   0.646  11.605  1.1559 -1.2463  0.4996
 4426SOL    HW224741   2.005   0.548  11.687 -1.4055 -0.6811  0.3609
 4427SOL     OW24742   2.343   0.594   4.509  0.0055  0.3401  0.0009
 4427SOL    HW124743   2.296   0.558   4.433 -1.5578  0.6996  0.7932
 4427SOL    HW224744   2.279   0.622   4.574  2.5897  2.9422  1.4159
 4428SOL     OW24745   1.009   1.556  15.956  0.0849  0.4521 -0.0698
 4428SOL    HW124746   1.053   1.556  16.042  1.8874 -2.9205 -1.0196
 4428SOL    HW224747   0.925   1.593  15.982  0.9818  2.5742 -0.1720
 4429SOL     OW24748   3.190   1.605  16.875 -0.0792  0.1007  0.4262
 4429SOL    HW124749   3.159   1.598  16.965 -1.4084  2.0803  0.1341
 4429SOL    HW224750   3.285   1.606  16.879 -0.0619  3.0308 -0.7123
 4430SOL     OW24751   4.308   2.816  10.658  0.2742 -0.4107 -0.4345
 4430SOL    HW124752   4.306   2.833  10.564  0.5798  0.9355 -0.1966
 4430SOL    HW224753   4.382   2.874  10.678  0.8983 -1.3823  0.0990
 4431SOL     OW24754   4.276   4.500   1.918  0.5898  0.3161 -0.0948
 4431SOL    HW124755   4.276   4.489   1.823  1.4474  1.2044 -0.1974
 4431SOL    HW224756   4.189   4.462   1.928  0.4671  0.8884  1.0255
 4432SOL     OW24757   4.090   0.541   0.448 -0.0045  0.0075 -0.0893
 4432SOL    HW124758   4.094   0.573   0.358 -1.3057 -1.4649 -0.6719
 4432SOL    HW224759   4.048   0.456   0.430  0.6208 -0.7120  1.8211
 4433SOL     OW24760   1.194   2.198   7.833  0.4261 -0.1735  0.2293
 4433SOL    HW124761   1.219   2.255   7.906 -1.1920  2.2853 -1.1552
 4433SOL    HW224762   1.131   2.136   7.870 -0.0188  1.8233  2.8760
 4434SOL     OW24763   3.378   2.019  11.006 -0.0202 -0.2413  0.0552
 4434SOL    HW124764   3.330   2.068  10.938  1.0457  0.1795 -0.3966
 4434SOL    HW224765   3.414   2.090  11.060 -0.0009 -1.5576  1.7560
 4435SOL     OW24766   2.988   2.826  13.124 -0.3173  0.3137  0.0199
 4435SOL    HW124767   3.082   2.834  13.143 -0.4886  1.3683  0.4270
 4435SOL    HW224768   2.994   2.799  13.032 -0.8590 -2.4076  0.7924
 4436SOL     OW24769   3.032   1.329  10.132  0.3721 -0.0814 -0.0799
 4436SOL    HW124770   3.039   1.323  10.227  3.0576 -1.6816 -0.3893
 4436SOL    HW224771   3.125   1.323  10.110  0.4989  1.2799  0.0920
 4437SOL     OW24772   3.055   2.237  13.066 -0.3881 -0.0359  0.1446
 4437SOL    HW124773   3.040   2.224  13.160  0.5656  0.5931  0.3872
 4437SOL    HW224774   3.150   2.250  13.074 -0.5627  1.0476  0.4688
 4438SOL     OW24775   1.137   3.992  11.874  0.2772  0.2697  0.4500
 4438SOL    HW124776   1.158   3.929  11.943 -0.7759 -2.1115 -1.4178
 4438SOL    HW224777   1.042   3.982  11.877  0.2702  0.2791  0.2578
 4439SOL     OW24778   0.095   2.313   6.282 -0.0604  0.1536 -0.4115
 4439SOL    HW124779   0.003   2.324   6.257 -0.1360  0.4581 -0.0089
 4439SOL    HW224780   0.094   2.229   6.328  0.0951  0.1677 -0.3823
 4440SOL     OW24781   2.702   2.054   2.171  0.4638 -0.0112  0.4557
 4440SOL    HW124782   2.784   2.014   2.143 -0.6614 -0.6240 -1.9869
 4440SOL    HW224783   2.694   2.020   2.260  2.3761 -0.4029  0.4775
 4441SOL     OW24784   1.459   3.519  11.836  0.2209 -0.0356  0.7733
 4441SOL    HW124785   1.458   3.454  11.766  2.8696  0.2802  0.4323
 4441SOL    HW224786   1.551   3.545  11.839  1.8037 -5.2236 -2.9170
 4442SOL     OW24787   4.627   3.392   1.616  0.5226  0.2500 -0.4171
 4442SOL    HW124788   4.705   3.429   1.658  1.1596 -0.3241 -1.0849
 4442SOL    HW224789   4.671   3.321   1.570  3.4380  2.4958 -1.1230
 4443SOL     OW24790   0.120   0.963   4.620 -0.3757  0.3396  0.7906
 4443SOL    HW124791   0.058   0.891   4.613 -0.0783  0.2768 -1.3734
 4443SOL    HW224792   0.202   0.917   4.641  0.7526  2.2924  0.6153
 4444SOL     OW24793   2.779   0.096   7.146  0.2438 -0.1061 -0.3206
 4444SOL    HW124794   2.761   0.157   7.074 -1.4147  0.4714  0.5872
 4444SOL    HW224795   2.785   0.144   7.228 -2.4137  2.8385 -1.8350
 4445SOL     OW24796   2.125   1.548   7.072  0.1301  0.8929 -0.1586
 4445SOL    HW124797   2.108   1.632   7.115 -2.5443  0.4322 -0.3139
 4445SOL    HW224798   2.202   1.581   7.026  1.1000 -0.7151  0.3148
 4446SOL     OW24799   2.208   1.500   5.487 -0.3076 -0.0034  0.3370
 4446SOL    HW124800   2.196   1.550   5.406  0.3354  1.3088  1.0349
 4446SOL    HW224801   2.118   1.479   5.514 -0.4334 -1.9756 -1.6303
 4447SOL     OW24802   4.118   1.901  14.345 -0.0762 -0.3497 -0.1300
 4447SOL    HW124803   4.045   1.959  14.322 -0.9252 -1.4948 -0.3161
 4447SOL    HW224804   4.188   1.965  14.360 -1.3896  1.2311 -0.8102
 4448SOL     OW24805   0.804   0.053   1.323  0.6914  0.6836  0.4281
 4448SOL    HW124806   0.752   0.132   1.336 -0.1145  0.5153 -1.7828
 4448SOL    HW224807   0.842   0.045   1.410  0.0909 -1.8349  0.4473
 4449SOL     OW24808   1.089   3.672  15.310 -0.6507 -0.5202  0.3507
 4449SOL    HW124809   1.078   3.758  15.270  0.5460  0.2844  1.7804
 4449SOL    HW224810   1.115   3.693  15.399  0.9922 -0.0946 -0.2384
 4450SOL     OW24811   1.097   2.538   2.201  0.3774  0.2791 -0.3789
 4450SOL    HW124812   1.126   2.629   2.196 -1.3753  0.8165 -0.9402
 4450SOL    HW224813   1.003   2.547   2.186  0.3002 -0.5308 -0.3547
 4451SOL     OW24814   2.816   4.379   5.837  0.2596 -0.1041 -0.3573
 4451SOL    HW124815   2.828   4.444   5.767 -0.0277 -0.6741 -0.9370
 4451SOL    HW224816   2.734   4.409   5.876  0.5699  1.3650 -0.8134
 4452SOL     OW24817   4.222   1.363   1.586  0.6843 -0.2444  0.4374
 4452SOL    HW124818   4.216   1.318   1.502 -1.7562 -1.0597  1.0394
 4452SOL    HW224819   4.315   1.385   1.591  1.0391 -1.1583 -1.9006
 4453SOL     OW24820   3.183   3.638   7.145  0.0793  0.0641  0.1967
 4453SOL    HW124821   3.271   3.612   7.119 -0.0469 -1.6585  1.5261
 4453SOL    HW224822   3.179   3.733   7.133  1.0084  0.4385  2.9232
 4454SOL     OW24823   1.551   4.394   8.046 -0.1192  0.4126  0.6242
 4454SOL    HW124824   1.605   4.319   8.020 -0.8667 -0.2331  0.9390
 4454SOL    HW224825   1.486   4.347   8.099  0.8267 -1.8313 -0.2304
 4455SOL     OW24826   4.544   4.349   4.777  0.4101 -0.2415  0.4506
 4455SOL    HW124827   4.487   4.273   4.793  1.7973 -1.3403  0.1638
 4455SOL    HW224828   4.527   4.403   4.854  0.6038 -0.5970  0.7383
 4456SOL     OW24829   0.216   1.278  10.898 -0.2906 -1.0159  0.3126
 4456SOL    HW124830   0.196   1.184  10.904  1.4746 -1.4629 -0.7581
 4456SOL    HW224831   0.160   1.316  10.966 -2.6997 -1.0152 -1.6559
 4457SOL     OW24832   3.502   4.342   0.050  0.8526 -0.1039 -0.3998
 4457SOL    HW124833   3.571   4.373   0.109  0.2635 -0.6751  0.5797
 4457SOL    HW224834   3.555   4.328  17.673 -0.8044 -1.1873 -1.3082
 4458SOL     OW24835   0.448   4.663  10.885  0.1774  0.2272 -0.0136
 4458SOL    HW124836   0.511   4.704  10.827 -0.8277  0.0829 -1.2139
 4458SOL    HW224837   0.514   4.624  10.943  1.1043  0.0369 -1.2001
 4459SOL     OW24838   1.275   3.790   1.216  0.2078 -0.0991  0.4079
 4459SOL    HW124839   1.232   3.714   1.176 -1.2524  0.0253  1.7211
 4459SOL    HW224840   1.342   3.749   1.271  1.3497  3.3857  1.5846
 4460SOL     OW24841   0.103   0.803   8.424 -0.1943  0.1819  0.4178
 4460SOL    HW124842   0.113   0.802   8.329  0.2350 -4.1655  0.5085
 4460SOL    HW224843   0.077   0.713   8.444 -0.7503  0.3805  0.6036
 4461SOL     OW24844   3.634   0.885   7.393  0.5926  0.9777 -0.1127
 4461SOL    HW124845   3.694   0.935   7.338  1.0305 -0.1902 -0.7035
 4461SOL    HW224846   3.580   0.958   7.422 -1.5327 -1.1698  1.3237
 4462SOL     OW24847   2.500   1.322   6.675  0.2612 -0.3533 -0.1740
 4462SOL    HW124848   2.569   1.305   6.739 -0.2903  1.4001  0.8959
 4462SOL    HW224849   2.429   1.267   6.707 -0.4656  1.9717  2.2433
 4463SOL     OW24850   0.339   0.599   8.746  0.3981  0.5971 -0.8699
 4463SOL    HW124851   0.409   0.535   8.756 -0.4481 -0.1869  0.1115
 4463SOL    HW224852   0.319   0.570   8.657 -1.5909 -1.4506  0.2373
 4464SOL     OW24853   3.879   3.455   4.209  0.1884  0.9645  0.0795
 4464SOL    HW124854   3.869   3.399   4.286  0.2999  0.8923  0.0410
 4464SOL    HW224855   3.839   3.539   4.230 -0.1271  0.3884  1.7522
 4465SOL     OW24856   4.075   2.684   3.983  0.2936 -0.5520  0.2816
 4465SOL    HW124857   4.042   2.626   4.051 -0.9567  0.3848  0.4711
 4465SOL    HW224858   4.167   2.675   4.006  0.1382 -2.4497  0.1603
 4466SOL     OW24859   3.248   1.481   8.445  0.4680  0.0753  0.6941
 4466SOL    HW124860   3.285   1.413   8.501  0.2892 -0.1279  0.5666
 4466SOL    HW224861   3.235   1.433   8.363  1.3898  0.4391  0.3369
 4467SOL     OW24862   2.129   3.395   8.590  0.6843  0.1223 -0.0835
 4467SOL    HW124863   2.116   3.480   8.549 -0.3928  0.4075  0.8298
 4467SOL    HW224864   2.214   3.409   8.632  0.7265  2.6590 -1.0308
 4468SOL     OW24865   3.485   1.623   3.203 -0.2827 -0.2363 -0.0297
 4468SOL    HW124866   3.441   1.539   3.218  2.3877 -1.4012  1.1836
 4468SOL    HW224867   3.496   1.650   3.294  0.1909 -0.9154  0.1156
 4469SOL     OW24868   0.342   2.030   6.558  0.1040 -0.3027  0.0084
 4469SOL    HW124869   0.308   1.975   6.629 -1.3275 -0.5187 -0.8258
 4469SOL    HW224870   0.260   2.039   6.508  0.0289 -3.8859 -0.5311
 4470SOL     OW24871   2.143   4.075   3.295 -0.1916 -0.1657  0.2020
 4470SOL    HW124872   2.109   3.988   3.275  1.6771 -1.4134  2.4170
 4470SOL    HW224873   2.084   4.100   3.366 -0.6633 -0.7000  0.0013
 4471SOL     OW24874   4.649   0.531   2.233 -0.1422 -0.8259  0.2723
 4471SOL    HW124875   4.725   0.499   2.281 -0.4370  0.1838  1.4187
 4471SOL    HW224876   4.589   0.514   2.306  0.1204 -2.5101  0.0974
 4472SOL     OW24877   0.564   1.145   7.990 -0.0031 -0.1182 -0.0489
 4472SOL    HW124878   0.614   1.070   7.959 -0.4169 -0.0713 -0.8412
 4472SOL    HW224879   0.586   1.144   8.083  4.2928 -0.4652 -1.0584
 4473SOL     OW24880   1.633   1.970   8.237 -0.2072  0.9980 -0.2328
 4473SOL    HW124881   1.626   2.063   8.259 -0.0905  0.4372  2.1580
 4473SOL    HW224882   1.706   1.947   8.294 -0.6569  1.9051  0.7237
 4474SOL     OW24883   4.105   2.234   9.011 -0.6200  0.5097 -0.1836
 4474SOL    HW124884   4.063   2.315   9.039  0.0881  1.1799 -1.0611
 4474SOL    HW224885   4.151   2.213   9.092 -1.4449  1.6631  0.5939
 4475SOL     OW24886   1.272   1.124  13.741  0.2657  0.4400 -0.2037
 4475SOL    HW124887   1.201   1.123  13.804  0.7728 -1.9530  0.3579
 4475SOL    HW224888   1.310   1.212  13.739 -0.9759  0.9894  0.4541
 4476SOL     OW24889   1.094   2.920  12.304 -0.0849  0.4543  0.5251
 4476SOL    HW124890   1.088   2.829  12.333  0.0274  1.2333  3.0095
 4476SOL    HW224891   1.170   2.949  12.355  0.8405  0.0927 -0.6391
 4477SOL     OW24892   4.478   2.924   5.177  0.0758  0.1315  0.1560
 4477SOL    HW124893   4.460   2.833   5.151 -2.3083  0.7671 -0.4113
 4477SOL    HW224894   4.392   2.967   5.178 -0.8251 -1.6758  1.7272
 4478SOL     OW24895   3.514   0.170  12.794  0.5072  0.1441 -0.0229
 4478SOL    HW124896   3.465   0.088  12.798  0.4557  0.1879  0.2543
 4478SOL    HW224897   3.483   0.218  12.871  0.0290 -0.1410 -0.0338
 4479SOL     OW24898   2.874   1.749   3.542 -0.8670  0.8417 -0.0664
 4479SOL    HW124899   2.817   1.781   3.472  0.1764 -0.2659 -1.4311
 4479SOL    HW224900   2.813   1.677   3.560  0.4530 -0.5183 -0.9986
 4480SOL     OW24901   2.106   3.680   8.386 -0.3952  0.0348 -0.2792
 4480SOL    HW124902   2.048   3.675   8.462 -0.6256  0.9045 -0.4059
 4480SOL    HW224903   2.180   3.718   8.433  0.9446 -1.3577 -1.2572
 4481SOL     OW24904   0.394   3.866   5.067 -0.0824 -0.1938  0.0100
 4481SOL    HW124905   0.397   3.770   5.063 -2.7820 -0.2682 -0.4923
 4481SOL    HW224906   0.327   3.879   5.000 -1.6899 -1.5818  1.3605
 4482SOL     OW24907   0.630   2.744   6.509 -0.3445 -0.3471 -0.0452
 4482SOL    HW124908   0.596   2.705   6.589 -3.2838  1.7393 -0.2632
 4482SOL    HW224909   0.684   2.670   6.479  0.5327  0.3048 -0.0952
 4483SOL     OW24910   4.124   2.338   8.143  0.1078  0.0921  0.3730
 4483SOL    HW124911   4.089   2.360   8.056  2.7835  0.7567 -0.5250
 4483SOL    HW224912   4.208   2.384   8.143  0.0941  0.1187 -1.2575
 4484SOL     OW24913   4.609   4.216   0.086 -0.2035 -0.0603  0.0618
 4484SOL    HW124914   4.675   4.148   0.103 -1.3438 -0.8678  1.2670
 4484SOL    HW224915   4.614   4.260   0.171 -0.6991 -0.0006  0.0624
 4485SOL     OW24916   2.433   4.047  14.269 -0.3893 -0.3036  0.4003
 4485SOL    HW124917   2.471   4.097  14.197 -0.7305  1.5596  1.5301
 4485SOL    HW224918   2.382   4.117  14.309 -0.7247 -0.6178  0.5210
 4486SOL     OW24919   3.102   1.702   0.853  0.7537 -0.1110 -0.6602
 4486SOL    HW124920   3.145   1.772   0.804 -2.1147 -0.1263 -3.1679
 4486SOL    HW224921   3.156   1.709   0.932 -0.9051  1.3063  0.3602
 4487SOL     OW24922   0.856   2.280   5.600  0.4971 -0.1120 -0.7756
 4487SOL    HW124923   0.948   2.253   5.597  1.3041  2.4476  1.4353
 4487SOL    HW224924   0.831   2.286   5.508  0.5485  0.7307 -0.7289
 4488SOL     OW24925   2.692   1.645  14.921 -0.0777 -0.2635 -0.0386
 4488SOL    HW124926   2.757   1.587  14.963 -0.0722  0.2767  0.7008
 4488SOL    HW224927   2.607   1.606  14.942  0.2376 -0.2372  1.2756
 4489SOL     OW24928   1.950   0.608   6.341  0.1138  1.2616  0.3371
 4489SOL    HW124929   1.862   0.596   6.377  0.0347 -4.1961 -1.6539
 4489SOL    HW224930   1.993   0.653   6.413 -1.2428  3.5711 -0.2738
 4490SOL     OW24931   2.103   0.190   1.967 -0.2699 -0.2412 -0.1068
 4490SOL    HW124932   2.050   0.115   1.938  0.1606 -0.8591  0.7068
 4490SOL    HW224933   2.172   0.196   1.901 -1.6981  1.7971 -1.4157
 4491SOL     OW24934   3.848   4.674   4.307  0.2813 -0.4558  0.3274
 4491SOL    HW124935   3.909   4.651   4.237  0.0230 -0.4319  0.0978
 4491SOL    HW224936   3.872   0.041   4.317 -0.5971 -0.0529 -1.3139
 4492SOL     OW24937   4.549   2.135   2.644 -0.2997 -0.0916 -0.1296
 4492SOL    HW124938   4.586   2.201   2.585  1.5097 -1.0412 -0.0481
 4492SOL    HW224939   4.572   2.169   2.731  1.7299 -0.4545 -0.5267
 4493SOL     OW24940   4.288   2.941   6.717 -0.6618  0.3326 -0.3340
 4493SOL    HW124941   4.211   2.976   6.673 -0.9597 -0.2143 -0.2482
 4493SOL    HW224942   4.312   2.997   6.791  0.7335 -0.5322 -0.1259
 4494SOL     OW24943   0.191   1.919   8.649 -0.0999  0.0139 -0.0796
 4494SOL    HW124944   0.173   1.945   8.739  1.8210 -1.0882  0.6247
 4494SOL    HW224945   0.117   1.860   8.634  0.5917 -0.7141 -0.6556
 4495SOL     OW24946   4.200   0.320  14.511  0.3594  0.5232 -0.7436
 4495SOL    HW124947   4.281   0.330  14.461  1.8486 -0.9429  1.3598
 4495SOL    HW224948   4.231   0.359  14.592  0.9024 -0.5845 -0.4203
 4496SOL     OW24949   0.935   1.458   3.023 -0.5359 -0.0110  0.5478
 4496SOL    HW124950   0.967   1.424   3.106 -0.5141  0.9420  0.9301
 4496SOL    HW224951   0.943   1.552   3.038 -0.5948  0.2303 -0.9707
 4497SOL     OW24952   1.229   2.967   7.427  0.5058 -0.2390 -0.0572
 4497SOL    HW124953   1.195   3.041   7.377  0.0310  0.9829  2.1087
 4497SOL    HW224954   1.270   2.911   7.361 -2.8519 -3.4122  0.5271
 4498SOL     OW24955   0.021   1.216  10.465 -0.4750 -0.2038  0.3452
 4498SOL    HW124956   0.103   1.212  10.416 -1.5056 -0.0669 -1.3856
 4498SOL    HW224957   4.691   1.271  10.409  0.0632  0.3786  0.3939
 4499SOL     OW24958   2.577   3.896   5.655 -0.2896  0.2460 -0.0925
 4499SOL    HW124959   2.600   3.871   5.566  2.6787  1.2205  0.3966
 4499SOL    HW224960   2.484   3.872   5.665 -0.3402 -0.5176 -2.3879
 4500SOL     OW24961   3.176   2.924   2.657 -0.0910 -0.2170 -0.0948
 4500SOL    HW124962   3.182   3.019   2.663  0.4875 -0.2094 -0.7448
 4500SOL    HW224963   3.111   2.902   2.724  0.7830 -0.4205  0.6935
 4501SOL     OW24964   0.766   0.266   8.120  0.3855  0.1560  0.2125
 4501SOL    HW124965   0.737   0.308   8.201 -2.0919  0.1750 -0.6659
 4501SOL    HW224966   0.720   0.302   8.043  0.5761  0.1367  0.0905
 4502SOL     OW24967   2.497   0.111  16.188 -0.2575 -0.4430 -0.3277
 4502SOL    HW124968   2.532   0.048  16.125 -0.5949  1.8565 -2.8329
 4502SOL    HW224969   2.404   0.120  16.166 -1.1965 -3.9744  2.0402
 4503SOL     OW24970   3.451   2.558   2.847  0.6565  0.0349 -0.1129
 4503SOL    HW124971   3.453   2.471   2.806 -0.1472  1.3033 -2.7845
 4503SOL    HW224972   3.438   2.623   2.778 -1.9932 -0.6872 -0.2776
 4504SOL     OW24973   2.616   0.720   2.114  0.0034 -0.3744  0.2468
 4504SOL    HW124974   2.628   0.718   2.209 -0.6910 -2.4872  0.2919
 4504SOL    HW224975   2.523   0.696   2.113  0.4458 -1.9629 -1.7410
 4505SOL     OW24976   1.717   1.793   7.469  0.1690 -0.0101 -0.2583
 4505SOL    HW124977   1.747   1.846   7.543  0.8039 -1.7365  0.7156
 4505SOL    HW224978   1.798   1.752   7.438  0.4615  0.3772 -0.0194
 4506SOL     OW24979   3.911   4.671   8.464  0.4328 -0.0377  0.1708
 4506SOL    HW124980   3.885   4.699   8.552 -1.0579 -2.0074  0.3456
 4506SOL    HW224981   4.004   4.697   8.464 -0.0458  1.6634  1.5992
 4507SOL     OW24982   0.613   1.511   6.116 -0.0467  0.1248 -0.1351
 4507SOL    HW124983   0.571   1.584   6.163 -1.5993 -1.1482  0.4470
 4507SOL    HW224984   0.693   1.504   6.168  0.0105  1.9419  0.0441
 4508SOL     OW24985   2.843   0.091  17.667  0.4901  0.3619 -0.2232
 4508SOL    HW124986   2.777   0.101   0.035  0.3812  0.0408 -0.2785
 4508SOL    HW224987   2.919   0.109   0.021  0.7141 -1.3564  0.0281
 4509SOL     OW24988   0.329   1.635   8.697  0.2961  0.3540  0.4461
 4509SOL    HW124989   0.375   1.683   8.766 -0.5539 -0.6944  1.7483
 4509SOL    HW224990   0.254   1.592   8.739 -0.6296  0.6076 -0.9607
 4510SOL     OW24991   0.627   0.020  10.681 -0.2953  0.3443 -0.4796
 4510SOL    HW124992   0.719   4.724  10.669 -0.4193 -0.7572  0.5179
 4510SOL    HW224993   0.579   0.002  10.600  2.4483  1.0263 -2.2343
 4511SOL     OW24994   1.512   0.012   3.956  0.1782  0.3296  0.0645
 4511SOL    HW124995   1.533   0.093   3.911 -1.1867  0.3131 -0.6029
 4511SOL    HW224996   1.445   4.706   3.895  0.1473  1.3352 -0.4074
 4512SOL     OW24997   0.593   4.235   3.830  0.2932  0.4099  0.5241
 4512SOL    HW124998   0.529   4.267   3.766  0.6880 -0.7217 -0.4495
 4512SOL    HW224999   0.541   4.192   3.898  0.0392 -1.5893 -0.9358
 4513SOL     OW25000   1.377   2.968   6.292  0.3299  0.4287 -0.3153
 4513SOL    HW125001   1.448   3.027   6.316  1.3132 -0.6618 -0.5460
 4513SOL    HW225002   1.405   2.883   6.327 -0.9581 -0.7505 -2.1419
 4514SOL     OW25003   1.432   1.127   2.574  0.1939  0.0946  0.1223
 4514SOL    HW125004   1.371   1.062   2.538  0.9695  0.8337 -2.5601
 4514SOL    HW225005   1.371   1.200   2.582  2.5992  2.2153 -0.6730
 4515SOL     OW25006   1.914   2.509   3.318 -0.4784  0.2776 -0.8273
 4515SOL    HW125007   1.947   2.543   3.402  1.9102 -2.5102 -0.6421
 4515SOL    HW225008   1.976   2.554   3.260 -0.8632  1.4280 -0.3381
 4516SOL     OW25009   1.742   3.614   8.799 -0.0176  0.3064 -0.7407
 4516SOL    HW125010   1.780   3.668   8.869  0.5740 -1.7905  0.5498
 4516SOL    HW225011   1.652   3.629   8.830 -0.1826 -1.2332 -0.4788
 4517SOL     OW25012   4.397   4.325   7.703 -0.2723  0.0669 -0.6723
 4517SOL    HW125013   4.314   4.279   7.707 -0.4485  0.6850  2.8550
 4517SOL    HW225014   4.357   4.412   7.703  0.9720  0.6739  3.4877
 4518SOL     OW25015   2.872   1.236   7.083 -0.2832 -0.0194  0.7562
 4518SOL    HW125016   2.959   1.209   7.113  0.5405  0.4907 -1.1780
 4518SOL    HW225017   2.814   1.223   7.158 -1.1157 -1.0730 -0.0812
 4519SOL     OW25018   3.989   0.658   8.117 -0.2265  0.3191 -0.6218
 4519SOL    HW125019   3.991   0.632   8.025  1.3320  1.3847 -0.8835
 4519SOL    HW225020   3.894   0.658   8.131 -0.3836 -0.4523 -1.6938
 4520SOL     OW25021   1.674   2.888  16.018 -0.2820 -0.2952 -0.3431
 4520SOL    HW125022   1.678   2.983  16.003 -2.2865  0.2906  2.8694
 4520SOL    HW225023   1.767   2.864  16.016  0.2479  1.5898  1.4104
 4521SOL     OW25024   1.575   1.925   2.975  0.1504  0.2334  0.2444
 4521SOL    HW125025   1.581   2.019   2.992  0.3854  0.4232 -0.8850
 4521SOL    HW225026   1.572   1.886   3.062 -0.6453  1.2302  0.6673
 4522SOL     OW25027   3.825   4.722   7.243 -0.3324  0.0820  0.0717
 4522SOL    HW125028   3.800   0.064   7.306 -0.3656  1.2402 -1.1877
 4522SOL    HW225029   3.753   0.019   7.184 -2.4868 -3.7947  1.2272
 4523SOL     OW25030   3.063   1.525   8.194  0.0071  0.3810  0.5389
 4523SOL    HW125031   3.069   1.429   8.196  2.5658  0.5437  0.1921
 4523SOL    HW225032   3.107   1.543   8.111 -0.6595 -1.5754 -0.2456
 4524SOL     OW25033   4.510   0.033   2.066 -0.1734  0.5756 -0.0404
 4524SOL    HW125034   4.554   0.086   2.000  0.7065  1.2766  1.1132
 4524SOL    HW225035   4.423   0.064   2.041 -1.3613 -3.2884 -0.6672
 4525SOL     OW25036   3.505   0.492  17.675  0.1991  0.0428 -0.5388
 4525SOL    HW125037   3.600   0.498  17.661  0.5870 -0.6500  1.8774
 4525SOL    HW225038   3.485   0.433  17.602 -2.6819 -0.0415  0.3250
 4526SOL     OW25039   1.565   0.202  12.832 -0.4657 -0.4525 -0.5115
 4526SOL    HW125040   1.636   0.239  12.885 -0.5380 -2.6281  1.0805
 4526SOL    HW225041   1.615   0.143  12.775  0.8074  0.3523 -0.2405
 4527SOL     OW25042   0.017   0.489   1.035  0.3507  0.0830  0.2525
 4527SOL    HW125043   0.106   0.520   1.023  0.8726 -2.1242 -1.5062
 4527SOL    HW225044   4.712   0.504   0.945 -2.0360  1.9380  1.3321
 4528SOL     OW25045   0.639   2.190   6.854 -0.6555  0.4189  0.1994
 4528SOL    HW125046   0.591   2.148   6.926  0.2368  1.0347  1.1641
 4528SOL    HW225047   0.560   2.224   6.812 -0.3929  1.0714  0.2390
 4529SOL     OW25048   2.373   4.302   7.942  0.4702  0.2660  0.2432
 4529SOL    HW125049   2.468   4.299   7.937  0.3552  1.5073 -2.5881
 4529SOL    HW225050   2.350   4.281   7.852  0.4270  2.7071 -0.3054
 4530SOL     OW25051   0.195   1.778   7.527  0.1723  0.0069 -0.2982
 4530SOL    HW125052   0.259   1.773   7.598 -0.6440  0.8898  0.4878
 4530SOL    HW225053   0.194   1.699   7.473  0.1675 -0.3501  0.2299
 4531SOL     OW25054   2.461   2.739  12.520  0.1858 -0.1341  0.3817
 4531SOL    HW125055   2.489   2.693  12.599  2.0768 -0.7312 -0.6350
 4531SOL    HW225056   2.547   2.774  12.493  0.5930 -1.3190  0.1672
 4532SOL     OW25057   2.321   0.751   7.933  0.4843 -1.0868  0.1606
 4532SOL    HW125058   2.372   0.691   7.987  1.4974  0.8063  1.3109
 4532SOL    HW225059   2.233   0.739   7.969  0.8971 -1.0058  1.2061
 4533SOL     OW25060   0.791   4.398   3.754 -0.0197 -0.0761  0.0571
 4533SOL    HW125061   0.707   4.358   3.778 -1.1359  0.7584 -2.3241
 4533SOL    HW225062   0.855   4.338   3.791 -0.5475 -0.3659  0.4979
 4534SOL     OW25063   2.996   2.747   8.164  0.2155  0.4964 -0.3364
 4534SOL    HW125064   3.006   2.838   8.193  0.6190  0.0819  0.8231
 4534SOL    HW225065   3.074   2.744   8.109  0.3556 -3.8623  0.1431
 4535SOL     OW25066   2.540   1.340   5.171 -0.3768 -0.0934  0.0677
 4535SOL    HW125067   2.530   1.318   5.264  0.7937 -1.4490 -0.1193
 4535SOL    HW225068   2.495   1.423   5.154  0.9010  0.4455 -0.6904
 4536SOL     OW25069   1.464   3.392   4.645 -0.4727  0.1261  0.1804
 4536SOL    HW125070   1.436   3.344   4.567  1.5006  0.8387 -0.9682
 4536SOL    HW225071   1.501   3.472   4.608 -0.2809  0.4720  1.1242
 4537SOL     OW25072   0.975   3.270  15.025  0.2845 -0.3856  0.0881
 4537SOL    HW125073   1.001   3.361  15.042 -1.7396  0.4310 -1.1034
 4537SOL    HW225074   0.907   3.295  14.961  0.9914  0.2089 -0.4370
 4538SOL     OW25075   2.674   2.784   9.856  0.4601  0.0617  0.0386
 4538SOL    HW125076   2.668   2.763   9.949  3.4313  1.0431  0.4227
 4538SOL    HW225077   2.714   2.709   9.814  1.0860  1.9309 -2.6812
 4539SOL     OW25078   3.793   2.283   4.031  0.8729 -0.2460  0.3773
 4539SOL    HW125079   3.788   2.335   3.951  2.1061 -0.2795  0.2820
 4539SOL    HW225080   3.748   2.204   4.001  1.1046 -0.1804 -0.1462
 4540SOL     OW25081   1.832   4.155   0.452 -0.1132  0.0132  0.7023
 4540SOL    HW125082   1.860   4.170   0.542  0.1766  0.9205  0.4684
 4540SOL    HW225083   1.827   4.249   0.431  0.3938 -0.1295 -0.0519
 4541SOL     OW25084   1.741   2.108   9.818 -0.3646  0.4843  0.2332
 4541SOL    HW125085   1.757   2.174   9.885  0.1198  0.1811  0.4152
 4541SOL    HW225086   1.656   2.133   9.781  0.9230  1.0803 -2.3471
 4542SOL     OW25087   0.543   1.723   2.267  0.1861  0.3036 -0.1652
 4542SOL    HW125088   0.525   1.644   2.218  0.5790 -1.4453  2.4995
 4542SOL    HW225089   0.491   1.708   2.346  2.6416 -1.7155  1.0759
 4543SOL     OW25090   3.893   2.509   4.501  0.4492  0.3806  0.3311
 4543SOL    HW125091   3.911   2.416   4.515 -0.5761  0.1501  0.0981
 4543SOL    HW225092   3.942   2.520   4.419  1.6038  0.0425  0.9674
 4544SOL     OW25093   1.014   2.589   8.728  0.3178 -0.4732  0.6868
 4544SOL    HW125094   1.030   2.564   8.637 -0.2855 -3.0936  1.2982
 4544SOL    HW225095   1.037   2.682   8.728  1.7465 -0.8131  1.0953
 4545SOL     OW25096   2.284   1.589   8.791 -0.3358 -0.3377  0.2640
 4545SOL    HW125097   2.312   1.627   8.708 -0.8187 -0.0129  0.2470
 4545SOL    HW225098   2.357   1.536   8.821 -1.4862 -1.1579  1.6650
 4546SOL     OW25099   1.143   0.787   7.721  0.4836  0.3132 -0.1791
 4546SOL    HW125100   1.125   0.803   7.814 -0.3513 -2.9890  0.2326
 4546SOL    HW225101   1.069   0.731   7.698 -0.9623  2.6570 -1.2286
 4547SOL     OW25102   1.536   0.551  16.491  0.1889 -0.2881  0.2296
 4547SOL    HW125103   1.602   0.491  16.457 -0.6658 -1.6115  0.9431
 4547SOL    HW225104   1.460   0.493  16.492  0.1268 -0.2105  0.0588
 4548SOL     OW25105   1.772   2.142   9.201  0.9082 -0.5391  0.2736
 4548SOL    HW125106   1.812   2.070   9.153 -0.6462 -0.8101 -0.6268
 4548SOL    HW225107   1.837   2.159   9.269  0.2590 -0.0401  0.7754
 4549SOL     OW25108   3.506   3.715   1.167  0.4435 -0.7684  0.7307
 4549SOL    HW125109   3.589   3.684   1.202  0.6888  0.6086  1.3547
 4549SOL    HW225110   3.444   3.713   1.240 -1.2147  0.6256 -0.6135
 4550SOL     OW25111   1.762   3.103   8.371 -0.4594  0.5893  0.1375
 4550SOL    HW125112   1.814   3.129   8.446 -0.5669  0.9687  0.0781
 4550SOL    HW225113   1.830   3.075   8.311  0.1520  2.1022  0.1345
 4551SOL     OW25114   1.705   1.086   7.856  0.2599 -0.0543 -0.4144
 4551SOL    HW125115   1.661   1.114   7.937  2.0823  0.5651  0.3782
 4551SOL    HW225116   1.632   1.041   7.813  0.7164  1.1678 -2.4759
 4552SOL     OW25117   0.890   4.459  10.278  0.0667 -0.1643  0.3412
 4552SOL    HW125118   0.972   4.459  10.326  0.0483 -0.2853  0.3743
 4552SOL    HW225119   0.861   4.550  10.282  0.5394 -0.1047  2.1539
 4553SOL     OW25120   0.265   2.022  12.842 -0.1676 -0.0956  0.0114
 4553SOL    HW125121   0.284   1.965  12.767  0.7476 -1.6552  1.4347
 4553SOL    HW225122   0.171   2.008  12.856  0.3763 -1.4518  2.2565
 4554SOL     OW25123   1.494   4.581  15.891  0.8393  0.1156  0.5715
 4554SOL    HW125124   1.495   4.533  15.974 -0.5622  1.0287  1.1188
 4554SOL    HW225125   1.512   4.670  15.920 -1.2894  0.6494  0.2904
 4555SOL     OW25126   0.125   1.301   7.915  0.5004 -0.2625 -0.0682
 4555SOL    HW125127   0.048   1.353   7.936  1.7601  1.7684 -0.4927
 4555SOL    HW225128   0.171   1.364   7.859  0.6869 -0.3835 -0.0533
 4556SOL     OW25129   1.259   3.721   8.569  0.3127  0.3703 -0.1103
 4556SOL    HW125130   1.167   3.746   8.563  0.3367  0.4442 -0.1711
 4556SOL    HW225131   1.244   3.626   8.562 -0.9893  0.8148 -3.2819
 4557SOL     OW25132   0.879   3.706  16.402 -0.7333 -0.1947  0.0529
 4557SOL    HW125133   0.912   3.620  16.429  2.2996  1.2645  1.0516
 4557SOL    HW225134   0.832   3.732  16.481  1.6471  0.4309  1.2619
 4558SOL     OW25135   3.187   0.812   7.250 -0.0219  0.1162  0.0723
 4558SOL    HW125136   3.245   0.885   7.227 -0.4221  0.0416 -1.1975
 4558SOL    HW225137   3.152   0.846   7.332  0.1071  1.1637 -0.3029
 4559SOL     OW25138   1.922   3.905   8.418  0.8555 -0.1399 -0.2264
 4559SOL    HW125139   1.982   3.836   8.447  1.5899  1.2370  1.5684
 4559SOL    HW225140   1.911   3.954   8.500  1.5597  0.2214 -0.3555
 4560SOL     OW25141   2.576   2.963   7.341 -0.5555 -0.4188 -0.5875
 4560SOL    HW125142   2.603   2.997   7.426  0.6699 -0.5817 -0.9167
 4560SOL    HW225143   2.561   3.033   7.277 -0.5686  0.0627 -0.0517
 4561SOL     OW25144   2.420   1.637   3.463  0.2581  0.2170  0.1385
 4561SOL    HW125145   2.432   1.639   3.368 -0.4159 -0.0766  0.0458
 4561SOL    HW225146   2.352   1.569   3.471  0.3739  0.0622 -0.1983
 4562SOL     OW25147   1.679   1.584  13.808 -0.3956  0.4996  0.3828
 4562SOL    HW125148   1.750   1.589  13.872  1.4756  2.3687 -1.8400
 4562SOL    HW225149   1.663   1.678  13.808  3.1480  1.1044  1.4025
 4563SOL     OW25150   0.665   4.007  16.367  0.5609 -0.2384  0.2650
 4563SOL    HW125151   0.651   4.098  16.394 -0.8673 -1.4346  3.5361
 4563SOL    HW225152   0.645   3.966  16.451  0.3769  0.1425  0.4096
 4564SOL     OW25153   2.718   3.384   3.439 -0.3282  0.3376  0.0813
 4564SOL    HW125154   2.749   3.468   3.405  1.4910 -0.2378  0.3570
 4564SOL    HW225155   2.786   3.320   3.421  0.2071  0.1732  2.6848
 4565SOL     OW25156   4.183   4.178   3.806  0.7834  0.3273  0.0136
 4565SOL    HW125157   4.195   4.170   3.712  0.2241 -2.2523  0.1610
 4565SOL    HW225158   4.141   4.263   3.811  0.2315  0.1219 -1.2612
 4566SOL     OW25159   1.739   0.203   8.435  0.2765  0.0182  0.0793
 4566SOL    HW125160   1.701   0.154   8.362 -0.7182  0.4111  0.3313
 4566SOL    HW225161   1.824   0.162   8.451  0.5370  0.4566 -0.1797
 4567SOL     OW25162   0.603   1.163   7.277 -0.1687 -0.2930  0.0498
 4567SOL    HW125163   0.644   1.195   7.197  1.9132 -1.1675  0.7500
 4567SOL    HW225164   0.680   1.116   7.311  0.3758 -1.0528 -2.2664
 4568SOL     OW25165   0.918   4.183   5.135 -0.4319 -0.0542  0.1717
 4568SOL    HW125166   0.848   4.148   5.191  0.3101 -0.0464  1.1005
 4568SOL    HW225167   0.873   4.174   5.051 -2.1588 -1.0920  1.2070
 4569SOL     OW25168   2.324   3.222   3.616 -0.3471  0.2047  0.1753
 4569SOL    HW125169   2.277   3.303   3.637  0.2652 -0.1856  2.9997
 4569SOL    HW225170   2.305   3.174   3.696  0.2659 -2.1890 -1.1302
 4570SOL     OW25171   0.418   2.525   4.259 -0.4322 -0.1804  0.0045
 4570SOL    HW125172   0.347   2.589   4.253 -0.2219 -0.3004 -4.0917
 4570SOL    HW225173   0.475   2.552   4.186  0.0262 -0.2397  0.3441
 4571SOL     OW25174   2.955   0.297   6.304 -0.4905 -0.2539 -0.2333
 4571SOL    HW125175   3.029   0.287   6.245 -2.3646 -0.6182 -2.4961
 4571SOL    HW225176   2.888   0.340   6.251  0.5245 -0.0626 -1.3661
 4572SOL     OW25177   2.897   0.070   6.441 -0.6846  0.0816 -0.0825
 4572SOL    HW125178   2.920   0.003   6.377 -0.1224 -0.4140  0.6339
 4572SOL    HW225179   2.916   0.144   6.384  1.8301 -0.1005  0.5081
 4573SOL     OW25180   0.662   0.414   7.873 -0.5190  0.1181 -0.1504
 4573SOL    HW125181   0.569   0.437   7.868  0.1788  3.1365  0.7495
 4573SOL    HW225182   0.683   0.360   7.797 -2.6916  1.6285 -1.8516
 4574SOL     OW25183   4.490   1.518   5.124 -0.3937 -0.1009  0.9420
 4574SOL    HW125184   4.514   1.608   5.103  2.0559 -1.5194 -2.2805
 4574SOL    HW225185   4.444   1.521   5.208  1.5725 -2.2842  2.0861
 4575SOL     OW25186   2.221   4.521   4.849 -0.5339  0.0812  0.3091
 4575SOL    HW125187   2.257   4.453   4.906  1.5185  1.9261  1.2412
 4575SOL    HW225188   2.160   4.468   4.798  1.1330 -0.1316 -1.4318
 4576SOL     OW25189   2.684   4.419   7.630  0.1825  0.0933 -0.2202
 4576SOL    HW125190   2.688   4.369   7.548 -4.3144 -0.7355  0.0341
 4576SOL    HW225191   2.666   4.353   7.697 -0.0261  1.0255  0.6452
 4577SOL     OW25192   4.724   3.488   5.126 -0.4234 -0.2557  0.8051
 4577SOL    HW125193   4.679   3.541   5.193 -0.4977  0.1927  0.3968
 4577SOL    HW225194   0.088   3.523   5.121 -1.0047  1.1076  0.0408
 4578SOL     OW25195   3.564   2.474   3.462  0.1319  0.2693 -0.5087
 4578SOL    HW125196   3.581   2.461   3.369 -1.7922 -0.9522 -0.6672
 4578SOL    HW225197   3.637   2.535   3.479  0.0087  0.4461 -0.6120
 4579SOL     OW25198   2.973   3.846  12.020  0.4839  0.4339 -0.2634
 4579SOL    HW125199   3.036   3.826  12.089  0.7549  0.5006 -0.4946
 4579SOL    HW225200   3.036   3.889  11.963 -0.1436  1.8115  0.0875
 4580SOL     OW25201   1.004   1.109   6.850 -0.0072 -0.2583  0.3202
 4580SOL    HW125202   1.021   1.146   6.764 -0.3307 -2.5062 -0.7109
 4580SOL    HW225203   1.091   1.112   6.890  0.1148  0.4386 -0.0048
 4581SOL     OW25204   4.606   2.154   5.465 -0.1583  0.4380  0.3491
 4581SOL    HW125205   4.676   2.194   5.516  1.6762  0.6183 -2.3226
 4581SOL    HW225206   4.595   2.231   5.410 -1.6522 -0.0373 -0.0286
 4582SOL     OW25207   2.195   1.396  15.318 -0.6516 -0.2100 -0.3579
 4582SOL    HW125208   2.130   1.410  15.249 -2.9784 -1.8703  1.5088
 4582SOL    HW225209   2.266   1.363  15.264 -0.8713  2.6104 -2.3321
 4583SOL     OW25210   2.563   4.062   2.410  0.2067 -0.5864 -0.1682
 4583SOL    HW125211   2.513   4.021   2.481  1.6044 -1.8675  0.0627
 4583SOL    HW225212   2.561   4.157   2.426 -0.3518 -0.6542  0.1983
 4584SOL     OW25213   2.529   1.207   9.437  0.2206  0.6605  0.6822
 4584SOL    HW125214   2.435   1.205   9.455  0.0300  2.0508 -0.2248
 4584SOL    HW225215   2.566   1.167   9.516 -2.0774 -1.7771  0.5383
 4585SOL     OW25216   4.218   4.518   8.647 -0.3668 -0.6159  0.0157
 4585SOL    HW125217   4.194   4.532   8.738 -0.9618  0.2821 -0.2751
 4585SOL    HW225218   4.239   4.425   8.644  2.3936  0.0984 -3.0680
 4586SOL     OW25219   0.101   1.176  17.089 -0.3378 -0.0177  0.2405
 4586SOL    HW125220   0.168   1.232  17.047 -1.3461  1.3503  0.4610
 4586SOL    HW225221   0.148   1.104  17.130 -1.5216  0.5341  2.5553
 4587SOL     OW25222   4.398   1.710   8.815 -0.5686 -0.1079  0.3925
 4587SOL    HW125223   4.345   1.704   8.894 -1.2299  2.6575  0.1573
 4587SOL    HW225224   4.389   1.621   8.782  0.2024 -0.0089 -0.0852
 4588SOL     OW25225   2.350   3.631   8.913  0.1355 -0.6821  0.5578
 4588SOL    HW125226   2.391   3.679   8.985  0.9897 -1.3711  0.5266
 4588SOL    HW225227   2.421   3.580   8.874 -1.6947 -2.4361 -0.4759
 4589SOL     OW25228   3.151   1.641  16.415 -0.3095  0.3198 -0.3080
 4589SOL    HW125229   3.075   1.662  16.470 -1.3628  1.2101 -2.1140
 4589SOL    HW225230   3.202   1.591  16.479 -0.7210  0.4493  0.1231
 4590SOL     OW25231   0.218   2.661   2.429 -0.1444  0.4949  0.2695
 4590SOL    HW125232   0.167   2.591   2.470 -0.0309 -0.1570 -0.6918
 4590SOL    HW225233   0.220   2.637   2.336  0.3951  1.3045  0.0662
 4591SOL     OW25234   4.538   1.854   7.739  0.0979 -0.0683  0.7195
 4591SOL    HW125235   4.555   1.854   7.645 -1.5449 -1.2241  0.4222
 4591SOL    HW225236   4.485   1.774   7.746 -1.3737  0.8634  0.1425
 4592SOL     OW25237   4.596   2.020   3.088 -0.1170 -0.5326 -0.5689
 4592SOL    HW125238   4.684   1.986   3.071  0.1862 -0.5875  1.1889
 4592SOL    HW225239   4.550   1.942   3.119  1.3615 -0.9127  0.6630
 4593SOL     OW25240   1.996   0.872  15.697 -0.3148 -0.1391 -0.1410
 4593SOL    HW125241   1.927   0.939  15.697 -0.8227 -0.6584  1.2813
 4593SOL    HW225242   2.045   0.927  15.635  1.1178 -0.6302  0.5416
 4594SOL     OW25243   4.037   0.923  16.057 -0.4708  0.8799  0.5764
 4594SOL    HW125244   4.094   0.939  15.981  1.1439 -1.5542  1.2926
 4594SOL    HW225245   3.990   1.006  16.068 -0.9370  1.0174 -2.3200
 4595SOL     OW25246   4.377   3.305   3.576  0.5669  0.1225  0.0508
 4595SOL    HW125247   4.463   3.294   3.616  0.9356 -2.2374 -1.3889
 4595SOL    HW225248   4.368   3.231   3.516  1.8226 -0.1996  0.2558
 4596SOL     OW25249   0.272   3.309  14.888 -0.5185 -0.2861 -0.4839
 4596SOL    HW125250   0.218   3.382  14.861 -0.2329 -0.9956 -2.9975
 4596SOL    HW225251   0.223   3.236  14.849 -1.6450  0.2767 -0.1102
 4597SOL     OW25252   3.303   4.457   4.097 -0.4104  0.0703  0.5231
 4597SOL    HW125253   3.369   4.419   4.155  1.4852 -1.1628 -2.3848
 4597SOL    HW225254   3.279   4.541   4.136  0.4178  0.5444  0.0054
 4598SOL     OW25255   3.179   0.798   8.312 -0.3080 -0.2669  1.0517
 4598SOL    HW125256   3.167   0.805   8.407  1.5937 -0.5917  1.3240
 4598SOL    HW225257   3.236   0.722   8.300 -0.5295 -0.3607  0.5849
 4599SOL     OW25258   3.205   0.957   4.113 -0.1891 -0.7795 -0.8366
 4599SOL    HW125259   3.202   0.969   4.018  2.1841  2.8747 -0.4632
 4599SOL    HW225260   3.271   0.889   4.130  1.3222  1.1973  1.2187
 4600SOL     OW25261   1.542   1.122  10.536  0.3919 -0.3164 -0.1609
 4600SOL    HW125262   1.538   1.151  10.445 -0.8287 -0.0320 -0.0148
 4600SOL    HW225263   1.488   1.183  10.587 -3.3547 -1.9464 -2.1994
 4601SOL     OW25264   1.900   1.499   6.897 -0.0670  0.0022  0.5989
 4601SOL    HW125265   1.949   1.507   6.815  2.3773 -1.0390  1.9788
 4601SOL    HW225266   1.970   1.500   6.962 -1.0214 -0.6348  1.6263
 4602SOL     OW25267   0.064   1.421   6.897 -0.3876 -0.0618  0.1792
 4602SOL    HW125268   0.106   1.350   6.849  0.4488  0.5385  0.0219
 4602SOL    HW225269   0.070   1.387   6.987  0.6644  1.1305  0.5617
 4603SOL     OW25270   2.703   0.720   7.369  0.2631 -0.2303 -0.1074
 4603SOL    HW125271   2.618   0.713   7.325 -0.5232  1.2875  1.1709
 4603SOL    HW225272   2.666   0.719   7.457 -1.9425  0.0977 -1.0291
 4604SOL     OW25273   3.990   0.413   5.463  0.4388  0.1972 -0.0089
 4604SOL    HW125274   3.912   0.448   5.420  0.7991 -1.1261 -1.7546
 4604SOL    HW225275   4.017   0.334   5.416  0.4680  0.0655  0.2309
 4605SOL     OW25276   2.512   2.078   3.225  0.2699  0.4544 -0.9547
 4605SOL    HW125277   2.417   2.081   3.239  0.4930  0.2924  0.6661
 4605SOL    HW225278   2.501   2.094   3.131 -2.3360  1.2618 -0.5058
 4606SOL     OW25279   3.578   0.353   6.507 -0.7445  0.0111 -0.0700
 4606SOL    HW125280   3.632   0.391   6.437  0.9523 -2.5716 -0.1313
 4606SOL    HW225281   3.492   0.350   6.464 -0.3744 -1.8080 -0.6728
 4607SOL     OW25282   0.477   3.945  12.724 -0.2610  0.3152 -0.2842
 4607SOL    HW125283   0.406   4.008  12.732 -0.3332 -0.0018  1.5730
 4607SOL    HW225284   0.443   3.872  12.776 -1.8352  0.5472 -0.9880
 4608SOL     OW25285   3.898   4.542  16.846 -0.4252 -0.0672  0.3139
 4608SOL    HW125286   3.869   4.555  16.756  0.8233  0.6588  0.0183
 4608SOL    HW225287   3.990   4.548  16.822  0.0859 -0.0120  2.2709
 4609SOL     OW25288   2.126   0.914   8.785  0.0390  0.6889 -0.1014
 4609SOL    HW125289   2.217   0.904   8.814  0.2291  3.3435  0.2312
 4609SOL    HW225290   2.092   0.828   8.806  1.2065 -0.4280 -2.8462
 4610SOL     OW25291   2.444   2.693   7.621 -0.2333 -0.1624 -0.0288
 4610SOL    HW125292   2.451   2.686   7.716 -0.5181  0.4990  0.0436
 4610SOL    HW225293   2.385   2.769   7.619  1.5463  1.3342  3.4861
 4611SOL     OW25294   3.122   0.234   4.528 -0.1453  0.4091 -0.1590
 4611SOL    HW125295   3.217   0.223   4.517 -0.2304 -0.7184  0.2018
 4611SOL    HW225296   3.095   0.143   4.528  0.6090  0.1823  0.3774
 4612SOL     OW25297   1.061   1.761   6.753  0.5387  0.0669 -0.1681
 4612SOL    HW125298   1.009   1.714   6.687 -0.5566  0.0264  0.7308
 4612SOL    HW225299   1.136   1.800   6.708  1.8698  1.0167  2.9261
 4613SOL     OW25300   4.230   2.120   0.805  0.1825 -0.1609 -0.2002
 4613SOL    HW125301   4.294   2.091   0.870 -1.5784  0.3950  1.8141
 4613SOL    HW225302   4.162   2.069   0.849 -0.7832 -0.3148 -1.8836
 4614SOL     OW25303   1.347   2.749   5.606 -0.7145 -0.4272 -0.4622
 4614SOL    HW125304   1.267   2.781   5.647  1.3513 -1.6240  4.5419
 4614SOL    HW225305   1.350   2.657   5.633  1.8249 -0.6270 -1.3806
 4615SOL     OW25306   1.182   4.438  14.708 -0.8185 -0.1693  0.4460
 4615SOL    HW125307   1.134   4.463  14.787 -1.4182 -0.8169  0.2854
 4615SOL    HW225308   1.248   4.507  14.702  0.0815 -1.0709  0.0417
 4616SOL     OW25309   4.127   3.019   4.110 -0.4313  0.3425 -0.0618
 4616SOL    HW125310   4.110   3.052   4.198  1.6540  0.1116  0.4310
 4616SOL    HW225311   4.061   2.952   4.093  1.3573 -1.2152 -0.9192
 4617SOL     OW25312   0.220   2.861   3.126 -0.3924  0.3059  0.4026
 4617SOL    HW125313   0.308   2.841   3.157  0.4165  3.0380 -0.1634
 4617SOL    HW225314   0.240   2.931   3.064 -0.9565 -1.4354 -1.7419
 4618SOL     OW25315   0.329   2.111  16.529  0.2124 -0.0458  0.2424
 4618SOL    HW125316   0.316   2.018  16.515  0.1630  0.3550 -2.3706
 4618SOL    HW225317   0.247   2.143  16.491  1.3844  1.1950 -1.2241
 4619SOL     OW25318   3.353   1.357  11.406 -0.7955  0.2633  0.0365
 4619SOL    HW125319   3.258   1.366  11.399 -0.4571  3.3034 -0.3993
 4619SOL    HW225320   3.390   1.439  11.375 -0.4700  0.3200  0.5809
 4620SOL     OW25321   2.149   1.251  16.857  0.1287  0.0650  0.4112
 4620SOL    HW125322   2.059   1.239  16.889  0.9194 -0.0452  2.6314
 4620SOL    HW225323   2.158   1.344  16.836 -1.5148  0.4959  1.6019
 4621SOL     OW25324   4.542   0.529   1.242 -0.1487  0.1401  0.4568
 4621SOL    HW125325   4.571   0.502   1.155  1.1739 -0.5893  1.1244
 4621SOL    HW225326   4.626   0.536   1.288  0.0930 -0.8969  0.1791
 4622SOL     OW25327   0.782   0.915   4.960 -0.2975 -0.5180 -0.1267
 4622SOL    HW125328   0.827   0.904   4.876  0.2515  1.7390 -0.1124
 4622SOL    HW225329   0.843   0.868   5.018 -1.7897  0.1852  2.0217
 4623SOL     OW25330   3.727   4.017   3.200 -0.5926 -0.0199  0.4827
 4623SOL    HW125331   3.775   4.097   3.180  0.5108 -1.0806 -1.0651
 4623SOL    HW225332   3.671   4.045   3.273 -3.3877 -0.4263 -1.5175
 4624SOL     OW25333   4.441   1.103   4.949 -0.1875  0.4955  0.1613
 4624SOL    HW125334   4.484   1.189   4.947  3.3265 -1.2060  1.6514
 4624SOL    HW225335   4.486   1.063   4.874  0.5892  3.6160 -1.0551
 4625SOL     OW25336   1.987   2.697  11.146  0.1193 -0.4910 -0.4136
 4625SOL    HW125337   2.073   2.671  11.115 -0.2623  0.7428 -2.5272
 4625SOL    HW225338   1.936   2.634  11.095 -1.0785 -0.6744  1.0014
 4626SOL     OW25339   3.875   1.455   6.727 -0.0614 -0.0425 -0.0832
 4626SOL    HW125340   3.903   1.544   6.749  0.5149 -0.5543  1.2879
 4626SOL    HW225341   3.906   1.449   6.637  1.6084  1.1625  0.4135
 4627SOL     OW25342   0.115   1.174   5.745  0.7587  0.0174  0.1369
 4627SOL    HW125343   0.171   1.135   5.812  0.7158 -0.1199  0.0920
 4627SOL    HW225344   0.060   1.237   5.793  0.8053 -0.3452  0.6716
 4628SOL     OW25345   3.282   4.311   3.014  0.0934 -0.0958  0.4555
 4628SOL    HW125346   3.195   4.346   3.031  0.0087 -0.3864  0.6235
 4628SOL    HW225347   3.283   4.241   3.079 -0.8946  0.5199  1.1416
 4629SOL     OW25348   4.271   4.484   5.537 -0.0767  0.3070  0.1771
 4629SOL    HW125349   4.329   4.513   5.608 -1.8416  0.3543  1.6183
 4629SOL    HW225350   4.229   4.403   5.566  1.8171 -0.4329  0.8352
 4630SOL     OW25351   4.390   1.719   6.923 -0.3808  0.0131 -0.6972
 4630SOL    HW125352   4.336   1.704   7.000  2.3109  0.2258  1.2162
 4630SOL    HW225353   4.453   1.647   6.933  0.0427  0.1523 -2.3073
 4631SOL     OW25354   0.106   1.411   4.313 -0.2228 -0.2341  0.1821
 4631SOL    HW125355   0.187   1.456   4.289 -1.0022  0.7646 -0.5503
 4631SOL    HW225356   0.143   1.347   4.374 -0.5649 -0.6319 -0.0264
 4632SOL     OW25357   3.801   4.241  14.664 -0.4991 -0.2963  0.0762
 4632SOL    HW125358   3.811   4.315  14.723  0.3042 -0.6715  0.4111
 4632SOL    HW225359   3.827   4.280  14.581 -0.9325 -0.3750 -0.0976
 4633SOL     OW25360   0.176   2.216   2.196  0.7667  0.5313  0.1460
 4633SOL    HW125361   0.181   2.187   2.105  0.2735 -1.0818  0.6383
 4633SOL    HW225362   0.229   2.151   2.240  0.1046  0.9480  1.5566
 4634SOL     OW25363   4.175   4.100   4.551 -0.2992 -0.2924  0.1419
 4634SOL    HW125364   4.254   4.059   4.517 -0.1575  0.6621 -0.6993
 4634SOL    HW225365   4.202   4.119   4.641 -2.8337  0.8624  0.6645
 4635SOL     OW25366   0.287   4.470   8.853 -0.7038  0.2555  0.3232
 4635SOL    HW125367   0.341   4.509   8.922  0.8151  2.1106 -1.8944
 4635SOL    HW225368   0.351   4.446   8.786 -1.2422  1.9396 -0.8081
 4636SOL     OW25369   1.843   4.019   5.616 -0.2718 -0.2808  0.5579
 4636SOL    HW125370   1.751   4.042   5.613  0.1420  1.3043  0.0401
 4636SOL    HW225371   1.891   4.089   5.661  1.1571 -2.1602  1.9905
 4637SOL     OW25372   3.860   1.819   2.623  0.3675  0.2048  0.2554
 4637SOL    HW125373   3.768   1.847   2.615  0.0052 -0.1559  3.3010
 4637SOL    HW225374   3.841   1.729   2.651  0.4719 -0.3577 -1.4726
 4638SOL     OW25375   1.568   4.417   0.004 -0.7847 -0.2460  0.4538
 4638SOL    HW125376   1.502   4.364  17.661 -1.0117  0.6486 -0.2691
 4638SOL    HW225377   1.522   4.445   0.084  1.5990  2.3153  0.9472
 4639SOL     OW25378   3.161   2.081   3.237  0.5776 -0.2249  0.1583
 4639SOL    HW125379   3.092   2.084   3.171  3.5171  1.6895 -2.8815
 4639SOL    HW225380   3.169   2.171   3.269 -0.0556 -0.1713  0.1524
 4640SOL     OW25381   1.879   1.803  10.211  0.0186 -0.6432  0.0206
 4640SOL    HW125382   1.917   1.859  10.143  2.0238 -0.8710  0.9295
 4640SOL    HW225383   1.785   1.816  10.202 -0.2108 -1.5955  1.0299
 4641SOL     OW25384   4.371   2.418   5.946  0.1122  0.6997  0.0964
 4641SOL    HW125385   4.437   2.355   5.975 -0.0702 -0.0784 -1.1809
 4641SOL    HW225386   4.405   2.506   5.962 -0.4539  1.0563 -0.6864
 4642SOL     OW25387   3.766   2.102   5.178 -1.0510  0.1077  0.9339
 4642SOL    HW125388   3.681   2.078   5.141 -0.9947  0.4726  0.5588
 4642SOL    HW225389   3.797   2.020   5.214  1.0795  1.5827  2.4579
 4643SOL     OW25390   2.067   4.130  12.680 -0.1227 -0.1180 -0.3598
 4643SOL    HW125391   2.046   4.134  12.586 -2.1018  2.3652  0.1996
 4643SOL    HW225392   2.158   4.160  12.675 -0.0847 -0.1319  0.3286
 4644SOL     OW25393   2.590   3.361   3.679  0.2720 -0.2372  0.6522
 4644SOL    HW125394   2.638   3.370   3.597 -3.1733  0.9523 -1.2357
 4644SOL    HW225395   2.511   3.411   3.659 -1.4185 -3.8089 -1.5920
 4645SOL     OW25396   3.500   1.682   0.986 -0.6365 -0.5840  0.0438
 4645SOL    HW125397   3.448   1.681   0.906 -1.0475  0.3267  0.3004
 4645SOL    HW225398   3.555   1.604   0.985 -0.7426 -0.6842  1.4891
 4646SOL     OW25399   0.377   3.413   0.887 -0.6034 -0.0249  0.0676
 4646SOL    HW125400   0.452   3.374   0.841 -2.1730 -2.1669 -0.6788
 4646SOL    HW225401   0.418   3.443   0.968 -0.0852  1.4421 -0.7379
 4647SOL     OW25402   1.602   0.210   3.472 -0.0828  0.3707 -1.0678
 4647SOL    HW125403   1.664   0.282   3.486  0.4304 -0.0601 -1.1349
 4647SOL    HW225404   1.518   0.230   3.512  0.1363  0.3096 -0.5853
 4648SOL     OW25405   2.601   2.455   8.649 -0.5266  0.4080  0.0206
 4648SOL    HW125406   2.540   2.465   8.723 -2.0984  0.3326 -1.2641
 4648SOL    HW225407   2.615   2.361   8.641 -1.3133  0.2849  0.1211
 4649SOL     OW25408   4.549   1.543  16.455 -0.6912  0.1023 -0.9596
 4649SOL    HW125409   4.572   1.519  16.545  0.5190 -0.2275 -1.3638
 4649SOL    HW225410   4.604   1.619  16.437  1.1976 -0.9425  0.4629
 4650SOL     OW25411   4.338   1.222   9.712 -0.1242 -0.6081  0.5383
 4650SOL    HW125412   4.252   1.241   9.674 -0.1871  0.3709  1.1577
 4650SOL    HW225413   4.360   1.295   9.771 -2.0532  0.0945  0.3840
 4651SOL     OW25414   2.823   2.158   0.175  0.4155  0.4209 -0.3126
 4651SOL    HW125415   2.804   2.252   0.173  0.4028  0.4492  1.1526
 4651SOL    HW225416   2.752   2.130   0.232  2.9679 -0.9382  2.1564
 4652SOL     OW25417   4.606   4.281   2.660  0.1276  0.1343  0.1641
 4652SOL    HW125418   4.569   4.329   2.586  0.8627 -0.0628 -0.3382
 4652SOL    HW225419   4.660   4.219   2.611  0.1959 -0.2127  0.6738
 4653SOL     OW25420   2.829   3.280   9.675  0.7411  0.3594 -0.1827
 4653SOL    HW125421   2.761   3.222   9.640  1.6167 -0.1862 -0.9627
 4653SOL    HW225422   2.905   3.248   9.627  0.2071 -2.6704  1.0331
 4654SOL     OW25423   1.316   3.309   8.126  0.2940  0.3635  0.1116
 4654SOL    HW125424   1.253   3.374   8.096  0.3692 -0.5307 -2.0076
 4654SOL    HW225425   1.393   3.366   8.133 -0.5280  1.4772 -0.0306
 4655SOL     OW25426   0.541   3.556   5.502 -0.4382 -0.2314 -0.0685
 4655SOL    HW125427   0.580   3.594   5.423  0.3322 -1.5951 -0.3446
 4655SOL    HW225428   0.449   3.582   5.496 -0.2868  0.1713 -0.7541
 4656SOL     OW25429   2.138   0.633  17.346 -0.3495 -0.4761  0.4587
 4656SOL    HW125430   2.060   0.688  17.348  0.7057  1.0036  1.2427
 4656SOL    HW225431   2.202   0.695  17.312 -1.4642 -0.8259 -2.2489
 4657SOL     OW25432   1.036   0.793   4.014  0.2268 -0.0100  0.3585
 4657SOL    HW125433   1.004   0.705   3.994 -0.1165  0.2725 -0.3094
 4657SOL    HW225434   1.072   0.782   4.102  1.7398  2.6512  0.0587
 4658SOL     OW25435   2.962   2.526   1.517 -0.2493  0.7428 -0.0172
 4658SOL    HW125436   2.908   2.553   1.443 -0.5045  1.5390  0.4660
 4658SOL    HW225437   2.898   2.523   1.588 -0.6648 -1.2260 -0.4801
 4659SOL     OW25438   2.655   0.703  10.893  0.1560  0.1081  0.4141
 4659SOL    HW125439   2.612   0.771  10.841 -0.5898 -1.1525 -0.6043
 4659SOL    HW225440   2.601   0.629  10.865  0.2186 -0.2242  1.1702
 4660SOL     OW25441   1.366   1.989   3.974 -0.0399 -0.1161 -0.3410
 4660SOL    HW125442   1.461   1.992   3.959  0.0858 -0.8763  0.3377
 4660SOL    HW225443   1.350   1.896   3.991  0.3801 -0.4332 -1.6089
 4661SOL     OW25444   0.968   4.134   2.880 -0.1112  0.2994 -0.4822
 4661SOL    HW125445   0.958   4.094   2.794  1.6696  2.2181 -1.5681
 4661SOL    HW225446   0.931   4.222   2.874  0.4950  0.4591 -1.7068
 4662SOL     OW25447   3.708   4.087   9.302  0.1233  0.5991  0.0612
 4662SOL    HW125448   3.624   4.078   9.257  0.5089 -1.1932 -0.3149
 4662SOL    HW225449   3.686   4.061   9.391  0.7817 -0.9090 -0.2089
 4663SOL     OW25450   4.143   3.385   4.317 -0.0474  0.0787 -0.5312
 4663SOL    HW125451   4.086   3.419   4.386  0.7662  1.1797 -0.3861
 4663SOL    HW225452   4.138   3.455   4.252 -0.7310  1.3029  0.8361
 4664SOL     OW25453   0.918   2.661  14.562  0.2552 -0.6598 -0.3438
 4664SOL    HW125454   0.968   2.741  14.548 -1.6830  0.3483 -1.4773
 4664SOL    HW225455   0.963   2.594  14.510  2.0882  1.2096 -1.1259
 4665SOL     OW25456   4.612   4.244   6.600 -0.5922  0.4276  0.1567
 4665SOL    HW125457   4.580   4.319   6.651 -0.1318  0.7861 -0.0876
 4665SOL    HW225458   4.629   4.290   6.518 -0.0661 -1.4361 -0.7700
 4666SOL     OW25459   4.707   3.895   8.958 -0.7767 -0.0137  0.1233
 4666SOL    HW125460   0.039   3.836   9.007 -1.4962 -2.4193 -1.9518
 4666SOL    HW225461   4.649   3.833   8.915  0.2435 -1.0388  0.2356
 4667SOL     OW25462   0.451   1.339  11.485  0.1224  0.3907 -0.4501
 4667SOL    HW125463   0.376   1.394  11.506 -1.6124 -2.1333 -0.0984
 4667SOL    HW225464   0.428   1.257  11.528 -0.2114  0.5841 -0.2552
 4668SOL     OW25465   3.241   3.154  16.024 -0.0199  0.5819  0.1208
 4668SOL    HW125466   3.148   3.131  16.037 -0.5486  2.5248 -0.1968
 4668SOL    HW225467   3.249   3.120  15.935  0.7810 -0.0476  0.4366
 4669SOL     OW25468   2.804   4.477   4.783  0.4702 -0.3837  0.4164
 4669SOL    HW125469   2.787   4.505   4.693  1.5071  2.5944  1.1605
 4669SOL    HW225470   2.787   4.383   4.779 -0.3309 -0.2324  0.2371
 4670SOL     OW25471   0.618   3.341   4.312  0.0794 -0.0507 -0.0988
 4670SOL    HW125472   0.587   3.257   4.346 -0.1907 -0.4098 -1.2209
 4670SOL    HW225473   0.560   3.407   4.349  0.0248  0.3714 -0.9307
 4671SOL     OW25474   0.623   2.006   4.952 -0.6690 -0.0898 -0.1823
 4671SOL    HW125475   0.553   2.041   4.897 -0.5694 -0.0443 -0.2791
 4671SOL    HW225476   0.688   2.068   4.920  0.0315 -0.6828  0.0976
 4672SOL     OW25477   0.783   4.634  12.912 -0.1935  0.0426 -0.2318
 4672SOL    HW125478   0.692   4.605  12.906 -0.4254  0.7163  0.0028
 4672SOL    HW225479   0.827   4.572  12.970 -0.8659 -0.3583 -0.1571
 4673SOL     OW25480   3.749   4.396   0.165 -0.1502 -1.1891 -0.2551
 4673SOL    HW125481   3.835   4.416   0.128  0.9492 -0.5386  2.7086
 4673SOL    HW225482   3.756   4.449   0.245 -2.5870  0.6349 -1.2454
 4674SOL     OW25483   2.046   4.005   8.178 -0.4333  0.5439 -0.2675
 4674SOL    HW125484   2.011   4.034   8.263  2.1578  3.6913 -0.3299
 4674SOL    HW225485   1.966   3.954   8.159  0.2068 -0.0399 -1.3847
 4675SOL     OW25486   1.778   0.438   8.245  0.5263 -0.2470 -0.2382
 4675SOL    HW125487   1.846   0.493   8.284  0.6738  0.7773 -1.9542
 4675SOL    HW225488   1.773   0.376   8.318 -0.0405 -0.4028 -0.4068
 4676SOL     OW25489   0.983   4.151   1.593 -0.6687  0.2561 -0.3099
 4676SOL    HW125490   1.015   4.107   1.514 -0.7966 -1.6144  0.6623
 4676SOL    HW225491   0.888   4.145   1.601 -0.5310 -0.1275  1.1676
 4677SOL     OW25492   1.651   1.417   4.219 -0.2487  0.0592  0.0271
 4677SOL    HW125493   1.608   1.447   4.300 -1.9537 -4.9372  0.9192
 4677SOL    HW225494   1.734   1.465   4.221  1.5458 -3.0092 -0.8088
 4678SOL     OW25495   2.528   3.455  12.323 -0.1980  0.4339  0.2155
 4678SOL    HW125496   2.623   3.449  12.334  0.2272  1.3526 -3.0556
 4678SOL    HW225497   2.488   3.449  12.410  0.8354 -0.2856  0.6480
 4679SOL     OW25498   3.703   1.005   9.141 -0.5641 -0.1494  0.2854
 4679SOL    HW125499   3.609   1.008   9.159 -0.5412  1.0565  0.2153
 4679SOL    HW225500   3.735   1.017   9.231  0.1890 -1.7036  0.2121
 4680SOL     OW25501   1.431   3.198   4.441 -0.5358  0.1812  0.3822
 4680SOL    HW125502   1.446   3.104   4.446  0.3381  0.3424  0.8512
 4680SOL    HW225503   1.343   3.191   4.403 -0.8931  0.0384  1.2276
 4681SOL     OW25504   1.546   0.997   2.187  0.1398 -0.2010  0.0770
 4681SOL    HW125505   1.513   0.918   2.230 -0.2207  0.7566  1.5636
 4681SOL    HW225506   1.562   0.960   2.100 -0.9421 -2.6154  0.9050
 4682SOL     OW25507   1.328   0.552   5.380  0.2454 -0.0180  0.2319
 4682SOL    HW125508   1.256   0.515   5.430 -0.2032  0.3039 -0.1799
 4682SOL    HW225509   1.336   0.497   5.302 -0.4908  0.6399 -0.3043
 4683SOL     OW25510   2.158   0.085   3.450  0.2398 -0.8369  0.0712
 4683SOL    HW125511   2.206   0.094   3.368 -0.2724 -0.6528 -0.2060
 4683SOL    HW225512   2.069   0.086   3.415  0.4641  0.0326 -0.4792
 4684SOL     OW25513   4.590   3.810   7.019  0.2395  0.5043 -0.5354
 4684SOL    HW125514   4.618   3.895   7.053  2.5511 -1.4871  2.5220
 4684SOL    HW225515   4.633   3.796   6.935  0.6816 -2.3219  0.1715
 4685SOL     OW25516   1.231   2.123   5.408  0.1192  0.3525  0.4488
 4685SOL    HW125517   1.222   2.174   5.328 -0.8259  0.5277  0.6752
 4685SOL    HW225518   1.293   2.174   5.460 -0.1483  1.6184 -0.4794
 4686SOL     OW25519   2.556   4.534  11.503 -0.6200 -0.1699 -0.4982
 4686SOL    HW125520   2.614   4.604  11.531 -0.4979  0.2501 -1.7803
 4686SOL    HW225521   2.555   4.491  11.589 -1.4169  3.1861  1.1670
 4687SOL     OW25522   0.313   4.568   0.953  0.3500 -0.8397 -0.6068
 4687SOL    HW125523   0.356   4.607   1.029 -1.0017 -0.2294 -0.1608
 4687SOL    HW225524   0.388   4.559   0.894  0.8720 -1.1386  0.0953
 4688SOL     OW25525   2.346   4.123   8.902 -0.5452 -0.0693  0.2883
 4688SOL    HW125526   2.358   4.071   8.981  1.8410  0.8903  0.5677
 4688SOL    HW225527   2.269   4.097   8.853  0.7880  1.1879 -2.5132
 4689SOL     OW25528   3.638   1.361   2.446 -0.1459 -0.3956 -0.0180
 4689SOL    HW125529   3.665   1.269   2.444 -1.6465 -0.8544  0.6033
 4689SOL    HW225530   3.696   1.403   2.383  1.1255 -2.9790 -0.5679
 4690SOL     OW25531   1.076   3.637  13.903 -0.4488  0.3782  0.0139
 4690SOL    HW125532   1.001   3.590  13.940  1.3952 -1.9522  0.7919
 4690SOL    HW225533   1.124   3.571  13.854  1.4507  2.7250 -1.2695
 4691SOL     OW25534   3.618   2.861   4.779  0.4417 -0.7123 -0.3429
 4691SOL    HW125535   3.681   2.847   4.708  0.5446 -1.2448 -0.1502
 4691SOL    HW225536   3.677   2.880   4.853 -0.5364 -2.3546  0.8532
 4692SOL     OW25537   3.853   2.019  17.172 -0.0340 -0.3704  0.2344
 4692SOL    HW125538   3.807   2.004  17.090 -0.7460  0.4799  0.4660
 4692SOL    HW225539   3.806   1.946  17.213 -0.1475 -0.2874  0.2537
 4693SOL     OW25540   1.890   2.931   4.158  0.6624 -0.2651 -0.2373
 4693SOL    HW125541   1.983   2.929   4.181  0.3001 -0.7149  1.1725
 4693SOL    HW225542   1.864   3.012   4.203  2.1264  0.9013 -1.4580
 4694SOL     OW25543   1.668   2.285   8.241  0.5824 -0.6085  0.2599
 4694SOL    HW125544   1.695   2.357   8.298 -1.3062  0.1253  0.2207
 4694SOL    HW225545   1.747   2.286   8.186 -1.7164  1.6296 -3.0060
 4695SOL     OW25546   1.686   3.390  16.381  0.3338  0.2584 -0.4299
 4695SOL    HW125547   1.639   3.353  16.307  2.9817  0.0870 -2.0195
 4695SOL    HW225548   1.632   3.368  16.457 -0.8935  0.2952 -1.2936
 4696SOL     OW25549   4.622   2.704   2.985 -0.2393  0.1267 -0.1288
 4696SOL    HW125550   4.679   2.769   2.944 -2.4752  2.3237  0.1992
 4696SOL    HW225551   4.671   2.682   3.064  2.5482 -0.7441 -2.0910
 4697SOL     OW25552   4.047   3.201   3.277  0.3524 -0.1323 -0.1522
 4697SOL    HW125553   4.114   3.228   3.213  1.8493 -1.3729  0.8776
 4697SOL    HW225554   4.063   3.107   3.282  0.6540 -0.2458 -2.9677
 4698SOL     OW25555   2.534   2.458   3.853 -0.2032  0.1258  0.3798
 4698SOL    HW125556   2.623   2.430   3.827 -0.1425  0.5508  0.1292
 4698SOL    HW225557   2.483   2.377   3.855 -1.2549  0.7763 -0.2923
 4699SOL     OW25558   1.471   1.515   2.844  0.1799  0.5470  0.4351
 4699SOL    HW125559   1.478   1.575   2.769 -0.7488  1.1859  0.8656
 4699SOL    HW225560   1.548   1.541   2.895  1.5097  1.7614 -2.1516
 4700SOL     OW25561   2.944   2.872  12.602  0.2768 -0.3745  0.9523
 4700SOL    HW125562   2.978   2.958  12.626 -1.2331  0.3246  0.5937
 4700SOL    HW225563   2.906   2.836  12.682 -0.2484  0.1128  0.9185
 4701SOL     OW25564   3.549   3.509   6.657  0.2546 -0.3765  0.0707
 4701SOL    HW125565   3.596   3.514   6.574 -1.4013 -0.5354 -0.8716
 4701SOL    HW225566   3.465   3.546   6.630  1.6471  2.6118 -0.1114
 4702SOL     OW25567   4.626   2.601   3.983  0.1584  0.0907 -0.0620
 4702SOL    HW125568   4.619   2.526   3.923  2.1649  0.4243 -0.6990
 4702SOL    HW225569   4.590   2.672   3.930  0.1887 -0.4945 -0.8808
 4703SOL     OW25570   2.375   1.401  12.170 -0.7181 -0.1155  0.2911
 4703SOL    HW125571   2.288   1.379  12.203 -0.6339 -0.4028  0.3171
 4703SOL    HW225572   2.409   1.326  12.122  1.4154  1.6378 -0.9568
 4704SOL     OW25573   2.599   2.972  14.842  0.3156  0.3272 -0.3309
 4704SOL    HW125574   2.590   3.051  14.790  2.1040  0.7662  0.0044
 4704SOL    HW225575   2.511   2.942  14.863  0.2864  1.4046  1.0736
 4705SOL     OW25576   0.861   3.351   6.329 -0.0848 -0.2541  0.0018
 4705SOL    HW125577   0.893   3.285   6.268  1.0143 -1.9879  2.4306
 4705SOL    HW225578   0.926   3.418   6.309 -0.7957  0.1451 -0.9698
 4706SOL     OW25579   4.566   2.031   0.531  0.1861  0.6900  0.6108
 4706SOL    HW125580   4.604   1.999   0.449  0.7246 -2.0684  1.9387
 4706SOL    HW225581   4.541   2.117   0.497  0.1609 -0.2455 -1.7599
 4707SOL     OW25582   2.552   2.761   6.215  0.2132  0.0864  0.6652
 4707SOL    HW125583   2.594   2.761   6.129 -0.0829  2.7613  0.5362
 4707SOL    HW225584   2.629   2.766   6.271  0.9249  1.4524 -0.4365
 4708SOL     OW25585   4.250   1.184   2.829 -0.0632 -0.6931  0.6380
 4708SOL    HW125586   4.236   1.128   2.753  0.4609  0.8645 -0.6090
 4708SOL    HW225587   4.291   1.256   2.782 -2.0635 -1.7073 -2.6425
 4709SOL     OW25588   3.807   2.836   8.562  0.1802  0.1182  0.0255
 4709SOL    HW125589   3.815   2.906   8.497  3.0959  0.3293  0.5770
 4709SOL    HW225590   3.758   2.882   8.630 -1.2448 -0.1716 -0.8183
 4710SOL     OW25591   1.258   4.082   5.794 -0.1799 -0.3798  0.5148
 4710SOL    HW125592   1.184   4.088   5.853  0.9087 -0.7254  1.9031
 4710SOL    HW225593   1.333   4.083   5.853  1.1946  1.9724 -1.2758
 4711SOL     OW25594   0.913   0.355  14.184 -0.8813  0.1315  0.4602
 4711SOL    HW125595   0.935   0.438  14.226  0.2612 -0.5258  1.1439
 4711SOL    HW225596   0.983   0.297  14.213  0.1099  0.5403 -1.0800
 4712SOL     OW25597   4.265   1.000   2.631 -0.1746  0.2681 -0.0121
 4712SOL    HW125598   4.179   0.960   2.622 -1.0052  1.9766  0.2007
 4712SOL    HW225599   4.300   0.971   2.715  0.3457 -0.7534 -0.5833
 4713SOL     OW25600   3.589   2.634   7.019  0.1496 -0.0009  0.3922
 4713SOL    HW125601   3.649   2.649   7.091 -0.8307 -0.5893  1.3408
 4713SOL    HW225602   3.637   2.680   6.951 -2.8149  1.1631 -0.9386
 4714SOL     OW25603   1.612   0.212  12.532 -0.6507  0.1216 -0.2563
 4714SOL    HW125604   1.644   0.135  12.579 -0.4390 -0.3949 -1.2491
 4714SOL    HW225605   1.700   0.248  12.519 -1.1694  1.2475 -0.6937
 4715SOL     OW25606   2.656   2.737   8.349  0.6606  0.2585 -0.3392
 4715SOL    HW125607   2.726   2.801   8.332 -0.2090  1.4878  0.7102
 4715SOL    HW225608   2.696   2.691   8.423  1.4918  0.8556 -0.4150
 4716SOL     OW25609   2.826   4.131   8.732 -0.7760 -0.0530  0.5091
 4716SOL    HW125610   2.857   4.081   8.807  0.5547  0.0240  0.0087
 4716SOL    HW225611   2.738   4.097   8.712  0.0377 -1.5104 -0.6009
 4717SOL     OW25612   3.761   2.946   6.318  0.0484  0.3282  0.0986
 4717SOL    HW125613   3.743   2.864   6.273 -0.2595 -1.6444  3.8166
 4717SOL    HW225614   3.853   2.960   6.297  0.2071 -1.3204 -0.3111
 4718SOL     OW25615   0.015   3.364   4.381 -0.3020 -0.0517  0.4443
 4718SOL    HW125616   4.678   3.390   4.313  0.5765  0.7658 -0.0444
 4718SOL    HW225617   4.694   3.291   4.423 -0.3030 -0.7241 -0.7219
 4719SOL     OW25618   0.786   3.722   8.385  0.7726 -0.2453  0.2574
 4719SOL    HW125619   0.792   3.818   8.393 -1.5529 -0.2731  2.4896
 4719SOL    HW225620   0.711   3.706   8.442 -0.2277  0.2100 -0.9281
 4720SOL     OW25621   3.658   1.975   4.056 -0.3843  0.4099 -0.2865
 4720SOL    HW125622   3.673   1.883   4.035  0.8114  0.6801 -0.6201
 4720SOL    HW225623   3.569   1.975   4.091  0.6906  1.2449  2.4193
 4721SOL     OW25624   1.103   2.376   2.464 -0.3988 -0.2353  0.0645
 4721SOL    HW125625   1.189   2.408   2.490 -1.6175  0.3822  3.2370
 4721SOL    HW225626   1.108   2.355   2.370 -2.0813  0.0284 -0.0909
 4722SOL     OW25627   1.205   0.604   2.701 -0.3172 -0.5289  0.7041
 4722SOL    HW125628   1.288   0.570   2.668 -1.3595 -0.7954 -1.5964
 4722SOL    HW225629   1.170   0.534   2.757  1.6912 -2.3551 -0.3302
 4723SOL     OW25630   4.584   3.502   0.260  0.1102  0.0965 -0.3215
 4723SOL    HW125631   4.647   3.504   0.189  0.6890  0.3875  0.1980
 4723SOL    HW225632   4.580   3.408   0.280 -1.9827  0.4208  0.7975
 4724SOL     OW25633   2.681   2.328   8.353  0.1445  0.4222 -0.2395
 4724SOL    HW125634   2.626   2.406   8.343  0.8513  0.9855  0.2482
 4724SOL    HW225635   2.761   2.367   8.316  0.6053  1.1857  1.5405
 4725SOL     OW25636   2.204   0.452   3.177  0.1656 -0.1162 -0.9270
 4725SOL    HW125637   2.178   0.474   3.266  1.7478 -0.8025 -0.3010
 4725SOL    HW225638   2.194   0.535   3.131  2.0288  1.2664  1.2002
 4726SOL     OW25639   0.545   0.084   2.391 -0.0715  0.0040  0.2571
 4726SOL    HW125640   0.555   0.147   2.320 -1.8157 -0.0658 -0.0580
 4726SOL    HW225641   0.452   0.075   2.414 -0.1302 -1.1204 -0.4053
 4727SOL     OW25642   2.957   2.296   4.319 -0.4933  0.2565 -0.2546
 4727SOL    HW125643   3.030   2.269   4.263 -0.1498 -2.5248  1.5205
 4727SOL    HW225644   2.989   2.296   4.409 -0.7320 -0.3532 -0.1724
 4728SOL     OW25645   0.733   2.671   8.682 -0.1248  0.6830  0.0326
 4728SOL    HW125646   0.828   2.658   8.678 -0.4358 -1.1748 -0.8939
 4728SOL    HW225647   0.700   2.590   8.720 -1.7794  1.1291 -0.4624
 4729SOL     OW25648   3.240   3.617   4.469 -0.1567 -0.3085  0.0203
 4729SOL    HW125649   3.195   3.548   4.519 -0.9887  0.4053  0.2563
 4729SOL    HW225650   3.196   3.610   4.384  0.8431  0.6882 -0.5714
 4730SOL     OW25651   2.252   1.015  12.192  0.4394 -0.5208 -0.4412
 4730SOL    HW125652   2.308   1.009  12.115  1.4503  0.7421  0.1866
 4730SOL    HW225653   2.241   1.109  12.210 -0.1718 -0.8942  1.1878
 4731SOL     OW25654   0.435   3.637   9.956 -0.0286 -0.2434  0.0379
 4731SOL    HW125655   0.422   3.657   9.863 -1.4491  0.7390  0.4527
 4731SOL    HW225656   0.356   3.589   9.978 -0.9468  1.1131 -0.3297
 4732SOL     OW25657   1.573   2.350   2.038 -0.4369 -0.3956  0.3288
 4732SOL    HW125658   1.520   2.330   1.960 -1.0481  0.4337  0.5370
 4732SOL    HW225659   1.641   2.282   2.037 -1.6013 -1.6096  2.2774
 4733SOL     OW25660   0.506   0.066   1.968 -0.3888 -0.3016 -0.0641
 4733SOL    HW125661   0.563   0.093   2.040 -0.8976  1.0416 -0.1603
 4733SOL    HW225662   0.420   0.106   1.981  1.6949  4.1248  0.0746
 4734SOL     OW25663   2.348   4.394   6.033  0.3909 -0.2665 -0.1103
 4734SOL    HW125664   2.384   4.306   6.037 -1.4028 -0.9472  1.2227
 4734SOL    HW225665   2.281   4.390   6.101  0.8241 -1.2547  0.2480
 4735SOL     OW25666   2.925   0.121   4.131 -0.2194 -0.6807  0.2556
 4735SOL    HW125667   2.889   0.150   4.047 -0.1853 -0.9818  0.1350
 4735SOL    HW225668   2.879   0.038   4.148  0.6463 -1.0385  0.8268
 4736SOL     OW25669   4.147   3.337   4.888 -0.5191  0.6680 -0.6945
 4736SOL    HW125670   4.056   3.341   4.858 -0.7497  0.9254  0.0200
 4736SOL    HW225671   4.157   3.251   4.930  0.1872  1.4697  0.7640
 4737SOL     OW25672   2.102   3.378   4.729  0.2970 -0.6757 -0.2905
 4737SOL    HW125673   2.011   3.347   4.739 -0.2676  1.8102  2.2080
 4737SOL    HW225674   2.139   3.290   4.717  0.1602 -1.0664  2.1203
 4738SOL     OW25675   4.484   2.655   4.434 -0.5474 -0.7026  0.2776
 4738SOL    HW125676   4.519   2.579   4.388  1.1120  1.1907 -1.6019
 4738SOL    HW225677   4.556   2.663   4.496  0.9523  1.6933 -1.7484
 4739SOL     OW25678   1.408   0.443   2.268  0.1605 -0.7255 -0.7354
 4739SOL    HW125679   1.319   0.453   2.233  1.3184 -0.9611 -3.8093
 4739SOL    HW225680   1.441   0.387   2.197 -0.8522 -2.8721  0.5061
 4740SOL     OW25681   1.438   1.337   4.074 -0.1444 -0.4109  0.2477
 4740SOL    HW125682   1.382   1.404   4.114  0.3358 -0.3024  0.7441
 4740SOL    HW225683   1.517   1.353   4.125  0.2840 -2.2632  0.1716
 4741SOL     OW25684   2.824   3.598   4.683  0.5279 -0.3537  0.4528
 4741SOL    HW125685   2.794   3.671   4.628  1.5051 -0.0838  0.2727
 4741SOL    HW225686   2.785   3.623   4.766 -2.2640 -0.6933 -0.7650
 4742SOL     OW25687   1.919   4.290   6.031  0.9390 -0.4447 -0.6094
 4742SOL    HW125688   1.862   4.266   6.105  0.3291  0.6409 -0.7274
 4742SOL    HW225689   1.986   4.337   6.081 -1.4421 -0.1466  2.3643
 4743SOL     OW25690   0.981   3.830   6.570  1.0395  0.1548  0.2617
 4743SOL    HW125691   0.964   3.845   6.663 -0.1833 -0.9748  0.2097
 4743SOL    HW225692   0.996   3.923   6.548 -2.5088  0.4162 -0.9609
 4744SOL     OW25693   3.727   0.292  17.064 -0.1040 -0.1056  0.2629
 4744SOL    HW125694   3.800   0.244  17.026 -0.8483 -0.2370 -0.9912
 4744SOL    HW225695   3.690   0.236  17.132  0.0014 -0.0851  0.3373
 4745SOL     OW25696   0.060   3.786   2.860 -0.2564  0.3598  0.1022
 4745SOL    HW125697   0.005   3.713   2.888 -1.0947  0.5778 -1.0025
 4745SOL    HW225698   0.002   3.863   2.853 -0.3928  0.3687  1.2947
 4746SOL     OW25699   0.767   4.148   4.541  0.2911  0.6490 -0.3434
 4746SOL    HW125700   0.678   4.165   4.574  0.3873 -0.9879  0.7830
 4746SOL    HW225701   0.809   4.088   4.603  0.4916  1.8317  0.6787
 4747SOL     OW25702   2.176   2.657   6.631 -0.0151  0.0678  0.0982
 4747SOL    HW125703   2.269   2.678   6.637 -0.0911  0.2230  0.6536
 4747SOL    HW225704   2.175   2.576   6.579 -0.2383 -0.5493  1.0567
 4748SOL     OW25705   1.985   0.320  14.070 -0.0207  0.4209 -0.1981
 4748SOL    HW125706   1.909   0.361  14.111  0.3383  0.9399 -0.0476
 4748SOL    HW225707   1.959   0.229  14.087 -1.5216  1.3912  2.6903
 4749SOL     OW25708   0.072   0.632   4.363  0.0187 -0.0209  0.4339
 4749SOL    HW125709   0.058   0.664   4.452 -1.3752 -1.0186  0.5835
 4749SOL    HW225710   0.160   0.667   4.353  1.1130 -3.1043 -0.6974
 4750SOL     OW25711   0.877   2.498   8.437 -0.1920  0.3185 -0.0794
 4750SOL    HW125712   0.834   2.461   8.514  0.2393  1.4841  0.7172
 4750SOL    HW225713   0.963   2.457   8.442 -0.6076 -0.1864  2.9709
 4751SOL     OW25714   3.930   2.470   4.183  0.5607 -0.1980  0.5724
 4751SOL    HW125715   3.891   2.388   4.152 -1.5335  0.6831  0.8715
 4751SOL    HW225716   3.864   2.536   4.162  1.9723  1.1315  0.3384
 4752SOL     OW25717   3.098   2.839  12.829 -0.1443 -0.5922  0.2253
 4752SOL    HW125718   3.184   2.870  12.799 -0.8123  1.5681  0.5654
 4752SOL    HW225719   3.049   2.921  12.823 -0.3001 -0.8827 -2.4856
 4753SOL     OW25720   3.479   1.100   6.337 -0.5137 -0.1558  0.3852
 4753SOL    HW125721   3.408   1.047   6.374 -0.0693 -0.2848  1.0587
 4753SOL    HW225722   3.506   1.160   6.406  1.7932 -1.7401  0.8465
 4754SOL     OW25723   4.481   2.276  16.626 -0.0226 -0.0564 -0.3434
 4754SOL    HW125724   4.471   2.360  16.580  1.3369  0.9061  1.1057
 4754SOL    HW225725   4.505   2.219  16.554  0.0940 -0.4910  0.0407
 4755SOL     OW25726   2.885   1.419   5.473  0.3184 -0.5476  0.7307
 4755SOL    HW125727   2.964   1.467   5.500  0.3565 -0.1748 -0.0209
 4755SOL    HW225728   2.829   1.496   5.482  0.2710 -0.5538  0.4845
 4756SOL     OW25729   1.897   4.549   6.161  0.1449  0.6608  0.6478
 4756SOL    HW125730   1.923   4.631   6.119 -0.7278  0.0498 -1.0712
 4756SOL    HW225731   1.802   4.556   6.152  0.3720  0.8875 -1.4493
 4757SOL     OW25732   3.824   1.265  10.773 -0.4007  0.0308 -0.1683
 4757SOL    HW125733   3.763   1.296  10.840  0.8164  1.2892  0.3686
 4757SOL    HW225734   3.891   1.330  10.793 -0.1376 -0.3413  0.1574
 4758SOL     OW25735   2.932   3.847  14.893  0.4127  0.0440  0.2565
 4758SOL    HW125736   3.001   3.913  14.880  0.4476 -0.1783 -0.6210
 4758SOL    HW225737   2.956   3.782  14.828  0.9201 -0.5298  1.0256
 4759SOL     OW25738   4.104   0.164   3.272 -0.1932  0.0970  0.8794
 4759SOL    HW125739   4.032   0.105   3.294 -0.2044 -0.4168 -0.5863
 4759SOL    HW225740   4.177   0.103   3.276 -0.8875 -0.6605  2.0508
 4760SOL     OW25741   1.965   4.039   7.752 -0.0215 -0.0977 -0.0707
 4760SOL    HW125742   1.953   4.133   7.771  0.8652 -0.2803  1.4138
 4760SOL    HW225743   2.056   4.033   7.782  0.2630 -2.7316 -1.5162
 4761SOL     OW25744   0.212   3.260   3.779  0.1326  0.2911  0.2432
 4761SOL    HW125745   0.279   3.194   3.795 -1.0900 -1.1855 -0.5788
 4761SOL    HW225746   0.135   3.208   3.803  0.3736 -0.5577 -0.8124
 4762SOL     OW25747   3.244   0.216   8.012 -0.4569 -0.1016 -0.1659
 4762SOL    HW125748   3.257   0.308   8.035 -1.1674 -0.1097  0.2835
 4762SOL    HW225749   3.231   0.228   7.918  0.4464  1.2277 -0.1224
 4763SOL     OW25750   3.082   0.659   5.195  0.1166 -0.1807  0.0357
 4763SOL    HW125751   3.087   0.599   5.120  1.3453 -0.0688  0.0277
 4763SOL    HW225752   3.026   0.728   5.161  0.1008 -0.0373  0.3575
 4764SOL     OW25753   0.318   4.710   4.239  0.8842 -0.3369 -0.1461
 4764SOL    HW125754   0.230   0.014   4.264  0.4131 -1.2290 -0.7717
 4764SOL    HW225755   0.366   0.067   4.252 -1.8258  0.8155  2.7235
 4765SOL     OW25756   3.141   3.995   9.820 -0.2665 -0.3817 -0.5118
 4765SOL    HW125757   3.121   3.919   9.874  1.0263  0.0459  0.5768
 4765SOL    HW225758   3.079   4.060   9.854  1.2767  1.2747 -0.8464
 4766SOL     OW25759   1.053   2.813   9.252  0.4772  0.2659 -0.4068
 4766SOL    HW125760   1.066   2.756   9.328 -0.7556  2.2402  1.3195
 4766SOL    HW225761   0.998   2.881   9.291  0.1140 -1.5010  2.1660
 4767SOL     OW25762   2.619   0.399   7.696 -0.6680  0.0233 -0.3466
 4767SOL    HW125763   2.624   0.490   7.726 -0.0871 -0.1035 -0.0626
 4767SOL    HW225764   2.706   0.382   7.662 -0.8214 -0.1291 -0.6681
 4768SOL     OW25765   3.658   0.282   0.296  0.4353 -0.3400  0.4752
 4768SOL    HW125766   3.722   0.309   0.231  2.8181  2.2231  3.9282
 4768SOL    HW225767   3.648   0.354   0.358 -1.5802  1.0003 -1.4241
 4769SOL     OW25768   4.011   4.052   8.877 -0.2051  0.3601  0.0191
 4769SOL    HW125769   4.082   4.088   8.931 -1.0410  2.2454 -0.1243
 4769SOL    HW225770   3.938   4.064   8.938  0.4399  1.5653  0.5779
 4770SOL     OW25771   4.609   3.324  12.865  0.0749  0.4084 -0.0120
 4770SOL    HW125772   4.640   3.393  12.806  0.8032  1.1181  1.2219
 4770SOL    HW225773   4.656   3.249  12.830  1.0275  1.3388 -0.7496
 4771SOL     OW25774   3.199   3.259   0.512  0.1529  0.1528  0.7971
 4771SOL    HW125775   3.261   3.187   0.516 -0.9135 -0.7726  0.5211
 4771SOL    HW225776   3.207   3.290   0.422 -0.3529  2.5984  1.5838
 4772SOL     OW25777   2.267   2.325   8.591  0.0940  0.2942 -0.0255
 4772SOL    HW125778   2.318   2.260   8.542 -1.1978  0.2789 -1.3618
 4772SOL    HW225779   2.187   2.277   8.613  0.7343 -0.4240  0.6943
 4773SOL     OW25780   1.831   4.644   8.738 -0.3606 -0.6109 -0.1939
 4773SOL    HW125781   1.877   4.722   8.768  1.2668 -1.3482 -0.7896
 4773SOL    HW225782   1.740   4.671   8.753  0.2587  0.4697  1.5492
 4774SOL     OW25783   2.953   1.144  13.357 -0.2631 -0.1358  0.4935
 4774SOL    HW125784   2.874   1.102  13.390  0.7868 -2.9266 -0.5100
 4774SOL    HW225785   3.025   1.128  13.418 -3.1563 -3.2867  3.0890
 4775SOL     OW25786   3.436   0.463  10.506 -0.8734 -0.4035 -0.0739
 4775SOL    HW125787   3.394   0.449  10.591 -1.2220  3.5548  0.4322
 4775SOL    HW225788   3.523   0.425  10.516  0.2227  1.2746 -3.3814
 4776SOL     OW25789   3.172   2.245   4.150 -0.0582  0.0670  0.4925
 4776SOL    HW125790   3.168   2.341   4.151 -4.1507 -0.1761  3.3239
 4776SOL    HW225791   3.153   2.231   4.057  0.9099  0.4581  0.2276
 4777SOL     OW25792   0.622   3.571   4.676  0.2223 -0.5907 -0.1089
 4777SOL    HW125793   0.596   3.495   4.728 -2.4751 -2.0151 -3.5092
 4777SOL    HW225794   0.560   3.569   4.603 -0.1271 -1.4466  0.2106
 4778SOL     OW25795   1.392   4.332   8.737  0.3296 -0.1327 -0.6691
 4778SOL    HW125796   1.464   4.386   8.768  0.0428 -0.6345  0.8837
 4778SOL    HW225797   1.368   4.291   8.819  2.5362  1.2258  0.6498
 4779SOL     OW25798   0.534   2.371   4.752 -0.4272 -0.3202  0.8130
 4779SOL    HW125799   0.455   2.327   4.719 -0.8031 -0.7420  2.2819
 4779SOL    HW225800   0.576   2.381   4.667 -1.8633 -0.0948  0.1237
 4780SOL     OW25801   4.388   0.898  15.656 -0.0491 -0.6467  0.2356
 4780SOL    HW125802   4.355   0.980  15.691  1.1044  0.6579 -1.7008
 4780SOL    HW225803   4.329   0.891  15.580 -0.1553  0.3993  0.2241
 4781SOL     OW25804   2.632   0.326   8.560  0.3951  0.5617  0.5136
 4781SOL    HW125805   2.727   0.321   8.555  0.3118 -2.1520  1.6327
 4781SOL    HW225806   2.604   0.235   8.546  0.6060  0.2378  2.1994
 4782SOL     OW25807   4.548   3.868   9.593  0.0154  0.0488 -0.1840
 4782SOL    HW125808   4.635   3.903   9.572  0.1325  1.4970  2.7982
 4782SOL    HW225809   4.558   3.801   9.660 -1.1810  0.2293  0.1733
 4783SOL     OW25810   0.458   1.786   3.035  0.2984  0.1528  0.6950
 4783SOL    HW125811   0.389   1.801   2.970 -1.0008 -0.1519  1.9857
 4783SOL    HW225812   0.461   1.692   3.017 -0.9832 -0.0490  1.4641
 4784SOL     OW25813   3.108   2.273   0.163  0.1504  0.4409 -0.4589
 4784SOL    HW125814   3.015   2.256   0.177  0.1771  1.4540  0.9640
 4784SOL    HW225815   3.124   2.326   0.241  1.4755 -0.0958 -0.3631
 4785SOL     OW25816   3.781   2.176   4.694  0.0634  0.1660 -0.2067
 4785SOL    HW125817   3.711   2.111   4.694  0.2394 -0.0160  3.7713
 4785SOL    HW225818   3.763   2.219   4.777 -0.4897  0.9354 -0.7230
 4786SOL     OW25819   1.613   3.198   5.319 -0.0739 -0.6357  0.0250
 4786SOL    HW125820   1.526   3.161   5.305  0.0552 -0.3878 -1.4424
 4786SOL    HW225821   1.632   3.122   5.373 -1.5191  0.2591  1.7744
 4787SOL     OW25822   1.448   1.902   8.604  0.3539  0.3475 -0.3239
 4787SOL    HW125823   1.527   1.889   8.553  0.7146 -0.8066  0.5246
 4787SOL    HW225824   1.390   1.839   8.561  0.9005 -0.6908  0.4423
 4788SOL     OW25825   1.387   2.515   4.832 -0.1917  0.2527 -0.1113
 4788SOL    HW125826   1.444   2.590   4.845 -2.5176  2.1952 -1.1242
 4788SOL    HW225827   1.349   2.513   4.919 -1.5355  0.5876 -0.6853
 4789SOL     OW25828   1.112   2.162  11.030 -0.4940 -0.1260 -0.0882
 4789SOL    HW125829   1.092   2.183  11.121  0.9491 -3.1741  0.9066
 4789SOL    HW225830   1.208   2.166  11.031 -0.4231 -1.8736 -0.8761
 4790SOL     OW25831   0.602   3.636   8.595  0.5124 -0.2479 -0.4367
 4790SOL    HW125832   0.586   3.542   8.596  2.2773 -0.5381 -0.2990
 4790SOL    HW225833   0.629   3.650   8.686  0.8817  1.8176 -0.8555
 4791SOL     OW25834   2.260   2.873  15.308  0.5964  0.2392 -0.1368
 4791SOL    HW125835   2.196   2.908  15.245 -0.8567 -0.9458  0.6599
 4791SOL    HW225836   2.253   2.942  15.373  2.4981  0.1455  0.1457
 4792SOL     OW25837   1.583   1.942   8.864 -0.0287 -0.2700 -0.2935
 4792SOL    HW125838   1.679   1.948   8.869  0.1524 -2.7014 -0.8056
 4792SOL    HW225839   1.564   1.942   8.770 -2.6558  0.0593  0.2571
 4793SOL     OW25840   0.491   1.203  14.133  1.1195  0.1850  0.1089
 4793SOL    HW125841   0.453   1.196  14.221  0.0157  0.7142 -0.3161
 4793SOL    HW225842   0.461   1.122  14.092 -0.0911  0.9301 -0.4664
 4794SOL     OW25843   0.820   3.004   5.031  0.1874  0.2637  0.4655
 4794SOL    HW125844   0.832   3.098   5.044 -0.9761  0.4363  0.2757
 4794SOL    HW225845   0.754   2.997   4.963  1.4223 -1.9350 -0.5234
 4795SOL     OW25846   3.789   4.519  17.507  0.6365 -0.0644 -0.3356
 4795SOL    HW125847   3.820   4.433  17.478  0.0841 -0.1886 -0.5642
 4795SOL    HW225848   3.694   4.508  17.507  0.6104  0.2357  1.9002
 4796SOL     OW25849   3.316   2.856   5.378 -0.6343  0.1610 -0.1674
 4796SOL    HW125850   3.356   2.834   5.294 -1.3260  0.2144 -0.5114
 4796SOL    HW225851   3.246   2.913   5.345 -0.0767  2.0859  1.9813
 4797SOL     OW25852   0.902   2.066   4.820  0.3680  0.1923  0.2113
 4797SOL    HW125853   0.962   2.001   4.784 -1.1521 -0.7448 -0.6201
 4797SOL    HW225854   0.919   2.122   4.744 -1.0310  0.9974  0.4975
 4798SOL     OW25855   2.584   3.628  10.216  0.0257  0.2441  0.4612
 4798SOL    HW125856   2.644   3.556  10.237  1.6421  1.4072 -0.1381
 4798SOL    HW225857   2.556   3.646  10.305 -1.2225 -2.7848  0.6574
 4799SOL     OW25858   0.894   3.050   2.428  0.0724  0.6785 -0.5294
 4799SOL    HW125859   0.922   2.968   2.388  0.8853  0.8674 -0.3419
 4799SOL    HW225860   0.804   3.028   2.452  0.2257 -0.5443 -1.0672
 4800SOL     OW25861   0.237   1.214  16.473 -0.2999 -0.5780 -0.0885
 4800SOL    HW125862   0.255   1.162  16.395  0.2497  2.0478 -1.7154
 4800SOL    HW225863   0.248   1.161  16.552 -0.0920 -2.1997 -1.2158
 4801SOL     OW25864   0.823   4.175   8.858 -0.5689  0.6170  0.5759
 4801SOL    HW125865   0.751   4.121   8.827 -1.1620  2.2558 -0.8448
 4801SOL    HW225866   0.817   4.160   8.953  4.4208 -2.5399  0.3862
 4802SOL     OW25867   4.119   0.262   8.567  0.3148 -0.3581 -0.3741
 4802SOL    HW125868   4.037   0.263   8.518  0.1379 -1.4947 -0.1103
 4802SOL    HW225869   4.137   0.168   8.562  0.6708 -0.2330 -1.3731
 4803SOL     OW25870   0.859   3.077  12.718  0.1063  0.2180 -0.4901
 4803SOL    HW125871   0.825   3.050  12.633 -0.4086  2.9927 -1.1465
 4803SOL    HW225872   0.950   3.072  12.687  0.6214 -0.1395  1.0588
 4804SOL     OW25873   2.319   3.289  11.448  0.1395 -0.0326 -0.1495
 4804SOL    HW125874   2.268   3.288  11.367 -3.8210 -0.4324  2.3348
 4804SOL    HW225875   2.360   3.376  11.449 -2.0212  0.9718  3.2867
 4805SOL     OW25876   0.035   3.988  11.553  0.4347 -0.8228  0.0284
 4805SOL    HW125877   0.121   3.945  11.553  1.4502  1.2136  2.4538
 4805SOL    HW225878   0.043   4.042  11.475  2.1786  0.4992  1.1264
 4806SOL     OW25879   1.565   3.621  17.149  0.1267  0.6266 -0.1135
 4806SOL    HW125880   1.571   3.663  17.063 -0.4529 -1.3878 -1.1353
 4806SOL    HW225881   1.586   3.699  17.201 -0.4883  2.3572 -2.4803
 4807SOL     OW25882   4.444   2.082   9.514 -0.2242 -0.8653  0.1974
 4807SOL    HW125883   4.493   2.093   9.432  1.3446 -2.9240  0.8642
 4807SOL    HW225884   4.377   2.150   9.503  1.3811  1.0264  2.3232
 4808SOL     OW25885   3.255   4.166   9.547 -0.2502  0.5521 -0.0418
 4808SOL    HW125886   3.220   4.243   9.592  1.2184  0.8388  0.6240
 4808SOL    HW225887   3.227   4.179   9.457  0.1033  0.0575 -0.2247
 4809SOL     OW25888   2.297   1.591  12.799  0.8343 -0.0071  0.2023
 4809SOL    HW125889   2.219   1.646  12.792  0.5726 -0.3739  0.2172
 4809SOL    HW225890   2.305   1.573  12.705 -1.5631 -2.1361  0.4239
 4810SOL     OW25891   3.919   1.971   5.781  1.0922 -0.2295 -0.0558
 4810SOL    HW125892   3.911   1.894   5.724 -0.5175 -0.2272  0.1763
 4810SOL    HW225893   3.947   1.946   5.869  1.5580  1.2793  0.2150
 4811SOL     OW25894   4.202   0.527  16.746 -0.0849 -0.0322  0.5921
 4811SOL    HW125895   4.153   0.548  16.825 -0.0389 -0.1930  0.6651
 4811SOL    HW225896   4.289   0.537  16.786 -0.4125 -2.5498  1.9788
 4812SOL     OW25897   3.159   0.204   8.564 -0.3159  0.5401  0.0594
 4812SOL    HW125898   3.152   0.125   8.511  0.4838  0.4916  0.0372
 4812SOL    HW225899   3.146   0.163   8.649 -2.7894  0.3829 -0.3947
 4813SOL     OW25900   3.617   3.840  10.651 -0.1029 -0.4403 -0.4535
 4813SOL    HW125901   3.522   3.827  10.642  0.0365  0.3894 -3.0408
 4813SOL    HW225902   3.644   3.795  10.572 -0.3837 -3.8750  1.4212
 4814SOL     OW25903   3.074   3.686   7.737  0.3662  0.4503  0.2950
 4814SOL    HW125904   3.111   3.604   7.702  0.3853  1.4496 -2.0801
 4814SOL    HW225905   3.085   3.743   7.660  0.7670 -0.1310 -0.0873
 4815SOL     OW25906   1.649   4.226   4.396  0.1519 -0.2806  0.1649
 4815SOL    HW125907   1.639   4.321   4.404 -0.9423 -0.5431  1.9506
 4815SOL    HW225908   1.673   4.207   4.487  0.4835  0.7828  0.3061
 4816SOL     OW25909   3.846   2.565   7.526  0.1974 -0.3405  0.9749
 4816SOL    HW125910   3.873   2.478   7.498  1.5385  0.8165 -1.3463
 4816SOL    HW225911   3.903   2.564   7.603  0.9169 -0.5621  0.4295
 4817SOL     OW25912   3.544   0.513   7.101  0.1749 -0.7382 -0.3073
 4817SOL    HW125913   3.480   0.549   7.040  2.5185  1.4830 -1.4847
 4817SOL    HW225914   3.577   0.440   7.048 -0.2324 -0.0546 -1.4977
 4818SOL     OW25915   1.798   1.764   0.893  0.5285 -0.3346 -0.7087
 4818SOL    HW125916   1.886   1.763   0.931 -0.7579  1.6590  2.3292
 4818SOL    HW225917   1.754   1.815   0.961  1.5411  0.3930 -0.6040
 4819SOL     OW25918   4.643   1.830   5.903 -0.0245  0.1797  0.2416
 4819SOL    HW125919   4.549   1.826   5.918  0.1158  0.4234  1.2218
 4819SOL    HW225920   4.678   1.773   5.972  1.4875  0.8003 -0.0228
 4820SOL     OW25921   0.859   4.451  15.885  0.4932  0.3376 -0.0225
 4820SOL    HW125922   0.852   4.365  15.926  1.1219  0.3558  0.1221
 4820SOL    HW225923   0.847   4.515  15.955  0.2115  1.9431 -1.5389
 4821SOL     OW25924   0.823   3.473   4.150  0.3117 -0.3323  0.2302
 4821SOL    HW125925   0.743   3.424   4.129  0.6490 -1.9282  2.6469
 4821SOL    HW225926   0.824   3.462   4.245 -1.5550  0.6735  0.3634
 4822SOL     OW25927   2.631   0.117   5.182 -0.5929  0.0830 -1.0053
 4822SOL    HW125928   2.620   0.160   5.098  1.5736 -0.9855 -1.8333
 4822SOL    HW225929   2.712   0.073   5.158 -1.4843 -1.9543 -0.3294
 4823SOL     OW25930   3.438   0.261  11.093  0.3879 -0.1236  0.2851
 4823SOL    HW125931   3.394   0.344  11.114  0.2071  0.1870 -1.3185
 4823SOL    HW225932   3.380   0.230  11.023  1.5522  0.6805 -1.0254
 4824SOL     OW25933   1.609   2.864   8.941 -0.3170 -0.4147  0.0583
 4824SOL    HW125934   1.635   2.799   8.876  1.1790  0.3521 -0.1066
 4824SOL    HW225935   1.696   2.890   8.971 -1.2541  0.3806  2.0451
 4825SOL     OW25936   2.843   3.569   3.235 -0.0163  0.1046 -0.3454
 4825SOL    HW125937   2.916   3.607   3.185  0.1690 -0.7317 -0.7112
 4825SOL    HW225938   2.792   3.524   3.167  0.5967 -1.0724 -0.0096
 4826SOL     OW25939   1.445   0.438  13.222 -0.6317 -0.0717  0.2740
 4826SOL    HW125940   1.446   0.520  13.173 -0.2113 -0.0868  0.2566
 4826SOL    HW225941   1.353   0.432  13.247 -0.6139  0.8647  0.5643
 4827SOL     OW25942   0.037   2.934   5.179  0.2795 -0.0104  0.1521
 4827SOL    HW125943   0.033   2.883   5.259 -1.6054 -1.5726 -0.9372
 4827SOL    HW225944   4.672   2.964   5.163  0.4662  0.1405 -0.6393
 4828SOL     OW25945   3.951   0.491   3.970  0.4730 -0.1507  0.2186
 4828SOL    HW125946   4.023   0.443   3.929 -0.8404 -0.4377 -1.7457
 4828SOL    HW225947   3.882   0.497   3.904 -0.5118 -1.4122  1.1140
 4829SOL     OW25948   4.182   4.155  13.468  0.7118  0.0903  0.0816
 4829SOL    HW125949   4.134   4.080  13.501 -3.1811  2.2751 -0.5445
 4829SOL    HW225950   4.249   4.168  13.535 -0.7023  0.7160  1.3589
 4830SOL     OW25951   4.599   4.348   1.122 -0.0806 -0.3433 -0.1036
 4830SOL    HW125952   4.594   4.442   1.103 -0.2161 -0.3799 -0.2512
 4830SOL    HW225953   4.526   4.342   1.183 -0.7291  1.0148 -0.7307
 4831SOL     OW25954   3.888   4.106   1.042 -0.3192 -0.1376 -0.4519
 4831SOL    HW125955   3.797   4.117   1.070  0.0289 -1.0907  1.0876
 4831SOL    HW225956   3.877   4.061   0.959  0.0252  0.6435 -0.9203
 4832SOL     OW25957   1.271   0.589   0.926  0.3930  0.7266 -0.1882
 4832SOL    HW125958   1.187   0.596   0.971  0.3951  0.0088 -0.0755
 4832SOL    HW225959   1.264   0.504   0.882 -0.1733  0.6612  0.0301
 4833SOL     OW25960   3.964   1.753  11.482 -0.0815  0.0586 -0.2338
 4833SOL    HW125961   3.880   1.725  11.520  0.8915  0.0030  1.8427
 4833SOL    HW225962   4.018   1.685  11.522 -2.9428 -1.5369  0.9479
 4834SOL     OW25963   4.575   4.279   3.726  0.1480  0.5003  0.1644
 4834SOL    HW125964   4.649   4.218   3.720  1.1908  1.7673  0.1345
 4834SOL    HW225965   4.554   4.275   3.819 -1.2969 -3.0042 -0.2992
 4835SOL     OW25966   1.810   0.413  11.576 -0.1548  0.1836  0.2085
 4835SOL    HW125967   1.793   0.356  11.500  1.7102  0.8875 -0.7425
 4835SOL    HW225968   1.900   0.443  11.560 -1.2972  3.7596  0.5180
 4836SOL     OW25969   0.683   4.503   1.869 -0.2897  0.2456  0.5740
 4836SOL    HW125970   0.616   4.562   1.905 -1.2880  0.5139 -1.7466
 4836SOL    HW225971   0.653   4.419   1.903  0.7210 -0.0354  0.7608
 4837SOL     OW25972   2.553   4.458  11.023 -0.4267  0.0030 -0.1119
 4837SOL    HW125973   2.583   4.457  10.933  0.2697 -0.5201  0.1271
 4837SOL    HW225974   2.591   4.385  11.072  3.0785  1.6884 -0.3370
 4838SOL     OW25975   4.297   3.169   8.581 -0.4545 -0.6540  0.1925
 4838SOL    HW125976   4.333   3.139   8.498 -1.6567  1.7306 -1.1594
 4838SOL    HW225977   4.212   3.125   8.577  0.8377 -3.1638  0.3077
 4839SOL     OW25978   0.046   0.426  15.644 -0.2536 -0.3389 -0.2171
 4839SOL    HW125979   0.038   0.518  15.669 -0.5991 -0.2697 -0.5759
 4839SOL    HW225980   0.075   0.428  15.553 -0.2791  0.8265 -0.2002
 4840SOL     OW25981   2.593   3.276   0.397 -0.4800 -0.2276 -0.1763
 4840SOL    HW125982   2.687   3.294   0.403 -0.2972 -1.2087 -0.0417
 4840SOL    HW225983   2.583   3.235   0.311  0.8807  1.4188 -1.1159
 4841SOL     OW25984   2.690   2.183   5.643 -0.3417  0.2759  0.1505
 4841SOL    HW125985   2.716   2.215   5.556 -2.2329 -3.5302 -1.8081
 4841SOL    HW225986   2.766   2.216   5.691 -0.8276  0.4024  0.8292
 4842SOL     OW25987   1.063   0.307   6.153  0.0573 -0.0779 -0.4481
 4842SOL    HW125988   1.105   0.393   6.150  1.0695 -0.6204 -2.0895
 4842SOL    HW225989   1.060   0.289   6.059 -1.8679  0.3154 -0.4636
 4843SOL     OW25990   4.390   3.114   4.919 -0.1282  0.1625 -0.5242
 4843SOL    HW125991   4.456   3.055   4.882  2.2885  1.6766  1.3159
 4843SOL    HW225992   4.437   3.130   5.001 -0.8897  3.3130 -0.7310
 4844SOL     OW25993   1.393   1.954   7.953 -0.6772 -0.9190 -0.5530
 4844SOL    HW125994   1.425   2.036   7.991 -2.4045  0.5283 -2.1779
 4844SOL    HW225995   1.433   1.892   8.013  1.2775 -0.5739 -1.4651
 4845SOL     OW25996   1.059   0.377   1.162  0.0494  0.2992 -1.2816
 4845SOL    HW125997   1.039   0.454   1.109  1.5298  0.9207 -0.9321
 4845SOL    HW225998   0.970   0.363   1.194 -0.3250  1.6037 -1.7430
 4846SOL     OW25999   1.236   2.919   3.854 -0.5741  0.6915  0.1151
 4846SOL    HW126000   1.222   2.854   3.786 -0.7863  0.6953  0.1564
 4846SOL    HW226001   1.220   2.866   3.932 -0.0190  0.9643  0.4190
 4847SOL     OW26002   0.204   3.308   2.140 -0.6502  0.0025  0.3905
 4847SOL    HW126003   0.186   3.295   2.047  0.0460  2.7460 -0.1099
 4847SOL    HW226004   0.122   3.289   2.186 -1.3763  2.3695  0.0530
 4848SOL     OW26005   2.238   0.077   2.889  0.3922 -0.5215  0.7710
 4848SOL    HW126006   2.162   0.124   2.922  0.8268 -0.3420  1.5054
 4848SOL    HW226007   2.301   0.148   2.878 -1.0066  0.3650 -1.4859
 4849SOL     OW26008   1.910   0.386   4.526 -0.1676 -0.4488  0.2644
 4849SOL    HW126009   1.910   0.396   4.621 -1.2361  1.1554  0.0969
 4849SOL    HW226010   1.924   0.478   4.504 -0.4077 -0.2951  0.7540
 4850SOL     OW26011   3.308   0.001   1.742 -0.1109  0.6025  0.2621
 4850SOL    HW126012   3.241   0.066   1.761 -0.8352  0.2387 -1.0374
 4850SOL    HW226013   3.303   4.715   1.647 -1.9796  0.3945  0.3849
 4851SOL     OW26014   2.928   2.285  12.679  0.0194  0.4441  0.5553
 4851SOL    HW126015   2.887   2.366  12.648 -0.3854 -0.2736 -0.7979
 4851SOL    HW226016   2.850   2.231  12.688  0.5493 -0.5165 -0.6756
 4852SOL     OW26017   1.396   1.798   6.193  0.0957  0.2190  0.7719
 4852SOL    HW126018   1.448   1.797   6.273  0.6320 -1.5976  0.3924
 4852SOL    HW226019   1.364   1.888   6.188  0.2077  0.1457 -1.3298
 4853SOL     OW26020   1.521   0.682   4.366  0.4911 -0.1727 -0.4816
 4853SOL    HW126021   1.599   0.736   4.354  1.0556 -1.1278 -1.1650
 4853SOL    HW226022   1.449   0.745   4.364  0.9183  0.3409  0.0749
 4854SOL     OW26023   0.262   2.731  12.837  0.1033 -0.5317  0.6860
 4854SOL    HW126024   0.252   2.636  12.830  0.0590 -0.5336  0.7680
 4854SOL    HW226025   0.355   2.719  12.860  0.4434  1.4624  0.3115
 4855SOL     OW26026   4.632   1.472  17.149 -0.1101  0.0659 -1.0356
 4855SOL    HW126027   4.602   1.522  17.073 -1.0084 -1.6711 -1.8394
 4855SOL    HW226028   4.592   1.388  17.127  1.7242 -0.3246 -2.8925
 4856SOL     OW26029   4.088   2.659  10.078  0.2511 -0.2831  0.5756
 4856SOL    HW126030   4.130   2.729  10.128  1.6226 -0.0912 -0.8484
 4856SOL    HW226031   4.027   2.622  10.142  0.6099  2.1021  2.3114
 4857SOL     OW26032   3.358   2.240   8.973  0.1272 -0.1136  0.0019
 4857SOL    HW126033   3.318   2.278   9.051 -0.1511 -0.1657 -0.1165
 4857SOL    HW226034   3.329   2.298   8.903 -0.4251  1.4697  1.5171
 4858SOL     OW26035   1.697   2.659  16.806 -0.0783  0.1671  0.2678
 4858SOL    HW126036   1.657   2.720  16.867 -1.0573 -0.2161  0.0045
 4858SOL    HW226037   1.734   2.583  16.851 -0.4290 -1.1730 -1.7123
 4859SOL     OW26038   4.188   3.535   3.008 -0.0395  0.1529  0.1396
 4859SOL    HW126039   4.203   3.587   3.087 -1.5103  1.1928 -0.2721
 4859SOL    HW226040   4.222   3.592   2.940 -1.2118 -1.1079 -1.4890
 4860SOL     OW26041   0.484   4.223   7.508  0.2187 -0.1450 -0.8140
 4860SOL    HW126042   0.423   4.193   7.441  0.3945  1.9552 -1.9113
 4860SOL    HW226043   0.493   4.310   7.469 -2.6188 -0.2883 -1.8175
 4861SOL     OW26044   0.709   3.289  12.717  0.5248 -0.0025 -0.7080
 4861SOL    HW126045   0.766   3.360  12.686 -1.1483  1.0461 -1.3380
 4861SOL    HW226046   0.776   3.221  12.728 -0.7185 -1.0651  0.2616
 4862SOL     OW26047   2.620   3.271  13.047  0.3262  0.0935  0.0198
 4862SOL    HW126048   2.707   3.273  13.088 -0.2048 -1.0034  1.1869
 4862SOL    HW226049   2.619   3.176  13.032 -1.8657  0.0993  0.1603
 4863SOL     OW26050   4.723   3.898   7.398 -0.0861 -0.0314  0.0790
 4863SOL    HW126051   0.018   3.806   7.378 -0.9137 -0.4319  1.0853
 4863SOL    HW226052   4.671   3.875   7.475 -2.0899  0.9671 -0.9915
 4864SOL     OW26053   3.839   3.966   3.883  0.0371 -0.0227 -0.1551
 4864SOL    HW126054   3.774   4.012   3.935 -1.8190 -1.1829 -1.4514
 4864SOL    HW226055   3.800   3.969   3.796  1.2063  1.1685 -0.6459
 4865SOL     OW26056   1.776   1.232   7.149  0.1347  0.0714 -0.3600
 4865SOL    HW126057   1.826   1.151   7.157 -2.9362 -1.7882  0.1693
 4865SOL    HW226058   1.813   1.287   7.218  0.6749 -0.8459  0.0798
 4866SOL     OW26059   4.368   0.568  10.724 -0.5811 -0.6494 -0.2663
 4866SOL    HW126060   4.431   0.498  10.708 -0.7289 -0.7029 -0.6174
 4866SOL    HW226061   4.409   0.643  10.681 -2.0271  0.5897  0.5233
 4867SOL     OW26062   3.714   4.087   6.033  0.3630 -0.5249  0.1999
 4867SOL    HW126063   3.632   4.103   6.081 -0.0916 -1.0656 -0.4061
 4867SOL    HW226064   3.700   3.993   6.022 -2.4704 -0.5421  3.5884
 4868SOL     OW26065   2.457   0.115   0.527 -0.3929 -0.0833 -0.2881
 4868SOL    HW126066   2.552   0.103   0.526 -0.2241  1.4580 -2.2942
 4868SOL    HW226067   2.435   0.031   0.568  1.2084  1.0029  2.8074
 4869SOL     OW26068   4.384   3.725   8.548 -0.4933  0.2794  0.3536
 4869SOL    HW126069   4.404   3.723   8.641 -0.9149 -1.4762  0.4078
 4869SOL    HW226070   4.350   3.636   8.542 -0.3991  0.3383 -1.2865
 4870SOL     OW26071   0.801   4.188   0.726 -0.4437  0.1447  0.4805
 4870SOL    HW126072   0.819   4.281   0.739 -1.1782  0.1348  1.5416
 4870SOL    HW226073   0.890   4.154   0.711 -0.8530 -0.9556  0.5710
 4871SOL     OW26074   2.635   3.546   2.289 -0.1265 -0.3732  0.0400
 4871SOL    HW126075   2.628   3.586   2.375 -1.5888 -0.8234  0.1369
 4871SOL    HW226076   2.560   3.588   2.246 -0.4429 -1.6646 -0.6657
 4872SOL     OW26077   4.224   1.534   3.787 -0.0051  0.4625 -0.5750
 4872SOL    HW126078   4.254   1.507   3.701  2.1194  0.4214  0.1752
 4872SOL    HW226079   4.303   1.520   3.839  0.3928  4.5660 -0.1313
 4873SOL     OW26080   3.388   3.892   2.179 -0.3322  0.2626  0.0786
 4873SOL    HW126081   3.376   3.852   2.265 -1.5032 -0.1864 -0.2884
 4873SOL    HW226082   3.313   3.856   2.131 -0.1263  0.7122 -0.5875
 4874SOL     OW26083   1.921   0.020   3.990  0.2962 -0.8559 -0.3691
 4874SOL    HW126084   1.885   4.671   3.942  0.5909 -1.9492  1.1294
 4874SOL    HW226085   1.928   4.718   4.081  3.3164  0.9343 -0.0804
 4875SOL     OW26086   1.530   3.755  13.532  0.3003  0.4883 -0.1139
 4875SOL    HW126087   1.497   3.843  13.515 -2.7258 -0.3668  1.3799
 4875SOL    HW226088   1.446   3.714  13.551  0.7364 -0.4091 -0.1045
 4876SOL     OW26089   1.872   1.719   8.674  0.3665  0.4498  0.2909
 4876SOL    HW126090   1.962   1.752   8.675  0.9537 -1.1396  0.3370
 4876SOL    HW226091   1.867   1.707   8.769  0.9763  0.9427  0.3898
 4877SOL     OW26092   3.348   2.706   4.613  0.5042  0.0243  0.3672
 4877SOL    HW126093   3.423   2.731   4.559 -0.0347  1.1015  0.1135
 4877SOL    HW226094   3.280   2.683   4.550 -0.0763 -0.6008  1.2104
 4878SOL     OW26095   1.163   1.660   2.862  0.1871 -0.1005 -0.5111
 4878SOL    HW126096   1.080   1.692   2.827 -0.8380 -1.4078  0.7305
 4878SOL    HW226097   1.214   1.724   2.812 -1.4061  1.8064  0.3088
 4879SOL     OW26098   3.336   1.693   6.002 -0.1545  0.4101 -0.0704
 4879SOL    HW126099   3.294   1.616   6.040 -0.2838  0.4183 -0.1991
 4879SOL    HW226100   3.356   1.665   5.913  1.1401  2.4304 -0.4246
 4880SOL     OW26101   0.589   3.599   6.578 -0.0923  0.4284  0.5183
 4880SOL    HW126102   0.629   3.679   6.543  0.5693 -0.4769 -0.7555
 4880SOL    HW226103   0.613   3.532   6.515  0.5429  1.1270  0.0155
 4881SOL     OW26104   3.079   1.681   6.207  0.5927 -0.1554  0.3026
 4881SOL    HW126105   3.066   1.594   6.170  0.0565 -0.2089  0.6198
 4881SOL    HW226106   3.113   1.646   6.290  2.4158 -0.6829 -0.6657
 4882SOL     OW26107   2.047   4.588   5.228  0.2941  0.1538 -0.1159
 4882SOL    HW126108   2.020   4.497   5.234  3.3028 -0.6384  1.4213
 4882SOL    HW226109   2.134   4.574   5.265  0.5737 -0.1480 -0.8656
 4883SOL     OW26110   0.677   0.641   1.295  0.2803  0.0747  0.7787
 4883SOL    HW126111   0.612   0.670   1.359 -1.4400 -1.4674 -0.2511
 4883SOL    HW226112   0.628   0.673   1.219 -0.0406  0.9474  1.3516
 4884SOL     OW26113   1.878   0.010   8.043 -0.1054 -0.8821 -0.2582
 4884SOL    HW126114   1.878   0.098   8.007 -0.8773 -0.8154 -0.0957
 4884SOL    HW226115   1.938   0.010   8.117 -0.9729  1.4412  0.4228
 4885SOL     OW26116   2.271   3.915   4.622  0.3512 -0.0242  0.0061
 4885SOL    HW126117   2.199   3.859   4.652 -0.8446  1.4653 -0.0610
 4885SOL    HW226118   2.231   3.925   4.536  0.2822  1.0989  0.1635
 4886SOL     OW26119   3.530   4.495   1.634  0.0943 -0.1417  0.4940
 4886SOL    HW126120   3.599   4.553   1.666 -1.7498  2.4529 -0.2535
 4886SOL    HW226121   3.527   4.424   1.699  2.5266  0.8179  1.6583
 4887SOL     OW26122   0.666   4.148   0.369 -0.4183  0.0172 -0.2902
 4887SOL    HW126123   0.638   4.199   0.293 -1.4505 -0.2612 -0.0937
 4887SOL    HW226124   0.648   4.064   0.328 -0.5139  0.0985 -0.4138
 4888SOL     OW26125   4.715   1.692   8.993 -0.0539 -0.0999  0.3379
 4888SOL    HW126126   0.023   1.635   8.924  1.1688 -0.7074  1.4363
 4888SOL    HW226127   0.072   1.721   9.033  0.3948 -1.5357  0.4818
 4889SOL     OW26128   3.120   4.638  17.604  0.1397  0.0273  0.2311
 4889SOL    HW126129   3.208   4.664  17.577  0.3378 -0.8130  0.0697
 4889SOL    HW226130   3.067   4.680  17.536  1.4955 -1.2094 -1.5619
 4890SOL     OW26131   4.465   2.343   7.525  0.2445  0.8826 -0.1357
 4890SOL    HW126132   4.555   2.310   7.521 -1.5843 -4.2421  0.4996
 4890SOL    HW226133   4.433   2.291   7.599 -1.1668  1.2987 -0.4378
 4891SOL     OW26134   0.176   4.461   6.521 -0.0772 -0.2101 -0.2026
 4891SOL    HW126135   0.115   4.493   6.587 -0.8260 -1.2705 -0.3904
 4891SOL    HW226136   0.119   4.480   6.447  1.7875  0.2752 -1.5355
 4892SOL     OW26137   1.705   2.751   5.668  0.0029  0.2276 -0.1788
 4892SOL    HW126138   1.611   2.760   5.677  0.1189  1.2709 -0.0210
 4892SOL    HW226139   1.723   2.668   5.713  0.2372 -1.6967 -3.8243
 4893SOL     OW26140   3.746   0.818  12.132 -0.3323 -0.1161  0.0391
 4893SOL    HW126141   3.651   0.823  12.148 -0.1868  2.7009  0.1062
 4893SOL    HW226142   3.778   0.855  12.214  0.0962 -0.6311  0.0971
 4894SOL     OW26143   2.928   3.593  10.170 -0.2306 -0.2620 -0.1043
 4894SOL    HW126144   2.951   3.618  10.259  0.9574  0.5413 -0.6349
 4894SOL    HW226145   2.863   3.524  10.184  0.9208 -1.0718  1.3110
 4895SOL     OW26146   2.584   3.783   4.434 -0.0349  0.4191 -0.7204
 4895SOL    HW126147   2.563   3.699   4.394  0.6656 -0.6479  1.1281
 4895SOL    HW226148   2.506   3.826   4.399 -0.7716 -0.2330  0.1169
 4896SOL     OW26149   1.076   4.285   5.643 -0.2761  0.0223  0.3366
 4896SOL    HW126150   1.007   4.249   5.586  2.0244  1.8317 -3.5610
 4896SOL    HW226151   1.128   4.207   5.662 -1.3032 -0.4703  1.1460
 4897SOL     OW26152   1.187   4.444   0.353  0.2065  0.0322  0.5062
 4897SOL    HW126153   1.122   4.479   0.292 -0.1545  0.9608  1.4230
 4897SOL    HW226154   1.167   4.351   0.345  1.8250 -0.2880  0.1695
 4898SOL     OW26155   1.726   3.871   8.124 -0.2989  0.0162  0.5465
 4898SOL    HW126156   1.707   3.828   8.207  2.1903 -3.0354 -0.4459
 4898SOL    HW226157   1.703   3.803   8.060 -0.3090 -0.9002  1.5345
 4899SOL     OW26158   2.231   3.459  12.220 -0.2130  0.3798 -0.8113
 4899SOL    HW126159   2.137   3.441  12.221  0.0095 -0.6439  1.1676
 4899SOL    HW226160   2.234   3.546  12.180  1.1941  1.4762  1.7281
 4900SOL     OW26161   1.336   1.120   9.008 -0.4506 -0.5269 -0.1484
 4900SOL    HW126162   1.313   1.028   9.026  3.9822 -1.3961  0.9408
 4900SOL    HW226163   1.348   1.124   8.913  0.7554  0.3863  0.0499
 4901SOL     OW26164   0.321   0.634   6.699  0.0479  0.2302  0.0310
 4901SOL    HW126165   0.245   0.616   6.645 -1.5175  2.0318  1.6175
 4901SOL    HW226166   0.302   0.726   6.716  0.4637  0.6514 -1.7567
 4902SOL     OW26167   4.229   1.390   5.376  0.6176 -0.1623 -0.2120
 4902SOL    HW126168   4.237   1.335   5.298 -0.3859 -0.7385  0.0790
 4902SOL    HW226169   4.231   1.475   5.333 -0.7080  0.3054  0.6664
 4903SOL     OW26170   3.159   1.848  12.181 -0.4828 -0.4794 -0.2709
 4903SOL    HW126171   3.234   1.903  12.203  0.7870 -1.4286 -2.3008
 4903SOL    HW226172   3.136   1.871  12.091  1.3570  0.5782 -0.4668
 4904SOL     OW26173   2.100   3.324   7.749 -0.2752 -0.1701 -0.0438
 4904SOL    HW126174   2.188   3.343   7.716 -0.9367  2.5900 -0.1813
 4904SOL    HW226175   2.126   3.297   7.837 -0.5607  0.9181  0.3696
 4905SOL     OW26176   0.277   3.866   8.607 -0.0135  0.4434 -0.6004
 4905SOL    HW126177   0.310   3.860   8.696  0.5946 -2.6227 -1.0495
 4905SOL    HW226178   0.205   3.805   8.624  1.0726 -0.8111 -0.5016
 4906SOL     OW26179   4.226   0.386   2.368 -0.9060 -0.6403  0.0001
 4906SOL    HW126180   4.174   0.459   2.333  1.3496  0.3241 -1.3628
 4906SOL    HW226181   4.225   0.333   2.288 -0.1003  1.7478 -1.5941
 4907SOL     OW26182   1.790   3.981  13.315 -0.3538  0.2302 -0.7441
 4907SOL    HW126183   1.696   3.972  13.324 -0.2796  0.1660 -0.0504
 4907SOL    HW226184   1.834   3.932  13.384 -0.1228  1.2245 -0.1942
 4908SOL     OW26185   3.537   3.052  12.357 -0.7520 -0.9490  0.1866
 4908SOL    HW126186   3.622   3.015  12.378  1.1250  2.4318 -1.5152
 4908SOL    HW226187   3.507   2.992  12.288 -1.0002 -0.9077  0.2575
 4909SOL     OW26188   3.299   2.889  15.480 -0.2511  0.3335 -0.0448
 4909SOL    HW126189   3.213   2.912  15.443  0.0373  2.5382  0.6213
 4909SOL    HW226190   3.329   2.829  15.412  1.0872  1.1533 -0.1685
 4910SOL     OW26191   3.841   0.530  17.077 -0.3601  0.4290  0.2726
 4910SOL    HW126192   3.799   0.445  17.088 -0.8714  0.5303 -0.9033
 4910SOL    HW226193   3.852   0.558  17.168  1.6141 -0.2879  0.2464
 4911SOL     OW26194   1.625   2.402  10.520  0.4508  0.3720 -0.0020
 4911SOL    HW126195   1.701   2.453  10.547  1.5400 -1.9045  1.1923
 4911SOL    HW226196   1.564   2.428  10.589  1.1548  0.3000  0.6465
 4912SOL     OW26197   1.533   3.257   7.305  0.2029  0.1181 -0.2196
 4912SOL    HW126198   1.535   3.162   7.311 -1.4759  0.0769 -0.0983
 4912SOL    HW226199   1.583   3.280   7.383  1.8909  2.3518 -1.9735
 4913SOL     OW26200   0.709   0.410   3.634  0.0309  0.3980  0.2008
 4913SOL    HW126201   0.693   0.315   3.636  0.2210  0.3354 -1.0993
 4913SOL    HW226202   0.718   0.430   3.727 -1.7344 -0.2144  0.4890
 4914SOL     OW26203   1.095   4.143   0.079  0.3036  0.2335  0.7774
 4914SOL    HW126204   1.155   4.205   0.120 -0.0881  2.1185 -1.5199
 4914SOL    HW226205   1.014   4.189   0.100 -0.0686 -0.3889  0.7247
 4915SOL     OW26206   4.590   2.658   6.710  0.1407 -0.2277  0.4672
 4915SOL    HW126207   4.522   2.591   6.715 -0.3731  0.4174  2.3085
 4915SOL    HW226208   4.584   2.708   6.792  0.3125  0.2549  0.1853
 4916SOL     OW26209   2.141   2.115   2.278 -0.5232  0.4304 -0.3777
 4916SOL    HW126210   2.124   2.205   2.252  0.5825  0.5268 -0.7517
 4916SOL    HW226211   2.191   2.082   2.203 -0.6873  3.1047 -1.6425
 4917SOL     OW26212   0.970   4.537   4.983 -0.5501  0.0336 -0.2991
 4917SOL    HW126213   0.890   4.587   4.995 -2.0274 -2.6839  1.1253
 4917SOL    HW226214   0.948   4.482   4.908 -0.8041 -0.5408  0.2035
 4918SOL     OW26215   2.896   0.330   8.579 -0.3431  0.0484 -0.1246
 4918SOL    HW126216   2.899   0.416   8.620 -0.9072  0.0859 -0.1610
 4918SOL    HW226217   2.985   0.296   8.592 -0.4947  0.6362  2.4405
 4919SOL     OW26218   0.848   1.925   6.379  0.6245  0.5046 -0.2882
 4919SOL    HW126219   0.758   1.941   6.407  1.1010  1.3192  0.7808
 4919SOL    HW226220   0.904   1.977   6.437 -0.6753  1.9238 -0.3045
 4920SOL     OW26221   1.146   1.414   6.670  0.1233  0.1108 -0.2636
 4920SOL    HW126222   1.164   1.445   6.581 -0.1267 -0.5170 -0.5283
 4920SOL    HW226223   1.139   1.319   6.667  2.9602 -0.1628  1.8971
 4921SOL     OW26224   2.232   2.255   7.811 -0.0633  0.4419  0.0927
 4921SOL    HW126225   2.243   2.237   7.717 -3.0557 -1.4593  0.1084
 4921SOL    HW226226   2.185   2.339   7.812 -1.2558 -0.2015 -0.6813
 4922SOL     OW26227   1.845   0.400   3.368  0.5322 -0.1418 -0.4741
 4922SOL    HW126228   1.901   0.329   3.399 -0.4440 -1.3194 -1.3886
 4922SOL    HW226229   1.817   0.353   3.289  1.2222 -1.4223  0.0290
 4923SOL     OW26230   1.923   2.337   8.127  0.5336  0.1327  0.5924
 4923SOL    HW126231   2.014   2.314   8.110  0.6716  0.8582  0.3754
 4923SOL    HW226232   1.886   2.257   8.088 -0.6739  1.4267 -0.9655
 4924SOL     OW26233   1.641   3.424   8.654 -0.3537  0.4056  0.7745
 4924SOL    HW126234   1.632   3.474   8.573  0.5784 -1.2205 -0.3413
 4924SOL    HW226235   1.665   3.493   8.717  3.6194 -1.7469  1.5869
 4925SOL     OW26236   1.486   2.089  12.781 -0.0805  0.1097 -0.1992
 4925SOL    HW126237   1.395   2.059  12.777  0.2005 -0.6234 -0.9776
 4925SOL    HW226238   1.529   2.050  12.705  0.4176  0.3184 -0.0285
 4926SOL     OW26239   0.427   0.059   6.006  0.5429  0.3116  0.7217
 4926SOL    HW126240   0.501   4.723   6.007 -1.3135 -1.9900 -1.4636
 4926SOL    HW226241   0.451   0.121   5.937  0.1780 -1.0545 -0.6245
 4927SOL     OW26242   1.420   0.077   5.163 -0.8057  0.1968  0.5109
 4927SOL    HW126243   1.445   0.034   5.245  1.7992 -1.9933 -1.4155
 4927SOL    HW226244   1.342   0.031   5.133  0.9754 -1.0349 -2.2739
 4928SOL     OW26245   4.216   1.868   3.786 -0.1125  0.2239  0.0729
 4928SOL    HW126246   4.185   1.917   3.711  3.1798 -1.8528 -2.6314
 4928SOL    HW226247   4.250   1.791   3.740  0.2928 -0.2484  1.1384
 4929SOL     OW26248   2.550   4.008   6.291 -0.3965  0.4232  0.0356
 4929SOL    HW126249   2.643   4.019   6.312  0.0550  0.5934 -2.1070
 4929SOL    HW226250   2.539   3.926   6.243  2.2541  1.7605 -2.8204
 4930SOL     OW26251   0.540   0.876   9.146 -0.1321 -0.4555  0.0664
 4930SOL    HW126252   0.570   0.902   9.059  0.2957 -0.1584  0.3009
 4930SOL    HW226253   0.570   0.786   9.159  2.9606  0.6963  0.9170
 4931SOL     OW26254   0.171   4.152   8.940  0.4653  0.0614  0.0677
 4931SOL    HW126255   0.151   4.196   8.858  0.2773 -1.8835 -0.9308
 4931SOL    HW226256   0.091   4.100   8.937  0.8429 -0.5147  0.0111
 4932SOL     OW26257   3.669   4.334   7.605 -0.0420 -0.3119 -0.5017
 4932SOL    HW126258   3.586   4.320   7.558 -0.0888  0.3147 -0.6063
 4932SOL    HW226259   3.646   4.384   7.683 -2.2502 -1.1123 -0.6515
 4933SOL     OW26260   3.627   1.819   2.088 -0.3773 -0.6699  0.2641
 4933SOL    HW126261   3.717   1.842   2.109 -0.9559  1.7636 -0.0003
 4933SOL    HW226262   3.638   1.727   2.063  0.3333 -0.0024 -1.8656
 4934SOL     OW26263   0.317   4.093   1.860  0.1683  0.5572  0.3015
 4934SOL    HW126264   0.313   4.037   1.938  0.4706 -1.0202 -0.8041
 4934SOL    HW226265   0.387   4.153   1.887  0.8921 -1.5764  3.2623
 4935SOL     OW26266   4.597   2.605  16.246  0.7521  0.0886  0.0574
 4935SOL    HW126267   4.659   2.664  16.202  0.4627 -1.5492 -2.5270
 4935SOL    HW226268   4.650   2.531  16.276  0.6229  0.5952  1.4964
 4936SOL     OW26269   0.611   2.723   1.481 -0.5644 -0.3581 -0.1932
 4936SOL    HW126270   0.668   2.784   1.526 -0.0368 -1.5719  0.7813
 4936SOL    HW226271   0.624   2.640   1.527 -1.2127 -0.3793 -0.0419
 4937SOL     OW26272   0.583   2.998   4.060  0.1995 -0.5302  0.3680
 4937SOL    HW126273   0.547   3.057   3.993 -1.1661 -0.8573  0.8340
 4937SOL    HW226274   0.677   2.992   4.042 -0.5984 -0.7756 -3.7234
 4938SOL     OW26275   0.257   0.158   2.043 -0.2836 -0.0615 -0.2441
 4938SOL    HW126276   0.241   0.184   1.952  1.5641 -1.9524 -1.1066
 4938SOL    HW226277   0.175   0.154   2.092  0.4768  0.3938  1.0557
 4939SOL     OW26278   2.298   2.778  15.946  0.0434  0.1162 -0.4187
 4939SOL    HW126279   2.339   2.716  15.886  1.4204  0.2354  0.4041
 4939SOL    HW226280   2.248   2.720  16.003  0.2230  2.6218  2.3322
 4940SOL     OW26281   0.058   3.217  11.726 -0.3940 -0.3564  0.3326
 4940SOL    HW126282   0.113   3.142  11.701  0.5320  0.8327 -1.1853
 4940SOL    HW226283   0.044   3.256  11.640  1.6459 -0.0038  0.1505
 4941SOL     OW26284   3.963   4.195   2.463 -0.5719 -0.1810 -0.2248
 4941SOL    HW126285   3.960   4.176   2.369 -3.1553 -1.8368  0.2002
 4941SOL    HW226286   3.871   4.193   2.490 -0.0910  2.5490  1.5791
 4942SOL     OW26287   4.426   2.601  14.698 -0.3106  0.3088 -0.1414
 4942SOL    HW126288   4.492   2.669  14.713 -0.1994  0.0250  0.6683
 4942SOL    HW226289   4.459   2.559  14.618 -0.1528 -2.1700  1.2279
 4943SOL     OW26290   0.400   3.614   6.766 -0.0182 -0.9923 -0.6727
 4943SOL    HW126291   0.472   3.611   6.703  0.7309  0.1589  0.1328
 4943SOL    HW226292   0.327   3.598   6.705 -0.2411 -0.7536 -0.4665
 4944SOL     OW26293   4.374   1.529   6.319 -0.0651  0.1454  0.2296
 4944SOL    HW126294   4.442   1.476   6.360  0.7225 -1.9163 -3.7529
 4944SOL    HW226295   4.317   1.470   6.270  0.6009  0.5337 -1.0052
 4945SOL     OW26296   0.818   1.389   4.878  0.1920  0.5864 -0.2582
 4945SOL    HW126297   0.820   1.378   4.973  1.0193 -0.2043 -0.3734
 4945SOL    HW226298   0.894   1.340   4.845  1.7512  2.6288  0.3064
 4946SOL     OW26299   4.203   4.468   4.858 -0.4228  0.1242  0.4344
 4946SOL    HW126300   4.150   4.457   4.778 -2.2119 -2.6072  1.9945
 4946SOL    HW226301   4.241   4.555   4.846  1.7612 -1.1545 -1.9697
 4947SOL     OW26302   1.880   2.231   4.477  0.5290 -0.1618 -0.0937
 4947SOL    HW126303   1.852   2.211   4.566 -1.0724  2.4529 -0.0035
 4947SOL    HW226304   1.947   2.299   4.486 -1.3535  1.6377  0.3211
 4948SOL     OW26305   3.079   1.473   7.685  0.2304  0.3157  0.6226
 4948SOL    HW126306   3.106   1.548   7.632  0.7276 -0.6544 -0.4795
 4948SOL    HW226307   3.012   1.514   7.739 -0.7297 -0.1167 -0.2516
 4949SOL     OW26308   4.050   3.371   9.088  0.0319  0.9151  0.2706
 4949SOL    HW126309   4.047   3.291   9.035 -1.0788  1.2853 -0.2411
 4949SOL    HW226310   4.084   3.429   9.019 -0.5377 -1.3509 -1.9297
 4950SOL     OW26311   0.053   0.699   5.064  0.1570 -0.3551 -0.1423
 4950SOL    HW126312   0.004   0.707   4.982 -0.5816  3.4601  0.6569
 4950SOL    HW226313   4.716   0.655   5.122  0.2231  0.7825  0.7888
 4951SOL     OW26314   2.749   0.712   5.882  0.3229 -0.1713  0.0323
 4951SOL    HW126315   2.683   0.710   5.951 -0.3399 -3.5718 -0.7184
 4951SOL    HW226316   2.701   0.713   5.799  1.0931  1.2779 -0.4050
 4952SOL     OW26317   0.636   2.807  15.912 -0.0603 -0.2765  0.5210
 4952SOL    HW126318   0.579   2.877  15.945 -0.3141  0.1970 -0.9128
 4952SOL    HW226319   0.710   2.867  15.901 -1.5534  1.0830 -2.3174
 4953SOL     OW26320   4.354   3.647   3.244  0.1153 -0.3575 -0.3653
 4953SOL    HW126321   4.448   3.656   3.231 -0.0623  0.7525 -0.8675
 4953SOL    HW226322   4.360   3.631   3.339 -1.1159 -0.6908 -0.3451
 4954SOL     OW26323   3.412   1.365   5.897 -0.1521  0.7712 -0.1243
 4954SOL    HW126324   3.374   1.297   5.953  1.4627  0.2200  0.2927
 4954SOL    HW226325   3.502   1.354   5.928 -0.4249  2.0794  1.1650
 4955SOL     OW26326   4.696   1.543   0.771  0.6681 -0.1789  0.5772
 4955SOL    HW126327   4.677   1.583   0.855 -0.1911  1.1776 -0.2602
 4955SOL    HW226328   0.033   1.608   0.738 -0.4571  0.0981 -0.9658
 4956SOL     OW26329   2.925   2.023   4.181  0.6966 -0.2225  0.8382
 4956SOL    HW126330   2.931   2.103   4.128 -1.1858  0.3072  1.4113
 4956SOL    HW226331   2.847   2.038   4.234 -1.1159 -0.5424 -1.7366
 4957SOL     OW26332   1.615   1.303   4.520  0.0281 -0.1301 -0.3668
 4957SOL    HW126333   1.693   1.352   4.548  0.0075  0.3698 -1.2001
 4957SOL    HW226334   1.555   1.371   4.490  0.8760  0.1465 -1.4273
 4958SOL     OW26335   2.393   2.812  10.405 -0.5872 -0.2646  0.1790
 4958SOL    HW126336   2.381   2.717  10.406  0.3604 -0.3914 -0.5076
 4958SOL    HW226337   2.475   2.814  10.356 -1.1535  0.6177 -0.7403
 4959SOL     OW26338   0.579   1.798  10.685 -0.6597  0.2608  0.1718
 4959SOL    HW126339   0.539   1.847  10.756 -0.7068 -1.1727  1.1336
 4959SOL    HW226340   0.620   1.726  10.733 -2.1788 -0.4030  0.4568
 4960SOL     OW26341   2.839   4.550   7.842  0.2181 -0.1164 -0.4136
 4960SOL    HW126342   2.889   4.485   7.891  0.2632 -0.1831 -0.5486
 4960SOL    HW226343   2.811   4.501   7.765 -2.6975  3.7679 -1.8128
 4961SOL     OW26344   0.521   1.436   8.043 -0.0865  0.1113 -0.0631
 4961SOL    HW126345   0.592   1.400   7.991 -0.1571 -0.6365  0.3615
 4961SOL    HW226346   0.456   1.367   8.056 -0.5755  0.1603 -2.3216
 4962SOL     OW26347   2.988   3.701   1.217 -0.1171 -0.4363 -0.5375
 4962SOL    HW126348   2.922   3.768   1.235  0.2353 -0.2630  0.1023
 4962SOL    HW226349   3.059   3.741   1.268 -0.3896  1.0151 -1.2938
 4963SOL     OW26350   4.335   2.684  16.220  0.3894 -0.0817  0.0285
 4963SOL    HW126351   4.423   2.651  16.239 -0.0922 -0.8136  0.9433
 4963SOL    HW226352   4.299   2.692  16.308  0.9490  3.1362 -0.0240
 4964SOL     OW26353   1.448   3.408  16.707  0.0337  0.3619  0.1716
 4964SOL    HW126354   1.482   3.352  16.638 -1.6674  0.6710 -0.9215
 4964SOL    HW226355   1.484   3.355  16.778 -0.2414 -1.5778 -1.1425
 4965SOL     OW26356   3.344   2.712  15.254  0.1400 -0.0907 -0.2098
 4965SOL    HW126357   3.433   2.700  15.220  0.0055 -1.1639 -0.1791
 4965SOL    HW226358   3.286   2.694  15.181  0.6883  0.1619 -0.7032
 4966SOL     OW26359   4.283   1.793   1.058 -0.2798 -0.0164  0.8061
 4966SOL    HW126360   4.241   1.781   0.973 -1.8642 -0.0892  1.6024
 4966SOL    HW226361   4.246   1.726   1.115 -0.9401 -0.4362 -0.1139
 4967SOL     OW26362   2.913   3.084  15.445 -0.0847 -0.0782 -0.6997
 4967SOL    HW126363   2.894   3.178  15.442 -0.4357 -0.1783 -1.8378
 4967SOL    HW226364   2.826   3.052  15.423  0.0934 -0.5319 -0.7476
 4968SOL     OW26365   3.399   3.985   5.883  0.3561  0.0162 -0.0031
 4968SOL    HW126366   3.480   3.963   5.928  0.6672 -1.2743 -1.2026
 4968SOL    HW226367   3.421   3.977   5.790  1.8756 -1.1345  0.4457
 4969SOL     OW26368   3.471   0.960   5.933  0.3354  0.1579 -0.1053
 4969SOL    HW126369   3.432   1.026   5.991 -2.2200 -1.6263  0.2298
 4969SOL    HW226370   3.404   0.958   5.864 -0.8527  1.0231  1.0185
 4970SOL     OW26371   3.768   0.560  12.010 -0.1803  0.3458 -0.5826
 4970SOL    HW126372   3.762   0.655  12.019 -1.3859  0.3158 -1.0711
 4970SOL    HW226373   3.844   0.533  12.063 -1.2031 -0.0603  0.6716
 4971SOL     OW26374   3.385   2.697   7.195 -0.1907 -0.7672 -0.6225
 4971SOL    HW126375   3.407   2.763   7.262 -1.9545  1.1937 -1.9554
 4971SOL    HW226376   3.464   2.668   7.150  0.3027 -0.6745  0.1707
 4972SOL     OW26377   0.847   3.102   7.168 -0.4037  0.5812  0.1390
 4972SOL    HW126378   0.764   3.133   7.205 -1.2060 -2.9837  1.3743
 4972SOL    HW226379   0.818   3.012   7.150 -2.2835  0.8521  1.7429
 4973SOL     OW26380   1.205   1.039  15.673  0.2148  0.2342  0.4209
 4973SOL    HW126381   1.206   0.945  15.692 -1.6988 -0.1815 -1.5189
 4973SOL    HW226382   1.295   1.048  15.639 -0.8050  0.8858 -2.1458
 4974SOL     OW26383   4.217   2.475   8.468  0.2095  0.1383 -0.2411
 4974SOL    HW126384   4.237   2.532   8.394  0.5063 -0.4768 -0.6309
 4974SOL    HW226385   4.122   2.470   8.458  0.3682 -0.5176 -1.4535
 4975SOL     OW26386   4.594   0.498   0.432 -0.0228  0.4196  0.3508
 4975SOL    HW126387   4.637   0.567   0.483  1.6880 -0.8207  0.5630
 4975SOL    HW226388   4.664   0.451   0.387  0.1309  0.3748  0.6455
 4976SOL     OW26389   0.171   1.954   3.862 -0.7629  0.5947  0.0376
 4976SOL    HW126390   0.162   1.861   3.879  1.1099  0.3310 -0.3946
 4976SOL    HW226391   0.148   1.995   3.945 -1.0165  2.1815 -0.7997
 4977SOL     OW26392   1.494   4.484   0.942 -0.2330 -0.0951 -0.2401
 4977SOL    HW126393   1.582   4.454   0.919 -0.0669  1.0244 -1.0821
 4977SOL    HW226394   1.438   4.409   0.922 -0.2087 -0.5993  1.6025
 4978SOL     OW26395   3.791   3.308   1.715 -0.0491 -1.0225  0.1577
 4978SOL    HW126396   3.840   3.230   1.740 -0.8398 -1.4782  0.2640
 4978SOL    HW226397   3.749   3.269   1.638 -0.4012 -0.8829  0.2792
 4979SOL     OW26398   4.011   1.054   1.701  0.0406  0.2611 -0.2128
 4979SOL    HW126399   4.046   0.971   1.734  0.3235  0.3213 -0.3637
 4979SOL    HW226400   4.055   1.063   1.617 -2.3174 -1.4277 -1.6225
 4980SOL     OW26401   4.014   2.474   9.881  0.4485  0.7334  0.2897
 4980SOL    HW126402   3.998   2.406   9.946 -1.1740  0.3279 -0.5222
 4980SOL    HW226403   4.026   2.551   9.937  1.8055 -0.4127  1.5519
 4981SOL     OW26404   3.020   3.423   3.509 -0.1863  0.5148  0.0841
 4981SOL    HW126405   2.939   3.473   3.522 -1.4535 -1.4684 -0.0812
 4981SOL    HW226406   3.055   3.486   3.447 -1.5733  2.2497  1.0760
 4982SOL     OW26407   3.383   0.137   0.430 -0.1363 -0.1454 -0.0039
 4982SOL    HW126408   3.428   0.117   0.347  0.5112  0.8470  0.1109
 4982SOL    HW226409   3.325   0.209   0.407 -1.9205 -1.0350  1.7277
 4983SOL     OW26410   2.513   0.140  13.561 -0.2626  0.4125 -0.4937
 4983SOL    HW126411   2.602   0.153  13.529 -0.3066 -1.6253 -1.4014
 4983SOL    HW226412   2.532   0.071  13.624 -2.1687 -0.8965 -1.3650
 4984SOL     OW26413   3.965   3.809   8.562 -0.5293 -0.3584  0.0394
 4984SOL    HW126414   3.886   3.800   8.614  0.3085 -1.5781  1.0874
 4984SOL    HW226415   4.008   3.885   8.601 -0.3069 -1.3005  1.6366
 4985SOL     OW26416   0.518   0.235  12.487  0.0344  0.1821 -0.5569
 4985SOL    HW126417   0.527   0.141  12.504  2.0329  0.7293  1.3997
 4985SOL    HW226418   0.530   0.271  12.575  2.0663 -0.1936 -0.6879
 4986SOL     OW26419   1.398   3.598   6.642 -0.0021  0.2951 -0.7222
 4986SOL    HW126420   1.419   3.504   6.647  0.9395  0.5908  0.6952
 4986SOL    HW226421   1.302   3.593   6.636 -0.1582  0.3226  1.6680
 4987SOL     OW26422   1.894   2.802  17.095  0.3371  0.4626  0.5272
 4987SOL    HW126423   1.924   2.762  17.013 -0.2511  0.9788  0.0541
 4987SOL    HW226424   1.957   2.874  17.107 -0.0446  0.6323  1.5048
 4988SOL     OW26425   0.682   4.210   5.705  0.1741 -0.4191 -0.3720
 4988SOL    HW126426   0.614   4.173   5.649  0.4271 -1.5192  0.0489
 4988SOL    HW226427   0.653   4.163   5.783 -1.1260 -1.9375 -1.7932
 4989SOL     OW26428   2.406   2.006   2.179 -0.1828  0.6090 -0.2713
 4989SOL    HW126429   2.471   2.067   2.214 -2.7547  2.9824  0.3699
 4989SOL    HW226430   2.449   1.924   2.204 -2.3816 -0.0630  1.3686
 4990SOL     OW26431   3.954   2.895   6.712  0.0455  0.2151 -0.2758
 4990SOL    HW126432   3.862   2.919   6.712 -0.2833 -1.1294  2.6324
 4990SOL    HW226433   3.977   2.948   6.636  1.8170 -1.2828 -0.7818
 4991SOL     OW26434   1.810   2.590   3.020  0.6752 -0.3295 -0.5918
 4991SOL    HW126435   1.851   2.507   3.046  0.2382 -0.1814  0.5648
 4991SOL    HW226436   1.747   2.555   2.957 -2.5580  1.3760  1.6682
 4992SOL     OW26437   3.801   0.326   8.405 -0.2311  0.2275  0.4247
 4992SOL    HW126438   3.837   0.348   8.319  0.9035  1.4139  1.2110
 4992SOL    HW226439   3.758   0.409   8.425 -0.4544  0.0401  0.7217
 4993SOL     OW26440   0.570   4.268   0.614  0.1930  0.4653 -0.4638
 4993SOL    HW126441   0.654   4.257   0.659  1.0333  0.5827 -1.9811
 4993SOL    HW226442   0.599   4.243   0.526  1.3164  0.3498 -0.0679
 4994SOL     OW26443   4.196   4.106   3.247 -0.6450 -0.7035  0.4997
 4994SOL    HW126444   4.167   4.025   3.206 -0.4997 -0.1965 -0.6168
 4994SOL    HW226445   4.287   4.102   3.217 -1.0128 -0.1517 -0.6909
 4995SOL     OW26446   1.879   4.208   2.660 -0.4928 -0.6438 -0.8090
 4995SOL    HW126447   1.788   4.208   2.629 -0.3115  0.7312 -1.2975
 4995SOL    HW226448   1.891   4.115   2.681 -0.8111 -0.5465 -0.1991
 4996SOL     OW26449   3.721   3.216   9.377  0.7130 -0.1341  0.4394
 4996SOL    HW126450   3.751   3.307   9.384 -0.1013  0.2211 -0.6240
 4996SOL    HW226451   3.723   3.200   9.471 -0.7380  0.9648  0.6688
 4997SOL     OW26452   3.721   3.812   8.672  0.4901  0.0997 -0.1128
 4997SOL    HW126453   3.646   3.752   8.676 -1.2547  2.4141  2.0220
 4997SOL    HW226454   3.708   3.872   8.746  1.1945 -0.6989  0.6607
 4998SOL     OW26455   0.666   1.111   8.576  0.3411  0.8059  0.0899
 4998SOL    HW126456   0.651   1.202   8.551 -2.3504 -0.0587 -1.3777
 4998SOL    HW226457   0.746   1.118   8.628  0.7310 -1.3193 -0.2281
 4999SOL     OW26458   4.630   4.006   2.774  0.2475  0.4902 -0.3438
 4999SOL    HW126459   4.705   4.059   2.746 -0.8729  0.8409 -2.6738
 4999SOL    HW226460   4.564   4.075   2.774  1.0743  1.2517  1.4197
 5000SOL     OW26461   1.940   3.670   8.643  0.1529  0.4576  0.3567
 5000SOL    HW126462   1.855   3.649   8.681 -0.6029 -0.3968 -1.7993
 5000SOL    HW226463   1.997   3.658   8.720  0.2823  1.0443  0.3532
 5001SOL     OW26464   3.804   2.705  15.468  0.2515 -0.0113  0.7377
 5001SOL    HW126465   3.833   2.764  15.538 -0.6817  3.9151 -2.1944
 5001SOL    HW226466   3.709   2.712  15.470  0.1263 -1.4327 -0.2057
 5002SOL     OW26467   4.302   1.779   5.948  0.0510 -0.5012  0.4517
 5002SOL    HW126468   4.222   1.736   5.916 -0.4011  0.2777  0.5408
 5002SOL    HW226469   4.294   1.862   5.900 -0.4322 -0.3561  0.7894
 5003SOL     OW26470   0.579   3.871   3.060 -0.2440 -0.2623  0.0215
 5003SOL    HW126471   0.490   3.840   3.076 -0.2761  0.7778  1.8822
 5003SOL    HW226472   0.628   3.800   3.101  0.3746  0.3336  0.3187
 5004SOL     OW26473   1.059   2.982  10.950  0.0965  0.1412 -0.2116
 5004SOL    HW126474   1.104   2.914  11.001  1.0761 -1.1909 -2.8579
 5004SOL    HW226475   0.991   3.009  11.012 -0.7230  1.2343 -1.5996
 5005SOL     OW26476   3.885   0.628   6.308 -0.0305  0.4020  0.1836
 5005SOL    HW126477   3.958   0.666   6.259 -1.4039  1.4364 -1.0649
 5005SOL    HW226478   3.935   0.581   6.375  1.2025 -0.8266 -1.5896
 5006SOL     OW26479   1.539   1.288   3.012  0.0406  0.2134  1.0063
 5006SOL    HW126480   1.459   1.254   3.050 -1.2059  0.3202 -1.5036
 5006SOL    HW226481   1.490   1.339   2.947  1.3218 -0.6706 -0.6655
 5007SOL     OW26482   4.713   1.015   6.767  0.3039 -0.3088 -0.0580
 5007SOL    HW126483   4.680   0.952   6.831 -0.4638 -1.1240 -1.2681
 5007SOL    HW226484   0.082   1.006   6.779  0.5233  1.4931 -0.4835
 5008SOL     OW26485   0.197   4.304   4.800 -0.2343 -0.5827  0.3062
 5008SOL    HW126486   0.165   4.390   4.773 -0.5191 -0.5597  0.7196
 5008SOL    HW226487   0.284   4.301   4.760 -0.0792 -1.5701  0.7243
 5009SOL     OW26488   1.124   0.873  10.948 -0.2207 -0.0729 -0.3468
 5009SOL    HW126489   1.199   0.856  10.892 -1.0444  1.4471 -1.9089
 5009SOL    HW226490   1.125   0.792  10.998  0.2215  0.9018  1.2153
 5010SOL     OW26491   4.592   3.374   2.445 -0.0539 -0.4061  0.1027
 5010SOL    HW126492   4.540   3.424   2.381 -1.8634 -0.8784  1.2149
 5010SOL    HW226493   4.560   3.411   2.527  1.0941 -0.2851  0.4905
 5011SOL     OW26494   0.611   2.825   4.517 -0.0824  0.3364  0.1728
 5011SOL    HW126495   0.624   2.731   4.505 -1.0196  0.5324 -2.4275
 5011SOL    HW226496   0.665   2.861   4.447  0.1787  0.5559  0.4873
 5012SOL     OW26497   1.519   2.103  11.516  0.1495 -0.3233  0.0359
 5012SOL    HW126498   1.443   2.160  11.507  0.6717 -0.0557 -2.7254
 5012SOL    HW226499   1.480   2.018  11.535 -0.1441 -0.4083 -0.9291
 5013SOL     OW26500   1.987   4.549  10.519  0.2428 -0.2638  0.1075
 5013SOL    HW126501   1.901   4.524  10.484 -0.4972  0.2514  1.5479
 5013SOL    HW226502   2.056   4.522  10.458 -2.3713 -1.6723 -2.2691
 5014SOL     OW26503   4.411   0.299  11.786  0.0599  0.1463  0.6206
 5014SOL    HW126504   4.424   0.331  11.875  1.5880  3.1387 -0.6612
 5014SOL    HW226505   4.477   0.229  11.783 -1.2589 -1.0206 -0.8770
 5015SOL     OW26506   0.562   0.693  11.916  0.7225  0.2119 -0.6923
 5015SOL    HW126507   0.582   0.609  11.957  0.3216 -0.2384 -1.4135
 5015SOL    HW226508   0.566   0.670  11.824 -2.7661 -0.1924 -0.7569
 5016SOL     OW26509   1.882   3.306   2.895 -0.0746  0.1155 -0.0285
 5016SOL    HW126510   1.884   3.218   2.858  2.0896  0.5082 -0.8815
 5016SOL    HW226511   1.885   3.285   2.988 -0.1080  1.8183  0.3602
 5017SOL     OW26512   1.989   1.723   5.700 -0.6505 -0.4170  0.2470
 5017SOL    HW126513   1.953   1.735   5.612  0.2380  0.3985 -0.0018
 5017SOL    HW226514   1.911   1.684   5.741 -1.3342  1.8917  1.1527
 5018SOL     OW26515   4.349   0.286   5.623  0.0926  0.3739  0.3083
 5018SOL    HW126516   4.353   0.191   5.638 -1.0223  0.1245 -1.0369
 5018SOL    HW226517   4.260   0.305   5.650 -0.3784 -2.1360  0.5746
 5019SOL     OW26518   3.336   0.504  13.726 -0.1191 -0.5376 -0.6519
 5019SOL    HW126519   3.288   0.581  13.695  0.2873 -0.4010 -0.9412
 5019SOL    HW226520   3.413   0.542  13.768 -2.3357  1.5919  1.4880
 5020SOL     OW26521   4.537   1.915   7.124 -0.3213  0.0203  0.0848
 5020SOL    HW126522   4.550   1.880   7.036 -1.7378  1.9994 -0.9013
 5020SOL    HW226523   4.577   1.846   7.177  0.4655 -0.0948 -0.6641
 5021SOL     OW26524   0.968   1.331   7.678  0.2691 -0.0864  0.2649
 5021SOL    HW126525   0.961   1.414   7.632 -0.9963 -0.4462 -0.1869
 5021SOL    HW226526   0.915   1.282   7.615  1.7840 -1.6699  0.2141
 5022SOL     OW26527   0.106   4.138   0.828 -0.1327  0.2538  0.0949
 5022SOL    HW126528   0.106   4.083   0.749  0.7929  1.3951 -0.7038
 5022SOL    HW226529   0.027   4.191   0.822  0.1996  1.0164  2.4485
 5023SOL     OW26530   3.202   1.005  11.331  0.1992 -0.3346 -0.8388
 5023SOL    HW126531   3.143   1.079  11.313  0.7581  0.3680  0.1952
 5023SOL    HW226532   3.149   0.973  11.403  2.5811 -1.2144  0.5177
 5024SOL     OW26533   1.525   0.333   9.063  0.2941 -0.4374  0.0509
 5024SOL    HW126534   1.500   0.294   8.979 -1.8805 -1.0039  0.9568
 5024SOL    HW226535   1.440   0.332   9.106  0.2272  2.5936 -0.0178
 5025SOL     OW26536   4.001   1.866   7.058 -0.2301 -0.4410 -0.2818
 5025SOL    HW126537   3.998   1.820   7.142  0.2108  1.4502  0.7648
 5025SOL    HW226538   3.989   1.955   7.091 -0.1783 -0.7741  0.6390
 5026SOL     OW26539   0.224   2.897  16.638  0.7126 -0.8842  0.1409
 5026SOL    HW126540   0.175   2.945  16.704  0.7758 -1.2804  0.4798
 5026SOL    HW226541   0.308   2.940  16.650 -0.1198  0.6451  0.4167
 5027SOL     OW26542   3.805   2.264  15.951 -0.0044  0.3224  0.4132
 5027SOL    HW126543   3.835   2.329  16.015  0.7634 -0.1470  0.5263
 5027SOL    HW226544   3.808   2.321  15.874  0.2939 -1.1856 -0.7001
 5028SOL     OW26545   0.124   4.495   5.452  0.0786 -0.3078  0.0119
 5028SOL    HW126546   0.106   4.409   5.489 -2.2058  0.5269  0.8637
 5028SOL    HW226547   0.041   4.507   5.406  0.7060  0.0937 -1.0210
 5029SOL     OW26548   4.484   2.147   6.922 -0.2664  0.2656  0.1574
 5029SOL    HW126549   4.409   2.088   6.931  1.0521 -1.2851  1.1482
 5029SOL    HW226550   4.543   2.093   6.975 -0.7509 -1.9019 -1.4858
 5030SOL     OW26551   4.509   0.527   8.306 -0.0125 -0.1050  0.0971
 5030SOL    HW126552   4.537   0.545   8.395  0.9174 -3.5293  0.4611
 5030SOL    HW226553   4.424   0.483   8.310 -0.1055 -0.1899 -2.4652
 5031SOL     OW26554   0.711   3.862   5.700  0.1493  0.4556  0.1179
 5031SOL    HW126555   0.701   3.767   5.707  0.1569  0.5164  0.9325
 5031SOL    HW226556   0.627   3.901   5.675  0.8674  1.0857 -1.2944
 5032SOL     OW26557   2.338   4.522   5.249 -0.2152 -0.9505  0.1101
 5032SOL    HW126558   2.355   4.447   5.191 -1.9271  0.2266 -1.9328
 5032SOL    HW226559   2.430   4.538   5.270 -0.4059 -0.4664  0.5706
 5033SOL     OW26560   2.402   3.385   8.683  0.0549  0.1340 -0.5147
 5033SOL    HW126561   2.454   3.366   8.761  1.1129  1.5602 -0.8731
 5033SOL    HW226562   2.448   3.316   8.635  0.9636 -0.2438  0.8834
 5034SOL     OW26563   3.458   3.035   6.605  0.2368 -0.0108  0.3445
 5034SOL    HW126564   3.459   3.006   6.513  2.0696 -1.1090  0.6988
 5034SOL    HW226565   3.416   2.955   6.638 -0.1261 -0.0564 -0.2186
 5035SOL     OW26566   4.024   0.249   0.450 -0.1814 -0.0350 -0.4999
 5035SOL    HW126567   4.082   0.201   0.509  2.3341  1.3681 -1.8610
 5035SOL    HW226568   4.013   0.178   0.388  0.8958 -1.7961  1.3307
 5036SOL     OW26569   2.011   4.233  13.128  0.1919 -0.0481 -0.4738
 5036SOL    HW126570   2.070   4.248  13.201 -1.1985  0.2281  0.6021
 5036SOL    HW226571   2.010   4.137  13.129 -1.1208 -0.0319 -0.2150
 5037SOL     OW26572   4.204   1.224   5.589 -0.1889  0.3667  0.5392
 5037SOL    HW126573   4.238   1.273   5.514 -2.3434  1.2550  0.1281
 5037SOL    HW226574   4.235   1.269   5.667  3.0770  1.8440 -1.6097
 5038SOL     OW26575   3.173   2.605  13.405  0.0701 -0.3318 -0.3762
 5038SOL    HW126576   3.207   2.674  13.462  0.4517 -0.7117 -0.1427
 5038SOL    HW226577   3.206   2.633  13.320 -0.0857 -0.4743 -0.4843
 5039SOL     OW26578   2.825   1.285   3.554  0.0596  0.6218  0.4072
 5039SOL    HW126579   2.767   1.305   3.481  1.1849 -1.3616 -1.0247
 5039SOL    HW226580   2.762   1.272   3.625  0.2095  2.8521  0.9710
 5040SOL     OW26581   1.727   2.380   2.385 -0.5264  0.0565 -0.0771
 5040SOL    HW126582   1.778   2.318   2.334  0.0934 -1.0677  1.9278
 5040SOL    HW226583   1.638   2.348   2.369 -0.1899 -1.6311  1.4765
 5041SOL     OW26584   3.119   1.298  11.603 -0.2991  0.7334  0.2162
 5041SOL    HW126585   3.120   1.393  11.588 -1.0826  0.5763 -0.8255
 5041SOL    HW226586   3.088   1.273  11.516  2.0167  1.8204 -0.9449
 5042SOL     OW26587   0.599   3.418   6.358 -0.3118  0.4942  0.1036
 5042SOL    HW126588   0.561   3.367   6.286 -0.5857  0.6728  0.1180
 5042SOL    HW226589   0.690   3.395   6.343 -0.9646 -1.9151 -0.2832
 5043SOL     OW26590   3.429   3.034   4.732  0.4356  0.1324  0.5083
 5043SOL    HW126591   3.500   2.976   4.758  0.4472  0.8038  1.9923
 5043SOL    HW226592   3.479   3.114   4.715 -0.1926  0.1053 -1.3865
 5044SOL     OW26593   3.277   0.578   4.333  0.4995  0.8015 -0.2765
 5044SOL    HW126594   3.242   0.502   4.379  2.3620  0.2224  0.1571
 5044SOL    HW226595   3.196   0.628   4.319  1.9926  3.7454  1.4731
 5045SOL     OW26596   2.419   2.389   4.894  0.1044  0.4993 -0.4498
 5045SOL    HW126597   2.438   2.299   4.922  0.1267  1.0934  1.4452
 5045SOL    HW226598   2.370   2.423   4.969 -1.0712 -2.6266  0.2172
 5046SOL     OW26599   0.534   1.882  10.439  0.6615  0.9885  0.9149
 5046SOL    HW126600   0.459   1.940  10.450 -0.6901 -0.5839 -0.0420
 5046SOL    HW226601   0.548   1.853  10.529 -0.7557 -1.7742  0.2564
 5047SOL     OW26602   1.167   0.056   4.128 -0.2425 -0.0471  0.0262
 5047SOL    HW126603   1.087   0.003   4.131 -1.5729  1.8927 -1.2204
 5047SOL    HW226604   1.205   0.010   4.054  0.7694  0.5242  0.1826
 5048SOL     OW26605   0.975   0.050   5.664  0.1527 -0.5312 -0.3012
 5048SOL    HW126606   0.881   0.056   5.683 -0.1587  0.3459 -2.1311
 5048SOL    HW226607   0.975   4.713   5.591 -0.3990  1.1071 -1.6945
 5049SOL     OW26608   4.076   0.044   0.229  0.3972 -0.2652  0.6674
 5049SOL    HW126609   4.126   4.704   0.180 -1.6710 -1.6719  0.4079
 5049SOL    HW226610   4.107   0.125   0.188  1.3339  0.0868  2.1032
 5050SOL     OW26611   0.766   1.318   7.855 -0.4307 -0.1464 -0.5743
 5050SOL    HW126612   0.829   1.316   7.783  0.8969 -0.9506  0.5979
 5050SOL    HW226613   0.721   1.236   7.837  1.5469 -1.9471  2.6822
 5051SOL     OW26614   3.998   3.295  13.108  0.5931 -0.2570 -0.0881
 5051SOL    HW126615   4.056   3.371  13.116  1.9182 -1.4595  1.5250
 5051SOL    HW226616   3.978   3.270  13.198 -0.5270 -1.0491 -0.5594
 5052SOL     OW26617   4.464   0.489  16.832  0.3000 -0.0951  0.4178
 5052SOL    HW126618   4.554   0.489  16.865  0.1112  1.0978  0.9098
 5052SOL    HW226619   4.472   0.562  16.770 -0.3410 -0.9720 -0.7014
 5053SOL     OW26620   0.463   2.124   3.957 -0.1697  0.2203 -0.2356
 5053SOL    HW126621   0.488   2.139   4.048 -0.9876 -0.7156  0.1534
 5053SOL    HW226622   0.368   2.137   3.965  0.0724  2.0977 -0.5448
 5054SOL     OW26623   0.772   2.974  16.262  0.2669 -0.0281  0.2396
 5054SOL    HW126624   0.822   3.020  16.330 -0.8891  0.5320  0.7148
 5054SOL    HW226625   0.710   2.906  16.287 -1.0719  0.7514 -0.9884
 5055SOL     OW26626   1.780   0.335   6.745 -0.3902 -0.3432 -0.3723
 5055SOL    HW126627   1.766   0.375   6.659 -1.1710 -2.4865 -1.2300
 5055SOL    HW226628   1.698   0.288   6.757  0.3963 -1.4006  0.8848
 5056SOL     OW26629   4.262   0.199   8.118 -0.1022  0.8496 -0.8667
 5056SOL    HW126630   4.180   0.158   8.147 -0.1676  0.1772 -1.9824
 5056SOL    HW226631   4.287   0.246   8.197  1.4301 -2.9284  0.8957
 5057SOL     OW26632   3.683   3.768  10.413  0.4656  0.0605  0.1851
 5057SOL    HW126633   3.661   3.702  10.347  3.8327 -0.0190 -0.8822
 5057SOL    HW226634   3.705   3.839  10.354 -0.6091 -1.7275 -2.3537
 5058SOL     OW26635   0.855   2.562   3.620  0.1178  0.1609 -0.2279
 5058SOL    HW126636   0.769   2.525   3.600  0.3342  1.0799 -2.9200
 5058SOL    HW226637   0.901   2.488   3.659  0.9422  0.0148 -1.4598
 5059SOL     OW26638   2.422   1.516   1.886 -0.1991  0.5165 -0.1630
 5059SOL    HW126639   2.504   1.532   1.933 -1.1536 -0.7723  1.9935
 5059SOL    HW226640   2.451   1.469   1.808  0.5301 -0.6841  0.8302
 5060SOL     OW26641   1.168   3.154   3.480 -0.0114 -0.3967 -0.1367
 5060SOL    HW126642   1.146   3.165   3.388  1.7964 -2.3878 -0.8016
 5060SOL    HW226643   1.230   3.082   3.468 -0.1939 -0.6140  0.2515
 5061SOL     OW26644   2.934   1.046   7.698  0.3853  0.1904  0.5990
 5061SOL    HW126645   2.949   0.956   7.669 -0.6523 -0.4335  1.9846
 5061SOL    HW226646   2.901   1.091   7.620 -1.3732 -0.1877  1.1298
 5062SOL     OW26647   3.180   1.953   2.684  0.0956 -0.2471 -0.3131
 5062SOL    HW126648   3.259   1.899   2.676 -1.1729 -2.1265  0.0332
 5062SOL    HW226649   3.127   1.931   2.607  1.5558 -0.1363 -1.3635
 5063SOL     OW26650   3.941   2.645   1.359  0.2974 -0.3560  0.1722
 5063SOL    HW126651   3.925   2.729   1.401  0.2618 -0.1434 -0.2688
 5063SOL    HW226652   4.003   2.668   1.290  0.3444 -1.5633 -0.2021
 5064SOL     OW26653   1.286   0.338  11.837  0.3100  0.1934 -0.0215
 5064SOL    HW126654   1.276   0.312  11.928  0.9487  1.0937  0.3186
 5064SOL    HW226655   1.349   0.411  11.842  0.1310  0.2573  1.2000
 5065SOL     OW26656   4.406   1.331   9.313  0.2184  0.2038 -0.2887
 5065SOL    HW126657   4.486   1.362   9.271  0.6626  0.2191  0.5630
 5065SOL    HW226658   4.405   1.243   9.275  0.5688  0.3835 -0.7184
 5066SOL     OW26659   3.155   4.241   6.233 -0.1899  0.3952 -0.5773
 5066SOL    HW126660   3.109   4.290   6.165 -2.0282 -1.7298 -0.8586
 5066SOL    HW226661   3.189   4.168   6.181  2.9513  1.2634  0.2298
 5067SOL     OW26662   0.108   2.830   2.627  0.0666  0.8045 -0.2598
 5067SOL    HW126663   0.148   2.788   2.703 -2.6641 -2.3228 -0.5457
 5067SOL    HW226664   0.150   2.773   2.563  1.1696 -0.4252  1.5562
 5068SOL     OW26665   2.959   3.216   6.324 -0.0209 -0.4105 -0.1615
 5068SOL    HW126666   3.039   3.219   6.273  1.1211  2.2693  1.7396
 5068SOL    HW226667   2.951   3.308   6.350  1.3689 -0.2303 -0.3985
 5069SOL     OW26668   1.274   2.148   2.796 -0.5168 -0.0957  0.2036
 5069SOL    HW126669   1.297   2.064   2.835  0.6339 -0.1862 -0.6448
 5069SOL    HW226670   1.313   2.149   2.708 -1.7296  0.5844 -0.3252
 5070SOL     OW26671   1.167   1.844   5.906 -0.4218 -0.5336 -0.1692
 5070SOL    HW126672   1.088   1.855   5.853 -0.3168  0.4069 -0.1347
 5070SOL    HW226673   1.144   1.869   5.996 -1.6679 -1.4312 -0.2339
 5071SOL     OW26674   4.557   3.265   0.389 -0.1761  0.0475 -0.3931
 5071SOL    HW126675   4.622   3.219   0.442 -0.4039  1.2510  0.9446
 5071SOL    HW226676   4.476   3.260   0.438  0.9970 -0.3616  1.5090
 5072SOL     OW26677   4.286   1.575  16.443 -0.2897 -0.3378 -0.3602
 5072SOL    HW126678   4.302   1.649  16.502 -1.7852  1.3471 -2.0739
 5072SOL    HW226679   4.377   1.547  16.434  0.4066  1.4151  1.1946
 5073SOL     OW26680   1.739   2.999  17.254  0.3704  0.2154 -0.2923
 5073SOL    HW126681   1.749   3.049  17.174 -1.6387  0.7040 -0.2360
 5073SOL    HW226682   1.791   3.061  17.304 -0.5234 -0.2192  1.1792
 5074SOL     OW26683   0.860   1.265   5.882  0.4364 -0.0440  0.0688
 5074SOL    HW126684   0.767   1.286   5.886 -0.2358 -2.8593 -0.9218
 5074SOL    HW226685   0.900   1.352   5.879  0.0745  0.1620  1.1136
 5075SOL     OW26686   4.588   2.114   8.133  0.0298  0.0297  0.1788
 5075SOL    HW126687   4.559   2.049   8.197 -0.0201 -0.1637 -0.0387
 5075SOL    HW226688   4.571   2.191   8.187 -0.1537  1.3999 -1.8371
 5076SOL     OW26689   3.934   3.598  17.029  0.4452 -0.2751 -0.0255
 5076SOL    HW126690   3.902   3.526  16.975 -0.7491 -0.7884  1.3651
 5076SOL    HW226691   3.973   3.654  16.962 -1.0947  1.7621  0.7654
 5077SOL     OW26692   2.214   3.312   9.640  0.4371 -0.3685  0.1804
 5077SOL    HW126693   2.119   3.328   9.642  0.6674  1.0668 -0.4159
 5077SOL    HW226694   2.251   3.361   9.714  2.2544 -2.6962  0.8043
 5078SOL     OW26695   3.154   3.801   1.632  0.4965 -0.2920 -0.8298
 5078SOL    HW126696   3.100   3.852   1.693 -0.7203 -0.8165 -1.4805
 5078SOL    HW226697   3.239   3.833   1.664  0.0749 -1.6577  1.6808
 5079SOL     OW26698   4.372   3.064  10.962  0.2389 -0.4781  0.0513
 5079SOL    HW126699   4.378   2.973  10.991 -0.7156 -0.6586 -0.3021
 5079SOL    HW226700   4.462   3.084  10.936  0.0878  2.3001  1.7816
 5080SOL     OW26701   2.051   0.546   8.238 -0.2847  0.0647  0.2200
 5080SOL    HW126702   2.104   0.495   8.177 -1.2447  0.6445 -1.0968
 5080SOL    HW226703   2.050   0.494   8.318  0.0521  0.0415  0.2080
 5081SOL     OW26704   1.417   3.925   8.653 -0.2319  0.0660 -0.3798
 5081SOL    HW126705   1.464   3.939   8.571  0.3271 -3.0746 -0.5916
 5081SOL    HW226706   1.349   3.860   8.636 -0.5641  0.7197 -1.6158
 5082SOL     OW26707   4.470   2.672   6.044  0.3338  0.4599  0.0813
 5082SOL    HW126708   4.462   2.742   6.108  2.4291 -0.6092  1.5251
 5082SOL    HW226709   4.398   2.697   5.987  2.0517  1.3473 -1.6929
 5083SOL     OW26710   2.357   4.483  10.649 -0.3828 -0.3924  0.1521
 5083SOL    HW126711   2.387   4.506  10.737 -1.1440 -1.8422  0.7998
 5083SOL    HW226712   2.278   4.431  10.666 -0.8518  0.9014  1.9215
 5084SOL     OW26713   2.876   2.377   4.678 -0.2389  0.4091  0.3772
 5084SOL    HW126714   2.917   2.291   4.664 -1.6322 -0.0913 -0.5729
 5084SOL    HW226715   2.957   2.426   4.695 -0.5328  0.7635  0.7560
 5085SOL     OW26716   2.516   1.970   8.042 -0.0141  0.1442  0.3634
 5085SOL    HW126717   2.502   2.022   7.963 -2.4364 -0.0425  0.6619
 5085SOL    HW226718   2.588   2.017   8.085  1.3053 -0.8324 -0.7855
 5086SOL     OW26719   3.605   3.767   4.811  0.3741  0.1450  0.6068
 5086SOL    HW126720   3.637   3.837   4.867  0.3615  1.2757 -0.7874
 5086SOL    HW226721   3.649   3.786   4.728 -0.5214  0.4718  0.2073
 5087SOL     OW26722   2.356   0.295   6.394  0.0183  0.3457 -0.4917
 5087SOL    HW126723   2.421   0.272   6.461 -3.2305 -2.7595  1.6463
 5087SOL    HW226724   2.405   0.354   6.337 -0.8442  0.8181 -0.7411
 5088SOL     OW26725   2.226   2.260   6.780 -0.2423  0.0807 -0.3721
 5088SOL    HW126726   2.152   2.276   6.721 -2.0102 -0.8839  1.5942
 5088SOL    HW226727   2.295   2.292   6.722 -0.7566  0.1869 -0.9253
 5089SOL     OW26728   3.441   1.648  16.857 -0.2506 -0.2007  0.2742
 5089SOL    HW126729   3.437   1.732  16.902 -0.0813  0.2974 -0.6555
 5089SOL    HW226730   3.465   1.687  16.774  1.6795  2.6314  2.1720
 5090SOL     OW26731   3.179   0.897   2.169  0.0930  0.2690 -0.5322
 5090SOL    HW126732   3.138   0.870   2.087 -0.5560 -0.2602 -0.0386
 5090SOL    HW226733   3.258   0.843   2.168 -0.8344 -1.0763 -0.8266
 5091SOL     OW26734   1.866   3.217   8.070 -0.4334 -0.0838 -0.2838
 5091SOL    HW126735   1.942   3.275   8.059  0.1344 -0.5932  0.9115
 5091SOL    HW226736   1.855   3.169   7.988  0.5085  2.0552 -1.6621
 5092SOL     OW26737   0.592   1.150   1.762  0.0558  0.2244 -0.7772
 5092SOL    HW126738   0.626   1.160   1.851 -1.3938  0.7853 -0.2776
 5092SOL    HW226739   0.647   1.212   1.716  0.0879 -0.0424 -1.0947
 5093SOL     OW26740   0.518   0.530  13.630 -0.0686 -0.3113 -0.2699
 5093SOL    HW126741   0.546   0.577  13.709  0.5199  0.4871 -0.9524
 5093SOL    HW226742   0.472   0.591  13.573  0.0019  0.3832  0.4205
 5094SOL     OW26743   2.605   2.632   5.267 -0.6310  0.4988  0.2517
 5094SOL    HW126744   2.685   2.654   5.220 -0.2662  0.2090  0.7452
 5094SOL    HW226745   2.634   2.583   5.344  1.6640  0.4552 -0.6638
 5095SOL     OW26746   1.292   2.959   6.939  0.5265  0.1002 -0.1650
 5095SOL    HW126747   1.235   2.936   6.866 -0.2051 -0.9330  0.7400
 5095SOL    HW226748   1.371   2.943   6.888  0.0952  0.4720 -0.9442
 5096SOL     OW26749   3.406   0.005   8.318 -0.4832  0.3519  0.0372
 5096SOL    HW126750   3.454   0.035   8.241 -0.2848  0.9034  0.3786
 5096SOL    HW226751   3.462   0.035   8.389  2.0726 -0.2938 -1.6933
 5097SOL     OW26752   4.290   3.953  16.641 -0.0945  0.5720 -0.3922
 5097SOL    HW126753   4.264   3.863  16.663 -0.6557  1.0553  0.9450
 5097SOL    HW226754   4.378   3.965  16.676 -0.3504 -0.3037  0.5572
 5098SOL     OW26755   1.625   2.054   6.701 -0.6000  0.7416 -0.2806
 5098SOL    HW126756   1.674   2.002   6.637  0.2686 -0.7628  1.6252
 5098SOL    HW226757   1.691   2.069   6.768 -0.0368 -0.6350 -0.5377
 5099SOL     OW26758   3.783   4.678   8.069 -0.1586  0.0506 -0.1015
 5099SOL    HW126759   3.706   0.008   8.058  1.0569  1.8188  0.3135
 5099SOL    HW226760   3.755   4.624   8.144  2.0798 -0.7506  0.1611
 5100SOL     OW26761   3.542   3.957   0.407 -0.1823  0.2366 -0.4102
 5100SOL    HW126762   3.607   4.019   0.374 -1.7935  2.6411  0.9174
 5100SOL    HW226763   3.555   3.960   0.502  3.3312  1.9480 -0.9651
 5101SOL     OW26764   2.409   1.129   3.480  0.2756 -0.6588 -0.0196
 5101SOL    HW126765   2.375   1.064   3.418 -1.2669 -0.1819  0.3409
 5101SOL    HW226766   2.370   1.102   3.563  0.2322 -0.9225 -0.1255
 5102SOL     OW26767   1.594   1.411   3.432  0.1324  0.1072  0.3572
 5102SOL    HW126768   1.510   1.436   3.394  0.2760  0.5956  0.3581
 5102SOL    HW226769   1.635   1.498   3.424  0.5804 -0.2523 -1.3309
 5103SOL     OW26770   2.332   4.584   8.735  0.1112 -0.2612  0.0772
 5103SOL    HW126771   2.291   4.590   8.821  1.8294  0.4675  0.8399
 5103SOL    HW226772   2.247   4.586   8.690  1.3372 -0.2605 -2.2293
 5104SOL     OW26773   4.260   1.280   2.494  0.5796  0.1348  0.0935
 5104SOL    HW126774   4.214   1.202   2.525  1.4889 -0.6470 -0.5370
 5104SOL    HW226775   4.200   1.326   2.435  0.4085  2.2871  1.9322
 5105SOL     OW26776   0.343   4.643   2.821  0.3844  0.3188  0.1900
 5105SOL    HW126777   0.377   4.560   2.856  3.0577  1.7552  1.0075
 5105SOL    HW226778   0.363   4.635   2.727  3.2484 -0.8228  0.8771
 5106SOL     OW26779   3.009   3.723   2.587  0.1635  0.7688 -0.0141
 5106SOL    HW126780   2.955   3.654   2.549  2.1334 -0.1646 -1.1440
 5106SOL    HW226781   2.999   3.798   2.529  1.1315  0.4517 -0.5942
 5107SOL     OW26782   4.233   1.652   5.319 -0.3328 -0.5999 -0.2103
 5107SOL    HW126783   4.186   1.735   5.331  1.1671  0.0940  1.0174
 5107SOL    HW226784   4.317   1.657   5.365 -0.6823 -1.1831  0.4867
 5108SOL     OW26785   3.415   1.924   9.509 -0.0245  0.1355 -0.2056
 5108SOL    HW126786   3.351   1.961   9.570  0.2154  0.3058 -0.0587
 5108SOL    HW226787   3.475   1.883   9.570 -0.1843  1.2792  0.7200
 5109SOL     OW26788   3.963   4.152   6.090  0.1103 -0.3026 -0.0876
 5109SOL    HW126789   3.960   4.073   6.143 -0.5785 -0.0450  0.2464
 5109SOL    HW226790   3.871   4.157   6.065  0.4963  2.8355 -0.9248
 5110SOL     OW26791   2.613   0.781   3.684  0.4011 -0.3221  0.4727
 5110SOL    HW126792   2.523   0.790   3.713  0.4039 -2.9773  1.3369
 5110SOL    HW226793   2.652   0.735   3.759  0.6778 -0.1152  0.4555
 5111SOL     OW26794   0.186   4.074   6.292  0.7711 -0.2064 -0.4820
 5111SOL    HW126795   0.185   4.162   6.254  3.7148  0.9897  2.2562
 5111SOL    HW226796   0.281   4.065   6.299  0.9305  1.1633 -0.8255
 5112SOL     OW26797   4.673   0.961   1.731 -0.0759 -0.5097 -0.2537
 5112SOL    HW126798   4.580   0.978   1.718 -0.1189 -0.8355 -0.3696
 5112SOL    HW226799   4.684   0.972   1.825  1.8701  0.9634 -0.6591
 5113SOL     OW26800   4.537   3.112   3.976 -0.0878 -0.0830 -0.0250
 5113SOL    HW126801   4.456   3.151   3.943 -0.5213 -2.6283 -1.9172
 5113SOL    HW226802   4.505   3.059   4.049 -0.7194  1.3582  0.7461
 5114SOL     OW26803   0.745   0.388   0.555 -0.6565 -0.6713 -0.5729
 5114SOL    HW126804   0.748   0.305   0.507 -1.3452 -0.4351 -1.0160
 5114SOL    HW226805   0.653   0.391   0.582 -1.0894 -1.0453 -2.0151
 5115SOL     OW26806   2.289   0.998   9.229  0.6823  0.6574  0.2842
 5115SOL    HW126807   2.280   1.007   9.323 -1.1533 -1.7309  0.3588
 5115SOL    HW226808   2.303   0.904   9.217  0.7313  0.7884 -0.7236
 5116SOL     OW26809   0.304   1.179  14.381  0.2341  0.2314  0.4840
 5116SOL    HW126810   0.342   1.267  14.385 -0.8705  0.8015 -1.6392
 5116SOL    HW226811   0.328   1.155  14.471  5.0071  2.2447 -0.2564
 5117SOL     OW26812   2.473   2.234   0.229  0.1511 -0.4319 -0.3192
 5117SOL    HW126813   2.511   2.160   0.275 -0.7781 -1.2608 -0.8889
 5117SOL    HW226814   2.417   2.277   0.294  0.7839 -1.4696  0.9067
 5118SOL     OW26815   4.197   4.451   6.512  0.1135  0.2396 -1.0124
 5118SOL    HW126816   4.207   4.358   6.489 -1.0636  0.0639 -0.8051
 5118SOL    HW226817   4.267   4.486   6.456  0.7766 -0.2163 -0.4812
 5119SOL     OW26818   3.732   3.764   9.967  0.0365  0.1557  0.4580
 5119SOL    HW126819   3.788   3.785  10.041 -1.0080  1.2169  0.9389
 5119SOL    HW226820   3.694   3.849   9.943  1.3841  1.4070  2.7241
 5120SOL     OW26821   3.222   2.682   7.589 -1.2811  0.3789 -0.2657
 5120SOL    HW126822   3.156   2.642   7.646  0.3397 -0.8578  0.7173
 5120SOL    HW226823   3.171   2.697   7.509 -1.5745 -2.4197 -0.6268
 5121SOL     OW26824   1.238   0.197   9.171 -0.2772  0.0826  0.0836
 5121SOL    HW126825   1.240   0.288   9.143 -0.4028 -0.0781 -0.4500
 5121SOL    HW226826   1.142   0.187   9.171 -0.1946 -0.6430  1.2282
 5122SOL     OW26827   4.027   3.848   4.514 -0.3828  0.3340  0.3250
 5122SOL    HW126828   4.100   3.789   4.533  2.4074  3.3473 -0.9125
 5122SOL    HW226829   4.058   3.937   4.530  1.0545 -0.4683  2.0326
 5123SOL     OW26830   1.304   0.544   0.323 -0.2025 -0.0301 -0.2352
 5123SOL    HW126831   1.306   0.639   0.326 -1.2548 -0.0186  0.2816
 5123SOL    HW226832   1.220   0.513   0.291 -0.3506  0.6048 -0.4575
 5124SOL     OW26833   3.486   0.219   3.778  0.2966 -0.1446  0.3795
 5124SOL    HW126834   3.563   0.208   3.833  0.6574 -0.5549 -0.2093
 5124SOL    HW226835   3.480   0.313   3.758  1.6935  0.1295  1.3022
 5125SOL     OW26836   2.085   1.359  11.390  0.2338  0.1952 -0.3164
 5125SOL    HW126837   2.134   1.429  11.433  0.8440 -0.2419 -0.3008
 5125SOL    HW226838   2.037   1.410  11.324  1.1743 -1.3946 -2.2440
 5126SOL     OW26839   3.952   4.006   7.456  0.1864  0.4565 -0.2089
 5126SOL    HW126840   3.927   4.087   7.500  2.1115  1.3903 -0.8507
 5126SOL    HW226841   3.885   4.007   7.387  0.0120 -0.2209 -0.0478
 5127SOL     OW26842   0.494   4.015   4.467 -0.4258  0.7407 -0.3296
 5127SOL    HW126843   0.559   3.982   4.404 -1.3465 -0.0146 -0.8775
 5127SOL    HW226844   0.460   4.087   4.413 -0.8349 -1.1843 -2.6384
 5128SOL     OW26845   0.383   3.691  14.630  0.6942 -0.5302  0.4832
 5128SOL    HW126846   0.438   3.672  14.706  0.3742  1.5779  1.2397
 5128SOL    HW226847   0.327   3.613  14.627  0.1028 -0.0933  0.1634
 5129SOL     OW26848   2.300   1.545   0.637  0.1526 -0.2271 -0.0701
 5129SOL    HW126849   2.334   1.633   0.658  2.2632 -1.5880  2.2063
 5129SOL    HW226850   2.385   1.501   0.628  0.9113  0.3623  4.1600
 5130SOL     OW26851   4.563   3.077  13.191  0.2605 -0.3744  0.2241
 5130SOL    HW126852   4.480   3.048  13.229  1.0565  0.1364  2.4065
 5130SOL    HW226853   4.592   2.992  13.159 -3.0412 -0.7480 -1.7942
 5131SOL     OW26854   3.219   2.809   2.216 -0.1104  0.7329 -0.5194
 5131SOL    HW126855   3.131   2.772   2.219 -0.2808  1.2247  0.8818
 5131SOL    HW226856   3.271   2.737   2.252 -2.6537  1.0664  3.8594
 5132SOL     OW26857   1.215   1.018   0.877 -0.3460  0.9837 -0.1654
 5132SOL    HW126858   1.295   1.014   0.825  0.7037 -0.3156  1.5557
 5132SOL    HW226859   1.224   0.942   0.935 -0.0495  0.7924 -0.4632
 5133SOL     OW26860   4.266   3.725   4.197  0.2435  0.4350  0.0325
 5133SOL    HW126861   4.295   3.689   4.113  0.6570  2.1993 -0.5710
 5133SOL    HW226862   4.335   3.691   4.255 -0.6248 -0.4988  0.5124
 5134SOL     OW26863   0.281   1.363  14.016 -0.2390 -0.0359 -0.0513
 5134SOL    HW126864   0.342   1.308  14.064 -0.2532 -0.4040 -0.4550
 5134SOL    HW226865   0.308   1.345  13.926  2.6652 -3.3866  1.5060
 5135SOL     OW26866   2.955   4.221   7.516  0.6709 -0.2301  0.4768
 5135SOL    HW126867   2.945   4.163   7.592  0.7958  0.7102  1.2045
 5135SOL    HW226868   2.866   4.215   7.480  2.1255  0.1409 -3.1084
 5136SOL     OW26869   4.570   1.360  16.190 -0.2249 -0.3728 -0.3707
 5136SOL    HW126870   4.484   1.378  16.153 -0.0678  0.9662 -0.0935
 5136SOL    HW226871   4.587   1.428  16.256 -0.1324  0.8311 -1.6314
 5137SOL     OW26872   3.801   3.591   5.677  0.4592  0.6100 -0.1699
 5137SOL    HW126873   3.795   3.648   5.601 -1.7564 -0.3598 -0.7158
 5137SOL    HW226874   3.721   3.546   5.652  0.3163  0.0145  1.3592
 5138SOL     OW26875   2.941   4.005  10.282 -0.3499 -0.2052 -0.3759
 5138SOL    HW126876   2.923   4.097  10.264  0.2549 -0.1372 -0.6197
 5138SOL    HW226877   2.901   3.996  10.368  0.1088  1.7087  0.0248
 5139SOL     OW26878   2.551   0.975   6.175 -0.1656 -0.7241 -0.2058
 5139SOL    HW126879   2.608   0.984   6.099  0.6095  0.0276  0.4676
 5139SOL    HW226880   2.548   1.068   6.197  1.1017 -0.9147  0.7293
 5140SOL     OW26881   0.603   2.403   4.486  0.7573 -0.2191 -0.1909
 5140SOL    HW126882   0.612   2.321   4.436 -0.8049 -0.3987 -0.1638
 5140SOL    HW226883   0.580   2.464   4.415  0.3434 -0.9141 -0.6575
 5141SOL     OW26884   0.687   4.363   0.998 -0.2789  0.2310 -0.2169
 5141SOL    HW126885   0.731   4.441   0.965 -2.1872  0.4693 -2.1824
 5141SOL    HW226886   0.660   4.410   1.077  0.8747 -1.6535  1.3015
 5142SOL     OW26887   0.099   0.016   0.938  0.2977  0.3535  0.2256
 5142SOL    HW126888   0.182   4.694   0.930  0.8466  1.2485  0.6702
 5142SOL    HW226889   0.066   4.711   0.853 -1.4470  0.8704  0.7064
 5143SOL     OW26890   0.002   0.157  15.905  0.4359 -0.1322  0.0659
 5143SOL    HW126891   0.034   0.167  15.995 -0.4093 -1.3734  0.5073
 5143SOL    HW226892   4.680   0.076  15.925  0.5749 -1.1410 -3.7759
 5144SOL     OW26893   0.335   0.655  12.221 -0.0254  0.2437  0.4917
 5144SOL    HW126894   0.327   0.693  12.133 -0.0532 -2.0265 -0.5117
 5144SOL    HW226895   0.279   0.578  12.207  0.9613 -0.8135  2.3544
 5145SOL     OW26896   1.480   0.125  11.817 -0.1078  0.0079 -0.1968
 5145SOL    HW126897   1.401   0.174  11.796 -0.8243 -0.7662  0.7144
 5145SOL    HW226898   1.451   0.103  11.906 -0.6521  1.4480 -0.0129
 5146SOL     OW26899   3.226   2.696   2.951 -0.0473 -0.2456  0.3148
 5146SOL    HW126900   3.308   2.653   2.927 -0.7717 -1.2349 -0.4069
 5146SOL    HW226901   3.206   2.638   3.024 -0.5832 -0.7882 -0.2676
 5147SOL     OW26902   2.095   3.412   3.710  0.0175  0.4368  1.0195
 5147SOL    HW126903   2.118   3.405   3.802 -0.9207 -0.6514  1.1815
 5147SOL    HW226904   2.057   3.327   3.686  0.7922 -0.7610  4.0820
 5148SOL     OW26905   1.752   1.284   4.854 -0.6433 -0.0671 -0.9861
 5148SOL    HW126906   1.803   1.347   4.803 -0.1523  1.3480  1.2852
 5148SOL    HW226907   1.765   1.207   4.798 -1.0945  0.6769 -2.1352
 5149SOL     OW26908   3.502   0.114   3.512 -0.0519 -1.2458  0.5658
 5149SOL    HW126909   3.406   0.107   3.505 -0.0032 -0.7764 -0.5352
 5149SOL    HW226910   3.508   0.145   3.603  1.6687 -0.4491  0.1763
 5150SOL     OW26911   0.039   2.943   7.141  0.0943  0.1317 -0.3512
 5150SOL    HW126912   0.048   3.035   7.164 -1.0704 -0.1039  1.0368
 5150SOL    HW226913   0.113   2.901   7.184  0.0780  0.1146 -0.3395
 5151SOL     OW26914   0.109   2.041   9.093  0.2070  0.2007 -0.3570
 5151SOL    HW126915   0.154   1.956   9.088 -0.9535 -0.4254 -0.0758
 5151SOL    HW226916   0.081   2.058   9.183 -0.6056  0.1521 -0.5990
 5152SOL     OW26917   2.915   3.316   9.025 -0.0539  0.8149  0.2686
 5152SOL    HW126918   2.882   3.399   8.990 -0.6856  0.0969 -0.8313
 5152SOL    HW226919   2.836   3.261   9.032  0.5847 -0.2018 -0.5445
 5153SOL     OW26920   1.962   1.873  16.511  0.9721  0.0900  0.0158
 5153SOL    HW126921   2.006   1.941  16.562  0.0990  0.6973 -0.0401
 5153SOL    HW226922   2.014   1.877  16.430  1.9370 -3.7519  0.4522
 5154SOL     OW26923   4.621   2.557  13.410  0.3934 -0.4537 -0.0780
 5154SOL    HW126924   4.701   2.519  13.448  0.5815  1.1758  1.1317
 5154SOL    HW226925   4.646   2.541  13.319  0.3404  1.1113 -0.3755
 5155SOL     OW26926   0.700   2.132   5.193  0.8041 -0.1232 -0.0295
 5155SOL    HW126927   0.638   2.198   5.162  0.1415 -0.1006  1.3265
 5155SOL    HW226928   0.694   2.082   5.112 -0.7964 -1.5705  0.9817
 5156SOL     OW26929   1.174   4.635   1.915  0.3120  0.3696 -0.1824
 5156SOL    HW126930   1.100   4.691   1.888 -0.5437 -0.7018 -0.0542
 5156SOL    HW226931   1.174   4.564   1.851  1.9700  1.3280 -1.2485
 5157SOL     OW26932   0.160   0.751   6.213  0.2608 -0.3351  0.1620
 5157SOL    HW126933   0.180   0.680   6.274  0.7136 -0.1044  0.2836
 5157SOL    HW226934   0.217   0.716   6.144  0.0134 -0.1979 -0.1096
 5158SOL     OW26935   1.954   2.495   2.495  0.1068 -0.2454  0.2134
 5158SOL    HW126936   1.871   2.459   2.462 -0.1361 -1.0671  1.7477
 5158SOL    HW226937   1.978   2.418   2.547 -0.7020 -1.8494 -1.7654
 5159SOL     OW26938   3.969   2.251   5.066 -0.0078 -0.0612  0.2548
 5159SOL    HW126939   3.907   2.257   4.994  2.2209 -0.2162 -1.6784
 5159SOL    HW226940   3.922   2.195   5.129  0.4560  0.4508  1.0565
 5160SOL     OW26941   2.214   2.167   8.962  0.2827 -0.4074 -0.0465
 5160SOL    HW126942   2.267   2.244   8.982 -0.2864 -0.1992  0.6369
 5160SOL    HW226943   2.254   2.136   8.880 -0.9862 -2.0680 -0.0197
 5161SOL     OW26944   4.462   3.117   8.376 -0.1032 -0.2480  0.0911
 5161SOL    HW126945   4.536   3.070   8.337  0.7873  0.0031  1.5115
 5161SOL    HW226946   4.407   3.130   8.298  0.7140 -2.0604 -0.8021
 5162SOL     OW26947   2.071   1.789   6.289  0.4418 -0.3482  0.2557
 5162SOL    HW126948   2.076   1.752   6.201 -0.2928  2.0141 -0.7749
 5162SOL    HW226949   2.122   1.727   6.341  0.6947  0.4270  0.9420
 5163SOL     OW26950   1.584   4.111   5.599 -0.3357  0.0426 -0.3752
 5163SOL    HW126951   1.599   4.205   5.596  0.1421 -0.0270 -0.1754
 5163SOL    HW226952   1.561   4.096   5.508  0.0260 -0.5040 -0.3781
 5164SOL     OW26953   4.632   0.387   3.398  0.3564  0.1274 -0.1650
 5164SOL    HW126954   4.600   0.460   3.344 -0.0952  0.6489  0.7990
 5164SOL    HW226955   4.558   0.368   3.456  0.7989  0.0456  0.3709
 5165SOL     OW26956   0.346   4.716  12.738  0.3384  0.3908 -0.1279
 5165SOL    HW126957   0.297   0.039  12.805  0.3414 -1.0830  0.9396
 5165SOL    HW226958   0.281   4.648  12.724 -0.2056  0.4261  2.0812
 5166SOL     OW26959   0.350   1.717  10.049 -0.3035  0.5567 -0.2368
 5166SOL    HW126960   0.354   1.622  10.038 -0.4356  0.1898  2.7129
 5166SOL    HW226961   0.258   1.724  10.076 -0.6040  2.1387 -1.6848
 5167SOL     OW26962   1.279   4.708   5.601 -0.1455  0.7663 -0.0274
 5167SOL    HW126963   1.220   0.003   5.528 -1.9976 -1.4399  0.8389
 5167SOL    HW226964   1.320   4.623   5.585 -1.5971 -0.4629  2.6565
 5168SOL     OW26965   3.381   0.795   7.795  0.9371  0.0794  0.1634
 5168SOL    HW126966   3.390   0.788   7.700 -0.0162 -0.1127  0.0840
 5168SOL    HW226967   3.286   0.807   7.799  0.8729 -0.6077  0.7868
 5169SOL     OW26968   4.563   4.206  12.141 -0.0388  0.6071  0.3616
 5169SOL    HW126969   4.635   4.235  12.085 -0.5170 -1.2916 -1.2239
 5169SOL    HW226970   4.496   4.273  12.159 -1.1109 -0.6488  1.0706
 5170SOL     OW26971   0.910   4.201  10.169  0.0099 -0.1527  0.6189
 5170SOL    HW126972   0.907   4.293  10.196  1.8271 -0.1211  0.7078
 5170SOL    HW226973   0.896   4.157  10.253 -1.3234 -0.4193  0.2666
 5171SOL     OW26974   4.490   4.000   6.448  0.2003  0.5444  0.0994
 5171SOL    HW126975   4.465   4.088   6.421 -1.1860  0.4382  1.0378
 5171SOL    HW226976   4.582   4.001   6.475  0.2077  1.7411  0.0165
 5172SOL     OW26977   2.828   1.034  12.983 -0.1690  0.1099  0.8935
 5172SOL    HW126978   2.738   1.065  12.998 -0.2065  0.5407 -0.2470
 5172SOL    HW226979   2.804   0.942  12.973 -1.2342  0.6376 -1.3539
 5173SOL     OW26980   0.517   3.152   5.798 -0.1901 -0.5444 -0.1460
 5173SOL    HW126981   0.451   3.086   5.781  0.3585 -1.2983  0.6511
 5173SOL    HW226982   0.589   3.124   5.742  0.8492  0.8761  0.4913
 5174SOL     OW26983   0.054   4.542   8.973 -0.0058 -0.1916 -0.0264
 5174SOL    HW126984   0.144   4.552   8.940  0.0523  0.0674  0.2212
 5174SOL    HW226985   0.019   4.510   8.889  0.0870 -2.0126  0.6259
 5175SOL     OW26986   0.419   3.806   1.461 -0.1852 -0.1187 -0.1761
 5175SOL    HW126987   0.344   3.773   1.411 -0.4836  1.9634 -1.1416
 5175SOL    HW226988   0.477   3.820   1.386  0.5516 -0.3271  0.3685
 5176SOL     OW26989   1.865   2.555   5.441  0.7403  0.4094 -0.1706
 5176SOL    HW126990   1.802   2.624   5.462 -0.2559 -0.9174  1.2429
 5176SOL    HW226991   1.831   2.481   5.491 -0.3711 -0.4768 -2.2025
 5177SOL     OW26992   3.640   1.442   7.307 -0.4615 -0.2935  0.5116
 5177SOL    HW126993   3.679   1.516   7.261 -2.7056  1.0793  0.8001
 5177SOL    HW226994   3.627   1.490   7.388 -2.6317 -1.9905  1.1964
 5178SOL     OW26995   2.241   2.352   2.102 -0.1199  0.1574  0.4501
 5178SOL    HW126996   2.300   2.364   2.176  1.2986  0.4651 -0.7310
 5178SOL    HW226997   2.279   2.403   2.030 -0.1416 -0.2563  0.1469
 5179SOL     OW26998   3.735   1.245   8.491  0.0121  0.6002  0.0671
 5179SOL    HW126999   3.737   1.154   8.460 -0.7052  0.5556  0.1562
 5179SOL    HW227000   3.734   1.298   8.412  0.9584  1.6678  0.7808
 5180SOL     OW27001   0.786   2.507  13.382  0.3306 -0.4056  0.0165
 5180SOL    HW127002   0.776   2.439  13.316  2.4765  0.4759 -1.2365
 5180SOL    HW227003   0.824   2.576  13.327 -1.8954 -0.7754 -1.9865
 5181SOL     OW27004   2.088   0.326  12.400  0.3440 -0.4161 -0.2977
 5181SOL    HW127005   2.138   0.403  12.373 -1.6831  0.3481 -1.8822
 5181SOL    HW227006   2.166   0.270  12.393 -0.6249 -1.5912 -1.9222
 5182SOL     OW27007   3.665   3.886   5.048  0.2132  0.0704  0.4744
 5182SOL    HW127008   3.679   3.977   5.075 -0.7016  0.3105  0.1238
 5182SOL    HW227009   3.639   3.853   5.134  0.2992 -1.6840 -0.1869
 5183SOL     OW27010   2.575   1.360  10.049 -0.3072 -0.2576 -0.9075
 5183SOL    HW127011   2.488   1.372  10.012 -0.8107  0.1513  0.3879
 5183SOL    HW227012   2.602   1.274  10.018 -1.6678 -1.5569  1.5160
 5184SOL     OW27013   4.046   3.924  13.573 -0.0098  0.1874  0.4627
 5184SOL    HW127014   4.001   3.872  13.506  0.5731  0.6909 -0.3211
 5184SOL    HW227015   4.128   3.877  13.585  0.0221  0.2436  0.4650
 5185SOL     OW27016   0.462   4.600   4.019 -0.4802 -0.2539  0.3036
 5185SOL    HW127017   0.454   4.639   4.106  2.5007  1.0248  0.0017
 5185SOL    HW227018   0.485   4.680   3.972 -0.5324 -1.0752 -1.1238
 5186SOL     OW27019   3.373   0.759  17.661 -0.1493  0.1524 -0.1993
 5186SOL    HW127020   3.395   0.666  17.671  1.2699  0.5522  0.2822
 5186SOL    HW227021   3.392   0.774  17.569  1.6564 -0.7462  0.0391
 5187SOL     OW27022   0.733   1.122   2.933  0.0520 -0.5119  0.2549
 5187SOL    HW127023   0.791   1.163   2.869  0.3411 -1.0128  0.1981
 5187SOL    HW227024   0.655   1.087   2.890 -1.0134  1.4083  0.6254
 5188SOL     OW27025   1.563   3.887   6.330 -0.5276  0.3581  0.0377
 5188SOL    HW127026   1.563   3.791   6.335  2.1757  0.4329  1.2670
 5188SOL    HW227027   1.578   3.893   6.235 -0.0820  2.6244  0.2522
 5189SOL     OW27028   0.288   3.271   4.324  0.0542 -0.3394 -0.2010
 5189SOL    HW127029   0.198   3.270   4.358 -0.9262  0.2224 -2.7737
 5189SOL    HW227030   0.318   3.181   4.325 -0.9572 -0.6753  0.3959
 5190SOL     OW27031   2.943   4.497  16.649  0.0540 -1.0855 -0.4262
 5190SOL    HW127032   2.878   4.554  16.691 -2.0090 -2.0962 -2.2402
 5190SOL    HW227033   3.018   4.525  16.702 -2.2059  1.2103  1.5951
 5191SOL     OW27034   2.271   4.116   6.241  0.2501  0.3762  0.1383
 5191SOL    HW127035   2.248   4.053   6.173 -1.8165  0.1575  1.0583
 5191SOL    HW227036   2.367   4.115   6.249  0.4139  1.9364 -1.7398
 5192SOL     OW27037   0.049   0.716  10.965  0.0180  0.4490 -0.6260
 5192SOL    HW127038   0.099   0.640  10.994  0.2019  1.0214  0.5670
 5192SOL    HW227039   4.687   0.682  10.987  0.3149  0.0825 -0.0343
 5193SOL     OW27040   4.652   4.295   5.969  0.1216 -0.3876  0.4170
 5193SOL    HW127041   4.594   4.287   6.045 -0.6077  0.6330 -0.0262
 5193SOL    HW227042   4.633   4.212   5.925 -0.5145 -0.2328  0.3984
 5194SOL     OW27043   3.928   0.239   1.179 -0.1266 -0.2476 -0.2922
 5194SOL    HW127044   3.965   0.279   1.100  0.9387 -2.0996 -0.7421
 5194SOL    HW227045   4.003   0.230   1.238  0.5708 -1.4991 -1.3574
 5195SOL     OW27046   1.983   1.560   7.959  0.2277  0.0191 -0.0847
 5195SOL    HW127047   1.981   1.632   8.022  0.1287 -0.0937  0.0424
 5195SOL    HW227048   2.046   1.595   7.895 -0.7118  1.9410  0.0178
 5196SOL     OW27049   4.215   4.452   0.343 -0.0610  0.6065  0.0300
 5196SOL    HW127050   4.147   4.432   0.407  0.3519 -1.4446 -0.1750
 5196SOL    HW227051   4.290   4.395   0.361  0.8291  1.6251 -0.4421
 5197SOL     OW27052   3.068   3.037   8.145  0.6813 -0.5315  0.3941
 5197SOL    HW127053   3.136   3.029   8.079 -1.7195  0.6261 -2.1895
 5197SOL    HW227054   3.113   3.069   8.224 -0.1614  0.8308  0.3295
 5198SOL     OW27055   2.613   2.688   8.888 -0.2576  0.0669 -0.0345
 5198SOL    HW127056   2.615   2.747   8.813 -1.8226  0.3096  0.1194
 5198SOL    HW227057   2.532   2.639   8.883  0.0716 -0.5837  0.9164
 5199SOL     OW27058   3.235   2.070   2.018  0.0285  0.2178  0.1259
 5199SOL    HW127059   3.231   2.029   1.931  0.5426 -0.0860  0.2490
 5199SOL    HW227060   3.330   2.072   2.033 -0.0174  1.8914  0.2534
 5200SOL     OW27061   2.202   1.988   3.950 -0.3590 -0.2094  0.0830
 5200SOL    HW127062   2.289   2.005   3.986 -0.4395  1.7039 -0.6143
 5200SOL    HW227063   2.240   1.948   3.873  1.5196  2.3130 -0.3091
 5201SOL     OW27064   0.705   2.453   5.724  0.0563 -0.3463 -0.2236
 5201SOL    HW127065   0.774   2.414   5.671  0.3242  0.4708 -0.4800
 5201SOL    HW227066   0.705   2.386   5.792  2.6578  1.7976  1.8853
 5202SOL     OW27067   4.489   4.072   8.912  0.4660  0.4855  0.4907
 5202SOL    HW127068   4.577   4.049   8.942  0.7311  1.2705  0.3111
 5202SOL    HW227069   4.437   3.992   8.921  0.2059  0.3922 -2.0351
 5203SOL     OW27070   1.125   4.609   2.839  0.4232 -0.2686 -0.3009
 5203SOL    HW127071   1.146   4.682   2.897  1.4911 -3.1448  2.9091
 5203SOL    HW227072   1.168   4.538   2.887 -0.2600  0.4133  1.2861
 5204SOL     OW27073   3.869   2.368  17.216 -0.3060  0.5960 -0.1327
 5204SOL    HW127074   3.858   2.458  17.245 -0.9391  0.4640  0.0380
 5204SOL    HW227075   3.835   2.326  17.294 -0.4864 -1.1087 -1.1290
 5205SOL     OW27076   4.365   1.696   6.540 -0.3930 -0.0484 -0.0310
 5205SOL    HW127077   4.391   1.628   6.603  1.3919 -0.7037 -1.4654
 5205SOL    HW227078   4.344   1.633   6.472  0.4621  0.4039 -0.7141
 5206SOL     OW27079   0.843   1.921  11.189  0.0451  0.3994 -0.2686
 5206SOL    HW127080   0.788   1.998  11.203 -1.9933 -1.1142  0.1062
 5206SOL    HW227081   0.894   1.926  11.269  1.5449 -1.5457 -1.1164
 5207SOL     OW27082   0.677   3.865   9.054 -0.6615 -0.2587 -0.2453
 5207SOL    HW127083   0.697   3.945   9.102  0.5233  0.0388 -1.2118
 5207SOL    HW227084   0.603   3.833   9.105 -0.8957  1.2689  0.3803
 5208SOL     OW27085   2.321   0.084   5.167 -0.1065  0.3563 -0.0170
 5208SOL    HW127086   2.416   0.087   5.183  0.1034  0.8349 -1.3318
 5208SOL    HW227087   2.300   4.720   5.194 -0.4700  1.7493  4.2902
 5209SOL     OW27088   1.475   2.196   8.053 -0.6397  0.2075 -0.7641
 5209SOL    HW127089   1.387   2.221   8.080 -1.4532 -1.5759 -1.7992
 5209SOL    HW227090   1.525   2.244   8.119  1.2759 -0.6077 -1.6297
 5210SOL     OW27091   2.693   0.955  12.232 -0.3670 -0.3543  0.3773
 5210SOL    HW127092   2.661   1.024  12.174  0.6948 -0.6854 -0.6026
 5210SOL    HW227093   2.612   0.905  12.241 -0.2048 -0.4867  1.1632
 5211SOL     OW27094   3.664   4.568   6.686  0.1726  0.3124 -0.2925
 5211SOL    HW127095   3.584   4.617   6.706  0.3680  0.1886  0.8007
 5211SOL    HW227096   3.621   4.483   6.677  0.3068  0.1592  0.4836
 5212SOL     OW27097   2.731   0.969   5.950 -0.6474  0.5416  0.3394
 5212SOL    HW127098   2.759   0.891   5.902 -3.1106 -0.0976 -0.0337
 5212SOL    HW227099   2.818   0.998   5.979 -0.2104 -0.6449  0.2064
 5213SOL     OW27100   2.245   3.532  10.776  0.6544  0.0759  0.2372
 5213SOL    HW127101   2.180   3.463  10.767  0.1546  0.4617  0.8889
 5213SOL    HW227102   2.195   3.611  10.755  2.0729  1.0890  0.6455
 5214SOL     OW27103   1.938   1.978   3.804 -0.1725 -1.1126 -0.7711
 5214SOL    HW127104   2.008   1.993   3.867  0.1647  1.5942 -1.8038
 5214SOL    HW227105   1.878   2.044   3.837  0.7581  0.4115 -2.1395
 5215SOL     OW27106   0.141   3.165   9.937 -0.2667  0.3541  0.6732
 5215SOL    HW127107   0.107   3.143   9.850 -0.6851  3.1627  0.1095
 5215SOL    HW227108   0.228   3.124   9.940  0.4288  1.9151  1.7382
 5216SOL     OW27109   4.466   3.299  10.348 -0.6546 -0.4399 -0.5016
 5216SOL    HW127110   4.505   3.362  10.288  0.3041  1.1327  1.7800
 5216SOL    HW227111   4.373   3.321  10.342 -1.0518 -1.9116  0.1158
 5217SOL     OW27112   1.904   3.071   7.167 -0.1634  0.0579  0.1477
 5217SOL    HW127113   1.962   2.995   7.164 -0.5528 -0.2587  0.6387
 5217SOL    HW227114   1.831   3.044   7.111  2.2930 -0.0177 -3.0294
 5218SOL     OW27115   1.114   3.454   9.221  0.7457 -0.1924 -0.6507
 5218SOL    HW127116   1.037   3.495   9.181  2.3483 -0.3358 -3.8917
 5218SOL    HW227117   1.167   3.422   9.148  3.0797 -0.0737  0.9840
 5219SOL     OW27118   1.350   1.337   8.038 -0.3740  0.2574 -0.2374
 5219SOL    HW127119   1.331   1.403   8.104  1.7178 -0.1346  0.7325
 5219SOL    HW227120   1.263   1.311   8.006  0.0569  0.1194 -1.3051
 5220SOL     OW27121   4.350   0.009   7.275  0.7411 -0.4754  0.0682
 5220SOL    HW127122   4.255   0.015   7.283  0.6100  1.0364 -2.6226
 5220SOL    HW227123   4.366   4.640   7.275  2.5978 -0.1629  1.6291
 5221SOL     OW27124   4.178   4.345   1.301  0.0636  0.0970  0.4397
 5221SOL    HW127125   4.153   4.259   1.266 -0.0981  0.9911 -1.5847
 5221SOL    HW227126   4.117   4.351   1.375  1.2263 -0.3867  1.4372
 5222SOL     OW27127   2.333   2.997  13.146 -0.4696 -0.1404 -0.2162
 5222SOL    HW127128   2.290   2.962  13.067  1.0880 -2.6963  0.0675
 5222SOL    HW227129   2.310   3.090  13.154 -0.4921  0.1216 -3.2065
 5223SOL     OW27130   1.719   1.457   8.599 -0.0727  0.5073  0.0473
 5223SOL    HW127131   1.764   1.419   8.523 -0.1105 -2.8284  1.6792
 5223SOL    HW227132   1.784   1.519   8.631  0.8830 -0.8614  0.7914
 5224SOL     OW27133   2.749   4.697  16.652  0.3036 -0.4926  0.1471
 5224SOL    HW127134   2.707   0.009  16.575 -0.7596  0.1834  1.0564
 5224SOL    HW227135   2.757   0.052  16.703 -2.7379  0.1746 -0.4303
 5225SOL     OW27136   3.998   3.869   4.238 -0.0196  0.1839 -0.5982
 5225SOL    HW127137   4.034   3.852   4.325 -1.1664  0.8183  0.0029
 5225SOL    HW227138   4.076   3.850   4.186 -0.3707 -0.4748 -0.8891
 5226SOL     OW27139   3.469   0.324   5.459 -0.6165 -0.3520  0.2259
 5226SOL    HW127140   3.467   0.263   5.385  0.5509 -0.5453  0.3423
 5226SOL    HW227141   3.399   0.384   5.433 -0.9534 -0.9084 -0.1397
 5227SOL     OW27142   4.230   2.481   7.401  0.1262 -0.3574 -0.0393
 5227SOL    HW127143   4.291   2.409   7.385 -0.6452 -0.9313 -0.3769
 5227SOL    HW227144   4.250   2.503   7.492  0.4795 -0.6168 -0.0529
 5228SOL     OW27145   1.227   3.359   6.260  0.1525 -0.0421  0.8366
 5228SOL    HW127146   1.212   3.275   6.217  2.3115 -0.3640  0.7244
 5228SOL    HW227147   1.187   3.355   6.347  0.8242 -1.3303  1.0905
 5229SOL     OW27148   1.049   3.772   2.657  0.4193 -0.9164  0.6478
 5229SOL    HW127149   0.973   3.714   2.659  1.4040 -2.0923  3.3414
 5229SOL    HW227150   1.118   3.709   2.679  1.1094 -0.5961 -0.6184
 5230SOL     OW27151   3.955   2.383   8.480 -0.7376 -0.5515 -0.0263
 5230SOL    HW127152   3.920   2.347   8.562  1.4232 -2.5711  0.0147
 5230SOL    HW227153   3.915   2.318   8.423 -0.4103 -0.3734 -0.4582
 5231SOL     OW27154   3.105   0.225   9.900  0.3084  0.5222 -0.2085
 5231SOL    HW127155   3.173   0.289   9.875 -0.8289  1.1538 -1.6435
 5231SOL    HW227156   3.135   0.192   9.985  0.2919  0.0705 -0.3766
 5232SOL     OW27157   2.654   3.854   6.824  0.7558 -0.2121 -0.0593
 5232SOL    HW127158   2.603   3.878   6.747  1.7449  0.5133 -0.4984
 5232SOL    HW227159   2.666   3.945   6.851  0.6963 -1.1812  3.1876
 5233SOL     OW27160   2.606   4.579   8.316 -0.5414  0.0684  0.4530
 5233SOL    HW127161   2.609   4.499   8.264 -0.8345  1.2081 -1.3189
 5233SOL    HW227162   2.600   4.549   8.407  0.1834 -0.9423  0.1609
 5234SOL     OW27163   3.420   0.827  16.229 -0.0770  0.4538 -0.9141
 5234SOL    HW127164   3.475   0.867  16.296 -0.8744  0.9382 -0.5336
 5234SOL    HW227165   3.494   0.796  16.177  1.9946  1.0124  1.7070
 5235SOL     OW27166   2.363   4.332   4.998  0.0149 -0.7347 -0.1180
 5235SOL    HW127167   2.389   4.303   5.085 -1.6827  1.8759  1.2421
 5235SOL    HW227168   2.438   4.302   4.947  0.5817 -0.2537  0.4447
 5236SOL     OW27169   2.251   0.605   8.691 -0.0660  0.5723  0.1385
 5236SOL    HW127170   2.326   0.605   8.750 -1.1155  2.4555  1.4818
 5236SOL    HW227171   2.183   0.641   8.749 -1.2014  0.5581 -1.1849
 5237SOL     OW27172   3.386   4.058  14.716 -0.1586 -0.7989 -0.3256
 5237SOL    HW127173   3.396   4.148  14.685  1.7325 -0.9485 -0.1607
 5237SOL    HW227174   3.309   4.059  14.773 -0.7090 -1.1067 -1.0606
 5238SOL     OW27175   3.557   2.433   6.704  0.4969 -0.5872  0.5008
 5238SOL    HW127176   3.596   2.372   6.642  0.0137  1.1753 -1.5479
 5238SOL    HW227177   3.620   2.503   6.685 -2.5085  2.2318  0.9931
 5239SOL     OW27178   3.402   0.753   2.181  0.5122 -0.8154  0.0354
 5239SOL    HW127179   3.497   0.754   2.169  0.3759  0.6569 -0.9565
 5239SOL    HW227180   3.394   0.659   2.196  0.0306 -0.0996  4.2714
 5240SOL     OW27181   0.203   3.073   6.908 -0.0694 -0.4676 -0.3900
 5240SOL    HW127182   0.248   3.145   6.864  1.1491 -0.2972  1.1259
 5240SOL    HW227183   0.211   3.013   6.834 -3.5450 -1.9153  0.4115
 5241SOL     OW27184   4.644   1.927   0.786  0.2733 -0.1303 -0.3535
 5241SOL    HW127185   4.605   1.937   0.699 -0.8262 -0.4243  0.0979
 5241SOL    HW227186   4.583   1.975   0.841 -0.2763 -0.3501 -0.7580
 5242SOL     OW27187   0.582   3.202   3.295  0.1540 -0.4182 -0.0513
 5242SOL    HW127188   0.531   3.165   3.366  0.3167  1.9891  1.3232
 5242SOL    HW227189   0.669   3.163   3.302  0.1754 -0.7171 -2.0819
 5243SOL     OW27190   1.162   1.278  15.253 -0.3013  0.4407  0.2046
 5243SOL    HW127191   1.163   1.319  15.167 -0.3071  0.4653  0.2165
 5243SOL    HW227192   1.185   1.190  15.221 -0.2810  0.4299  0.2492
 5244SOL     OW27193   4.013   0.745  11.759  0.5483 -0.9121 -0.0204
 5244SOL    HW127194   3.918   0.755  11.762  0.4199 -2.1427 -0.2661
 5244SOL    HW227195   4.042   0.828  11.721 -6.1806  1.9139  1.1207
 5245SOL     OW27196   4.016   4.406   1.928 -0.0113  0.0660 -0.2971
 5245SOL    HW127197   3.990   4.331   1.982  0.5250  1.8903  2.4639
 5245SOL    HW227198   3.932   4.451   1.922 -1.5914 -3.0511 -1.4947
 5246SOL     OW27199   2.466   2.170  11.079 -0.1154  0.2291  0.4743
 5246SOL    HW127200   2.516   2.141  11.002  0.8062 -1.3383  1.6693
 5246SOL    HW227201   2.379   2.178  11.039  1.1586 -0.0147 -2.3833
 5247SOL     OW27202   0.833   4.049   1.022 -0.1303  0.0309 -0.1206
 5247SOL    HW127203   0.778   4.089   1.089 -1.4049  0.9547 -1.7236
 5247SOL    HW227204   0.832   4.116   0.954 -0.1282 -2.0631 -2.1752
 5248SOL     OW27205   2.585   2.163  14.441  0.4194  0.3717  0.0327
 5248SOL    HW127206   2.621   2.164  14.530  1.6764  0.2021 -0.4841
 5248SOL    HW227207   2.504   2.112  14.442 -2.0595  4.3138  1.3414
 5249SOL     OW27208   2.871   1.649   7.813  0.2881  0.2478 -0.3445
 5249SOL    HW127209   2.805   1.590   7.850  2.3654 -0.5530  2.0853
 5249SOL    HW227210   2.813   1.724   7.796 -1.5290 -1.1152 -0.1443
 5250SOL     OW27211   2.031   2.461   5.230 -0.4932  0.6339 -1.1131
 5250SOL    HW127212   1.945   2.421   5.228  0.4253 -1.5536  2.3894
 5250SOL    HW227213   2.013   2.529   5.295  1.5707 -0.5662  0.7360
 5251SOL     OW27214   4.350   2.463  10.160  0.6613  0.4690 -0.3131
 5251SOL    HW127215   4.361   2.374  10.128 -0.1181 -0.5489  2.2870
 5251SOL    HW227216   4.261   2.456  10.194  0.7064 -0.1840 -0.3337
 5252SOL     OW27217   1.385   3.474   5.542 -0.6308 -0.0151  0.4749
 5252SOL    HW127218   1.341   3.390   5.551 -0.7925  0.0070 -0.1104
 5252SOL    HW227219   1.426   3.479   5.629 -1.4535 -2.4679  1.0094
 5253SOL     OW27220   0.078   2.266   7.759  0.3018  0.6256  0.9763
 5253SOL    HW127221   0.006   2.205   7.772  0.2050  0.3934 -0.6583
 5253SOL    HW227222   0.046   2.331   7.822  0.2663 -0.5322  2.1628
 5254SOL     OW27223   4.365   1.646   7.794 -0.1967  0.7015  0.5854
 5254SOL    HW127224   4.364   1.556   7.764 -1.5167  1.0507 -0.4367
 5254SOL    HW227225   4.273   1.667   7.812 -0.2361 -0.5876  1.8898
 5255SOL     OW27226   0.431   3.559  15.605 -0.9870 -0.0706  0.0427
 5255SOL    HW127227   0.338   3.567  15.585 -0.8568  0.4754 -0.3503
 5255SOL    HW227228   0.453   3.651  15.593 -1.4385 -0.2197 -1.9403
 5256SOL     OW27229   1.988   0.396   2.268 -0.1951 -0.0924 -0.7397
 5256SOL    HW127230   2.021   0.381   2.357 -0.7631  1.4666 -0.2717
 5256SOL    HW227231   1.977   0.491   2.258 -0.8525 -0.1757 -0.7917
 5257SOL     OW27232   4.213   3.401  10.856 -0.3237  0.1295 -0.0366
 5257SOL    HW127233   4.299   3.395  10.815  0.0154  3.4570  0.1948
 5257SOL    HW227234   4.186   3.489  10.832 -0.3370  0.3191  0.6828
 5258SOL     OW27235   0.602   0.695   5.664 -0.4475  0.3529 -0.0617
 5258SOL    HW127236   0.655   0.616   5.657  0.3366  0.8767  0.0507
 5258SOL    HW227237   0.578   0.708   5.572 -1.0931 -0.2769  0.0088
 5259SOL     OW27238   4.723   4.643   6.703 -0.1103 -0.2068 -0.2056
 5259SOL    HW127239   0.065   4.702   6.737 -0.1150  0.8712 -2.0536
 5259SOL    HW227240   4.692   4.608   6.787  1.4656 -0.8927  0.0957
 5260SOL     OW27241   1.227   4.404   4.128  0.6771 -0.1291  0.0462
 5260SOL    HW127242   1.217   4.486   4.079 -0.6023  1.8794  3.6936
 5260SOL    HW227243   1.310   4.412   4.176  0.7684 -1.4694  0.0944
 5261SOL     OW27244   4.255   3.784   2.562 -0.2704 -0.4530 -0.4405
 5261SOL    HW127245   4.338   3.775   2.608 -0.2548 -0.5715 -0.4920
 5261SOL    HW227246   4.279   3.782   2.470 -0.6458 -1.1327 -0.5239
 5262SOL     OW27247   3.653   1.735   5.848 -0.1714  0.4147  0.0495
 5262SOL    HW127248   3.558   1.724   5.835 -0.0499  0.8962 -1.3117
 5262SOL    HW227249   3.683   1.773   5.765  3.6831  0.2944  1.4436
 5263SOL     OW27250   4.114   3.859   3.186  0.1135  0.6524 -0.1701
 5263SOL    HW127251   4.031   3.837   3.143  0.8430 -0.2914 -1.0977
 5263SOL    HW227252   4.160   3.776   3.178  1.2492  1.5922 -3.5826
 5264SOL     OW27253   2.979   0.516   3.936 -0.3726  0.0921  0.0291
 5264SOL    HW127254   3.031   0.436   3.937 -1.2063 -0.4587 -0.4454
 5264SOL    HW227255   3.044   0.585   3.928 -0.8728  0.3316 -2.1723
 5265SOL     OW27256   2.999   1.659   3.290  0.5394  0.1397  0.4367
 5265SOL    HW127257   3.079   1.705   3.316  0.7057  0.6464 -0.9843
 5265SOL    HW227258   2.963   1.627   3.373  1.6107 -3.4300 -0.4862
 5266SOL     OW27259   2.907   1.719  11.354  0.2993 -0.3221  0.1932
 5266SOL    HW127260   2.869   1.802  11.383 -2.4968 -1.6280  0.1961
 5266SOL    HW227261   2.948   1.752  11.274 -0.2050 -1.1640 -0.4158
 5267SOL     OW27262   3.165   0.143   3.052 -0.4214 -0.1362 -0.2164
 5267SOL    HW127263   3.074   0.117   3.069 -0.8624  0.7113 -1.2043
 5267SOL    HW227264   3.217   0.092   3.113  1.4156  0.9761 -0.8701
 5268SOL     OW27265   0.072   4.350   2.097 -0.1352  0.3352 -0.7653
 5268SOL    HW127266   0.127   4.428   2.100 -0.4024  0.4214  1.7249
 5268SOL    HW227267   4.710   4.389   2.110 -0.0010  1.0378 -1.9654
 5269SOL     OW27268   1.653   1.991  16.348  0.2334 -0.2035  0.5238
 5269SOL    HW127269   1.657   2.081  16.380  1.0260 -2.0422  5.4295
 5269SOL    HW227270   1.745   1.969  16.334  0.6127  1.5552  0.2838
 5270SOL     OW27271   0.766   0.075  12.679 -0.2273 -0.2878 -0.0196
 5270SOL    HW127272   0.781   0.016  12.753 -1.5958 -0.9920 -0.2969
 5270SOL    HW227273   0.771   0.159  12.725  0.2212 -1.8827  2.8382
 5271SOL     OW27274   1.004   0.633   1.748  0.1228 -0.3443  0.2459
 5271SOL    HW127275   0.929   0.649   1.690 -0.1424  1.6755  1.1560
 5271SOL    HW227276   1.056   0.580   1.687  1.2091  0.3871  0.5387
 5272SOL     OW27277   4.334   4.714   5.117 -0.0013  0.0309  0.1925
 5272SOL    HW127278   4.397   0.054   5.149  0.8224  0.1616 -1.7524
 5272SOL    HW227279   4.339   4.642   5.181  0.2758 -0.8020 -0.7742
 5273SOL     OW27280   0.584   1.187   0.285 -0.4446  0.4818  0.1240
 5273SOL    HW127281   0.635   1.169   0.363  2.3513  3.2126 -1.0858
 5273SOL    HW227282   0.645   1.235   0.230 -0.5565 -0.5438 -0.9054
 5274SOL     OW27283   1.314   0.935  10.417  0.0726  0.0415  0.0961
 5274SOL    HW127284   1.260   1.014  10.417  1.1976  0.8281  1.4933
 5274SOL    HW227285   1.283   0.887  10.494  1.3509  0.0018  0.5929
 5275SOL     OW27286   0.733   1.125   4.195 -0.1231  0.4522  0.2976
 5275SOL    HW127287   0.818   1.106   4.236 -0.1564 -0.4234 -0.0406
 5275SOL    HW227288   0.766   1.158   4.111  0.3029 -0.5806  0.0624
 5276SOL     OW27289   4.078   2.992   5.850  0.2574 -0.4555  0.3774
 5276SOL    HW127290   4.094   3.087   5.849  0.6021 -0.5252 -1.0268
 5276SOL    HW227291   3.984   2.980   5.840  0.5887 -1.3845 -1.5830
 5277SOL     OW27292   1.526   1.640  13.045 -0.0340 -0.6049  0.4184
 5277SOL    HW127293   1.578   1.640  13.125  0.3895  1.3673  0.1676
 5277SOL    HW227294   1.595   1.626  12.980 -0.6898  1.9590 -0.8638
 5278SOL     OW27295   4.057   1.887   5.258 -0.3092  0.4366 -0.6080
 5278SOL    HW127296   3.974   1.842   5.272  0.0461  0.6897  2.3204
 5278SOL    HW227297   4.080   1.874   5.165  0.5871  0.9031 -0.4521
 5279SOL     OW27298   3.513   3.977   0.027  0.1446 -0.1535  0.0720
 5279SOL    HW127299   3.489   4.063  17.694 -2.0593 -0.7164  0.1958
 5279SOL    HW227300   3.497   3.995   0.119  0.6859  1.3943 -0.1315
 5280SOL     OW27301   4.164   1.149  14.433 -0.4490 -0.2173  0.0390
 5280SOL    HW127302   4.139   1.241  14.423  0.0350 -0.1850 -0.9673
 5280SOL    HW227303   4.251   1.153  14.393 -0.7265 -1.1831 -0.6619
 5281SOL     OW27304   3.726   3.433  10.588 -0.2448  0.1940  0.7830
 5281SOL    HW127305   3.642   3.472  10.564  0.1727 -0.1930 -1.3079
 5281SOL    HW227306   3.728   3.359  10.526 -0.1437  1.5576 -0.8566
 5282SOL     OW27307   3.175   1.629   6.482 -0.0254  0.2164 -0.0238
 5282SOL    HW127308   3.206   1.716   6.506  1.3630 -0.3502  0.2771
 5282SOL    HW227309   3.129   1.614   6.565  0.6195 -0.3109  0.2409
 5283SOL     OW27310   4.279   2.476   9.776 -0.0909  0.3966  0.0325
 5283SOL    HW127311   4.246   2.424   9.702 -0.6548 -0.7330  1.0827
 5283SOL    HW227312   4.201   2.459   9.830 -0.2393  2.8578  0.6115
 5284SOL     OW27313   2.888   2.065   3.447  0.0556  0.5432  1.0032
 5284SOL    HW127314   2.827   2.025   3.386  0.7349  1.0227  0.0115
 5284SOL    HW227315   2.888   2.152   3.407  2.4976  0.4380  0.7975
 5285SOL     OW27316   0.373   2.834  15.700  0.3149  0.1504 -0.1696
 5285SOL    HW127317   0.360   2.902  15.634 -2.1185 -0.1046  0.0312
 5285SOL    HW227318   0.395   2.888  15.776  2.9337 -1.1070 -0.0707
 5286SOL     OW27319   3.848   1.935   9.220  0.1954 -0.3973 -0.2583
 5286SOL    HW127320   3.761   1.895   9.225  0.2022 -0.3019  0.5713
 5286SOL    HW227321   3.907   1.860   9.210 -0.0212 -0.6081  0.0879
 5287SOL     OW27322   4.407   3.752   7.307 -0.8283 -0.4485 -0.7418
 5287SOL    HW127323   4.328   3.802   7.330 -0.6269 -0.1797 -0.6273
 5287SOL    HW227324   4.417   3.763   7.212 -0.4605 -0.1408 -0.6679
 5288SOL     OW27325   1.977   3.604   3.121 -0.2627  0.4314  0.5365
 5288SOL    HW127326   2.055   3.567   3.081 -2.3660 -1.4348 -1.8712
 5288SOL    HW227327   1.932   3.531   3.163  1.6613 -1.8333 -1.3363
 5289SOL     OW27328   3.952   1.406   2.022  0.0544 -0.2706  0.2379
 5289SOL    HW127329   4.003   1.389   1.942  1.2987  1.0178  0.7476
 5289SOL    HW227330   4.020   1.413   2.090 -0.7209  0.5328  0.9205
 5290SOL     OW27331   1.955   2.446   1.794 -0.0646 -0.4883  0.0770
 5290SOL    HW127332   1.907   2.379   1.746  1.9527 -1.5529 -0.4669
 5290SOL    HW227333   1.881   2.504   1.805 -0.2704 -0.5540 -0.9651
 5291SOL     OW27334   3.455   2.647   7.933 -0.0798  0.4008 -0.0096
 5291SOL    HW127335   3.457   2.564   7.886  0.0152 -0.9460  2.3423
 5291SOL    HW227336   3.366   2.658   7.967  0.2148 -0.3953  1.0473
 5292SOL     OW27337   2.931   0.819   3.375  0.8185 -0.2836  0.4146
 5292SOL    HW127338   2.900   0.728   3.371 -0.9452  0.3251 -0.1365
 5292SOL    HW227339   2.924   0.840   3.282  1.6698  1.1873  0.7027
 5293SOL     OW27340   2.966   3.583   2.039  0.7026  0.0934 -0.2743
 5293SOL    HW127341   2.964   3.631   1.956  2.5377  0.4079 -0.1290
 5293SOL    HW227342   2.873   3.564   2.054  0.5285  1.9557  1.0378
 5294SOL     OW27343   0.924   1.441  13.902 -0.6488 -0.5793  0.0379
 5294SOL    HW127344   0.964   1.491  13.972 -2.1423  0.9451 -0.1836
 5294SOL    HW227345   0.851   1.400  13.948  1.2167 -1.6632  2.0111
 5295SOL     OW27346   1.540   0.645   7.984  0.4248 -0.4428 -0.2649
 5295SOL    HW127347   1.509   0.731   8.014 -1.8440 -1.2914 -0.1833
 5295SOL    HW227348   1.488   0.622   7.907  1.2510 -1.9245 -0.3750
 5296SOL     OW27349   2.105   4.315  17.314  0.6947  0.4418 -0.3957
 5296SOL    HW127350   2.131   4.271  17.233 -1.2579  0.5962 -1.1193
 5296SOL    HW227351   2.020   4.275  17.331  1.9262 -1.5697  1.0010
 5297SOL     OW27352   2.272   2.809   5.506  0.4715 -0.5079 -0.2700
 5297SOL    HW127353   2.323   2.847   5.434  0.9854  1.2570  1.0095
 5297SOL    HW227354   2.291   2.716   5.491 -0.3582 -0.8602  0.8727
 5298SOL     OW27355   2.012   1.142  13.223 -0.2046  0.3711  0.0042
 5298SOL    HW127356   1.931   1.188  13.245  1.0315  2.0517  1.0392
 5298SOL    HW227357   1.977   1.077  13.163 -0.9214 -0.2358  1.0737
 5299SOL     OW27358   3.242   1.606  15.498  0.1181 -0.0197  0.6192
 5299SOL    HW127359   3.247   1.512  15.481  1.7971  0.3459 -1.0154
 5299SOL    HW227360   3.304   1.616  15.570  0.4986  1.8758  0.0337
 5300SOL     OW27361   3.609   3.746   6.816  0.3002  0.9767  0.0835
 5300SOL    HW127362   3.591   3.676   6.753 -0.1098  2.3981 -1.3886
 5300SOL    HW227363   3.569   3.710   6.895  0.0621 -0.0051 -0.4872
 5301SOL     OW27364   1.157   2.220   4.386  0.1090  0.1173  0.1207
 5301SOL    HW127365   1.245   2.232   4.423 -0.0815  0.0798  0.5902
 5301SOL    HW227366   1.157   2.130   4.354 -0.2302 -0.0001  0.4415
 5302SOL     OW27367   2.435   3.589   4.721  0.4341  0.2870  0.2408
 5302SOL    HW127368   2.493   3.516   4.699  0.5415  0.8776 -1.3695
 5302SOL    HW227369   2.478   3.671   4.743  0.2703  0.3202  0.4418
 5303SOL     OW27370   2.232   0.949   6.781 -0.3485 -0.3230 -0.4025
 5303SOL    HW127371   2.313   0.945   6.731  0.0541 -0.0620  0.2269
 5303SOL    HW227372   2.191   0.863   6.776 -0.4440 -0.2572 -0.7488
 5304SOL     OW27373   0.233   3.999   6.658 -0.4477  0.1238 -0.1639
 5304SOL    HW127374   0.243   3.996   6.753 -1.4737 -1.1512 -0.0950
 5304SOL    HW227375   0.253   4.091   6.644  0.3349 -0.3226 -1.9237
 5305SOL     OW27376   2.870   0.271  13.849 -0.8621 -0.0510  0.1124
 5305SOL    HW127377   2.934   0.271  13.778 -1.3500  2.8949 -0.3446
 5305SOL    HW227378   2.931   0.317  13.907  0.7168  1.2404 -2.5313
 5306SOL     OW27379   4.088   0.427   1.018 -0.6062  0.1506  0.0155
 5306SOL    HW127380   4.084   0.456   0.927  0.7470 -0.1745 -0.1441
 5306SOL    HW227381   4.054   0.500   1.069  1.2229 -0.3944  1.9796
 5307SOL     OW27382   4.571   2.420  14.932  0.2450  0.4060  0.5264
 5307SOL    HW127383   4.662   2.408  14.906  0.3655  1.3195  0.5160
 5307SOL    HW227384   4.581   2.452  15.021  2.9913  3.6384 -0.9668
 5308SOL     OW27385   1.375   0.890   6.239  0.0556  0.4902 -0.2677
 5308SOL    HW127386   1.289   0.928   6.216  0.6285  2.6456  1.1422
 5308SOL    HW227387   1.353   0.833   6.313 -2.8840  2.6995  0.5831
 5309SOL     OW27388   4.568   3.180  11.903 -0.1109  0.0632 -0.2242
 5309SOL    HW127389   4.534   3.267  11.882 -0.3219  0.3685  1.4042
 5309SOL    HW227390   4.652   3.179  11.858  0.9344  0.8561  1.7354
 5310SOL     OW27391   2.875   2.276  16.676  0.7947 -0.4922 -0.4231
 5310SOL    HW127392   2.834   2.333  16.741  0.5152  2.1943 -2.9462
 5310SOL    HW227393   2.817   2.288  16.601  0.0326 -1.5504 -0.0099
 5311SOL     OW27394   0.641   0.479   1.554 -0.0004  0.0067 -0.1517
 5311SOL    HW127395   0.734   0.466   1.576 -0.0475 -0.3386 -0.1622
 5311SOL    HW227396   0.598   0.396   1.537  1.6986 -0.9487  0.2073
 5312SOL     OW27397   2.961   3.861   3.692 -0.2741  0.2819 -0.1065
 5312SOL    HW127398   3.014   3.782   3.704 -0.7441  0.1919  1.3167
 5312SOL    HW227399   2.998   3.921   3.757 -1.7742  0.0623  0.9367
 5313SOL     OW27400   4.578   0.134   2.593  0.2284 -0.2808  0.0989
 5313SOL    HW127401   4.523   0.212   2.588 -0.2349 -0.6559 -0.6209
 5313SOL    HW227402   4.524   0.067   2.635 -0.1162  1.4611  2.4192
 5314SOL     OW27403   2.544   3.091   3.254  0.0916 -0.4741 -0.6509
 5314SOL    HW127404   2.526   3.089   3.160  0.9832 -2.1917 -0.7916
 5314SOL    HW227405   2.553   3.183   3.278  0.4043 -1.0805  1.6055
 5315SOL     OW27406   2.045   4.193   8.706  0.4213 -0.1344  0.6741
 5315SOL    HW127407   1.993   4.117   8.730 -0.3259  0.7921  1.9787
 5315SOL    HW227408   2.055   4.177   8.612  0.2047  1.1336  0.4268
 5316SOL     OW27409   0.149   3.281  11.453 -0.1775 -0.1874 -0.0620
 5316SOL    HW127410   0.093   3.235  11.391  1.8925  3.0101 -4.2644
 5316SOL    HW227411   0.112   3.366  11.432  0.9785  0.1405 -0.7791
 5317SOL     OW27412   3.968   1.858   6.359  0.2266  0.4895  0.3223
 5317SOL    HW127413   4.025   1.855   6.282 -3.0437  0.1700 -2.0321
 5317SOL    HW227414   3.932   1.946   6.347 -2.4637 -0.6344  0.2160
 5318SOL     OW27415   2.114   1.163   8.922  0.1815  0.1541 -0.1888
 5318SOL    HW127416   2.110   1.244   8.872 -0.0716  0.2695  0.0196
 5318SOL    HW227417   2.136   1.094   8.859  1.9102 -1.6846  2.3939
 5319SOL     OW27418   3.966   2.788   1.009  0.6621  0.1220  0.4990
 5319SOL    HW127419   4.038   2.772   1.070  0.1091 -1.8449  0.6493
 5319SOL    HW227420   3.953   2.701   0.971  1.5158  0.1126  0.2137
 5320SOL     OW27421   2.019   4.157   2.907  0.1110  0.0997 -0.2588
 5320SOL    HW127422   1.960   4.204   2.849 -0.7470  0.2875  0.7560
 5320SOL    HW227423   1.962   4.082   2.928 -0.3469  0.8371  1.1870
 5321SOL     OW27424   2.511   2.196   1.879 -0.2350  0.8566  0.3912
 5321SOL    HW127425   2.433   2.170   1.929 -1.2798 -1.0946 -2.3108
 5321SOL    HW227426   2.549   2.110   1.862  1.8764  1.7564  0.5715
 5322SOL     OW27427   0.715   3.767   6.168  0.0512 -0.7092  0.0581
 5322SOL    HW127428   0.629   3.748   6.205  0.3597 -0.4032  0.9329
 5322SOL    HW227429   0.729   3.706   6.095  0.2526 -1.5639  0.8052
 5323SOL     OW27430   1.605   3.646  17.681 -0.1740  0.5232 -0.1626
 5323SOL    HW127431   1.513   3.650   0.007  0.3557 -0.4726  1.6723
 5323SOL    HW227432   1.643   3.583   0.039 -0.2916 -0.3508 -0.9992
 5324SOL     OW27433   0.585   2.715   6.968  0.5320  0.3908  0.2863
 5324SOL    HW127434   0.570   2.810   6.970  1.0965  0.4850  0.1540
 5324SOL    HW227435   0.559   2.699   6.877 -0.3713  3.9826 -0.0991
 5325SOL     OW27436   1.860   0.689   3.721 -0.0287  0.5983  0.3787
 5325SOL    HW127437   1.813   0.681   3.804  0.7587 -2.2505  0.5667
 5325SOL    HW227438   1.918   0.613   3.721 -1.3569 -0.4393 -1.2082
 5326SOL     OW27439   3.693   4.450   3.454 -0.1968  0.4173 -0.2529
 5326SOL    HW127440   3.682   4.381   3.520 -3.4571  1.5054  0.3087
 5326SOL    HW227441   3.744   4.515   3.502 -0.5339  1.2070 -0.9663
 5327SOL     OW27442   1.112   1.505   3.938  0.7355  0.3378  0.4934
 5327SOL    HW127443   1.179   1.542   3.995  1.9114 -1.5558  0.3514
 5327SOL    HW227444   1.169   1.472   3.868  0.7325 -0.9460  1.0881
 5328SOL     OW27445   2.584   3.715   3.826 -0.3137  0.3453  0.4977
 5328SOL    HW127446   2.605   3.799   3.785 -0.1340  0.6367  1.1955
 5328SOL    HW227447   2.511   3.679   3.775  1.3356  1.3975 -2.5751
 5329SOL     OW27448   2.865   4.010   5.311  0.0207  0.2920  0.1079
 5329SOL    HW127449   2.831   4.081   5.255  0.1870  0.6118  0.4125
 5329SOL    HW227450   2.816   4.033   5.390  0.1592  1.4908 -0.1460
 5330SOL     OW27451   3.360   1.165   6.108  0.5580 -0.1910 -0.1058
 5330SOL    HW127452   3.412   1.149   6.187 -1.5793 -1.2016  1.1073
 5330SOL    HW227453   3.276   1.199   6.139  1.4096  0.5691  1.3676
 5331SOL     OW27454   4.132   3.777   3.604  0.4084 -0.4228 -0.4275
 5331SOL    HW127455   4.110   3.742   3.691 -1.6214 -3.8845 -2.3360
 5331SOL    HW227456   4.044   3.794   3.572  0.0300 -0.2791  0.6887
 5332SOL     OW27457   1.029   4.105   6.356  0.1768  0.1091  0.1605
 5332SOL    HW127458   1.015   4.030   6.299  3.8271 -2.3208  2.5093
 5332SOL    HW227459   0.948   4.110   6.406 -0.7579 -0.0041 -1.3650
 5333SOL     OW27460   2.771   2.854   2.792 -0.3755  0.6957  0.2442
 5333SOL    HW127461   2.785   2.804   2.712 -2.3474  1.9861 -0.9003
 5333SOL    HW227462   2.855   2.847   2.838 -0.5750  2.1279  0.8228
 5334SOL     OW27463   0.978   0.881   0.796  0.9240 -0.3522 -0.2399
 5334SOL    HW127464   0.884   0.896   0.786  0.8350  1.1105  2.7868
 5334SOL    HW227465   1.021   0.962   0.825  1.2138 -0.2678 -0.9153
 5335SOL     OW27466   1.181   0.087  12.984  0.1218  0.2371 -0.3412
 5335SOL    HW127467   1.246   0.049  12.924  0.5803 -0.0088  0.3207
 5335SOL    HW227468   1.245   0.139  13.033  0.2284  0.6636 -0.9276
 5336SOL     OW27469   4.546   0.146   5.154  0.3617 -0.3932 -0.0050
 5336SOL    HW127470   4.526   0.232   5.191  0.8074 -0.7658  1.1154
 5336SOL    HW227471   4.586   0.170   5.070  1.3199 -2.4557 -0.1510
 5337SOL     OW27472   1.999   4.472   4.132 -0.2368  0.0975  0.6152
 5337SOL    HW127473   2.039   4.422   4.203  0.9820 -0.3718 -0.4061
 5337SOL    HW227474   2.005   4.560   4.169  3.2699  0.3876 -0.6808
 5338SOL     OW27475   2.778   4.005   2.964 -0.6889  0.0353  0.1790
 5338SOL    HW127476   2.785   3.912   2.984  1.4511 -0.1257 -1.2517
 5338SOL    HW227477   2.684   4.019   2.960 -0.8307 -0.7678  0.7426
 5339SOL     OW27478   3.823   0.762  14.308 -0.2230  0.1034 -0.4746
 5339SOL    HW127479   3.849   0.849  14.338 -0.1421  1.3263 -4.1027
 5339SOL    HW227480   3.744   0.779  14.257  0.5737  1.3762 -1.2883
 5340SOL     OW27481   1.479   2.702   7.505  0.1250 -0.3348  0.3490
 5340SOL    HW127482   1.503   2.655   7.585  1.4580  1.5401  1.0666
 5340SOL    HW227483   1.565   2.694   7.465 -0.2955  0.6280 -0.7415
 5341SOL     OW27484   0.161   3.166  15.826 -0.1935 -0.0837  0.7459
 5341SOL    HW127485   0.215   3.089  15.842  1.3854  0.7930 -0.3267
 5341SOL    HW227486   0.218   3.217  15.769 -3.8960  0.2166 -2.7224
 5342SOL     OW27487   3.356   2.401  15.215 -0.8366 -1.2462  0.2237
 5342SOL    HW127488   3.401   2.316  15.210  0.2235 -0.7057  0.6407
 5342SOL    HW227489   3.427   2.458  15.187 -0.5313 -0.1225  3.3228
 5343SOL     OW27490   4.279   0.561  17.121  0.8965  0.4512  0.5909
 5343SOL    HW127491   4.340   0.629  17.147  2.6034 -0.1629 -1.7304
 5343SOL    HW227492   4.216   0.596  17.058 -0.5326 -1.4414  0.9529
 5344SOL     OW27493   4.104   2.741   4.758  0.4913  0.4503  0.0977
 5344SOL    HW127494   4.101   2.761   4.664 -3.3111  0.8688  0.3122
 5344SOL    HW227495   4.196   2.747   4.782  0.3766 -0.6917  0.8158
 5345SOL     OW27496   3.563   3.501   1.639  0.3700 -0.7158  0.2258
 5345SOL    HW127497   3.622   3.577   1.639 -2.6607  1.6330 -2.3538
 5345SOL    HW227498   3.612   3.426   1.672 -0.3221  0.0028  2.9478
 5346SOL     OW27499   3.884   0.145  10.794 -0.1122 -0.1480  0.2697
 5346SOL    HW127500   3.937   0.207  10.844  1.8311 -2.9137  1.6336
 5346SOL    HW227501   3.803   0.193  10.776  0.6526  0.1973 -2.1750
 5347SOL     OW27502   2.204   2.648  13.046  0.0792  0.1891  0.5064
 5347SOL    HW127503   2.178   2.569  13.094 -1.6683  1.6069  1.9031
 5347SOL    HW227504   2.242   2.707  13.111 -0.7276 -0.6081  1.7108
 5348SOL     OW27505   1.773   1.308   8.906 -0.4700  0.1866 -0.4386
 5348SOL    HW127506   1.728   1.366   8.967  0.5135 -1.5815  1.9619
 5348SOL    HW227507   1.863   1.341   8.898 -0.4656  0.3020  0.1027
 5349SOL     OW27508   0.826   4.658   7.428 -0.5103  0.4806 -0.4402
 5349SOL    HW127509   0.809   4.571   7.463 -1.1772  0.8367  0.1242
 5349SOL    HW227510   0.872   4.689   7.507  0.3024  0.2669 -0.8314
 5350SOL     OW27511   3.686   0.101  17.268 -0.5573  0.7474 -0.0162
 5350SOL    HW127512   3.611   0.054  17.305  1.0123 -0.1036  2.1054
 5350SOL    HW227513   3.727   0.033  17.215  0.7080  0.0705  1.8351
 5351SOL     OW27514   4.723   3.466   6.498 -0.0734  0.2898 -0.1625
 5351SOL    HW127515   4.683   3.389   6.538  0.6255  1.0419  2.0125
 5351SOL    HW227516   4.649   3.507   6.453 -0.8550 -0.7063  0.2015
 5352SOL     OW27517   3.150   1.781   1.116 -0.5283 -0.4465 -0.0636
 5352SOL    HW127518   3.237   1.820   1.126 -0.1455 -0.9320 -1.6806
 5352SOL    HW227519   3.162   1.705   1.173 -1.4624  0.1659  0.9783
 5353SOL     OW27520   1.534   4.098  15.762 -0.4733 -0.4690  0.1826
 5353SOL    HW127521   1.555   4.156  15.689  0.6554  0.0554  0.9239
 5353SOL    HW227522   1.452   4.066  15.723 -0.1030 -0.5372 -0.5449
 5354SOL     OW27523   1.432   4.501   1.877  0.0905 -0.4594 -0.1674
 5354SOL    HW127524   1.401   4.463   1.795 -2.3430  1.7560 -0.2745
 5354SOL    HW227525   1.362   4.474   1.937  0.6898 -1.3277  0.1249
 5355SOL     OW27526   1.420   0.467   0.573 -0.0038  0.3914 -0.2178
 5355SOL    HW127527   1.363   0.473   0.496  1.6701  0.7144 -1.4132
 5355SOL    HW227528   1.466   0.386   0.553 -3.3078 -1.6693  0.4655
 5356SOL     OW27529   2.686   2.010   2.863 -0.5877  0.2709  0.6653
 5356SOL    HW127530   2.628   2.057   2.924  0.9679  0.4992  1.9467
 5356SOL    HW227531   2.752   2.077   2.847 -1.3516  0.7819 -0.3812
 5357SOL     OW27532   3.565   2.643   6.478  0.0215 -0.3442  0.4270
 5357SOL    HW127533   3.560   2.707   6.407  0.0057 -0.8622 -0.0430
 5357SOL    HW227534   3.658   2.647   6.502 -0.0931  4.4078  0.0591
 5358SOL     OW27535   4.382   2.142  16.837  0.7324 -0.2390  0.9384
 5358SOL    HW127536   4.295   2.166  16.806  1.8590  1.3392 -1.0094
 5358SOL    HW227537   4.438   2.199  16.784 -3.3493  0.5296 -2.5652
 5359SOL     OW27538   3.027   0.870  17.686 -0.5824  0.1286  0.2542
 5359SOL    HW127539   3.108   0.913   0.010 -0.6663  1.0443 -1.0270
 5359SOL    HW227540   3.060   0.780  17.686  0.1298  0.3890 -0.1429
 5360SOL     OW27541   3.239   1.274   8.807 -0.0574  0.0812 -0.4359
 5360SOL    HW127542   3.278   1.359   8.788  0.5660  0.1059  0.9885
 5360SOL    HW227543   3.147   1.298   8.816  0.2713  0.5267  1.7306
 5361SOL     OW27544   3.026   4.130   3.546  0.4232 -0.5231 -0.0368
 5361SOL    HW127545   2.988   4.042   3.541  1.4988 -0.9270 -1.0319
 5361SOL    HW227546   3.068   4.123   3.632  1.1973 -0.1902 -0.3864
 5362SOL     OW27547   0.564   2.989   5.327 -0.1140  0.0949 -0.1882
 5362SOL    HW127548   0.482   2.991   5.377 -1.0253  0.3888 -1.6706
 5362SOL    HW227549   0.598   3.078   5.339  0.0992  0.6862 -5.1532
 5363SOL     OW27550   1.309   2.158   3.771  0.2117  0.0263  0.0457
 5363SOL    HW127551   1.272   2.126   3.689  1.1967 -0.4581 -0.2132
 5363SOL    HW227552   1.334   2.083   3.825  0.0825 -0.6109 -0.7901
 5364SOL     OW27553   1.631   3.889   1.337 -0.4051  0.2819 -0.1058
 5364SOL    HW127554   1.577   3.810   1.327 -1.7457  1.4865 -2.3838
 5364SOL    HW227555   1.637   3.881   1.432 -1.5987  0.5267 -0.0060
 5365SOL     OW27556   2.684   1.856   7.736  0.7501 -0.1278  0.6459
 5365SOL    HW127557   2.639   1.919   7.792 -0.1381  0.8235 -1.1116
 5365SOL    HW227558   2.709   1.913   7.662 -1.9483  1.0448  0.6576
 5366SOL     OW27559   2.255   1.160   5.425  0.6801  0.5481 -0.1912
 5366SOL    HW127560   2.177   1.160   5.480  0.1434  1.0560 -0.9629
 5366SOL    HW227561   2.273   1.066   5.430 -0.0170  0.3454 -1.4703
 5367SOL     OW27562   3.916   0.402   6.840  0.3766  0.5145  0.2171
 5367SOL    HW127563   3.906   0.448   6.756  2.3062  1.1435  0.3274
 5367SOL    HW227564   4.008   0.374   6.836  0.0759 -0.7533  2.6098
 5368SOL     OW27565   0.936   1.023  11.696 -0.4369 -0.4597  0.1232
 5368SOL    HW127566   1.005   0.973  11.653  0.5653 -0.1079  1.3434
 5368SOL    HW227567   0.957   1.013  11.789 -1.2776 -0.8220  0.2723
 5369SOL     OW27568   3.507   3.624   7.726  0.1688 -0.6649 -0.9339
 5369SOL    HW127569   3.449   3.666   7.789  0.2199 -2.6773  0.4407
 5369SOL    HW227570   3.588   3.618   7.777 -1.2481  0.6609  1.4575
 5370SOL     OW27571   0.047   0.499   7.027 -0.2785 -0.5868  0.2077
 5370SOL    HW127572   0.106   0.439   7.072  1.4107  1.5136  0.7627
 5370SOL    HW227573   0.098   0.579   7.020 -0.2877 -0.7436 -1.7682
 5371SOL     OW27574   0.655   0.894  12.364  0.7889  0.4967 -0.2329
 5371SOL    HW127575   0.610   0.903  12.279 -0.5813  1.1385  0.5524
 5371SOL    HW227576   0.596   0.824  12.390 -0.6688  1.6029 -0.5018
 5372SOL     OW27577   0.216   2.168  10.261 -0.0798  0.3694  0.6076
 5372SOL    HW127578   0.124   2.186  10.281  0.5160  3.6010  0.5105
 5372SOL    HW227579   0.224   2.080  10.295  0.2016 -0.4238 -1.5013
 5373SOL     OW27580   3.468   4.531   1.273  0.3632  0.2530  0.4323
 5373SOL    HW127581   3.441   4.553   1.185 -1.3260 -2.5024  0.2526
 5373SOL    HW227582   3.530   4.460   1.253 -0.2856  0.1397 -1.1325
 5374SOL     OW27583   4.240   2.013   6.329 -0.0603  0.0846  0.1063
 5374SOL    HW127584   4.253   1.922   6.302 -0.6892 -0.3906  1.4128
 5374SOL    HW227585   4.219   2.053   6.244 -1.5007 -1.1128 -0.0982
 5375SOL     OW27586   0.845   2.062   1.087 -0.3231  0.2786  0.2763
 5375SOL    HW127587   0.911   2.110   1.037 -0.6608 -0.3078 -0.7160
 5375SOL    HW227588   0.772   2.056   1.027  0.0486 -0.2526 -0.1225
 5376SOL     OW27589   4.436   2.586   1.664  0.4104  0.1442 -0.0197
 5376SOL    HW127590   4.472   2.531   1.594 -1.1184 -2.5999  1.3484
 5376SOL    HW227591   4.354   2.610   1.621  0.2884 -0.2505 -0.0120
 5377SOL     OW27592   0.188   0.444   4.734 -0.3005  0.4923  0.7820
 5377SOL    HW127593   0.169   0.419   4.644 -0.1352 -0.6055  1.0562
 5377SOL    HW227594   0.209   0.357   4.767 -0.9281  0.4985  1.2053
 5378SOL     OW27595   1.696   0.792   5.063 -0.0471 -0.2397  0.0040
 5378SOL    HW127596   1.617   0.845   5.057  1.0625  1.3719 -0.5892
 5378SOL    HW227597   1.726   0.822   5.149  0.1681 -1.3260  0.3078
 5379SOL     OW27598   4.710   0.325   6.742 -0.2277 -0.6754 -0.3688
 5379SOL    HW127599   0.058   0.269   6.769 -0.9343 -1.0712  0.7374
 5379SOL    HW227600   0.028   0.405   6.772  2.2256 -1.3939 -1.9975
 5380SOL     OW27601   4.327   0.673   1.213 -0.1392 -0.0932 -0.2425
 5380SOL    HW127602   4.414   0.636   1.230 -0.6994 -2.1013 -1.8130
 5380SOL    HW227603   4.277   0.592   1.202 -1.7157  0.8832 -0.2010
 5381SOL     OW27604   2.736   3.763  11.461  0.0502  0.8518  0.3695
 5381SOL    HW127605   2.705   3.683  11.419  0.7561 -0.1203  1.7013
 5381SOL    HW227606   2.765   3.816  11.387  0.6669 -0.8777 -0.6240
 5382SOL     OW27607   1.844   0.468   2.628  0.0392 -0.3826 -0.1868
 5382SOL    HW127608   1.800   0.385   2.651 -2.5072  1.0549  0.1938
 5382SOL    HW227609   1.787   0.520   2.685  1.4802 -0.3423  1.2056
 5383SOL     OW27610   2.623   0.386  13.752 -0.0134 -0.3097  0.0164
 5383SOL    HW127611   2.627   0.392  13.657 -1.8733  1.2801  0.0402
 5383SOL    HW227612   2.696   0.324  13.759 -2.2176 -3.1018 -1.4309
 5384SOL     OW27613   0.969   1.565  15.469 -0.6122 -0.3414  0.3568
 5384SOL    HW127614   0.926   1.542  15.387 -0.0878 -0.3799  0.0887
 5384SOL    HW227615   1.037   1.626  15.438 -0.5394 -0.0005  1.1809
 5385SOL     OW27616   3.759   4.658  15.098 -0.0047 -0.2929  0.0245
 5385SOL    HW127617   3.842   4.613  15.113 -1.1117 -2.3621 -0.0682
 5385SOL    HW227618   3.692   4.592  15.079 -0.9250  1.0897 -1.5969
 5386SOL     OW27619   2.013   0.735   2.481  0.5707  0.3690 -0.5489
 5386SOL    HW127620   2.051   0.651   2.507 -1.8582  0.1620  2.3100
 5386SOL    HW227621   2.028   0.727   2.387  1.9161 -1.0521 -0.2029
 5387SOL     OW27622   1.577   2.626   2.135  0.2800 -0.4492  0.1652
 5387SOL    HW127623   1.491   2.655   2.103 -0.3434 -1.0790  1.2742
 5387SOL    HW227624   1.566   2.534   2.110 -0.6454 -0.5132  0.8005
 5388SOL     OW27625   0.139   3.047   4.480  0.8214 -0.0967  0.1682
 5388SOL    HW127626   0.156   3.004   4.565  1.7759 -1.6314 -0.7991
 5388SOL    HW227627   0.092   3.127   4.505 -0.8777 -1.3775  1.0947
 5389SOL     OW27628   4.382   3.700   5.065 -0.3757 -0.4566 -1.4373
 5389SOL    HW127629   4.401   3.645   5.141 -0.2399  0.2459 -0.9556
 5389SOL    HW227630   4.454   3.763   5.076 -0.0920 -0.7340 -1.7285
 5390SOL     OW27631   2.916   3.092   3.694 -0.2009 -0.5816  0.6053
 5390SOL    HW127632   2.822   3.077   3.703  0.2662 -2.9269  1.6072
 5390SOL    HW227633   2.950   3.078   3.783 -1.7733 -0.5160  1.2151
 5391SOL     OW27634   2.644   1.000   7.781  0.2973  0.1791 -0.2864
 5391SOL    HW127635   2.573   1.049   7.741  0.4050 -0.1196 -0.8447
 5391SOL    HW227636   2.715   1.027   7.722  0.2795  0.7922 -0.0233
 5392SOL     OW27637   2.305   0.796   7.072 -0.2611  0.0330 -0.3638
 5392SOL    HW127638   2.349   0.752   7.145  1.3013 -0.1214 -1.3876
 5392SOL    HW227639   2.326   0.732   7.003 -0.7384  0.3418 -0.7940
 5393SOL     OW27640   4.282   0.361   8.364  0.3673  0.2202 -0.0127
 5393SOL    HW127641   4.256   0.318   8.445 -0.6857 -1.7724 -1.3943
 5393SOL    HW227642   4.201   0.406   8.343  2.5536  4.1662  0.0073
 5394SOL     OW27643   4.054   1.432   1.029  0.2931  0.3687 -0.6265
 5394SOL    HW127644   4.084   1.359   0.974  2.1429  1.5815 -1.2215
 5394SOL    HW227645   3.970   1.393   1.054  1.2656 -1.5318 -0.2929
 5395SOL     OW27646   1.237   3.910  15.470 -0.3785 -0.0335  0.0202
 5395SOL    HW127647   1.177   3.850  15.515  0.0129 -1.8674 -1.8953
 5395SOL    HW227648   1.267   3.960  15.546  0.4648  1.5918 -1.3747
 5396SOL     OW27649   4.603   3.508   7.155 -0.1822  0.0850 -0.1489
 5396SOL    HW127650   4.605   3.584   7.098 -2.1809 -0.3331 -0.7810
 5396SOL    HW227651   4.690   3.470   7.147  0.3658  1.0915  1.1265
 5397SOL     OW27652   3.259   2.101  15.940  0.4283  0.9773 -0.4438
 5397SOL    HW127653   3.200   2.028  15.922  0.2343  0.8527  0.6793
 5397SOL    HW227654   3.212   2.156  16.004 -0.4789  1.6613 -1.6911
 5398SOL     OW27655   1.871   1.526  11.594  0.2546  0.1359 -0.0927
 5398SOL    HW127656   1.964   1.521  11.574  0.2569 -0.2347  0.0006
 5398SOL    HW227657   1.877   1.615  11.628 -0.4615 -0.0923  0.6389
 5399SOL     OW27658   4.444   1.600   0.608  0.0421  0.2596 -0.2837
 5399SOL    HW127659   4.532   1.612   0.644 -2.0546  2.6073  4.0211
 5399SOL    HW227660   4.460   1.637   0.521 -1.3124  1.3644 -0.0718
 5400SOL     OW27661   1.599   4.542   1.492  0.7389  0.8639 -0.1877
 5400SOL    HW127662   1.638   4.475   1.548 -1.1080 -1.8251 -2.1191
 5400SOL    HW227663   1.669   4.530   1.427 -0.1541 -1.5861 -0.7240
 5401SOL     OW27664   1.592   1.664   0.033 -0.0489 -0.5271 -0.1623
 5401SOL    HW127665   1.599   1.606   0.108  0.9771 -0.6345 -0.3431
 5401SOL    HW227666   1.550   1.738   0.077  1.3479  0.1661  0.0062
 5402SOL     OW27667   0.811   3.640   2.596 -0.4693  0.6671  0.3825
 5402SOL    HW127668   0.738   3.624   2.536 -0.9863 -3.1107  2.0227
 5402SOL    HW227669   0.774   3.713   2.646 -0.6421  0.3499  0.7191
 5403SOL     OW27670   3.953   2.232   4.494 -0.3636 -0.4074 -0.3061
 5403SOL    HW127671   3.895   2.192   4.559  1.0034 -1.0505  0.5273
 5403SOL    HW227672   3.951   2.168   4.423 -0.7626  1.2500 -1.7663
 5404SOL     OW27673   4.425   2.560  10.740  0.3643  0.2713  0.2240
 5404SOL    HW127674   4.363   2.547  10.812 -0.1876 -1.1447 -0.4940
 5404SOL    HW227675   4.406   2.649  10.712  2.1995  0.7579  0.4814
 5405SOL     OW27676   2.449   1.865   1.025 -0.4075  0.1203  0.2545
 5405SOL    HW127677   2.429   1.958   1.022  2.7714  0.7508 -1.5365
 5405SOL    HW227678   2.537   1.861   1.062  0.4342 -0.4841 -1.7830
 5406SOL     OW27679   4.423   4.265   1.309  0.2411 -0.0315  0.5093
 5406SOL    HW127680   4.338   4.309   1.314  0.8066  0.7079  3.0609
 5406SOL    HW227681   4.404   4.195   1.371 -0.5417 -0.0479  0.2534
 5407SOL     OW27682   2.806   2.761   7.774 -0.1468  0.6901 -0.3553
 5407SOL    HW127683   2.742   2.788   7.839 -0.2909  1.5292 -0.8465
 5407SOL    HW227684   2.875   2.827   7.778 -0.6336  1.0857  1.2131
 5408SOL     OW27685   1.564   2.425   7.110 -0.1053 -0.6000 -0.1552
 5408SOL    HW127686   1.513   2.421   7.191 -0.0350  1.0082 -0.0373
 5408SOL    HW227687   1.562   2.337   7.071 -2.3702 -0.5573 -0.1487
 5409SOL     OW27688   0.187   3.142  13.161  0.6555  0.3526  0.1592
 5409SOL    HW127689   0.201   3.063  13.110  1.1601  1.1062 -0.8812
 5409SOL    HW227690   0.233   3.208  13.108 -0.5535 -0.8039 -2.2959
 5410SOL     OW27691   1.982   0.309  11.333  0.5732 -0.3835 -0.4883
 5410SOL    HW127692   1.911   0.245  11.330  0.4982 -0.1765 -2.8609
 5410SOL    HW227693   2.034   0.251  11.389  1.3769  2.0021  1.2317
 5411SOL     OW27694   1.639   0.655  17.667 -0.1916  0.0194  0.5702
 5411SOL    HW127695   1.599   0.737  17.637 -0.0938 -0.0951  0.1211
 5411SOL    HW227696   1.592   0.596  17.608 -1.2945  0.0209  1.4545
 5412SOL     OW27697   0.497   2.354  16.533 -0.2907  0.3114 -0.1432
 5412SOL    HW127698   0.418   2.299  16.529 -0.6634  0.9950 -2.2362
 5412SOL    HW227699   0.514   2.353  16.439  0.0170 -0.9180 -0.0757
 5413SOL     OW27700   3.964   2.857  11.597  0.1608  0.0456 -0.0322
 5413SOL    HW127701   3.892   2.891  11.651  1.1513 -0.4190  1.5777
 5413SOL    HW227702   3.942   2.892  11.511 -2.2932  1.3796  1.1210
 5414SOL     OW27703   0.512   1.152  16.935 -0.4293 -0.1208 -0.1793
 5414SOL    HW127704   0.448   1.093  16.976 -0.4488 -1.4495 -2.1357
 5414SOL    HW227705   0.453   1.227  16.928 -0.7628 -0.3865 -0.2235
 5415SOL     OW27706   0.688   3.579   8.914  0.0220  0.1920  0.2734
 5415SOL    HW127707   0.692   3.673   8.898  2.4852  0.3916  2.0256
 5415SOL    HW227708   0.609   3.559   8.965  0.8330  1.8870  2.1976
 5416SOL     OW27709   4.161   0.204   1.310  0.6493 -0.0858 -0.1745
 5416SOL    HW127710   4.235   0.182   1.252  1.4469  1.7008  0.1678
 5416SOL    HW227711   4.205   0.273   1.360  0.0425 -0.7925  1.3297
 5417SOL     OW27712   1.829   1.034  12.908 -0.2540  0.4700  0.5716
 5417SOL    HW127713   1.909   0.987  12.933  0.6793 -0.0090 -3.1981
 5417SOL    HW227714   1.774   0.973  12.956  0.5746  0.0517  1.0050
 5418SOL     OW27715   4.153   0.401  11.310 -0.2096  0.2460  0.5400
 5418SOL    HW127716   4.160   0.368  11.399 -1.4190 -0.0983  0.5052
 5418SOL    HW227717   4.209   0.478  11.312 -0.4428  0.4131  0.6460
 5419SOL     OW27718   1.469   4.567  11.311  0.4561 -0.1531 -0.1341
 5419SOL    HW127719   1.498   4.478  11.334 -2.7092 -1.0101  0.6561
 5419SOL    HW227720   1.508   4.586  11.226 -1.6280 -0.3573 -1.1592
 5420SOL     OW27721   1.958   2.844   4.696  0.1726  0.3626  0.6905
 5420SOL    HW127722   1.994   2.821   4.782 -1.7207  0.1218  1.4065
 5420SOL    HW227723   1.916   2.761   4.671  1.1061 -0.1212  0.7159
 5421SOL     OW27724   3.923   0.344  11.191 -0.6728  0.5750  0.0401
 5421SOL    HW127725   3.915   0.362  11.097  0.6882  2.3470  0.2536
 5421SOL    HW227726   4.007   0.387  11.208 -1.4027  1.7387  0.7224
 5422SOL     OW27727   2.981   4.452   8.034  0.0014  0.2480  0.2858
 5422SOL    HW127728   2.953   4.467   8.125  3.1471 -2.4524  1.7008
 5422SOL    HW227729   3.054   4.514   8.031  1.3493 -1.3308  0.3578
 5423SOL     OW27730   3.460   3.731   8.711 -0.1667 -0.4503 -0.0817
 5423SOL    HW127731   3.429   3.781   8.787 -0.4162 -1.6793  0.6197
 5423SOL    HW227732   3.384   3.673   8.715  0.4876 -1.2040  1.3252
 5424SOL     OW27733   1.334   1.999  15.913  0.1061  0.2397  0.6608
 5424SOL    HW127734   1.263   1.964  15.968  0.0724  1.2314  1.2503
 5424SOL    HW227735   1.335   2.086  15.952 -3.5653  1.1283 -1.2755
 5425SOL     OW27736   4.111   3.123   2.323 -0.4863  0.1562 -0.3892
 5425SOL    HW127737   4.038   3.091   2.376 -1.3756 -0.2240 -1.8349
 5425SOL    HW227738   4.160   3.180   2.383 -0.3791 -1.3167  0.9134
 5426SOL     OW27739   4.487   4.585   4.667 -0.4837 -0.0028 -0.0423
 5426SOL    HW127740   4.458   4.618   4.752  0.9129  0.7498  0.1445
 5426SOL    HW227741   4.507   4.498   4.703 -1.6276  0.5645  1.9817
 5427SOL     OW27742   3.214   0.508   2.189  0.0873  0.4330  0.9853
 5427SOL    HW127743   3.146   0.543   2.246  1.1842  1.6232  1.5633
 5427SOL    HW227744   3.163   0.432   2.162  0.3605 -0.4294  2.8771
 5428SOL     OW27745   3.364   4.668   9.820  0.3041  0.5557  0.2692
 5428SOL    HW127746   3.431   4.678   9.752  0.7573 -1.0744  0.4769
 5428SOL    HW227747   3.288   4.666   9.762 -1.5838  0.1918  2.8188
 5429SOL     OW27748   2.300   3.626  15.191  0.0042 -0.8780 -0.0191
 5429SOL    HW127749   2.313   3.533  15.210  0.1797 -1.0884 -1.1618
 5429SOL    HW227750   2.209   3.640  15.166  0.6378  2.7995 -0.1936
 5430SOL     OW27751   2.345   1.651   1.533  0.1402 -0.5498  0.1924
 5430SOL    HW127752   2.394   1.732   1.520 -1.2915  0.5328  1.6389
 5430SOL    HW227753   2.414   1.591   1.505  0.7606 -0.5140  1.6381
 5431SOL     OW27754   4.530   0.719  15.807  0.7063 -0.4106  0.2458
 5431SOL    HW127755   4.459   0.775  15.776  1.6109  0.3250 -0.5139
 5431SOL    HW227756   4.523   0.734  15.901 -1.7074 -1.7078  0.2629
 5432SOL     OW27757   1.342   4.643   1.547 -0.7060  0.2290 -0.1143
 5432SOL    HW127758   1.350   0.013   1.545 -0.2690  0.1998  0.2657
 5432SOL    HW227759   1.429   4.605   1.531 -2.2213 -1.7487 -3.6751
 5433SOL     OW27760   0.463   0.778  13.487 -0.1236  0.0498  0.1543
 5433SOL    HW127761   0.408   0.839  13.538 -0.7505  1.1880 -1.8944
 5433SOL    HW227762   0.434   0.796  13.398  2.0676 -0.1989 -0.6017
 5434SOL     OW27763   2.061   1.110   2.956  0.2874  0.2559 -0.1226
 5434SOL    HW127764   2.140   1.088   3.006  0.3902  1.9884  0.4685
 5434SOL    HW227765   2.070   1.200   2.926  0.2504  0.2782 -0.0676
 5435SOL     OW27766   2.593   4.275   6.619 -0.3302 -0.2200 -0.1429
 5435SOL    HW127767   2.511   4.288   6.666 -0.4707  1.2937 -0.8109
 5435SOL    HW227768   2.592   4.179   6.614 -3.5001 -0.2762  1.2319
 5436SOL     OW27769   0.798   2.690   9.495  0.0828  0.4874 -0.5124
 5436SOL    HW127770   0.776   2.686   9.402 -0.0792  0.1101 -0.4562
 5436SOL    HW227771   0.886   2.654   9.481  0.4060  0.8954  0.4225
 5437SOL     OW27772   0.686   3.834   7.791  0.0263  0.0190  0.0624
 5437SOL    HW127773   0.647   3.920   7.779  2.0005  0.9826  0.5460
 5437SOL    HW227774   0.635   3.781   7.730  0.1130 -0.4666  0.4120
 5438SOL     OW27775   4.094   2.388  10.234  1.2140  0.0888  0.1720
 5438SOL    HW127776   4.034   2.462  10.248  0.9173 -0.2861  0.8700
 5438SOL    HW227777   4.086   2.333  10.311  1.7988 -0.3967 -0.1139
 5439SOL     OW27778   2.639   2.078   7.388  0.4848 -0.2269 -0.1536
 5439SOL    HW127779   2.640   2.169   7.416 -0.8507 -0.4771  0.7042
 5439SOL    HW227780   2.561   2.070   7.332  0.5188 -0.1226 -0.2149
 5440SOL     OW27781   2.526   0.858   4.594  0.1154 -0.0929 -0.0174
 5440SOL    HW127782   2.528   0.824   4.505 -1.1557  1.2504 -0.5736
 5440SOL    HW227783   2.431   0.850   4.607  0.5764 -2.3828  1.7869
 5441SOL     OW27784   1.811   1.269   6.307  0.1120  0.4812 -0.1567
 5441SOL    HW127785   1.719   1.285   6.286  0.7280  2.7471 -1.0887
 5441SOL    HW227786   1.827   1.188   6.259 -0.0661  0.3405  0.0213
 5442SOL     OW27787   4.125   2.728   6.212 -0.1174  0.1983 -0.7540
 5442SOL    HW127788   4.148   2.657   6.153 -2.3195 -1.0192 -0.1054
 5442SOL    HW227789   4.114   2.680   6.294  1.9795  1.0716  0.0610
 5443SOL     OW27790   3.650   4.188   2.229  0.0186 -0.0379 -0.0607
 5443SOL    HW127791   3.562   4.177   2.266 -0.0992  0.0282 -0.3246
 5443SOL    HW227792   3.665   4.281   2.250 -0.8973 -0.2567  1.5609
 5444SOL     OW27793   0.883   1.744   8.740 -0.1498 -0.5392  0.0912
 5444SOL    HW127794   0.960   1.765   8.688 -0.2914 -1.8849 -0.6786
 5444SOL    HW227795   0.817   1.754   8.671  0.6548 -1.1908 -0.7761
 5445SOL     OW27796   2.086   2.978  15.137  0.1666 -0.4078  0.2572
 5445SOL    HW127797   2.005   2.976  15.188  0.8784 -0.3469  1.3708
 5445SOL    HW227798   2.042   2.994  15.053 -1.3519  0.0566  1.1409
 5446SOL     OW27799   0.111   2.346   3.429 -0.2876 -0.0047 -0.2360
 5446SOL    HW127800   0.132   2.405   3.357 -0.8487 -1.1271 -1.2983
 5446SOL    HW227801   0.117   2.402   3.507  1.3023 -1.7960  0.9504
 5447SOL     OW27802   3.665   3.459  16.505  0.1539 -0.2587  0.3059
 5447SOL    HW127803   3.658   3.553  16.489 -0.0877 -0.1534  1.0530
 5447SOL    HW227804   3.730   3.429  16.441  0.2658  1.0040 -0.1752
 5448SOL     OW27805   2.921   0.306   7.864 -0.2026 -0.1011 -0.2034
 5448SOL    HW127806   2.912   0.217   7.900  1.0838  1.1757  3.2759
 5448SOL    HW227807   2.977   0.289   7.788  0.5555 -0.6439  0.4715
 5449SOL     OW27808   3.762   1.064   2.949 -0.4259 -0.2851 -0.0350
 5449SOL    HW127809   3.708   1.142   2.967 -0.1309 -0.3517  1.1092
 5449SOL    HW227810   3.839   1.120   2.938 -0.5338  0.0519  0.9221
 5450SOL     OW27811   2.189   1.984   7.337  0.0204 -0.0530 -0.0211
 5450SOL    HW127812   2.190   1.892   7.365 -1.8135  0.3131  1.2740
 5450SOL    HW227813   2.099   1.981   7.304 -0.4752  0.5898  1.2469
 5451SOL     OW27814   0.704   2.297   2.706 -0.9799  0.3983 -0.4162
 5451SOL    HW127815   0.712   2.300   2.801 -0.4261 -2.0771 -0.3828
 5451SOL    HW227816   0.646   2.373   2.700  0.5455  1.5734 -0.2116
 5452SOL     OW27817   3.585   3.638  10.196 -0.0218 -0.1141 -0.5683
 5452SOL    HW127818   3.517   3.703  10.176 -0.8122 -0.9706 -0.6442
 5452SOL    HW227819   3.637   3.648  10.116  1.9197  0.1093  0.7177
 5453SOL     OW27820   1.785   4.525   6.921  0.1813 -0.1354  0.2969
 5453SOL    HW127821   1.805   4.611   6.957  0.8716 -1.5157  3.2449
 5453SOL    HW227822   1.732   4.550   6.846  0.5260 -0.7084 -0.1425
 5454SOL     OW27823   0.453   3.278   5.405  0.2653  0.5199 -0.8318
 5454SOL    HW127824   0.383   3.343   5.403 -1.1807 -1.0558 -1.9508
 5454SOL    HW227825   0.416   3.225   5.476 -1.3006  0.7765 -1.4534
 5455SOL     OW27826   3.865   3.308   4.840 -0.0700  0.3687 -0.1869
 5455SOL    HW127827   3.837   3.325   4.930 -0.4259  0.4583 -0.3162
 5455SOL    HW227828   3.814   3.370   4.787  0.4005 -0.3664 -1.4959
 5456SOL     OW27829   1.526   4.126   2.245  0.5466  0.1254  0.8230
 5456SOL    HW127830   1.458   4.059   2.238 -0.7687  1.6638 -1.3829
 5456SOL    HW227831   1.552   4.143   2.154 -0.1127 -0.1123  0.5906
 5457SOL     OW27832   0.495   1.925  16.712 -0.3212  0.1442 -0.5740
 5457SOL    HW127833   0.418   1.891  16.757  0.1788  0.5060  0.5556
 5457SOL    HW227834   0.485   2.018  16.733 -1.8892  0.2053 -1.6024
 5458SOL     OW27835   0.054   0.720   3.569  0.6636  0.2555  0.5456
 5458SOL    HW127836   0.118   0.744   3.635 -2.9078  3.3125  2.8765
 5458SOL    HW227837   0.104   0.687   3.494  1.1410  2.9791 -0.3608
 5459SOL     OW27838   3.344   2.027   6.198 -0.3338  0.3354  0.2175
 5459SOL    HW127839   3.337   2.027   6.294 -0.6456  1.7141  0.1896
 5459SOL    HW227840   3.351   1.932   6.185  0.1328  0.1135  2.0238
 5460SOL     OW27841   4.052   1.535  11.605 -0.3551  0.5069 -0.1531
 5460SOL    HW127842   4.133   1.522  11.653  0.1274  0.0523 -1.0820
 5460SOL    HW227843   3.999   1.457  11.623 -0.8212  1.0003  0.5848
 5461SOL     OW27844   4.584   0.583   4.140 -0.5714  0.1273  0.2692
 5461SOL    HW127845   4.640   0.598   4.216 -0.8808  1.7218  0.1759
 5461SOL    HW227846   4.529   0.661   4.137  1.3238  1.5366  1.6315
 5462SOL     OW27847   2.126   2.023  11.846 -0.4024  0.1590 -0.3734
 5462SOL    HW127848   2.081   2.106  11.857 -0.3553 -0.0249  1.2142
 5462SOL    HW227849   2.172   2.030  11.762  2.2193 -0.0788  1.0603
 5463SOL     OW27850   4.588   4.167  17.343 -0.4995  0.6153  0.4053
 5463SOL    HW127851   4.528   4.170  17.417 -2.4844 -1.6794 -1.1408
 5463SOL    HW227852   4.610   4.258  17.320  0.4201  0.6165  1.2697
 5464SOL     OW27853   0.699   0.617  15.664 -0.4871  0.4213  0.4073
 5464SOL    HW127854   0.644   0.562  15.720  1.3449  0.4285  2.2451
 5464SOL    HW227855   0.683   0.590  15.574 -0.9857 -0.8245  0.8737
 5465SOL     OW27856   1.524   2.934   4.469 -0.0462 -0.2042 -0.3438
 5465SOL    HW127857   1.525   2.839   4.479  0.4428 -0.4799 -2.8025
 5465SOL    HW227858   1.553   2.941   4.378 -0.3412 -1.0235 -0.5069
 5466SOL     OW27859   2.346   0.914  13.109 -0.4733 -0.0883  0.0971
 5466SOL    HW127860   2.380   0.983  13.051 -0.2432 -0.6486 -0.4302
 5466SOL    HW227861   2.418   0.853  13.124 -0.9444 -1.0787 -1.7005
 5467SOL     OW27862   3.465   2.845   3.200  0.0096 -0.6318 -0.3312
 5467SOL    HW127863   3.434   2.935   3.197  1.2510 -0.2204 -1.0873
 5467SOL    HW227864   3.558   2.851   3.176 -0.4450  2.6066 -1.2140
 5468SOL     OW27865   0.601   0.883   8.801  0.1152 -0.9829  0.2637
 5468SOL    HW127866   0.648   0.954   8.845 -1.0720  0.1689 -0.3471
 5468SOL    HW227867   0.602   0.912   8.710  1.2005 -0.2656  0.5021
 5469SOL     OW27868   3.387   3.220   8.306  0.3228 -0.5959  0.1447
 5469SOL    HW127869   3.414   3.130   8.323  0.8216 -0.5046 -0.1494
 5469SOL    HW227870   3.341   3.244   8.386  0.7762 -0.9201  0.4993
 5470SOL     OW27871   0.317   0.166   8.490  0.1421  0.5356  0.2271
 5470SOL    HW127872   0.242   0.218   8.521  0.9937  2.1930 -0.4569
 5470SOL    HW227873   0.343   0.111   8.564  0.3421  0.3714  0.0344
 5471SOL     OW27874   0.513   4.192  16.897  0.5404  0.6361  0.0188
 5471SOL    HW127875   0.503   4.281  16.930 -0.3700  0.7664 -0.6088
 5471SOL    HW227876   0.473   4.218  16.814  2.6477 -2.4104 -1.9377
 5472SOL     OW27877   1.043   3.803   1.674  0.9519 -0.0390  0.2177
 5472SOL    HW127878   0.959   3.790   1.719 -0.0952 -0.1257 -1.7927
 5472SOL    HW227879   1.021   3.808   1.582  0.5623  0.3417  0.3296
 5473SOL     OW27880   3.060   1.858   5.946  0.4985  0.2868 -0.1678
 5473SOL    HW127881   3.141   1.823   5.910 -0.0969  2.2616 -3.4606
 5473SOL    HW227882   3.049   1.808   6.027  1.4417 -3.2995 -2.2561
 5474SOL     OW27883   1.328   1.151  16.965  0.7732  0.2423  0.2609
 5474SOL    HW127884   1.286   1.102  16.895  1.2997  0.1439  0.0141
 5474SOL    HW227885   1.371   1.217  16.911  0.2302  0.0682 -0.3779
 5475SOL     OW27886   3.311   3.618   1.863 -0.0503 -0.7266  0.1872
 5475SOL    HW127887   3.314   3.578   1.776 -2.4118  0.3857 -0.4138
 5475SOL    HW227888   3.385   3.678   1.854 -1.5663  1.2261  0.7051
 5476SOL     OW27889   0.084   1.177  14.088  0.4998  0.2276 -0.6612
 5476SOL    HW127890   0.050   1.126  14.015  0.0249  2.2326 -1.8467
 5476SOL    HW227891   0.150   1.234  14.048  1.2253 -0.0247  0.1690
 5477SOL     OW27892   0.752   4.305   2.046 -0.2292  0.0910  0.4534
 5477SOL    HW127893   0.708   4.295   2.130  2.9426 -1.3514  1.9609
 5477SOL    HW227894   0.821   4.359   2.085 -1.3801  0.0649  2.5453
 5478SOL     OW27895   1.210   3.752  12.121  0.0779  0.2501  0.2796
 5478SOL    HW127896   1.146   3.813  12.156  0.5677  2.1785 -2.1894
 5478SOL    HW227897   1.168   3.667  12.137  1.1866 -0.2775  0.4436
 5479SOL     OW27898   1.402   1.393  16.868  0.3242 -0.1585 -0.3596
 5479SOL    HW127899   1.313   1.410  16.837 -0.4466 -1.9061  0.9054
 5479SOL    HW227900   1.445   1.472  16.833 -1.6907  1.7482  1.5015
 5480SOL     OW27901   4.604   1.450   9.173  0.2428  0.1525  0.0506
 5480SOL    HW127902   4.624   1.463   9.080  2.1805  0.0406  0.4465
 5480SOL    HW227903   4.693   1.426   9.199  0.2373  0.9826  0.7825
 5481SOL     OW27904   1.467   1.210   4.735 -0.1945 -0.4340 -0.5336
 5481SOL    HW127905   1.519   1.222   4.655 -3.1006 -1.9323 -2.6349
 5481SOL    HW227906   1.509   1.275   4.792  1.6534 -0.3045 -2.0320
 5482SOL     OW27907   0.668   0.505   2.532 -0.7432 -0.2182 -0.5804
 5482SOL    HW127908   0.751   0.459   2.543 -0.6508  0.7690  2.8114
 5482SOL    HW227909   0.697   0.594   2.510 -0.0751 -0.0783  0.8827
 5483SOL     OW27910   0.290   2.975   4.278  0.3295 -0.3467  0.2311
 5483SOL    HW127911   0.228   2.997   4.348 -0.7835 -1.0812 -0.5280
 5483SOL    HW227912   0.272   2.881   4.275 -1.7587  0.0425  0.0178
 5484SOL     OW27913   0.610   3.782   1.681 -0.6613  0.1018 -0.7661
 5484SOL    HW127914   0.536   3.804   1.624 -1.1828 -0.1957 -0.2022
 5484SOL    HW227915   0.675   3.791   1.612  1.1288 -1.4765  0.7120
 5485SOL     OW27916   4.039   3.315   5.456 -0.5493  0.2375  0.2650
 5485SOL    HW127917   4.015   3.332   5.547 -1.0551 -1.9004  0.5407
 5485SOL    HW227918   4.073   3.397   5.420  0.7716 -0.9278 -1.1151
 5486SOL     OW27919   2.917   3.076   1.350  0.4099  0.4488 -0.0757
 5486SOL    HW127920   2.885   3.085   1.440 -2.2870  1.7723 -1.1747
 5486SOL    HW227921   2.835   3.082   1.302  0.6664  0.7087 -0.4848
 5487SOL     OW27922   3.325   0.612   3.102 -0.2411  0.0522  0.1323
 5487SOL    HW127923   3.246   0.558   3.103  0.7337 -1.3370  1.0104
 5487SOL    HW227924   3.298   0.679   3.039 -0.4272 -2.4404 -2.4185
 5488SOL     OW27925   4.254   4.509   2.772 -0.7507 -0.2212  0.0112
 5488SOL    HW127926   4.191   4.445   2.738 -0.3403 -1.7923  2.1830
 5488SOL    HW227927   4.201   4.581   2.804 -0.2714  0.1687 -0.0773
 5489SOL     OW27928   2.329   4.124   6.505 -0.2005  0.8582 -0.8798
 5489SOL    HW127929   2.250   4.122   6.560  1.0625  2.1376  0.9586
 5489SOL    HW227930   2.297   4.116   6.415 -4.0094 -0.0478  0.5499
 5490SOL     OW27931   0.421   1.202  14.669  0.1538  0.4005  0.4380
 5490SOL    HW127932   0.327   1.206  14.682  0.4035 -3.2068  3.4351
 5490SOL    HW227933   0.454   1.185  14.757  0.2710  1.6565  0.6417
 5491SOL     OW27934   4.198   1.128   0.538 -0.2256 -0.5634 -0.1807
 5491SOL    HW127935   4.285   1.108   0.573 -0.5290 -0.7454  0.4804
 5491SOL    HW227936   4.213   1.221   0.552 -1.7358 -0.7000  2.3283
 5492SOL     OW27937   4.285   4.648   6.995  0.4667  0.5198  0.1395
 5492SOL    HW127938   4.232   4.595   7.054 -1.6939  0.9382 -1.4111
 5492SOL    HW227939   4.300   4.595   6.917  2.9389  0.7377  0.4876
 5493SOL     OW27940   3.400   2.462   4.767  0.2187 -0.0953  0.0206
 5493SOL    HW127941   3.412   2.536   4.827 -1.0546 -0.6755  0.9971
 5493SOL    HW227942   3.416   2.388   4.826  0.7575 -0.9690 -1.2228
 5494SOL     OW27943   3.720   1.257   4.683  0.3662  0.2737  0.3033
 5494SOL    HW127944   3.753   1.249   4.593  0.7511  0.3184  0.4398
 5494SOL    HW227945   3.665   1.179   4.683  0.6123  0.0867 -0.9568
 5495SOL     OW27946   0.571   3.321   4.764  0.4660  0.0613 -0.5789
 5495SOL    HW127947   0.535   3.279   4.843 -0.8041 -0.8005 -1.6059
 5495SOL    HW227948   0.665   3.304   4.772  0.9855  2.3733 -1.9681
 5496SOL     OW27949   1.664   1.545   0.269  0.5212  0.2507  0.7194
 5496SOL    HW127950   1.658   1.630   0.313 -0.5628 -0.4022  1.8015
 5496SOL    HW227951   1.644   1.486   0.341  3.5775  1.5390  2.6014
 5497SOL     OW27952   3.407   0.344   1.927  0.5000 -0.2745  0.2665
 5497SOL    HW127953   3.411   0.331   2.022 -2.4937  1.7598  0.7121
 5497SOL    HW227954   3.319   0.316   1.902  0.9094 -3.2957  2.2930
 5498SOL     OW27955   1.896   3.665  13.748  0.8491 -0.8967  0.2084
 5498SOL    HW127956   1.916   3.733  13.812  0.3137  1.6204 -2.2980
 5498SOL    HW227957   1.977   3.614  13.750  1.3764 -0.0570  0.3885
 5499SOL     OW27958   1.329   4.557  10.955 -0.2590 -0.5620  0.5133
 5499SOL    HW127959   1.243   4.517  10.967 -0.7135  0.1621 -0.3105
 5499SOL    HW227960   1.381   4.491  10.908 -1.4672 -0.6428 -0.6917
 5500SOL     OW27961   1.491   0.806   3.531  0.3973  0.3346  0.3091
 5500SOL    HW127962   1.576   0.775   3.499  0.5884  1.0553  0.1143
 5500SOL    HW227963   1.517   0.894   3.559 -2.5937  1.0996  0.6971
 5501SOL     OW27964   2.195   1.284   1.043  0.0377 -0.1248  0.1591
 5501SOL    HW127965   2.192   1.323   1.130  0.5211  0.0513  0.0997
 5501SOL    HW227966   2.119   1.227   1.051 -1.0285  1.2769 -0.0996
 5502SOL     OW27967   0.806   1.600   8.335  0.1212  0.0691  0.4454
 5502SOL    HW127968   0.855   1.521   8.312  2.5017  1.4499  0.8661
 5502SOL    HW227969   0.862   1.668   8.298  2.0358 -1.8006 -0.0941
 5503SOL     OW27970   2.953   1.340  15.614  0.1092  0.0085  0.6277
 5503SOL    HW127971   3.032   1.388  15.638 -0.1908  0.5283  0.5537
 5503SOL    HW227972   2.994   1.256  15.592  0.8615  0.2180  1.2156
 5504SOL     OW27973   0.736   1.286   7.061  0.0725  0.3405 -0.1179
 5504SOL    HW127974   0.783   1.282   6.977 -2.1502 -3.2099 -1.2138
 5504SOL    HW227975   0.685   1.365   7.042 -1.2914 -0.5192 -0.0476
 5505SOL     OW27976   3.740   2.997   5.344  0.1025  0.6686 -0.1910
 5505SOL    HW127977   3.727   3.013   5.437  1.1183  0.4666 -0.0105
 5505SOL    HW227978   3.669   3.050   5.309 -0.4599  0.6487  0.9105
 5506SOL     OW27979   1.121   3.568   6.111 -0.1409  0.0225  0.4590
 5506SOL    HW127980   1.046   3.581   6.169 -0.0598  1.0405  0.3354
 5506SOL    HW227981   1.169   3.500   6.158  1.1736  0.4094 -0.3445
 5507SOL     OW27982   1.810   2.650   1.160  0.0539  0.4215  0.3912
 5507SOL    HW127983   1.886   2.598   1.133  0.7538  1.1850  0.8897
 5507SOL    HW227984   1.813   2.633   1.254  0.7273 -0.1960  0.2639
 5508SOL     OW27985   3.338   1.623   7.210  0.0155 -0.1590 -0.1475
 5508SOL    HW127986   3.339   1.534   7.245  2.1684 -0.3286 -0.6244
 5508SOL    HW227987   3.407   1.666   7.260  0.3434  1.0625 -1.6327
 5509SOL     OW27988   1.236   3.002   4.312  0.1214  0.0919  0.1521
 5509SOL    HW127989   1.310   2.975   4.257  0.3230  0.7754  0.0952
 5509SOL    HW227990   1.192   2.919   4.331 -0.4488 -0.2791 -2.8312
 5510SOL     OW27991   4.042   3.991  17.019  0.7507  0.1806 -0.5397
 5510SOL    HW127992   4.133   3.970  17.043  1.0501  0.3211 -1.5477
 5510SOL    HW227993   4.036   3.963  16.928  0.0558  1.1043 -0.7752
 5511SOL     OW27994   2.199   0.044   0.928  0.2252 -0.0352  0.3540
 5511SOL    HW127995   2.260   0.113   0.953  1.8453 -0.9034 -1.2292
 5511SOL    HW227996   2.247   4.687   0.932 -0.7168 -0.7369 -2.7878
 5512SOL     OW27997   3.230   3.284  16.282  0.0898 -0.4337 -0.0457
 5512SOL    HW127998   3.204   3.207  16.332 -1.3441  0.3021  0.3633
 5512SOL    HW227999   3.219   3.259  16.190 -1.8189  1.5901 -0.3880
 5513SOL     OW28000   2.807   0.705   4.179 -0.0474  0.0980  0.2049
 5513SOL    HW128001   2.798   0.616   4.146  2.2761 -0.0501 -0.0202
 5513SOL    HW228002   2.826   0.759   4.102  0.0522 -0.3509 -0.0838
 5514SOL     OW28003   3.772   0.450  17.628 -0.2832 -0.0074  0.0088
 5514SOL    HW128004   3.796   0.384  17.564 -0.6725 -0.0532 -0.0900
 5514SOL    HW228005   3.811   0.409   0.004 -0.7408 -2.1995 -0.9235
 5515SOL     OW28006   3.876   4.457   7.289  0.2687  0.1790  0.2149
 5515SOL    HW128007   3.865   4.547   7.261 -0.3086  0.7590  2.2629
 5515SOL    HW228008   3.955   4.425   7.245 -0.2853 -2.0428  0.8484
 5516SOL     OW28009   3.104   2.009   4.738 -0.2406 -0.5823  0.2648
 5516SOL    HW128010   3.025   2.016   4.792 -0.0883  1.4004  0.2500
 5516SOL    HW228011   3.060   1.958   4.670 -1.1759  0.3409  0.1668
 5517SOL     OW28012   0.354   0.982   1.693 -0.0912 -0.1576 -0.2442
 5517SOL    HW128013   0.303   1.007   1.769 -0.3637 -1.9012  0.1354
 5517SOL    HW228014   0.415   1.056   1.688  0.0423 -0.2466  0.0879
 5518SOL     OW28015   0.690   1.133   0.528  0.5272  0.4817  0.2709
 5518SOL    HW128016   0.654   1.189   0.597 -2.4758 -2.7645  1.3396
 5518SOL    HW228017   0.776   1.107   0.561  0.0888 -0.0429  0.9841
 5519SOL     OW28018   2.946   3.360   3.859 -0.1124  0.3672  0.4143
 5519SOL    HW128019   2.894   3.343   3.781 -0.2108 -1.5510  0.8933
 5519SOL    HW228020   2.896   3.307   3.922  1.2042 -1.7047 -0.3082
 5520SOL     OW28021   1.301   0.748  16.031  0.4710  0.9578  0.0528
 5520SOL    HW128022   1.360   0.773  16.101 -1.1617  0.1859  1.7073
 5520SOL    HW228023   1.347   0.678  15.983 -0.9155 -0.2542  0.4757
 5521SOL     OW28024   3.601   1.056   4.135  0.2630 -0.2936  0.3302
 5521SOL    HW128025   3.548   1.123   4.094  1.3675  1.9921  2.6217
 5521SOL    HW228026   3.630   0.998   4.065 -0.5190  1.7819 -1.6869
 5522SOL     OW28027   2.036   0.387   5.754 -0.5480  0.8082  0.1524
 5522SOL    HW128028   2.120   0.401   5.797  0.5761 -1.6514 -1.2980
 5522SOL    HW228029   2.023   0.293   5.762 -0.0776  0.6693 -0.8161
 5523SOL     OW28030   0.942   1.748   2.686  0.2356 -0.0391  0.0113
 5523SOL    HW128031   1.005   1.772   2.618 -0.0031 -1.1436 -0.5926
 5523SOL    HW228032   0.860   1.787   2.656  1.4114  0.8681 -1.9976
 5524SOL     OW28033   4.477   1.624   5.434  0.1478 -0.1361  0.6497
 5524SOL    HW128034   4.479   1.694   5.499  1.0652 -0.4191  0.9349
 5524SOL    HW228035   4.420   1.560   5.476  0.2434 -0.1767  0.7171
 5525SOL     OW28036   4.535   0.975   5.649  0.2234  0.2862 -0.1314
 5525SOL    HW128037   4.612   0.931   5.684  0.5335 -1.2047 -2.7392
 5525SOL    HW228038   4.505   1.023   5.727 -3.0985 -2.8892  0.5783
 5526SOL     OW28039   3.060   3.860   5.140 -0.1685  0.0867 -0.8337
 5526SOL    HW128040   2.988   3.903   5.187  0.1593  1.7034 -1.7895
 5526SOL    HW228041   3.014   3.818   5.068 -1.3989  4.5555 -2.6947
 5527SOL     OW28042   3.117   0.167   3.740  0.3093 -0.5089  0.1120
 5527SOL    HW128043   3.183   0.219   3.785 -0.5570  0.4481  0.2786
 5527SOL    HW228044   3.036   0.217   3.755 -1.2793 -2.6819 -1.2365
 5528SOL     OW28045   1.013   2.121   7.096 -0.1768  0.4034 -0.1508
 5528SOL    HW128046   1.005   2.206   7.052 -1.5058  0.8591  0.9840
 5528SOL    HW228047   1.108   2.107   7.090 -0.6937 -1.8797 -3.0023
 5529SOL     OW28048   1.017   3.698   8.191 -0.3909  0.0721 -0.5647
 5529SOL    HW128049   1.004   3.621   8.247 -3.2160  2.3477  1.8981
 5529SOL    HW228050   0.941   3.748   8.221 -1.6363 -1.9799 -0.2771
 5530SOL     OW28051   2.682   1.665   5.997  0.2272 -0.5106 -0.3346
 5530SOL    HW128052   2.733   1.683   6.076  0.2809  1.6272 -0.8583
 5530SOL    HW228053   2.596   1.682   6.034  0.9002 -0.3307  1.1837
 5531SOL     OW28054   3.277   0.047   2.810 -0.0737  0.2622  0.1009
 5531SOL    HW128055   3.248   0.062   2.900 -2.8816  3.1209 -1.2890
 5531SOL    HW228056   3.323   0.132   2.805 -1.0700  0.7899 -0.0794
 5532SOL     OW28057   1.784   2.975   7.971 -0.1568 -0.1001 -0.2646
 5532SOL    HW128058   1.722   3.033   7.927  1.7426  2.1277 -0.0260
 5532SOL    HW228059   1.811   2.920   7.898 -0.3138  1.2816 -1.3516
 5533SOL     OW28060   3.490   3.326   4.889  0.3610 -0.4372  0.5452
 5533SOL    HW128061   3.508   3.232   4.891 -0.4092 -0.6507 -2.1687
 5533SOL    HW228062   3.412   3.330   4.833  1.1882  0.7715 -0.5422
 5534SOL     OW28063   4.246   3.171  14.395 -0.6944  0.0778  0.1758
 5534SOL    HW128064   4.317   3.231  14.373 -0.5698 -0.6397 -1.3219
 5534SOL    HW228065   4.181   3.200  14.331  0.2822  1.9415  0.0261
 5535SOL     OW28066   2.361   1.451   6.007 -0.2575 -0.4118 -0.1720
 5535SOL    HW128067   2.306   1.479   5.933  0.5724 -0.1219 -0.6753
 5535SOL    HW228068   2.381   1.541   6.035 -2.9778 -0.4278  1.8930
 5536SOL     OW28069   2.741   4.516   7.289 -0.3293 -0.2994 -0.0120
 5536SOL    HW128070   2.691   4.445   7.329  0.7811 -1.6151 -0.9401
 5536SOL    HW228071   2.676   4.573   7.248  0.5398  0.0614 -0.8924
 5537SOL     OW28072   4.056   0.036  11.650  0.3355 -0.3501 -0.6481
 5537SOL    HW128073   4.090   0.064  11.735  1.2910 -0.4328 -1.0089
 5537SOL    HW228074   4.043   4.667  11.658  0.1332 -0.2983 -0.3489
 5538SOL     OW28075   4.031   0.113   8.177 -0.8256  0.3754 -0.6614
 5538SOL    HW128076   4.036   0.020   8.151 -1.0673 -0.1618  1.2365
 5538SOL    HW228077   3.947   0.123   8.220 -1.0592  1.4387 -1.3803
 5539SOL     OW28078   3.387   3.049   7.129  0.0071 -0.4936 -0.0813
 5539SOL    HW128079   3.431   3.003   7.200 -1.4465  0.8576  1.7114
 5539SOL    HW228080   3.465   3.054   7.075 -0.5944 -0.9041 -0.9857
 5540SOL     OW28081   0.252   3.231   2.551  0.4712 -0.2821  0.0970
 5540SOL    HW128082   0.281   3.198   2.466  0.5485 -0.6510  0.2677
 5540SOL    HW228083   0.197   3.304   2.522 -1.1370 -1.0233  1.2856
 5541SOL     OW28084   2.394   0.326   2.846 -0.0067 -0.0678  0.2668
 5541SOL    HW128085   2.485   0.304   2.829  0.5578  1.1809  1.7114
 5541SOL    HW228086   2.382   0.407   2.798 -1.8298 -0.0695  0.6974
 5542SOL     OW28087   1.691   0.874   4.241  0.3463  0.2419 -0.3631
 5542SOL    HW128088   1.780   0.859   4.211  1.1041  1.1681  1.4555
 5542SOL    HW228089   1.668   0.959   4.205 -2.2279 -1.0279 -1.7467
 5543SOL     OW28090   2.339   4.162  12.646 -0.1333  0.6420 -0.2848
 5543SOL    HW128091   2.376   4.166  12.558  0.5055  0.4226 -0.0268
 5543SOL    HW228092   2.337   4.256  12.663  1.1304  0.3888  1.2007
 5544SOL     OW28093   0.184   1.606  13.260 -0.4964 -0.0274 -0.0548
 5544SOL    HW128094   0.264   1.650  13.231 -0.2445 -0.2433  0.3214
 5544SOL    HW228095   0.113   1.668  13.244  1.2417  2.1427  0.7080
 5545SOL     OW28096   2.015   1.102   1.121 -0.0992  0.0838  0.1977
 5545SOL    HW128097   1.991   1.014   1.148  0.5173 -0.9461 -2.5423
 5545SOL    HW228098   1.996   1.154   1.199  0.1627  0.0389  0.2901
 5546SOL     OW28099   3.419   2.570   6.171  0.4941  0.3151  0.7685
 5546SOL    HW128100   3.361   2.638   6.206 -0.8241 -0.2973 -0.2148
 5546SOL    HW228101   3.363   2.493   6.185 -0.5767  0.7103 -1.3453
 5547SOL     OW28102   2.350   1.682   6.959 -0.5197 -0.1186 -0.5923
 5547SOL    HW128103   2.345   1.710   6.867  0.8595 -0.1704 -0.6843
 5547SOL    HW228104   2.392   1.765   6.983 -1.8255  0.9089 -1.8421
 5548SOL     OW28105   2.050   4.522   3.838  0.0766 -0.0206  0.5049
 5548SOL    HW128106   2.051   4.487   3.927 -0.7635  1.2326  1.0119
 5548SOL    HW228107   2.136   4.503   3.803  0.2803 -1.1756  1.6247
 5549SOL     OW28108   1.004   3.622  15.887  0.2722 -1.0607  0.6548
 5549SOL    HW128109   0.949   3.662  15.955 -2.3856 -0.1493 -2.0239
 5549SOL    HW228110   0.939   3.562  15.851 -0.7821  0.8178 -0.5903
 5550SOL     OW28111   3.175   2.309   0.648 -0.0865  0.3041  0.5121
 5550SOL    HW128112   3.140   2.386   0.692  1.8273  1.9522 -0.8078
 5550SOL    HW228113   3.226   2.348   0.577 -0.0859  0.5078  0.6238
 5551SOL     OW28114   2.202   4.555  15.413 -0.3564 -0.0887  0.1231
 5551SOL    HW128115   2.219   4.536  15.320 -3.1442  2.6995 -0.9567
 5551SOL    HW228116   2.167   4.643  15.420  1.0585  0.5699 -1.0654
 5552SOL     OW28117   3.713   2.713   6.197 -0.0403 -0.1712 -0.2493
 5552SOL    HW128118   3.622   2.690   6.182 -0.0620 -1.3365  1.6708
 5552SOL    HW228119   3.764   2.649   6.147  0.5402 -0.5622  0.8602
 5553SOL     OW28120   2.884   0.257   1.790  0.7814 -0.4011 -0.0122
 5553SOL    HW128121   2.806   0.311   1.776 -1.3655 -2.7144  3.0707
 5553SOL    HW228122   2.889   0.216   1.703  0.6247 -1.3129  0.4139
 5554SOL     OW28123   3.389   2.607   8.731  0.0795  0.0867 -0.0291
 5554SOL    HW128124   3.317   2.547   8.710  0.2811 -0.3975  0.6522
 5554SOL    HW228125   3.342   2.659   8.796 -2.5761 -0.2294 -1.6823
 5555SOL     OW28126   1.810   4.630  17.166  0.3549 -0.2019  0.1775
 5555SOL    HW128127   1.765   4.600  17.245 -0.3242 -1.7782 -0.8133
 5555SOL    HW228128   1.807   4.553  17.109 -1.4044  0.7001 -0.9503
 5556SOL     OW28129   3.208   2.172  10.068  0.0380 -0.3542 -0.4596
 5556SOL    HW128130   3.206   2.076  10.060 -0.6340 -0.3739  0.0089
 5556SOL    HW228131   3.266   2.182  10.144 -0.5884  1.1893 -0.1936
 5557SOL     OW28132   0.035   4.325  11.997 -0.1784 -0.7012  0.3553
 5557SOL    HW128133   0.079   4.352  11.916 -0.4941  0.9232  0.7240
 5557SOL    HW228134   0.093   4.349  12.069 -0.4903 -0.0233  0.3849
 5558SOL     OW28135   0.213   1.570  14.898  0.3472 -0.5111  0.0745
 5558SOL    HW128136   0.186   1.525  14.818 -1.5882  0.0180  0.4341
 5558SOL    HW228137   0.308   1.575  14.883  0.3036  0.2940  0.0942
 5559SOL     OW28138   0.986   4.364  17.229  0.1458 -0.6684 -0.1335
 5559SOL    HW128139   1.034   4.351  17.148  1.0720 -3.8585  0.9083
 5559SOL    HW228140   1.030   4.304  17.290  0.3559  1.0576  1.4305
 5560SOL     OW28141   0.034   3.534   0.067 -0.1297  0.2222 -0.0058
 5560SOL    HW128142   0.086   3.613   0.082  0.5929 -0.5020  1.2968
 5560SOL    HW228143   4.691   3.574   0.013  1.8726  2.6477 -0.7501
 5561SOL     OW28144   2.306   1.810   3.739  0.1834  0.4193  0.0657
 5561SOL    HW128145   2.301   1.715   3.729 -0.6945  0.6368 -1.5358
 5561SOL    HW228146   2.388   1.830   3.693 -0.7109  0.1967 -1.6159
 5562SOL     OW28147   3.597   4.382   4.671  0.0345 -0.5925 -0.6678
 5562SOL    HW128148   3.613   4.296   4.709 -0.5805 -0.2178  0.4593
 5562SOL    HW228149   3.678   4.397   4.623  0.6521  2.1279  1.1961
 5563SOL     OW28150   1.637   3.278  12.988  0.3363  0.1454  0.0020
 5563SOL    HW128151   1.619   3.188  12.960 -0.9257 -0.4746  2.7695
 5563SOL    HW228152   1.555   3.321  12.965  0.2431 -0.2028 -0.3206
 5564SOL     OW28153   3.511   0.655  15.454 -0.1217 -0.2940  0.6106
 5564SOL    HW128154   3.529   0.561  15.444  2.1061  0.1593  0.3821
 5564SOL    HW228155   3.428   0.671  15.409 -0.0168 -0.2337  0.4413
 5565SOL     OW28156   0.405   3.299   6.179  0.1939 -0.2126  0.3862
 5565SOL    HW128157   0.323   3.289   6.228 -0.2513 -1.2481 -0.5697
 5565SOL    HW228158   0.442   3.211   6.179  0.7270  0.0130 -0.9101
 5566SOL     OW28159   2.970   0.028   3.193 -0.3303  0.5347 -0.5677
 5566SOL    HW128160   2.995   0.023   3.285  2.2896 -2.1483 -1.4444
 5566SOL    HW228161   2.886   0.074   3.201 -0.8206 -0.5446  0.4341
 5567SOL     OW28162   1.850   3.060   7.574  0.5082 -0.0008 -0.3652
 5567SOL    HW128163   1.846   2.984   7.632  0.9593 -0.0165 -0.3540
 5567SOL    HW228164   1.941   3.081   7.552  0.6572  0.3650  0.6276
 5568SOL     OW28165   2.726   2.137   9.649 -0.7729  0.4627  0.0851
 5568SOL    HW128166   2.638   2.116   9.681 -0.8205 -0.7462 -0.8387
 5568SOL    HW228167   2.706   2.200   9.579 -1.9001 -0.0868 -0.1022
 5569SOL     OW28168   2.698   4.411   1.362  0.1930  0.1918 -0.5050
 5569SOL    HW128169   2.769   4.364   1.406 -2.9562 -1.3342  2.9421
 5569SOL    HW228170   2.650   4.328   1.356 -0.3756  0.3761  1.3309
 5570SOL     OW28171   4.420   3.057   6.930 -0.0310 -0.0147 -0.1133
 5570SOL    HW128172   4.476   2.979   6.932 -0.4993 -0.2993  1.3904
 5570SOL    HW228173   4.443   3.100   7.012  0.1267  1.3478 -0.8766
 5571SOL     OW28174   4.315   0.736   4.257  0.2526 -0.0353  0.5692
 5571SOL    HW128175   4.284   0.646   4.248  0.1260 -0.1433  2.1268
 5571SOL    HW228176   4.266   0.782   4.188  0.8220  0.0815  0.2438
 5572SOL     OW28177   2.396   1.907   2.873 -0.3216  0.6859 -0.5429
 5572SOL    HW128178   2.439   1.824   2.852 -1.4348 -0.2798  0.9899
 5572SOL    HW228179   2.346   1.872   2.947 -0.6744 -1.5783 -1.8691
 5573SOL     OW28180   0.308   0.654  16.888 -0.2738  0.0976  0.0657
 5573SOL    HW128181   0.307   0.613  16.801  1.8904 -0.1020  0.1545
 5573SOL    HW228182   0.252   0.595  16.938 -0.5349  0.2671 -0.0221
 5574SOL     OW28183   3.068   2.767   6.560  0.4761  0.6476 -0.7815
 5574SOL    HW128184   3.044   2.858   6.543 -0.8012 -0.0248 -2.6226
 5574SOL    HW228185   3.143   2.752   6.502 -0.0357  0.6570 -1.4462
 5575SOL     OW28186   1.496   3.639   5.186  0.0641  0.0496  0.4889
 5575SOL    HW128187   1.483   3.707   5.120  1.1696  0.6004  0.8345
 5575SOL    HW228188   1.415   3.649   5.235 -0.0947 -0.5286  0.3419
 5576SOL     OW28189   2.875   3.486   5.062  0.1650  0.2081 -0.2059
 5576SOL    HW128190   2.940   3.424   5.096 -0.2235 -1.1184 -1.9277
 5576SOL    HW228191   2.815   3.418   5.033  2.0029 -2.2318  1.6416
 5577SOL     OW28192   4.638   3.530   6.838  0.0055  0.0034  0.2359
 5577SOL    HW128193   4.640   3.450   6.785 -0.1420  0.5882 -0.6540
 5577SOL    HW228194   4.603   3.595   6.777  1.1415 -1.5805 -2.0990
 5578SOL     OW28195   1.764   2.624   6.259 -0.5800  0.1519  0.2544
 5578SOL    HW128196   1.814   2.700   6.228 -1.4434  0.8547  0.5833
 5578SOL    HW228197   1.771   2.580   6.174  0.1004  0.5618  0.0961
 5579SOL     OW28198   0.847   0.731   1.553  0.0437  0.3376 -0.0305
 5579SOL    HW128199   0.769   0.676   1.539 -0.9929  1.8330 -0.1889
 5579SOL    HW228200   0.801   0.800   1.602  1.0207 -1.0575  2.8295
 5580SOL     OW28201   1.578   2.311   5.829  0.5719  0.8351 -0.2246
 5580SOL    HW128202   1.519   2.322   5.903 -0.1645  0.0404 -0.6921
 5580SOL    HW228203   1.617   2.226   5.849 -1.0935  0.4359  1.2462
 5581SOL     OW28204   2.959   4.116   7.197 -0.0738 -0.0667  0.2364
 5581SOL    HW128205   2.945   4.171   7.120  0.1805 -0.9769 -0.4609
 5581SOL    HW228206   3.021   4.168   7.247  0.7849  0.3059 -1.2189
 5582SOL     OW28207   0.432   3.717   0.908  0.1641  0.0103 -0.1784
 5582SOL    HW128208   0.340   3.741   0.920  0.4285 -0.6572  2.9624
 5582SOL    HW228209   0.441   3.683   0.819 -0.2473 -0.0142 -0.2143
 5583SOL     OW28210   1.505   0.974   4.469  0.2429  0.5570  0.2286
 5583SOL    HW128211   1.591   1.005   4.497 -0.1817  1.7139  0.2487
 5583SOL    HW228212   1.492   1.005   4.379  0.0371  0.2878  0.1669
 5584SOL     OW28213   2.577   0.015   9.597 -0.2273  0.2342  0.3274
 5584SOL    HW128214   2.487   4.714   9.617 -0.5922  1.8241  0.7247
 5584SOL    HW228215   2.561   0.053   9.510  0.9176 -0.2586 -0.1055
 5585SOL     OW28216   1.798   0.366   8.916 -0.1996 -0.2633 -0.5572
 5585SOL    HW128217   1.737   0.304   8.956 -0.9278  2.2997  2.3488
 5585SOL    HW228218   1.738   0.423   8.868 -0.8146 -0.9445 -0.5899
 5586SOL     OW28219   3.537   0.269   6.838  0.2434 -0.1365 -0.1344
 5586SOL    HW128220   3.608   0.244   6.779 -0.0656 -0.5754 -0.3156
 5586SOL    HW228221   3.493   0.326   6.774 -0.2682  0.8794  1.1206
 5587SOL     OW28222   4.146   0.672  15.410 -0.2108  0.0979 -0.0411
 5587SOL    HW128223   4.135   0.632  15.496  1.4887  0.8625  0.5388
 5587SOL    HW228224   4.163   0.761  15.441 -1.0814 -0.0730  0.9227
 5588SOL     OW28225   0.605   2.739   3.418  0.1120 -0.4832  0.1247
 5588SOL    HW128226   0.694   2.770   3.433  1.1634 -3.0448 -0.6936
 5588SOL    HW228227   0.596   2.661   3.473 -0.0171 -0.5068  0.0708
 5589SOL     OW28228   4.145   0.459   4.576 -0.2360  0.0585  0.1780
 5589SOL    HW128229   4.092   0.474   4.655 -0.0125 -0.6419  0.4579
 5589SOL    HW228230   4.074   0.442   4.514 -1.2887  0.3384  1.3104
 5590SOL     OW28231   1.512   0.411   2.799 -0.3272 -0.2474 -0.0392
 5590SOL    HW128232   1.566   0.334   2.781 -0.8687 -0.0061 -2.5745
 5590SOL    HW228233   1.466   0.431   2.718 -0.4371 -1.4602 -0.2755
 5591SOL     OW28234   1.009   2.494   8.991  0.7823  0.2026  0.1323
 5591SOL    HW128235   1.008   2.538   8.907  2.4968  0.8024  0.4248
 5591SOL    HW228236   1.098   2.508   9.022  0.4284 -0.1638  1.3529
 5592SOL     OW28237   3.859   4.328   3.961  0.1946  0.2588  0.7101
 5592SOL    HW128238   3.944   4.369   3.944  1.0290 -0.2721  3.6011
 5592SOL    HW228239   3.890   4.244   3.995  0.1749  0.0194  0.1413
 5593SOL     OW28240   2.343   2.775  11.490 -0.8933  0.1639  0.0234
 5593SOL    HW128241   2.368   2.867  11.493  2.5756 -0.8559  1.8527
 5593SOL    HW228242   2.407   2.740  11.428  1.3761  0.7630  2.0474
 5594SOL     OW28243   4.628   4.667  14.780  0.0103 -0.4795 -0.5759
 5594SOL    HW128244   4.665   4.598  14.835 -1.4716  0.3006  1.3853
 5594SOL    HW228245   4.537   4.641  14.767 -1.2089  2.7982  1.3886
 5595SOL     OW28246   4.427   3.280  11.563 -0.0882 -0.4296  0.0734
 5595SOL    HW128247   4.443   3.230  11.484 -0.8571 -0.5852  0.0257
 5595SOL    HW228248   4.513   3.272  11.605  0.6054  1.4972 -0.9810
 5596SOL     OW28249   3.788   2.394   9.030 -0.1658  0.4209 -0.1214
 5596SOL    HW128250   3.832   2.476   9.011 -1.1728  1.3239  1.3806
 5596SOL    HW228251   3.845   2.362   9.100  1.5048  1.5985 -0.9710
 5597SOL     OW28252   1.956   4.524   3.287  0.2210 -0.4616 -0.0131
 5597SOL    HW128253   2.020   4.568   3.230 -0.0296  0.5157  0.4620
 5597SOL    HW228254   1.897   4.477   3.229 -0.3276  2.2437 -1.6814
 5598SOL     OW28255   2.861   1.801  12.058 -0.3634  0.0749 -0.0468
 5598SOL    HW128256   2.894   1.853  12.130  2.0225  0.4451 -1.4164
 5598SOL    HW228257   2.943   1.792  12.010 -0.1010 -1.4104  0.6705
 5599SOL     OW28258   1.138   3.473   8.060 -0.2454  0.0313  0.4055
 5599SOL    HW128259   1.059   3.442   8.016  0.2692 -0.1213 -0.4160
 5599SOL    HW228260   1.101   3.549   8.106 -1.0164 -0.5102  0.6795
 5600SOL     OW28261   4.172   2.328  11.160  0.1628  0.2128 -0.3809
 5600SOL    HW128262   4.101   2.269  11.133 -0.3161 -0.4438  2.3143
 5600SOL    HW228263   4.164   2.333  11.255 -2.7347 -0.9550 -0.5634
 5601SOL     OW28264   1.157   0.201  15.480 -0.6859  0.4358  0.3263
 5601SOL    HW128265   1.105   0.123  15.462 -2.2788  1.6165 -0.1526
 5601SOL    HW228266   1.216   0.201  15.405 -0.3782  0.7144  0.5662
 5602SOL     OW28267   2.145   3.643   4.640  0.6337 -0.2183  0.3437
 5602SOL    HW128268   2.240   3.632   4.643  0.4668 -1.6959  0.1607
 5602SOL    HW228269   2.122   3.562   4.685 -2.9693 -0.2434 -1.5793
 5603SOL     OW28270   2.443   2.637   6.512  0.0891  0.7917 -0.3810
 5603SOL    HW128271   2.408   2.710   6.461  3.1208  3.0525  0.7776
 5603SOL    HW228272   2.528   2.664   6.546 -0.1191  1.2906 -0.2553
 5604SOL     OW28273   3.550   0.224   0.645 -0.1347  0.2806  0.0616
 5604SOL    HW128274   3.476   0.194   0.591 -0.3093 -0.7380  0.8558
 5604SOL    HW228275   3.575   0.287   0.578  0.3815  1.6020  1.5144
 5605SOL     OW28276   3.669   1.088   1.043  0.3318 -0.2810  0.2883
 5605SOL    HW128277   3.659   1.032   1.120 -1.7529  2.2402  1.8642
 5605SOL    HW228278   3.712   1.033   0.978  0.9344  0.9830 -0.3638
 5606SOL     OW28279   1.923   4.049   0.185  0.1871  0.2760 -0.0013
 5606SOL    HW128280   1.919   4.089   0.272  2.2958  0.5693 -0.0289
 5606SOL    HW228281   1.863   4.112   0.146 -1.9730 -1.0131  1.2111
 5607SOL     OW28282   2.916   3.679   6.733  0.6530  0.5129 -0.0036
 5607SOL    HW128283   2.903   3.723   6.817  1.7530 -0.0904  0.4828
 5607SOL    HW228284   2.875   3.739   6.672  0.2926 -1.0209 -1.2665
 5608SOL     OW28285   1.199   3.557   4.603  0.1515  0.0339  0.2253
 5608SOL    HW128286   1.169   3.518   4.521  0.1584  0.2681  0.1106
 5608SOL    HW228287   1.291   3.532   4.597  0.0342 -0.4969  0.7158
 5609SOL     OW28288   1.098   1.744   4.283  0.3134  0.1547 -0.1029
 5609SOL    HW128289   1.120   1.783   4.367 -0.6815 -1.8733  1.1225
 5609SOL    HW228290   1.047   1.807   4.233  1.1388  2.2470  1.7140
 5610SOL     OW28291   1.262   2.968   1.914  0.3011 -0.8196  0.4327
 5610SOL    HW128292   1.259   2.901   1.982  2.1044 -1.0255  0.3193
 5610SOL    HW228293   1.291   3.043   1.966 -0.2705  0.6257 -1.3312
 5611SOL     OW28294   1.047   1.932  17.687  0.4472  0.4122  0.0804
 5611SOL    HW128295   1.072   1.904  17.598  0.9644  1.8845 -0.2358
 5611SOL    HW228296   0.951   1.938  17.687  0.2312 -2.9782  0.6631
 5612SOL     OW28297   1.890   1.799   5.463 -0.3987  0.4779 -0.0386
 5612SOL    HW128298   1.826   1.737   5.498  0.5037 -0.6042 -0.2926
 5612SOL    HW228299   1.845   1.878   5.433 -0.3671  1.4395  2.4746
 5613SOL     OW28300   1.935   4.150  12.430 -0.2797  0.1369 -0.1395
 5613SOL    HW128301   1.984   4.185  12.356 -1.3829 -0.8998 -1.3631
 5613SOL    HW228302   1.960   4.058  12.416 -0.1112  0.4931 -2.1943
 5614SOL     OW28303   2.560   3.180   8.588 -0.2726 -0.5576  0.7655
 5614SOL    HW128304   2.539   3.124   8.513 -1.4972 -0.0082  0.6992
 5614SOL    HW228305   2.655   3.173   8.599 -0.3196 -1.0955  0.8270
 5615SOL     OW28306   4.671   1.317  17.624 -0.5642  0.1524  0.3466
 5615SOL    HW128307   4.582   1.345  17.601 -0.6985 -1.1985 -0.7559
 5615SOL    HW228308   4.714   1.399  17.599 -0.6921  0.4256  1.0060
 5616SOL     OW28309   2.711   4.279   5.353  0.3818 -0.0376  0.0361
 5616SOL    HW128310   2.648   4.346   5.378  3.4326  2.5568  0.8147
 5616SOL    HW228311   2.699   4.219   5.427  0.4448 -0.3472 -0.2019
 5617SOL     OW28312   1.585   4.608   6.722 -0.0450  0.1419  0.5345
 5617SOL    HW128313   1.667   4.592   6.676 -0.4792 -1.5990  0.3461
 5617SOL    HW228314   1.579   4.703   6.728  0.0917  0.1246  0.9403
 5618SOL     OW28315   2.454   0.953   5.445  0.0572  0.5188 -0.1946
 5618SOL    HW128316   2.495   0.947   5.531  0.1638 -3.1211 -0.4871
 5618SOL    HW228317   2.419   0.864   5.436 -2.0718  1.4695 -1.4007
 5619SOL     OW28318   4.231   1.623  16.179  0.4507 -0.6504  0.0295
 5619SOL    HW128319   4.258   1.605  16.269  0.8287  0.0022  0.0438
 5619SOL    HW228320   4.165   1.692  16.191 -2.3846 -3.4402  0.4589
 5620SOL     OW28321   0.004   4.293   5.592 -0.1867 -0.0028 -0.0289
 5620SOL    HW128322   4.655   4.232   5.595 -1.0697  1.1020  0.5113
 5620SOL    HW228323   4.700   4.362   5.651  1.3144  0.7075 -0.1182
 5621SOL     OW28324   2.358   2.597   7.093 -0.2231  0.0728 -0.3850
 5621SOL    HW128325   2.408   2.635   7.165 -3.0083 -0.7681  1.9584
 5621SOL    HW228326   2.427   2.603   7.026 -0.5802 -0.8595 -0.8301
 5622SOL     OW28327   3.304   0.486  11.120  0.2323  0.4207 -0.2224
 5622SOL    HW128328   3.294   0.550  11.190 -1.7937  1.0793 -1.0858
 5622SOL    HW228329   3.241   0.521  11.057 -0.9665  0.4477  0.9936
 5623SOL     OW28330   0.741   2.083  16.517  0.0733 -0.4226 -0.3766
 5623SOL    HW128331   0.674   2.018  16.499 -0.3801  0.1170 -0.6410
 5623SOL    HW228332   0.708   2.151  16.458  1.0872  1.5802  1.3406
 5624SOL     OW28333   2.557   4.019   8.699  0.3169 -0.4885  0.4336
 5624SOL    HW128334   2.517   4.027   8.612 -0.4955 -0.1184  0.8418
 5624SOL    HW228335   2.492   4.072   8.744 -0.5834  0.0028 -1.4505
 5625SOL     OW28336   3.686   2.809   8.230  0.1414  0.2462 -0.1763
 5625SOL    HW128337   3.767   2.770   8.263 -0.3138 -0.8528 -0.3323
 5625SOL    HW228338   3.719   2.885   8.181  0.2988  1.5160  1.9377
 5626SOL     OW28339   4.352   3.277   8.845  0.1626  0.7923 -0.1126
 5626SOL    HW128340   4.357   3.200   8.902  0.6061  1.4222  0.7068
 5626SOL    HW228341   4.328   3.238   8.761 -0.6307 -2.9203  1.8538
 5627SOL     OW28342   3.523   0.484  11.902  0.6263 -0.1183  0.6521
 5627SOL    HW128343   3.547   0.431  11.825  2.7447 -2.4015  2.8745
 5627SOL    HW228344   3.604   0.525  11.931  0.1703 -0.2968  2.1552
 5628SOL     OW28345   1.075   0.794  12.527 -0.1055 -0.5997  0.0346
 5628SOL    HW128346   1.016   0.866  12.504  0.3329 -0.3718 -0.3813
 5628SOL    HW228347   1.015   0.722  12.544  0.7694 -1.4794 -0.5471
 5629SOL     OW28348   0.609   1.200   4.790  0.5106  0.4366  0.5182
 5629SOL    HW128349   0.639   1.261   4.857 -1.8474 -0.2855  2.2719
 5629SOL    HW228350   0.608   1.116   4.836 -1.3199  0.4218  0.4770
 5630SOL     OW28351   1.628   2.539   2.837  0.0869 -0.5095 -0.7891
 5630SOL    HW128352   1.661   2.601   2.772  0.3086 -0.1149 -0.3036
 5630SOL    HW228353   1.533   2.543   2.850  0.2627 -0.8567  0.6284
 5631SOL     OW28354   2.930   2.458  15.255 -0.3871  0.5752 -0.2274
 5631SOL    HW128355   2.884   2.537  15.225 -0.2084  0.8559  0.2280
 5631SOL    HW228356   2.866   2.402  15.297  3.0605 -1.6354  2.1250
 5632SOL     OW28357   0.177   4.278   9.200 -0.0385  0.3889 -0.3182
 5632SOL    HW128358   0.153   4.241   9.115  1.1521 -0.9090 -0.0922
 5632SOL    HW228359   0.120   4.221   9.253 -2.3573  3.3186  0.3392
 5633SOL     OW28360   0.753   3.113   5.983 -0.0848  0.2757 -0.0603
 5633SOL    HW128361   0.678   3.137   5.929  0.1271 -2.0434 -1.3776
 5633SOL    HW228362   0.778   3.033   5.936  1.2904  0.4075  0.4431
 5634SOL     OW28363   1.952   2.065   1.893  0.1346 -0.1484 -0.3011
 5634SOL    HW128364   2.029   2.010   1.907  0.4193  0.7440  1.7350
 5634SOL    HW228365   1.990   2.152   1.883  1.2893 -0.9588 -3.0128
 5635SOL     OW28366   2.898   0.874  11.331 -0.2010  0.2605  0.2834
 5635SOL    HW128367   2.865   0.785  11.332  0.6222 -0.0651 -0.7353
 5635SOL    HW228368   2.939   0.886  11.417 -1.4129  0.7843  0.7843
 5636SOL     OW28369   2.000   2.036   6.616  0.1152 -0.3513 -0.5130
 5636SOL    HW128370   2.082   2.075   6.585 -0.7408  1.5950 -0.3668
 5636SOL    HW228371   2.021   2.000   6.702 -1.0012  0.1270 -0.0389
 5637SOL     OW28372   3.419   4.264   1.756  0.0772 -0.3966 -0.1183
 5637SOL    HW128373   3.356   4.293   1.822  0.1855 -0.1884 -0.1053
 5637SOL    HW228374   3.360   4.202   1.713 -0.2353 -0.1695 -0.0219
 5638SOL     OW28375   1.552   1.269   8.732  0.0142 -0.6579  0.4489
 5638SOL    HW128376   1.595   1.256   8.816  1.2133 -2.2589 -0.4211
 5638SOL    HW228377   1.625   1.289   8.674  0.4754 -1.2747  0.8229
 5639SOL     OW28378   2.869   1.843   6.577  0.3749  0.2869 -1.4340
 5639SOL    HW128379   2.963   1.837   6.595  0.1697 -0.8725 -0.7772
 5639SOL    HW228380   2.862   1.874   6.487  1.8765  0.4334 -1.4958
 5640SOL     OW28381   1.711   3.897   7.729 -0.2552 -0.1631  0.0049
 5640SOL    HW128382   1.733   3.812   7.691  0.1542  0.1272 -0.4013
 5640SOL    HW228383   1.794   3.942   7.744 -0.2944  0.2921 -1.1969
 5641SOL     OW28384   1.109   0.727   4.501  0.4351 -0.1068 -0.3739
 5641SOL    HW128385   1.118   0.637   4.468 -0.6237  0.1363 -1.2900
 5641SOL    HW228386   1.029   0.718   4.553 -1.4852 -0.5376 -3.4598
 5642SOL     OW28387   0.420   2.854   2.562 -0.7697  0.1607  0.1978
 5642SOL    HW128388   0.384   2.807   2.486  0.5852  0.3054 -0.5374
 5642SOL    HW228389   0.378   2.820   2.640 -0.7611  1.9588  0.9916
 5643SOL     OW28390   1.805   3.673   5.201 -0.7168 -0.5820 -0.1337
 5643SOL    HW128391   1.864   3.722   5.144 -0.8889  0.2157  0.3701
 5643SOL    HW228392   1.726   3.665   5.149 -0.6557  0.5401 -0.4060
 5644SOL     OW28393   4.656   3.737   9.317  0.1046 -0.4862  0.6908
 5644SOL    HW128394   4.585   3.689   9.361 -0.7027  0.9025  0.9082
 5644SOL    HW228395   4.677   3.683   9.241 -0.5333  1.2991 -0.7410
 5645SOL     OW28396   3.515   0.431   1.410 -0.4211 -0.2404 -0.1378
 5645SOL    HW128397   3.449   0.397   1.349  0.2634  0.3309 -1.1880
 5645SOL    HW228398   3.481   0.414   1.498  0.0258  1.7898  0.4226
 5646SOL     OW28399   4.314   0.986   5.957  0.0949  0.1681  0.3082
 5646SOL    HW128400   4.302   0.892   5.943 -0.0212  0.6957 -3.1426
 5646SOL    HW228401   4.266   1.019   5.881  1.5122 -0.2178 -0.7574
 5647SOL     OW28402   1.798   3.820   0.276 -0.7026  0.1567  0.3191
 5647SOL    HW128403   1.869   3.877   0.247 -1.2112  0.4731 -0.2976
 5647SOL    HW228404   1.731   3.823   0.207 -0.4507  1.3695  0.1348
 5648SOL     OW28405   2.930   4.446  17.570 -0.0424 -0.4401  0.3118
 5648SOL    HW128406   2.952   4.397  17.491 -0.8369 -1.2953  0.6137
 5648SOL    HW228407   3.008   4.496  17.591  0.9102 -0.6338 -2.7658
 5649SOL     OW28408   3.004   4.606  11.155  0.0316 -0.2099 -0.5280
 5649SOL    HW128409   3.013   4.611  11.250  1.1943  1.8123 -0.7477
 5649SOL    HW228410   2.985   4.697  11.133  0.0294  0.2916  1.5411
 5650SOL     OW28411   0.692   2.620   8.222  0.0814  0.2950  0.2022
 5650SOL    HW128412   0.759   2.580   8.278 -0.7867 -0.2540  0.8536
 5650SOL    HW228413   0.624   2.553   8.219 -1.9271  2.2787  1.2565
 5651SOL     OW28414   3.312   1.964   9.017  0.4763  0.4728  0.2507
 5651SOL    HW128415   3.364   2.041   8.993  0.6844 -0.5039 -2.4778
 5651SOL    HW228416   3.369   1.946   9.092 -0.6990 -1.0719  0.7833
 5652SOL     OW28417   2.484   4.036   2.677  0.1907  0.3582  0.2758
 5652SOL    HW128418   2.508   3.945   2.692 -1.6254 -0.1460  0.0200
 5652SOL    HW228419   2.418   4.054   2.744 -2.0153 -2.4827 -1.1804
 5653SOL     OW28420   0.832   2.088  13.442 -0.4355 -0.3699 -0.2654
 5653SOL    HW128421   0.804   2.170  13.402  0.7351  1.1665  2.0731
 5653SOL    HW228422   0.755   2.034  13.427  1.2697 -2.2065 -2.4367
 5654SOL     OW28423   1.926   3.308   3.447 -0.0245  0.3817 -0.0572
 5654SOL    HW128424   1.989   3.322   3.376 -1.2396 -1.6648 -1.5704
 5654SOL    HW228425   1.936   3.213   3.447 -0.1132  0.3713 -0.9303
 5655SOL     OW28426   3.846   3.373  16.900 -0.1614  0.7183  0.1433
 5655SOL    HW128427   3.828   3.322  16.821 -0.4709  0.1892  0.5621
 5655SOL    HW228428   3.812   3.311  16.964  0.3168 -0.6581 -0.9362
 5656SOL     OW28429   4.341   2.564   1.030  0.1766  0.4694  0.2268
 5656SOL    HW128430   4.436   2.567   1.035  0.1279  0.2980  1.1994
 5656SOL    HW228431   4.316   2.574   0.938 -5.2122 -2.4046  1.3227
 5657SOL     OW28432   3.048   4.370   4.460 -0.1569 -0.4363  0.4053
 5657SOL    HW128433   3.022   4.280   4.442 -0.5458 -0.4798  1.2271
 5657SOL    HW228434   3.143   4.359   4.457  0.0007  0.3511  2.7757
 5658SOL     OW28435   4.268   1.319   5.844  0.2136 -0.1908  0.6233
 5658SOL    HW128436   4.190   1.289   5.891 -0.4663  0.6375  0.0219
 5658SOL    HW228437   4.336   1.317   5.912 -1.8875  1.5482  2.7840
 5659SOL     OW28438   3.041   4.100   3.021 -0.4358  0.4133 -0.2024
 5659SOL    HW128439   3.031   4.132   3.110 -0.1362 -1.2415  0.4196
 5659SOL    HW228440   2.953   4.071   2.998 -0.0325 -0.7852 -0.2209
 5660SOL     OW28441   4.297   2.429   9.233 -0.5194  0.8647  0.3671
 5660SOL    HW128442   4.310   2.335   9.226  4.7900  1.6763 -0.6711
 5660SOL    HW228443   4.203   2.430   9.217 -0.5268 -0.6330  0.3541
 5661SOL     OW28444   0.419   2.245  10.005  0.7945 -0.2844  0.1867
 5661SOL    HW128445   0.368   2.226  10.084  1.8604 -0.2683  0.8715
 5661SOL    HW228446   0.433   2.155   9.974  3.6158  0.0084  0.6076
 5662SOL     OW28447   4.554   1.890  12.336 -0.2433 -0.4778 -0.2037
 5662SOL    HW128448   4.551   1.947  12.259 -2.3190 -0.5602 -0.1773
 5662SOL    HW228449   4.593   1.810  12.300 -2.9011 -1.2659 -1.3227
 5663SOL     OW28450   2.957   0.423   7.216 -0.1048 -0.0763 -0.1242
 5663SOL    HW128451   3.019   0.478   7.167  1.4231 -2.2013 -0.6035
 5663SOL    HW228452   2.988   0.335   7.195 -2.4431 -0.3457 -2.4311
 5664SOL     OW28453   3.321   4.525   0.099 -0.4442 -0.6116 -0.2121
 5664SOL    HW128454   3.392   4.463   0.082  1.1215  1.5733 -1.5419
 5664SOL    HW228455   3.338   4.559   0.011  0.3141 -0.3151  0.0455
 5665SOL     OW28456   3.270   0.483   6.162  0.0316 -0.1672 -0.3428
 5665SOL    HW128457   3.216   0.557   6.137  1.5310  1.6318  1.7971
 5665SOL    HW228458   3.217   0.406   6.140  1.2203 -1.1328  0.1084
 5666SOL     OW28459   1.021   0.889  16.650 -0.3186 -0.2204  0.3353
 5666SOL    HW128460   0.951   0.940  16.691 -0.1744  0.4292 -0.2046
 5666SOL    HW228461   0.998   0.914  16.560 -1.6081 -3.2823 -0.1919
 5667SOL     OW28462   0.602   4.686  13.722  0.3139 -0.1575 -0.6068
 5667SOL    HW128463   0.620   0.007  13.640 -0.6461  0.9208 -0.2214
 5667SOL    HW228464   0.637   4.598  13.712 -1.0648 -0.7800  0.0384
 5668SOL     OW28465   3.516   0.458   0.857  0.1044 -0.0316 -0.3369
 5668SOL    HW128466   3.462   0.462   0.777  3.4827  3.2789 -2.4645
 5668SOL    HW228467   3.598   0.484   0.815 -0.3615  1.9219 -0.0521
 5669SOL     OW28468   2.102   2.985  11.351  0.2287  0.0999  0.4830
 5669SOL    HW128469   2.153   2.918  11.396  0.9206  0.2123 -0.1413
 5669SOL    HW228470   2.045   3.003  11.426 -2.3015  2.9676 -2.1019
 5670SOL     OW28471   3.549   4.143   6.501 -0.2285 -0.1804  0.6608
 5670SOL    HW128472   3.523   4.213   6.561  0.3379 -1.3654  2.2720
 5670SOL    HW228473   3.610   4.091   6.553  2.5976  0.6872 -1.8449
 5671SOL     OW28474   2.678   1.583   3.152 -0.3711  0.3082 -0.5787
 5671SOL    HW128475   2.755   1.560   3.203 -1.8239 -0.2227  1.4020
 5671SOL    HW228476   2.708   1.663   3.109  2.7802 -0.1373  0.8313
 5672SOL     OW28477   3.694   2.921   2.482  0.6466 -0.0085  0.2121
 5672SOL    HW128478   3.611   2.956   2.513  0.9480  1.9254 -1.1715
 5672SOL    HW228479   3.679   2.829   2.504 -1.0610  0.4237  0.8517
 5673SOL     OW28480   0.234   2.061  17.647 -0.0149 -0.2131  0.1064
 5673SOL    HW128481   0.231   2.140  17.701  0.4340  0.1073 -0.3419
 5673SOL    HW228482   0.239   2.096  17.558 -0.4784 -1.4297 -0.3974
 5674SOL     OW28483   1.219   4.211  12.814 -0.0358 -0.2739  0.7917
 5674SOL    HW128484   1.137   4.167  12.791  0.3536 -0.5673 -0.0394
 5674SOL    HW228485   1.204   4.305  12.816  2.9770  0.1998  1.0778
 5675SOL     OW28486   3.951   2.469   1.763 -0.4451  0.3686  0.6744
 5675SOL    HW128487   3.867   2.512   1.743 -0.7177 -0.7239 -0.6265
 5675SOL    HW228488   3.947   2.405   1.692 -2.0993 -0.0223  1.1132
 5676SOL     OW28489   3.307   0.446   0.546 -0.3574 -0.2783 -0.0768
 5676SOL    HW128490   3.312   0.477   0.455 -0.0028 -1.1818 -0.3711
 5676SOL    HW228491   3.328   0.529   0.589  0.5927 -1.0929  1.0165
 5677SOL     OW28492   0.201   0.398  10.266  0.3000 -0.0352 -0.7469
 5677SOL    HW128493   0.162   0.393  10.353  3.4153 -0.6219  0.6082
 5677SOL    HW228494   0.135   0.430  10.205  2.5947 -0.1074 -3.2921
 5678SOL     OW28495   3.179   3.872   9.050  0.0350 -0.5339 -0.3950
 5678SOL    HW128496   3.177   3.922   9.131  3.3632 -1.9355  0.5514
 5678SOL    HW228497   3.162   3.783   9.081 -1.9521 -0.3739 -1.0620
 5679SOL     OW28498   4.218   3.236   2.534 -0.1570 -0.5907  0.4393
 5679SOL    HW128499   4.278   3.310   2.544 -0.8950  0.3191 -1.7973
 5679SOL    HW228500   4.163   3.262   2.608  1.6243 -1.3082  2.0327
 5680SOL     OW28501   1.603   1.744  12.695  0.1458 -0.1115 -0.3151
 5680SOL    HW128502   1.625   1.823  12.645 -0.7581 -0.4527 -1.2347
 5680SOL    HW228503   1.643   1.765  12.780 -0.5622 -2.4095  0.5800
 5681SOL     OW28504   0.734   3.361   5.569  0.1078 -0.4165  0.0856
 5681SOL    HW128505   0.765   3.451   5.554  0.2130 -0.1788  1.6597
 5681SOL    HW228506   0.643   3.378   5.546  0.7050  0.4254 -1.6702
 5682SOL     OW28507   0.244   3.780   0.413  0.3336 -0.2211 -0.6291
 5682SOL    HW128508   0.196   3.706   0.375 -0.8517 -0.7033  1.8488
 5682SOL    HW228509   0.308   3.731   0.465  1.1737 -1.1582 -2.5302
 5683SOL     OW28510   0.214   1.664   3.407  0.3026 -0.7798 -0.2030
 5683SOL    HW128511   0.225   1.599   3.338  1.5179 -1.5418  0.7149
 5683SOL    HW228512   0.225   1.751   3.369  2.8080 -2.2350 -2.7826
 5684SOL     OW28513   3.289   1.185   0.214  0.6466  0.1606 -0.7437
 5684SOL    HW128514   3.318   1.099   0.185  2.7335  1.0920 -1.4130
 5684SOL    HW228515   3.206   1.159   0.253  0.3006 -0.3899 -1.8592
 5685SOL     OW28516   0.045   3.121  12.796  0.1418 -0.0624 -0.0402
 5685SOL    HW128517   0.134   3.121  12.831  0.2290 -1.4109 -0.2714
 5685SOL    HW228518   0.001   3.059  12.855  0.8660  1.0054  1.6347
 5686SOL     OW28519   3.412   3.951  12.825 -0.3761 -0.0315 -0.0673
 5686SOL    HW128520   3.504   3.971  12.842 -0.7028 -0.1084  1.7200
 5686SOL    HW228521   3.428   3.874  12.770  0.0311 -0.2249  0.3248
 5687SOL     OW28522   4.405   2.721   9.688  0.2659  0.3103  0.7402
 5687SOL    HW128523   4.396   2.762   9.773 -0.2149  3.7515 -0.9588
 5687SOL    HW228524   4.376   2.634   9.715  2.1517 -0.5228  0.1094
 5688SOL     OW28525   0.669   3.020   9.190 -0.2267 -0.2268  0.2971
 5688SOL    HW128526   0.582   3.039   9.155  0.0507 -2.3563 -1.6092
 5688SOL    HW228527   0.645   2.954   9.255 -0.9984 -1.4946 -1.2615
 5689SOL     OW28528   3.501   4.560   6.237 -0.0639  0.6851 -0.4278
 5689SOL    HW128529   3.422   4.572   6.289  0.1948 -0.8193  0.3329
 5689SOL    HW228530   3.574   4.588   6.292  0.7963 -0.1938 -1.1188
 5690SOL     OW28531   4.459   4.084   7.370  0.5305 -0.6220 -0.0780
 5690SOL    HW128532   4.464   3.989   7.382  0.7986 -0.8183 -1.8165
 5690SOL    HW228533   4.546   4.110   7.402  1.6394  0.2165 -3.8473
 5691SOL     OW28534   3.047   0.129   4.911 -0.1279  0.3710 -0.0027
 5691SOL    HW128535   3.029   0.038   4.937  0.6227  0.2215  0.0054
 5691SOL    HW228536   3.123   0.126   4.853  1.1836  0.9397  1.6743
 5692SOL     OW28537   1.049   3.632   3.000 -0.2729  0.3297  0.1821
 5692SOL    HW128538   1.050   3.727   2.989 -0.9647  0.1659 -1.3523
 5692SOL    HW228539   1.074   3.599   2.913  0.3437 -1.7494  1.1445
 5693SOL     OW28540   0.759   1.877   2.253 -0.3163 -0.3365 -0.0749
 5693SOL    HW128541   0.723   1.953   2.206  1.2247  0.9245  0.8164
 5693SOL    HW228542   0.689   1.814   2.274  0.5575 -1.4387 -0.4650
 5694SOL     OW28543   2.952   4.157   5.774  0.3603  0.7055  0.3437
 5694SOL    HW128544   2.887   4.221   5.805 -2.3354 -1.1846 -1.4285
 5694SOL    HW228545   3.031   4.211   5.780 -0.0730  1.3974 -0.0885
 5695SOL     OW28546   2.041   0.098   5.398 -0.4951 -0.0775 -0.3099
 5695SOL    HW128547   2.067   0.176   5.348 -1.3597  0.9623  0.8894
 5695SOL    HW228548   2.067   0.027   5.339 -0.6608  0.1008 -0.6026
 5696SOL     OW28549   0.509   1.551   2.927 -0.6980  0.1191  0.2982
 5696SOL    HW128550   0.473   1.493   2.860  0.9318 -0.3436 -0.1672
 5696SOL    HW228551   0.527   1.487   2.996 -1.9287  0.9781  1.4180
 5697SOL     OW28552   1.263   0.023   5.875 -0.2384 -0.3740 -0.3226
 5697SOL    HW128553   1.258   0.017   5.779 -1.0043 -5.0180  0.0205
 5697SOL    HW228554   1.358   0.013   5.881 -0.0862  1.9739  1.1814
 5698SOL     OW28555   2.696   1.281   6.849 -0.1101  0.1740  0.4368
 5698SOL    HW128556   2.736   1.245   6.929  1.8978  2.9366  0.6866
 5698SOL    HW228557   2.719   1.373   6.865 -1.0522  0.1238  2.0551
 5699SOL     OW28558   4.451   0.973   7.471 -0.0298  0.6208 -0.3466
 5699SOL    HW128559   4.364   0.936   7.486 -0.6319  1.5783 -1.5286
 5699SOL    HW228560   4.446   1.039   7.539 -0.0503  0.5128 -0.2434
 5700SOL     OW28561   1.840   2.259  10.044  0.0683 -0.0445 -0.3655
 5700SOL    HW128562   1.922   2.307  10.036 -0.2654  0.6982  0.5998
 5700SOL    HW228563   1.815   2.266  10.136  3.1185  0.9847  0.3652
 5701SOL     OW28564   2.660   1.112  10.578  0.3008  0.4449  0.2718
 5701SOL    HW128565   2.750   1.112  10.544  0.9580  1.2141  2.0331
 5701SOL    HW228566   2.674   1.084  10.668 -0.1053 -1.1899 -0.1677
 5702SOL     OW28567   0.321   0.717   4.338 -0.0681 -0.0592 -0.3644
 5702SOL    HW128568   0.348   0.693   4.427 -1.6682 -1.3455 -0.2362
 5702SOL    HW228569   0.353   0.807   4.332  0.7775 -0.3283  0.0683
 5703SOL     OW28570   1.907   2.484  11.028 -0.1011 -0.2957  0.3723
 5703SOL    HW128571   1.868   2.421  11.088  1.4438 -0.7212  0.9345
 5703SOL    HW228572   1.842   2.489  10.958  1.1669 -1.2011 -0.8699
 5704SOL     OW28573   0.104   2.912   9.623 -0.1722 -0.1813  0.0055
 5704SOL    HW128574   0.131   2.820   9.628  0.5109 -0.0533 -1.2930
 5704SOL    HW228575   0.025   2.909   9.569 -0.2550 -0.7766  0.1634
 5705SOL     OW28576   0.039   3.257   2.993 -0.8033  0.6852  0.0685
 5705SOL    HW128577   0.014   3.231   2.904  2.0859  0.6697 -0.7677
 5705SOL    HW228578   0.018   3.187   3.054 -2.4576 -1.0767 -2.5250
 5706SOL     OW28579   4.594   1.660   6.179  0.5282 -0.0332  0.2816
 5706SOL    HW128580   4.535   1.610   6.236 -0.2466  0.8687  0.2754
 5706SOL    HW228581   4.610   1.594   6.111 -1.6600 -1.3451  1.0105
 5707SOL     OW28582   1.329   2.417   6.669  0.2294 -0.9132 -0.3282
 5707SOL    HW128583   1.388   2.374   6.607  2.1464  0.5073  0.4980
 5707SOL    HW228584   1.288   2.344   6.717  2.9375 -0.4015  2.8009
 5708SOL     OW28585   1.985   0.015   2.719 -0.6631  0.4173  0.1899
 5708SOL    HW128586   1.971   0.012   2.813  1.2093 -0.5309  0.4464
 5708SOL    HW228587   1.951   4.656   2.687  0.4083 -0.5611  1.6064
 5709SOL     OW28588   2.598   1.536   8.140 -0.5556 -0.2364  0.0646
 5709SOL    HW128589   2.657   1.492   8.202  0.8825 -0.0927 -1.2078
 5709SOL    HW228590   2.600   1.624   8.177 -3.3507 -0.8458  1.7323
 5710SOL     OW28591   0.613   2.686  16.341  0.2526 -0.5131  0.2821
 5710SOL    HW128592   0.528   2.659  16.308  1.3960 -2.7515 -0.8532
 5710SOL    HW228593   0.599   2.668  16.434  0.9048 -0.5376  0.3805
 5711SOL     OW28594   0.962   4.022   2.632  0.0097 -0.2115 -0.2929
 5711SOL    HW128595   1.014   4.047   2.556 -0.8445 -1.3412 -1.2402
 5711SOL    HW228596   0.970   3.927   2.644 -0.9116 -0.3335 -0.6645
 5712SOL     OW28597   2.124   2.466   9.162 -0.3709 -0.4009 -0.5616
 5712SOL    HW128598   2.126   2.500   9.252  1.1095  1.3600 -1.2455
 5712SOL    HW228599   2.031   2.451   9.147 -0.4395 -0.3285 -0.2121
 5713SOL     OW28600   0.332   1.194   7.042 -0.1370 -0.1233 -0.2559
 5713SOL    HW128601   0.402   1.130   7.026 -1.3483 -2.0486  2.2070
 5713SOL    HW228602   0.370   1.268   6.996 -0.2261 -0.1454 -0.3672
 5714SOL     OW28603   2.849   0.292   4.338  0.0476  0.1251 -0.3606
 5714SOL    HW128604   2.924   0.275   4.395 -1.0164  0.8119  1.2461
 5714SOL    HW228605   2.863   0.223   4.273 -0.5200 -0.2245 -0.1012
 5715SOL     OW28606   0.350   1.364   0.884  0.4557  0.1737  0.1098
 5715SOL    HW128607   0.348   1.268   0.884  0.3447  0.1581  2.3570
 5715SOL    HW228608   0.284   1.385   0.950  0.0099  1.0952 -0.6291
 5716SOL     OW28609   1.243   0.602  13.391 -0.2110 -0.5849 -0.1372
 5716SOL    HW128610   1.162   0.562  13.359 -1.1652  1.2960 -0.0756
 5716SOL    HW228611   1.230   0.686  13.346 -2.3233 -1.4002 -1.0703
 5717SOL     OW28612   3.295   0.483  14.092 -0.2282  0.1111 -0.2991
 5717SOL    HW128613   3.326   0.573  14.096 -0.8684  0.3095  0.3170
 5717SOL    HW228614   3.355   0.442  14.154  1.5741 -0.5843 -2.5296
 5718SOL     OW28615   4.113   4.660  14.094 -0.3233  0.5258 -0.2338
 5718SOL    HW128616   4.166   0.009  14.124 -0.7502  0.2229  1.2808
 5718SOL    HW228617   4.063   4.698  14.022 -0.8394 -1.7404 -1.0552
 5719SOL     OW28618   1.329   1.682   7.597 -0.7531  0.1069 -0.4496
 5719SOL    HW128619   1.383   1.604   7.583  0.3485  0.6136  0.9756
 5719SOL    HW228620   1.258   1.649   7.652 -0.9729  1.6344  0.1770
 5720SOL     OW28621   0.666   2.775   5.475 -0.0921  0.4315 -0.1032
 5720SOL    HW128622   0.632   2.810   5.393  1.5862 -0.4943 -1.1998
 5720SOL    HW228623   0.577   2.763   5.509  0.9374 -1.8077  1.8034
 5721SOL     OW28624   4.371   0.144  14.081 -0.5937  0.2355 -0.3651
 5721SOL    HW128625   4.311   0.156  14.155  0.7709  0.3008  0.7217
 5721SOL    HW228626   4.394   0.236  14.064  0.6109 -0.1025 -0.5287
 5722SOL     OW28627   2.041   1.558   2.137  0.1998 -0.3774 -0.1567
 5722SOL    HW128628   2.016   1.527   2.224 -0.1849 -0.1088 -0.1713
 5722SOL    HW228629   2.086   1.477   2.112 -0.4705 -0.9649  0.5183
 5723SOL     OW28630   2.956   1.213  12.783 -0.7644  0.4152 -0.2112
 5723SOL    HW128631   2.945   1.304  12.811 -1.0285  0.4406 -0.3992
 5723SOL    HW228632   2.920   1.162  12.855 -1.4226 -0.2988 -1.0590
 5724SOL     OW28633   2.985   0.991   6.052  0.7259 -0.7158 -0.4460
 5724SOL    HW128634   2.966   0.925   6.119 -0.1241 -0.2848 -0.2563
 5724SOL    HW228635   3.050   0.952   5.994  2.1891 -0.8931  1.3109
 5725SOL     OW28636   3.501   3.752   9.649 -0.4024  0.0901  0.3821
 5725SOL    HW128637   3.477   3.844   9.666  1.8925  0.9005 -0.7221
 5725SOL    HW228638   3.414   3.715   9.667 -0.8218  1.1221  0.5474
 5726SOL     OW28639   0.404   3.764  13.428  0.5372  0.4235 -0.5666
 5726SOL    HW128640   0.431   3.810  13.507  0.0573 -1.9842  1.0166
 5726SOL    HW228641   0.380   3.846  13.386  1.5355  0.9492 -0.0955
 5727SOL     OW28642   1.838   4.035   6.424  0.1011  0.2834 -0.2523
 5727SOL    HW128643   1.924   4.074   6.432 -0.7948  1.9678  1.0846
 5727SOL    HW228644   1.817   4.082   6.343  0.3705 -0.7008 -0.9023
 5728SOL     OW28645   0.678   2.613   0.374  0.0345  0.0989  0.0962
 5728SOL    HW128646   0.648   2.584   0.460 -1.1304  1.2355  0.0653
 5728SOL    HW228647   0.664   2.708   0.379  1.3404  0.1595  2.4506
 5729SOL     OW28648   2.952   3.975  10.774  0.6820 -0.0848 -0.7282
 5729SOL    HW128649   2.971   3.915  10.846 -0.2522  1.9230  1.1601
 5729SOL    HW228650   2.958   4.060  10.816  0.2710 -0.9284  1.0326
 5730SOL     OW28651   3.536   3.101   1.104 -0.1463 -0.2999  0.3600
 5730SOL    HW128652   3.493   3.108   1.019 -0.0023  2.1643  0.4883
 5730SOL    HW228653   3.462   3.122   1.161 -0.3881  0.2627 -0.1617
 5731SOL     OW28654   4.386   4.263   0.415 -0.6254 -0.1230  0.6731
 5731SOL    HW128655   4.396   4.169   0.431  0.9040 -0.1351 -0.4111
 5731SOL    HW228656   4.466   4.275   0.364 -0.2771  1.3914  1.5834
 5732SOL     OW28657   2.650   3.843  14.768  0.2230  0.3651  0.2709
 5732SOL    HW128658   2.712   3.840  14.696  0.0452 -0.0693  0.1360
 5732SOL    HW228659   2.565   3.842  14.723  1.5083 -3.7913 -2.0842
 5733SOL     OW28660   3.850   2.181   2.372 -0.1100  0.4568  0.5415
 5733SOL    HW128661   3.893   2.098   2.351  0.5116  1.2922 -1.5934
 5733SOL    HW228662   3.917   2.214   2.432  0.4679 -1.4427  0.9150
 5734SOL     OW28663   0.867   4.111  17.265 -0.6439 -0.2688 -0.0631
 5734SOL    HW128664   0.782   4.067  17.278 -0.4331 -0.8575 -0.6611
 5734SOL    HW228665   0.835   4.199  17.286  0.1118  0.0789 -0.3895
 5735SOL     OW28666   2.831   3.600   3.556 -0.3172  0.2122  0.2111
 5735SOL    HW128667   2.737   3.613   3.544 -0.3817 -1.2273 -0.7394
 5735SOL    HW228668   2.852   3.677   3.610  1.6758  0.0313 -0.3256
 5736SOL     OW28669   3.121   0.478   3.678 -0.3934  0.3303  0.5811
 5736SOL    HW128670   3.134   0.499   3.770 -1.7901  0.2685  0.7926
 5736SOL    HW228671   3.058   0.545   3.653  0.5816  0.0193 -2.7745
 5737SOL     OW28672   4.705   0.741   2.852  0.5890  0.3177  0.4631
 5737SOL    HW128673   4.680   0.815   2.907  1.9265  0.0438  1.4610
 5737SOL    HW228674   4.650   0.742   2.774  0.9168 -0.3100  0.2223
 5738SOL     OW28675   3.554   4.258   8.742 -0.3753 -0.0154 -0.1038
 5738SOL    HW128676   3.605   4.336   8.721  3.1025 -2.1332  0.4168
 5738SOL    HW228677   3.517   4.240   8.656 -0.9875 -0.4378  0.2491
 5739SOL     OW28678   3.724   2.384   5.781 -0.3898 -0.0004  0.3900
 5739SOL    HW128679   3.803   2.358   5.735  1.3199  1.3561  2.5301
 5739SOL    HW228680   3.702   2.296   5.812 -1.2232 -0.0051 -0.2107
 5740SOL     OW28681   1.362   1.145   1.800  0.7610  0.3980  0.0600
 5740SOL    HW128682   1.338   1.140   1.893  2.2974 -1.2037  0.3593
 5740SOL    HW228683   1.417   1.068   1.790  0.8177  0.2076  1.8602
 5741SOL     OW28684   3.462   0.947   2.402  0.0030 -0.2864 -0.2898
 5741SOL    HW128685   3.427   0.886   2.467 -0.6847 -2.1047 -2.3491
 5741SOL    HW228686   3.440   0.917   2.314 -2.5165 -0.6444  0.4652
 5742SOL     OW28687   3.098   1.488  12.565 -0.3613  0.2136 -0.4656
 5742SOL    HW128688   3.014   1.522  12.596  0.1763  0.4218  0.7425
 5742SOL    HW228689   3.149   1.569  12.566 -0.7306  0.4331  0.3975
 5743SOL     OW28690   1.617   0.899   8.279  0.7516  0.5451  0.4438
 5743SOL    HW128691   1.706   0.894   8.315  0.6231  0.7740  0.7925
 5743SOL    HW228692   1.580   0.967   8.336  1.7095  1.5604 -0.1397
 5744SOL     OW28693   0.746   1.856   3.155 -0.2215  0.0964 -0.1797
 5744SOL    HW128694   0.754   1.949   3.138 -0.7181 -0.2665 -2.3476
 5744SOL    HW228695   0.654   1.827   3.157 -0.4621  0.9199  0.4223
 5745SOL     OW28696   3.715   1.613  12.389  0.7073 -0.5264 -0.1592
 5745SOL    HW128697   3.666   1.657  12.320 -0.5017 -2.0070 -0.2478
 5745SOL    HW228698   3.800   1.618  12.344 -0.7418  0.3470 -2.8230
 5746SOL     OW28699   1.061   0.878   8.820  0.0276  0.4869 -0.1068
 5746SOL    HW128700   1.096   0.825   8.749  1.9765  0.7649  0.6664
 5746SOL    HW228701   1.110   0.861   8.900  1.7500  2.5382 -0.7353
 5747SOL     OW28702   1.210   1.277  11.228  0.2423 -0.0146  0.0914
 5747SOL    HW128703   1.263   1.332  11.286  0.1184  0.5208 -0.3041
 5747SOL    HW228704   1.175   1.210  11.286  1.4806 -0.9685 -0.2580
 5748SOL     OW28705   4.399   3.903   3.604 -0.0580  0.4148  0.4709
 5748SOL    HW128706   4.323   3.847   3.593 -0.2166  0.3702  1.7804
 5748SOL    HW228707   4.476   3.846   3.615 -0.2756 -0.2067 -1.3059
 5749SOL     OW28708   1.319   0.476  17.268  0.3446 -0.1841  0.1167
 5749SOL    HW128709   1.388   0.419  17.234  0.3004 -0.3997  0.3844
 5749SOL    HW228710   1.272   0.502  17.189  0.0510 -2.0666 -0.3243
 5750SOL     OW28711   1.774   4.642   0.148  0.2043 -0.2225  0.3138
 5750SOL    HW128712   1.757   4.587   0.071  0.8284 -2.3037  1.6639
 5750SOL    HW228713   1.870   4.634   0.146  0.2023  0.0190 -0.8009
 5751SOL     OW28714   0.033   0.415   1.385  0.5151 -0.1362 -0.4432
 5751SOL    HW128715   0.046   0.441   1.477  2.3627  1.0922 -1.0555
 5751SOL    HW228716   0.046   0.320   1.387 -1.5286 -0.4352 -1.7384
 5752SOL     OW28717   2.903   1.473   4.097 -0.4448  0.3715  0.1598
 5752SOL    HW128718   2.926   1.429   4.015 -1.0194 -0.5266  0.4751
 5752SOL    HW228719   2.931   1.561   4.071 -1.4196  0.8942  0.8700
 5753SOL     OW28720   3.216   1.193   1.704  0.6025 -0.2593 -0.8243
 5753SOL    HW128721   3.261   1.113   1.678 -0.5534 -0.8187 -1.1188
 5753SOL    HW228722   3.126   1.165   1.720 -0.0072  1.6241 -0.9692
 5754SOL     OW28723   4.386   1.760   9.394  0.4867  0.3551 -0.0937
 5754SOL    HW128724   4.417   1.741   9.306 -1.3400  0.6895 -0.8162
 5754SOL    HW228725   4.451   1.823   9.423 -1.2365  0.1065  4.3488
 5755SOL     OW28726   1.326   0.124   1.058  0.1843 -0.5809  0.5648
 5755SOL    HW128727   1.352   0.044   1.104  2.0305  0.7052  1.7966
 5755SOL    HW228728   1.412   0.155   1.030  0.9649 -0.4768  3.0443
 5756SOL     OW28729   4.602   4.409   6.350 -0.2807 -0.0629  0.7134
 5756SOL    HW128730   4.673   4.449   6.300  0.1068  1.0994  2.2227
 5756SOL    HW228731   4.586   4.332   6.296  2.2271  0.1041 -0.2572
 5757SOL     OW28732   2.478   2.466   4.142 -0.0958  0.3847  0.5662
 5757SOL    HW128733   2.514   2.462   4.053  1.7458 -2.0763  1.4138
 5757SOL    HW228734   2.545   2.506   4.197  1.3729 -0.0160 -0.9119
 5758SOL     OW28735   2.044   1.788   1.040 -0.6506  0.1810  0.4705
 5758SOL    HW128736   2.067   1.770   0.948 -0.1186  0.2665  0.5830
 5758SOL    HW228737   2.059   1.883   1.040 -1.4178  0.2978  1.6041
 5759SOL     OW28738   0.605   1.958  12.680  0.5561 -0.2085 -0.8010
 5759SOL    HW128739   0.693   1.922  12.668  1.5682  0.7220  3.8889
 5759SOL    HW228740   0.610   2.033  12.620  2.6805  1.1490  1.0931
 5760SOL     OW28741   1.270   0.965  17.474 -0.1584 -0.1484  0.0439
 5760SOL    HW128742   1.269   1.059  17.491  0.2132  0.0281 -0.9008
 5760SOL    HW228743   1.288   0.962  17.380  3.2904 -2.3831  0.8129
 5761SOL     OW28744   3.807   4.466   7.890  0.3102 -0.4138  0.0574
 5761SOL    HW128745   3.803   4.541   7.949 -0.5615 -0.4429  0.0277
 5761SOL    HW228746   3.721   4.466   7.848  0.4466 -0.2467 -0.2269
 5762SOL     OW28747   4.351   3.204   7.523  0.0440 -0.1464 -0.1947
 5762SOL    HW128748   4.279   3.161   7.569 -1.3376  0.5942 -1.6523
 5762SOL    HW228749   4.384   3.265   7.589  0.3165 -0.1795 -0.3014
 5763SOL     OW28750   1.627   3.649   7.924 -0.0085 -0.9724 -0.0031
 5763SOL    HW128751   1.598   3.671   7.835  0.2670  0.5874  0.3071
 5763SOL    HW228752   1.722   3.635   7.918  0.1694  0.2545  0.0863
 5764SOL     OW28753   1.926   3.514   5.404 -0.3440  0.0825 -0.6010
 5764SOL    HW128754   1.887   3.576   5.343 -1.0193 -0.0588 -0.3163
 5764SOL    HW228755   1.844   3.466   5.415  1.3802 -2.7382  0.1416
 5765SOL     OW28756   0.294   4.017   0.315 -0.3470 -0.3769  0.3282
 5765SOL    HW128757   0.377   4.001   0.271  0.6880  0.3538  2.0287
 5765SOL    HW228758   0.266   3.932   0.349 -3.3052 -0.7030 -2.8235
 5766SOL     OW28759   0.929   0.824   4.266 -0.0126  0.0313 -0.1440
 5766SOL    HW128760   0.963   0.912   4.278 -0.4704  0.7157 -3.9596
 5766SOL    HW228761   1.010   0.780   4.292 -0.0474 -0.0102 -0.1050
 5767SOL     OW28762   1.853   4.488  15.874  0.0690  0.5058  0.0782
 5767SOL    HW128763   1.889   4.427  15.809  0.9358  0.3946  0.6603
 5767SOL    HW228764   1.767   4.450  15.891  0.4420 -1.8655 -3.3325
 5768SOL     OW28765   0.038   4.564   9.240  0.3818 -0.0304 -0.0893
 5768SOL    HW128766   0.081   4.482   9.265  3.8095  1.7701 -0.0589
 5768SOL    HW228767   0.036   4.551   9.145  1.5223  2.7527 -0.5024
 5769SOL     OW28768   1.860   2.242   9.586 -0.0764  0.5134 -0.4688
 5769SOL    HW128769   1.923   2.226   9.515  0.2026 -2.1595  0.3564
 5769SOL    HW228770   1.894   2.189   9.658 -2.5159 -0.3045  0.0888
 5770SOL     OW28771   1.226   0.841  12.288  0.4087 -0.5339  0.4394
 5770SOL    HW128772   1.169   0.816  12.361 -0.4914 -1.9360 -0.7311
 5770SOL    HW228773   1.296   0.778  12.300  0.8657 -0.1988 -0.4533
 5771SOL     OW28774   1.995   3.961  13.142 -0.4451  0.3103 -0.3964
 5771SOL    HW128775   2.009   3.866  13.146  2.2011  0.6897 -0.1505
 5771SOL    HW228776   1.903   3.973  13.164 -0.0568  1.2021  0.7363
 5772SOL     OW28777   1.756   4.591   3.844 -0.0461 -0.0797  0.2602
 5772SOL    HW128778   1.675   4.630   3.877  0.8230 -0.8913  3.3858
 5772SOL    HW228779   1.717   4.522   3.792 -2.0936 -0.1514  1.8805
 5773SOL     OW28780   3.187   1.063  12.747 -0.1079 -0.7794 -0.3863
 5773SOL    HW128781   3.272   1.093  12.779  0.0417 -1.3208 -0.2866
 5773SOL    HW228782   3.123   1.128  12.777  2.6775  1.2604  1.0822
 5774SOL     OW28783   2.839   2.537   6.091  0.3288  0.4508 -0.2596
 5774SOL    HW128784   2.813   2.619   6.049  0.5841  0.6830  0.0367
 5774SOL    HW228785   2.934   2.550   6.083  0.8401 -2.3831  1.4379
 5775SOL     OW28786   2.175   0.432   2.065  0.5695 -0.2207 -0.0894
 5775SOL    HW128787   2.150   0.343   2.040 -1.0606 -0.0666  1.0101
 5775SOL    HW228788   2.126   0.428   2.146  1.1382 -0.4507  0.2437
 5776SOL     OW28789   2.239   1.951   2.475 -0.0454 -0.0122  0.9171
 5776SOL    HW128790   2.177   2.001   2.422  1.7024  1.4615  0.2309
 5776SOL    HW228791   2.237   1.866   2.432  0.3839 -0.7986  2.4513
 5777SOL     OW28792   1.647   2.746   4.244 -0.1493 -0.0193  0.0774
 5777SOL    HW128793   1.732   2.789   4.252  0.2579 -0.4009 -2.3457
 5777SOL    HW228794   1.677   2.679   4.182 -0.6124 -1.6353  1.5984
 5778SOL     OW28795   2.435   1.745   7.907  0.0003  0.0388 -0.2452
 5778SOL    HW128796   2.489   1.666   7.919  2.0325  1.4668  0.0048
 5778SOL    HW228797   2.490   1.809   7.953  1.9004  0.5237 -3.2283
 5779SOL     OW28798   1.638   2.197   3.044 -0.1757 -0.6521  0.1479
 5779SOL    HW128799   1.613   2.243   3.124 -0.6039  0.4901 -0.6427
 5779SOL    HW228800   1.731   2.180   3.056  0.0273 -1.1748 -2.2049
 5780SOL     OW28801   2.461   2.644   1.778  0.2657 -0.2613  0.7573
 5780SOL    HW128802   2.494   2.579   1.840  1.3792 -1.4491 -1.0791
 5780SOL    HW228803   2.381   2.600   1.750  0.3880 -1.1936  1.8761
 5781SOL     OW28804   4.031   1.979   3.165 -0.0189 -0.1614  0.1425
 5781SOL    HW128805   4.088   1.908   3.135  1.1279  0.8188  0.0070
 5781SOL    HW228806   3.984   2.012   3.089 -1.0316  0.9072  1.2409
 5782SOL     OW28807   2.788   1.701  10.077  0.3414  0.0481 -0.1843
 5782SOL    HW128808   2.718   1.725  10.138 -0.6988  0.4971 -1.5405
 5782SOL    HW228809   2.815   1.785  10.039 -1.2670 -0.7400 -3.0606
 5783SOL     OW28810   1.721   3.184   6.154  0.4039 -0.1370 -0.0969
 5783SOL    HW128811   1.808   3.212   6.185  0.8274  1.8316 -3.0277
 5783SOL    HW228812   1.742   3.162   6.063  2.0943  1.7425 -0.1746
 5784SOL     OW28813   3.609   4.433   0.921  0.1222  0.5537 -0.3074
 5784SOL    HW128814   3.531   4.479   0.951 -0.5959 -0.6135 -0.3603
 5784SOL    HW228815   3.644   4.502   0.866 -1.1413 -0.1463 -1.9960
 5785SOL     OW28816   2.385   4.369   8.370 -0.3550 -0.2387 -0.1607
 5785SOL    HW128817   2.437   4.289   8.360 -1.6103 -1.0042 -0.5002
 5785SOL    HW228818   2.422   4.394   8.455  2.8246 -0.1327 -1.5527
 5786SOL     OW28819   1.053   3.577   7.009  0.4109  0.0559  0.2889
 5786SOL    HW128820   1.106   3.563   7.087 -2.3247  1.3087  2.3714
 5786SOL    HW228821   0.999   3.498   7.008  1.8276 -0.8971 -0.2125
 5787SOL     OW28822   2.733   1.929   5.484 -0.0804  0.0008 -0.3327
 5787SOL    HW128823   2.713   2.005   5.429 -2.7931 -1.5498 -1.4539
 5787SOL    HW228824   2.825   1.922   5.459  0.0018 -1.8222  0.4555
 5788SOL     OW28825   4.065   2.195  13.582 -0.5391 -0.9147  0.4278
 5788SOL    HW128826   4.161   2.190  13.582 -0.5122 -0.5125  1.6700
 5788SOL    HW228827   4.056   2.291  13.585  3.3666 -0.4438 -2.7852
 5789SOL     OW28828   2.819   1.137  12.572  0.0840 -0.3756  0.6831
 5789SOL    HW128829   2.737   1.130  12.620 -0.2848 -0.0070  0.1071
 5789SOL    HW228830   2.877   1.149  12.647  0.5233 -0.0713  0.3010
 5790SOL     OW28831   2.486   4.588   4.563 -0.1100 -0.4578 -0.1723
 5790SOL    HW128832   2.487   4.683   4.558 -0.9528 -0.3150  2.0231
 5790SOL    HW228833   2.520   4.563   4.477 -0.0025  1.2155 -0.6039
 5791SOL     OW28834   1.886   0.960   9.006  0.1906  0.5203 -0.4603
 5791SOL    HW128835   1.901   0.867   9.025  0.6664  0.7189  0.1207
 5791SOL    HW228836   1.977   0.991   9.004  0.2671  0.3989  1.1268
 5792SOL     OW28837   2.052   3.684  12.890  0.5226 -0.1484 -0.0480
 5792SOL    HW128838   2.128   3.659  12.837 -0.7203  1.8052 -2.6804
 5792SOL    HW228839   2.049   3.779  12.885  0.3757 -0.1157  0.6103
 5793SOL     OW28840   1.354   3.719   5.831  0.0988 -0.7076 -0.1813
 5793SOL    HW128841   1.433   3.666   5.816 -0.7475 -2.0730  0.1924
 5793SOL    HW228842   1.397   3.802   5.809 -1.1679 -0.0625 -0.1796
 5794SOL     OW28843   1.770   3.655  14.964  0.2510 -0.7343 -0.5688
 5794SOL    HW128844   1.801   3.594  15.031  0.3412  0.0003  0.0526
 5794SOL    HW228845   1.692   3.602  14.947 -1.9975  2.0063  1.2367
 5795SOL     OW28846   3.800   0.709   5.199  1.0958  0.0116  0.3399
 5795SOL    HW128847   3.765   0.798   5.200 -1.4917 -1.0201  1.1715
 5795SOL    HW228848   3.726   0.658   5.231  0.7783 -0.2831 -0.8796
 5796SOL     OW28849   4.251   2.435  16.177 -0.1855 -0.9624 -0.2622
 5796SOL    HW128850   4.300   2.503  16.222  1.3268  0.2296 -3.7305
 5796SOL    HW228851   4.284   2.434  16.087  1.6971 -1.5169  0.4422
 5797SOL     OW28852   2.231   0.603   4.886 -0.0486  0.2418  0.2043
 5797SOL    HW128853   2.172   0.605   4.961  0.0148 -1.8707  0.2988
 5797SOL    HW228854   2.234   0.509   4.870 -1.2772 -0.0337  1.6404
 5798SOL     OW28855   0.133   2.955   9.007 -0.3272 -0.6959  0.3020
 5798SOL    HW128856   0.057   3.005   9.035  1.3158 -0.9086  5.1380
 5798SOL    HW228857   0.154   3.004   8.927  1.0665 -1.5663  0.1226
 5799SOL     OW28858   1.750   3.018   9.787 -0.0293 -0.1256  0.5344
 5799SOL    HW128859   1.685   3.020   9.717 -1.5946  1.2283  2.0240
 5799SOL    HW228860   1.811   2.954   9.752 -0.3269 -0.1024 -0.0298
 5800SOL     OW28861   1.602   3.916   8.448  0.4440  0.1311 -0.3870
 5800SOL    HW128862   1.692   3.889   8.431  1.0616  0.9821  1.4578
 5800SOL    HW228863   1.618   4.009   8.463 -1.3863  0.5182 -0.8842
 5801SOL     OW28864   3.153   4.696   8.131 -0.1347  0.1953  0.4151
 5801SOL    HW128865   3.232   4.712   8.184 -0.1156 -2.3997  1.1438
 5801SOL    HW228866   3.144   0.050   8.078  4.5494  1.7682  1.9562
 5802SOL     OW28867   2.981   4.237  11.065  0.4233  0.1375  0.8203
 5802SOL    HW128868   3.053   4.192  11.108 -0.7579 -0.8319  1.7700
 5802SOL    HW228869   3.032   4.287  11.001 -0.0069  0.9735  1.1216
 5803SOL     OW28870   0.254   1.112   2.404  0.0783 -0.7232 -0.5526
 5803SOL    HW128871   0.326   1.174   2.403 -0.0316 -0.6273 -1.8098
 5803SOL    HW228872   0.300   1.038   2.444 -1.4482 -1.6133 -0.4381
 5804SOL     OW28873   2.573   2.325   5.223 -0.2860  0.2618  0.5943
 5804SOL    HW128874   2.566   2.421   5.216  2.5502  0.4146 -0.3443
 5804SOL    HW228875   2.563   2.296   5.133 -1.8294  4.3771 -0.5667
 5805SOL     OW28876   4.401   3.387   6.151  0.0009 -0.8785 -0.2273
 5805SOL    HW128877   4.425   3.476   6.125 -0.6683 -0.4449  0.6458
 5805SOL    HW228878   4.479   3.332   6.155  1.5356  1.2902 -0.3345
 5806SOL     OW28879   3.093   3.887   7.077  0.1984  0.1031  0.0609
 5806SOL    HW128880   3.164   3.927   7.027  0.1918 -1.2803 -1.0696
 5806SOL    HW228881   3.059   3.962   7.125  0.9255  0.4862 -0.0152
 5807SOL     OW28882   2.825   2.215   6.448  0.1211  0.7348 -0.0032
 5807SOL    HW128883   2.784   2.289   6.403  3.9481  1.2897 -2.5750
 5807SOL    HW228884   2.812   2.236   6.541  2.5003 -2.8381  1.1312
 5808SOL     OW28885   1.613   4.011   8.816 -0.2676 -0.3357  0.2075
 5808SOL    HW128886   1.544   3.976   8.760 -0.4505 -0.1089  0.2919
 5808SOL    HW228887   1.658   4.073   8.758 -1.1052  0.0321 -0.0469
 5809SOL     OW28888   4.536   4.220  15.557 -0.0522  0.4858 -0.2857
 5809SOL    HW128889   4.605   4.158  15.580  0.4489  0.9076 -0.6451
 5809SOL    HW228890   4.556   4.229  15.464  0.7708 -2.5243 -0.4120
 5810SOL     OW28891   4.316   2.448   4.863  0.0528  0.4136  0.4641
 5810SOL    HW128892   4.393   2.425   4.811 -0.2254  0.6993 -0.0833
 5810SOL    HW228893   4.244   2.404   4.818  1.2761  0.6798 -1.7481
 5811SOL     OW28894   1.213   4.455   5.807 -0.4330  0.1289 -0.5067
 5811SOL    HW128895   1.139   4.402   5.775 -2.4895  2.4503  0.3782
 5811SOL    HW228896   1.160   4.523   5.849 -0.6512 -0.4560  0.1653
 5812SOL     OW28897   1.675   0.289   2.452  0.2822  0.5666  0.4584
 5812SOL    HW128898   1.597   0.235   2.442  0.2147  1.1123 -1.8165
 5812SOL    HW228899   1.658   0.358   2.388  0.8936  0.3480  0.0566
 5813SOL     OW28900   4.442   3.027   6.004  0.3346 -0.0276 -0.3214
 5813SOL    HW128901   4.413   2.949   6.050  1.2727 -0.6102 -0.7072
 5813SOL    HW228902   4.495   3.087   6.057  1.3520  0.1757 -1.5597
 5814SOL     OW28903   4.590   4.531   8.180 -0.7738  0.3561  0.9392
 5814SOL    HW128904   4.559   4.476   8.108 -1.5007  0.1661  1.3914
 5814SOL    HW228905   4.686   4.528   8.175 -0.8251  0.0759  0.1341
 5815SOL     OW28906   3.382   2.312   7.216  0.2644 -0.5675 -0.2151
 5815SOL    HW128907   3.396   2.324   7.310  1.6373 -1.1110 -0.3573
 5815SOL    HW228908   3.403   2.219   7.208 -2.4206 -1.3341  1.3524
 5816SOL     OW28909   4.150   0.438  17.568  0.3221  0.4153  0.6864
 5816SOL    HW128910   4.062   0.475  17.565 -0.2710 -1.0046  0.4436
 5816SOL    HW228911   4.142   0.362  17.510  1.3095 -1.0653  2.4796
 5817SOL     OW28912   4.285   2.147   4.175  0.1653  0.6604  0.6892
 5817SOL    HW128913   4.344   2.075   4.153  0.4723  1.2493 -0.4198
 5817SOL    HW228914   4.229   2.147   4.097 -1.0638  0.8503  1.5624
 5818SOL     OW28915   3.703   3.527   3.299 -0.5930  0.1328  0.0205
 5818SOL    HW128916   3.727   3.435   3.289 -2.5175 -0.2336 -1.2901
 5818SOL    HW228917   3.688   3.541   3.392 -2.0276 -1.8335  0.0641
 5819SOL     OW28918   2.173   2.482   7.259 -0.0039  0.3371 -0.0425
 5819SOL    HW128919   2.229   2.529   7.197 -0.3222  0.1434 -0.4801
 5819SOL    HW228920   2.245   2.456   7.316  0.6699  2.8865  0.2543
 5820SOL     OW28921   0.375   3.596   8.928 -0.2864  0.1538  0.2304
 5820SOL    HW128922   0.379   3.691   8.914 -1.4054  0.7023  3.6356
 5820SOL    HW228923   0.295   3.569   8.884 -2.1013  2.8428  1.8292
 5821SOL     OW28924   0.290   1.789  16.860  0.1630  0.3725 -0.1465
 5821SOL    HW128925   0.319   1.728  16.928 -0.0846  2.2404  1.6345
 5821SOL    HW228926   0.197   1.770  16.848 -0.3696  2.8314 -0.0877
 5822SOL     OW28927   2.840   3.263  12.226 -0.2526  0.0346 -0.0634
 5822SOL    HW128928   2.842   3.209  12.305  0.3838  0.4024  0.1800
 5822SOL    HW228929   2.879   3.346  12.255  0.6162 -0.4800  0.2712
 5823SOL     OW28930   1.608   1.979  12.518 -0.0785 -0.1636  0.3330
 5823SOL    HW128931   1.697   2.004  12.544 -0.2102 -0.9800  1.5498
 5823SOL    HW228932   1.625   1.933  12.436 -0.1129  0.0925  0.1841
 5824SOL     OW28933   0.469   3.986   4.048 -0.2618 -0.0235  0.0616
 5824SOL    HW128934   0.417   3.916   4.086 -2.0767  0.7386 -1.0044
 5824SOL    HW228935   0.546   3.930   4.035  1.4554  2.4685 -0.4929
 5825SOL     OW28936   0.306   2.828   8.216 -0.0216 -0.1279  0.1416
 5825SOL    HW128937   0.300   2.836   8.311 -2.2537 -3.5727  0.2626
 5825SOL    HW228938   0.401   2.833   8.201  0.2790 -2.4893  1.2974
 5826SOL     OW28939   1.399   4.666   2.695  0.1436  0.7754 -0.2310
 5826SOL    HW128940   1.407   4.600   2.763 -0.6439  2.4468  1.4933
 5826SOL    HW228941   1.414   0.024   2.740 -1.3627  0.6715  0.4705
 5827SOL     OW28942   0.414   1.478   3.947  0.5475 -0.5320 -0.4399
 5827SOL    HW128943   0.503   1.504   3.922 -0.0447  1.8969 -0.0197
 5827SOL    HW228944   0.409   1.525   4.031  1.7827 -0.3028 -0.4989
 5828SOL     OW28945   2.439   1.648  15.448  0.0200  0.0776  0.6515
 5828SOL    HW128946   2.468   1.568  15.405  0.0318  0.0076  0.7903
 5828SOL    HW228947   2.365   1.605  15.490 -0.8035  0.2273 -0.6285
 5829SOL     OW28948   0.578   0.392  16.048 -0.4597 -0.0249 -0.5169
 5829SOL    HW128949   0.537   0.418  15.966  2.8920  4.4292 -0.8101
 5829SOL    HW228950   0.615   0.472  16.087 -1.2028  0.5363 -0.9799
 5830SOL     OW28951   1.705   1.119   0.312  0.1676 -0.3427 -0.5715
 5830SOL    HW128952   1.765   1.154   0.246 -0.4576  2.1375  0.1749
 5830SOL    HW228953   1.700   1.027   0.288 -1.0561 -1.1482  2.7840
 5831SOL     OW28954   3.599   3.187   9.002 -0.4821 -0.0441  0.3067
 5831SOL    HW128955   3.680   3.150   9.037 -0.7673 -0.0692  0.9398
 5831SOL    HW228956   3.539   3.112   8.997 -0.2641 -0.3033  1.6203
 5832SOL     OW28957   2.439   2.731   3.915 -0.9530 -0.4226 -0.3153
 5832SOL    HW128958   2.359   2.759   3.870  0.1378  2.5837 -0.3710
 5832SOL    HW228959   2.446   2.642   3.881  0.4412  0.2937 -1.8777
 5833SOL     OW28960   1.341   2.703   5.337  0.2229  0.0153 -0.4822
 5833SOL    HW128961   1.345   2.727   5.430  1.6714  0.1300 -0.5661
 5833SOL    HW228962   1.263   2.758   5.328  0.3872  0.0935 -1.3952
 5834SOL     OW28963   0.182   1.884   9.489  0.3221  0.1851  0.4200
 5834SOL    HW128964   0.135   1.837   9.420  0.1350 -0.3962  0.9311
 5834SOL    HW228965   0.152   1.847   9.573  2.7997 -1.0671  0.7442
 5835SOL     OW28966   0.421   2.586   2.996 -0.4129  0.2915  0.3145
 5835SOL    HW128967   0.377   2.548   3.072  1.7134  2.2741  2.4811
 5835SOL    HW228968   0.498   2.529   2.998 -1.9292 -1.8142  0.0694
 5836SOL     OW28969   3.258   3.732   2.737  0.1373  0.3971 -0.0818
 5836SOL    HW128970   3.239   3.786   2.814 -1.7449 -2.7945  1.6899
 5836SOL    HW228971   3.166   3.727   2.710  0.5702 -0.7469 -1.3450
 5837SOL     OW28972   3.349   4.616  16.048 -0.5191  0.1538  0.0876
 5837SOL    HW128973   3.354   4.605  16.143  1.2590  0.2297  0.0042
 5837SOL    HW228974   3.395   4.536  16.022 -1.5963  0.2459 -2.1253
 5838SOL     OW28975   0.913   1.600   5.352 -0.0507  0.3997  0.1563
 5838SOL    HW128976   0.995   1.617   5.305 -0.3136  0.8371 -0.1407
 5838SOL    HW228977   0.848   1.594   5.282  0.2356 -1.0202 -0.0015
 5839SOL     OW28978   2.638   0.525   3.115 -0.4205 -0.1414 -0.4219
 5839SOL    HW128979   2.577   0.594   3.091  1.3165  1.4472 -0.3443
 5839SOL    HW228980   2.581   0.451   3.132 -0.3733 -0.0146  0.3293
 5840SOL     OW28981   4.275   3.724  13.314  0.1038  0.1640 -0.1057
 5840SOL    HW128982   4.327   3.742  13.392  1.3910  0.8790 -1.1348
 5840SOL    HW228983   4.190   3.736  13.357  0.1532 -2.7070  0.8090
 5841SOL     OW28984   0.127   0.208   4.275 -0.0149 -0.2028  0.0327
 5841SOL    HW128985   0.127   0.265   4.198 -2.1891 -0.3487 -0.0851
 5841SOL    HW228986   0.035   0.200   4.301  0.9809  1.4566  4.1107
 5842SOL     OW28987   2.292   3.926   8.305  0.2424 -0.9272  0.1316
 5842SOL    HW128988   2.208   3.883   8.289  0.3169 -0.8875 -0.3766
 5842SOL    HW228989   2.308   3.962   8.217  0.1307 -2.2975 -0.4458
 5843SOL     OW28990   3.229   3.756  12.142  0.3062  0.8238  0.1742
 5843SOL    HW128991   3.251   3.760  12.049 -0.8766  0.3812 -0.1248
 5843SOL    HW228992   3.313   3.752  12.187 -0.7083  0.8742  2.0686
 5844SOL     OW28993   1.092   4.435  10.467  0.1091 -0.4243 -0.1923
 5844SOL    HW128994   1.183   4.463  10.478 -0.0012  0.5503 -1.7900
 5844SOL    HW228995   1.097   4.351  10.512  0.1860  0.0445  0.6698
 5845SOL     OW28996   3.706   0.873   3.934 -0.5548 -0.4054  0.6818
 5845SOL    HW128997   3.672   0.795   3.890  1.9257 -0.4913 -1.1178
 5845SOL    HW228998   3.792   0.837   3.956  0.1781  0.6385 -0.4785
 5846SOL     OW28999   3.382   0.243   2.183  0.1048 -0.0002 -0.7065
 5846SOL    HW129000   3.371   0.309   2.252 -0.5756  0.0182 -0.8342
 5846SOL    HW229001   3.435   0.180   2.232 -1.0226  0.3854  1.0254
 5847SOL     OW29002   0.219   2.305   5.119  0.6802  0.3805  0.2599
 5847SOL    HW129003   0.261   2.248   5.184 -2.0551  0.5587  2.1808
 5847SOL    HW229004   0.276   2.381   5.113 -0.1506  1.0127  0.3171
 5848SOL     OW29005   0.337   3.955   0.694 -0.1955  0.1598 -0.3986
 5848SOL    HW129006   0.354   4.047   0.713 -0.5027 -0.3778  2.5431
 5848SOL    HW229007   0.409   3.940   0.632 -0.5192  0.4840 -0.8511
 5849SOL     OW29008   2.145   1.577  11.547 -0.2362  0.2397  0.4148
 5849SOL    HW129009   2.237   1.557  11.558 -0.8387 -2.1546  1.0487
 5849SOL    HW229010   2.139   1.663  11.589 -2.8581  0.1564  0.2135
 5850SOL     OW29011   3.445   4.625   4.416  0.4722  0.1987  0.0588
 5850SOL    HW129012   3.459   4.700   4.473 -0.1463  0.0660  0.3750
 5850SOL    HW229013   3.438   4.555   4.480 -0.7268 -1.4547 -1.8824
 5851SOL     OW29014   0.731   4.068   1.629  0.0984  0.0641 -0.3832
 5851SOL    HW129015   0.713   4.044   1.720 -2.1888  0.7794 -0.6295
 5851SOL    HW229016   0.668   4.140   1.622  1.8608  1.7321  1.1096
 5852SOL     OW29017   2.790   4.017  10.565 -0.2830 -0.2349  0.0802
 5852SOL    HW129018   2.828   4.105  10.565  2.1840 -1.2970  0.8354
 5852SOL    HW229019   2.834   3.969  10.635 -0.6516  0.5344  0.8487
 5853SOL     OW29020   1.948   1.724  10.464 -0.1977  0.6451  0.3070
 5853SOL    HW129021   1.936   1.731  10.369  1.5173 -0.6838  0.0124
 5853SOL    HW229022   1.910   1.638  10.483 -1.4788  0.7862 -1.5363
 5854SOL     OW29023   2.944   4.177   9.408 -0.2154 -0.2798 -0.7243
 5854SOL    HW129024   2.886   4.106   9.436  0.5318  0.1562  1.9561
 5854SOL    HW229025   2.943   4.237   9.482 -0.3653 -1.5773  0.3154
 5855SOL     OW29026   0.077   4.077   8.667  0.9283 -0.3194 -0.2222
 5855SOL    HW129027   4.711   4.108   8.668  1.0497  0.0671 -2.4026
 5855SOL    HW229028   0.064   3.985   8.648 -0.3598  0.2119 -1.8974
 5856SOL     OW29029   0.981   4.094   7.406 -0.4859  0.4037  0.6121
 5856SOL    HW129030   0.923   4.168   7.389  0.4574  0.3968 -2.7288
 5856SOL    HW229031   0.984   4.043   7.325  0.6729  0.3719  0.6785
 5857SOL     OW29032   0.414   1.380  10.740  0.1715  1.1310  0.0737
 5857SOL    HW129033   0.321   1.362  10.757  0.0970  0.5168 -1.0163
 5857SOL    HW229034   0.444   1.316  10.805  1.2229  2.6993  1.1317
 5858SOL     OW29035   1.676   2.522   3.617 -0.2415  0.7547  0.1632
 5858SOL    HW129036   1.737   2.503   3.688 -1.1490  2.0041  1.2670
 5858SOL    HW229037   1.600   2.483   3.659  0.1165 -0.8235 -0.6448
 5859SOL     OW29038   3.928   2.112   7.209  0.3077  0.2250  0.4813
 5859SOL    HW129039   3.957   2.155   7.129 -2.0467 -0.3978 -0.7303
 5859SOL    HW229040   4.009   2.112   7.260  1.4604  0.7753 -1.3928
 5860SOL     OW29041   4.260   3.882   6.323 -0.2301 -0.1235 -0.1311
 5860SOL    HW129042   4.334   3.931   6.359  0.7831  0.3537 -2.8490
 5860SOL    HW229043   4.194   3.934   6.368 -0.9952 -0.3356 -1.0112
 5861SOL     OW29044   0.945   0.438   2.434 -0.0287 -0.5297 -0.2560
 5861SOL    HW129045   0.966   0.529   2.412  1.1647 -0.5972  0.5587
 5861SOL    HW229046   1.032   0.398   2.441  0.2055 -0.4852 -2.8284
 5862SOL     OW29047   4.161   3.827   1.483 -0.4973 -0.5633 -0.0372
 5862SOL    HW129048   4.189   3.831   1.391  0.5097 -4.0832  0.1052
 5862SOL    HW229049   4.150   3.732   1.488 -0.7002 -0.5122  0.4883
 5863SOL     OW29050   4.443   3.682   0.414 -0.2621  0.5862  0.5962
 5863SOL    HW129051   4.497   3.640   0.347  0.9762 -0.8189  2.4668
 5863SOL    HW229052   4.509   3.717   0.474 -0.5989 -0.6122  1.6848
 5864SOL     OW29053   2.360   3.625   5.690  0.3948 -0.2013  0.3021
 5864SOL    HW129054   2.286   3.575   5.722 -0.8842  1.3875 -0.1749
 5864SOL    HW229055   2.318   3.672   5.618  1.4591 -0.1949 -0.3248
 5865SOL     OW29056   3.701   1.555   3.789 -0.2520  0.1449  0.1663
 5865SOL    HW129057   3.733   1.466   3.782  0.1522  0.0744  3.0516
 5865SOL    HW229058   3.781   1.605   3.801 -0.6234  1.1718 -1.6740
 5866SOL     OW29059   2.776   0.489  16.615  0.5392 -0.1991 -0.3417
 5866SOL    HW129060   2.729   0.475  16.698  0.6654 -2.3432 -0.6366
 5866SOL    HW229061   2.868   0.509  16.630  0.1498  0.8321  0.6633
 5867SOL     OW29062   2.218   1.045   9.481 -0.4286  0.4460 -0.6471
 5867SOL    HW129063   2.124   1.026   9.480 -0.1366 -1.0594  0.2494
 5867SOL    HW229064   2.232   1.068   9.573 -0.7936 -1.9670  0.0340
 5868SOL     OW29065   1.767   2.582  17.636  0.2833  0.2041 -0.0440
 5868SOL    HW129066   1.735   2.635  17.564  2.2586  1.3361 -0.0843
 5868SOL    HW229067   1.707   2.599   0.007  1.3499  0.1054  0.8696
 5869SOL     OW29068   0.882   0.867   5.682  0.1540 -0.1357 -0.5234
 5869SOL    HW129069   0.846   0.916   5.608  1.5320  1.5368 -0.1018
 5869SOL    HW229070   0.937   0.935   5.722  0.6512 -1.1692  0.5473
 5870SOL     OW29071   2.005   4.175  16.263  0.0076  0.1841  0.2223
 5870SOL    HW129072   2.096   4.150  16.277 -0.0991 -0.9886 -1.1374
 5870SOL    HW229073   1.970   4.102  16.212  2.3013 -0.4071 -0.4635
 5871SOL     OW29074   0.861   3.827   5.086  0.0507 -0.5570  0.5047
 5871SOL    HW129075   0.838   3.780   5.006  0.4446  0.4636 -0.2091
 5871SOL    HW229076   0.778   3.872   5.099 -0.3644 -0.7498 -1.4838
 5872SOL     OW29077   1.962   3.816  14.845 -0.3568 -0.0620  0.3882
 5872SOL    HW129078   1.902   3.748  14.876 -1.0213  0.9926  1.4275
 5872SOL    HW229079   1.901   3.867  14.790  0.0702 -0.0873 -0.1071
 5873SOL     OW29080   2.113   4.310  12.294 -0.0847 -0.1442  0.6434
 5873SOL    HW129081   2.163   4.390  12.275 -1.1194  0.2562 -0.3364
 5873SOL    HW229082   2.152   4.245  12.235 -1.8730 -2.2581  1.8023
 5874SOL     OW29083   2.693   2.805   3.623 -0.3043  0.2053 -0.1496
 5874SOL    HW129084   2.628   2.871   3.599 -0.6401  0.0262  0.2842
 5874SOL    HW229085   2.765   2.845   3.575 -0.4535 -0.0744 -0.6093
 5875SOL     OW29086   0.432   2.827   9.002  0.8705  0.4292 -0.5821
 5875SOL    HW129087   0.364   2.893   8.992 -0.0779 -0.0467  2.7661
 5875SOL    HW229088   0.504   2.879   8.968  0.1863  2.0030  0.3766
 5876SOL     OW29089   2.872   1.906   0.148 -0.4741 -0.5559  0.2261
 5876SOL    HW129090   2.942   1.867   0.200 -0.5019 -2.5273 -1.1982
 5876SOL    HW229091   2.876   1.999   0.170 -2.0549 -0.5806  0.6265
 5877SOL     OW29092   0.378   2.269  10.878  0.4050  0.1170  0.3958
 5877SOL    HW129093   0.444   2.218  10.925 -0.0459  1.5590  2.5661
 5877SOL    HW229094   0.427   2.260  10.796  4.0805 -2.0931  2.8368
 5878SOL     OW29095   3.478   3.471   1.337  0.2743 -0.2968 -0.2046
 5878SOL    HW129096   3.571   3.476   1.316  0.2557 -0.5845 -0.3471
 5878SOL    HW229097   3.467   3.535   1.408 -0.1226 -0.7807  0.1763
 5879SOL     OW29098   2.259   1.855   9.547  0.1872  0.0529 -0.0461
 5879SOL    HW129099   2.331   1.837   9.486 -0.6564 -0.4660 -0.8850
 5879SOL    HW229100   2.298   1.833   9.632  0.5396 -2.2404 -0.8123
 5880SOL     OW29101   3.353   3.731   4.189 -0.2952  0.0862  0.1182
 5880SOL    HW129102   3.295   3.797   4.152 -0.7283 -0.4134 -0.0934
 5880SOL    HW229103   3.293   3.659   4.204  0.6561 -1.0423 -1.4710
 5881SOL     OW29104   0.327   0.092  17.265 -0.0739  0.0488  0.5275
 5881SOL    HW129105   0.231   0.102  17.265 -0.1723 -0.8923  0.5114
 5881SOL    HW229106   0.356   0.063  17.352  2.8474  0.9044 -0.1735
 5882SOL     OW29107   1.541   2.613   0.065  0.3872 -0.3344 -0.3483
 5882SOL    HW129108   1.475   2.550   0.094  0.4701 -1.2539 -2.1746
 5882SOL    HW229109   1.556   2.665   0.144 -1.6949 -0.7383  0.3246
 5883SOL     OW29110   0.133   3.397   1.899 -0.5560 -0.1373 -0.2073
 5883SOL    HW129111   0.114   3.470   1.959  0.8909 -0.6693  0.8926
 5883SOL    HW229112   0.135   3.447   1.817  0.3776  2.1628  1.2057
 5884SOL     OW29113   3.512   3.525  11.538  0.3156 -0.3684  0.1817
 5884SOL    HW129114   3.580   3.584  11.504 -0.2804  0.9385  1.2644
 5884SOL    HW229115   3.565   3.459  11.582  0.7579  0.0649  0.2924
 5885SOL     OW29116   0.696   3.089   8.375 -0.8492  1.2011 -0.5492
 5885SOL    HW129117   0.656   3.025   8.317  2.9609 -0.2180 -1.6243
 5885SOL    HW229118   0.667   3.064   8.463 -1.7366  0.5419 -1.0331
 5886SOL     OW29119   4.000   1.254   4.008 -0.1317  0.8114  0.0335
 5886SOL    HW129120   3.919   1.305   4.012 -0.2000  0.6132  1.0402
 5886SOL    HW229121   4.015   1.241   3.914  2.0100  0.5524  0.4256
 5887SOL     OW29122   2.359   4.461   0.134  0.3049 -0.1591 -0.2625
 5887SOL    HW129123   2.339   4.506   0.051 -0.4336  1.0090  0.5524
 5887SOL    HW229124   2.371   4.538   0.189 -0.5405 -0.6827  0.6440
 5888SOL     OW29125   3.015   4.721   1.855  0.4617 -0.1847  0.2574
 5888SOL    HW129126   3.066   0.041   1.922  0.2718 -1.8850  1.5619
 5888SOL    HW229127   2.949   0.057   1.824  0.3811 -0.5678 -0.3419
 5889SOL     OW29128   1.415   0.295   4.202 -0.1856 -0.0292  0.2468
 5889SOL    HW129129   1.481   0.229   4.227  0.0542  1.4461  3.4727
 5889SOL    HW229130   1.426   0.343   4.284  0.4755  3.7735 -2.1110
 5890SOL     OW29131   0.858   0.176   7.320  0.0725 -0.5260  0.1660
 5890SOL    HW129132   0.950   0.194   7.341 -0.1260  0.6046  0.0510
 5890SOL    HW229133   0.851   0.082   7.341  1.3822 -0.8200 -0.7057
 5891SOL     OW29134   0.439   0.975   7.657 -0.4475 -0.3520 -0.3074
 5891SOL    HW129135   0.526   0.958   7.621 -0.3428  0.2389 -0.3360
 5891SOL    HW229136   0.407   0.886   7.671 -1.3377  0.2166  1.3095
 5892SOL     OW29137   3.476   1.748   4.301  0.0993 -0.3306 -0.0263
 5892SOL    HW129138   3.572   1.753   4.295  0.2533 -1.1384  1.7194
 5892SOL    HW229139   3.452   1.775   4.212  1.0479  0.6618  0.0108
 5893SOL     OW29140   3.693   3.746   2.614  0.0773 -0.0112 -0.0785
 5893SOL    HW129141   3.664   3.658   2.593 -0.6264  0.3674 -0.6831
 5893SOL    HW229142   3.787   3.745   2.599  0.2661 -0.8403  1.1533
 5894SOL     OW29143   3.390   0.106   7.637 -0.1699 -0.6333 -0.2753
 5894SOL    HW129144   3.415   0.056   7.559 -1.1943  0.3860 -1.2622
 5894SOL    HW229145   3.449   0.181   7.635 -0.7515 -0.1764 -0.3646
 5895SOL     OW29146   2.178   1.843   5.490  0.0393 -0.2384 -0.4979
 5895SOL    HW129147   2.085   1.832   5.507 -0.0936  0.0128 -1.0553
 5895SOL    HW229148   2.171   1.906   5.419 -3.0546 -0.4065 -0.3133
 5896SOL     OW29149   2.335   1.125   8.397 -0.1233 -0.1816  0.1501
 5896SOL    HW129150   2.411   1.131   8.339 -0.7583 -2.7294 -0.9038
 5896SOL    HW229151   2.326   1.030   8.404  0.6594 -0.2582  0.0954
 5897SOL     OW29152   1.571   0.990   1.421 -0.7106 -0.1615  0.2727
 5897SOL    HW129153   1.595   0.915   1.366 -1.6727  1.1422 -1.9482
 5897SOL    HW229154   1.502   1.023   1.362 -0.0140 -0.5202 -0.7500
 5898SOL     OW29155   0.186   2.867  14.698  0.0994  0.1996 -0.1053
 5898SOL    HW129156   0.258   2.825  14.652  0.2237 -0.0603  0.3250
 5898SOL    HW229157   0.218   2.851  14.787  2.5630 -0.2899 -1.0806
 5899SOL     OW29158   2.689   4.283   7.871  0.5599 -0.0964  0.0838
 5899SOL    HW129159   2.696   4.188   7.875  1.1050 -0.2290 -4.0245
 5899SOL    HW229160   2.725   4.302   7.957  0.1189 -0.2803  0.3114
 5900SOL     OW29161   2.281   0.205   6.041  0.1340  0.5430  0.2164
 5900SOL    HW129162   2.258   0.152   6.117  2.3383 -1.2287 -0.3755
 5900SOL    HW229163   2.321   0.136   5.988 -0.3402  0.6304 -0.2593
 5901SOL     OW29164   0.202   2.932   6.293 -0.1858  0.5284  0.6664
 5901SOL    HW129165   0.252   2.966   6.220 -0.9797 -0.0308 -0.1341
 5901SOL    HW229166   0.278   2.905   6.344 -0.0803  0.5642  0.5240
 5902SOL     OW29167   2.292   1.649  12.068  0.0763  0.6323  0.0853
 5902SOL    HW129168   2.329   1.563  12.090 -2.7435 -0.1622  1.6841
 5902SOL    HW229169   2.371   1.703  12.073  0.1807  0.6250 -1.3071
 5903SOL     OW29170   2.873   2.033   4.853 -0.7810 -0.4577  0.0853
 5903SOL    HW129171   2.792   2.010   4.807 -0.7806 -0.7337  0.2218
 5903SOL    HW229172   2.834   2.044   4.940  0.0014  1.8775  0.1485
 5904SOL     OW29173   2.218   2.555   4.313  0.3429  0.6242  0.2758
 5904SOL    HW129174   2.258   2.636   4.282  2.1987 -0.9740 -1.5086
 5904SOL    HW229175   2.281   2.498   4.270  0.6288  1.0922  0.0739
 5905SOL     OW29176   3.980   1.865   8.852  0.5566 -0.1628  0.6265
 5905SOL    HW129177   3.984   1.939   8.912 -1.4503  0.6815 -0.2704
 5905SOL    HW229178   3.899   1.827   8.886  0.0524 -0.1521 -0.5431
 5906SOL     OW29179   0.134   4.124   2.664  0.6277  0.3918  0.2210
 5906SOL    HW129180   0.221   4.100   2.694  0.3042  0.4906  1.2327
 5906SOL    HW229181   0.146   4.175   2.583 -2.5025 -0.6243 -0.8713
 5907SOL     OW29182   2.753   4.475  17.236  0.0359  0.0943 -0.3115
 5907SOL    HW129183   2.788   4.401  17.286  0.5676  0.4416 -0.1642
 5907SOL    HW229184   2.779   4.547  17.293  1.0677 -2.1086  2.0347
 5908SOL     OW29185   0.369   3.658   7.037 -0.1201 -0.0939 -0.2071
 5908SOL    HW129186   0.378   3.657   6.941  1.0434 -1.1004 -0.0862
 5908SOL    HW229187   0.298   3.594   7.042 -1.1113  1.0934  0.7499
 5909SOL     OW29188   2.659   0.721   1.527  0.1829 -0.1329 -0.0374
 5909SOL    HW129189   2.644   0.628   1.513 -0.7469  0.4228 -2.8180
 5909SOL    HW229190   2.569   0.747   1.506  0.0979 -0.0162  0.4904
 5910SOL     OW29191   4.653   1.677   7.234 -0.2453  0.4293 -0.7690
 5910SOL    HW129192   4.714   1.692   7.162  0.5745  1.5704  0.1728
 5910SOL    HW229193   4.635   1.583   7.234 -2.9368  0.9289 -1.5899
 5911SOL     OW29194   1.050   4.515   4.631  0.2520  0.5234  0.1180
 5911SOL    HW129195   1.110   4.448   4.597  0.5233  1.0737 -0.4821
 5911SOL    HW229196   1.002   4.458   4.691 -0.2426 -0.8638 -1.5813
 5912SOL     OW29197   2.743   2.067  17.634 -0.0708  0.3950 -0.0554
 5912SOL    HW129198   2.748   2.092   0.025 -2.8027 -3.0425  1.0349
 5912SOL    HW229199   2.810   2.129  17.605 -0.8967  2.2079  1.8948
 5913SOL     OW29200   0.860   0.128   4.894 -0.1879 -0.4186  0.3608
 5913SOL    HW129201   0.770   0.140   4.866  0.5352  0.2729 -1.6169
 5913SOL    HW229202   0.854   0.142   4.989 -0.4150 -1.5193  0.5097
 5914SOL     OW29203   0.275   4.627   9.939 -0.0262 -0.6982 -0.3495
 5914SOL    HW129204   0.291   4.711   9.897 -0.3376  0.4871  1.9208
 5914SOL    HW229205   0.181   4.620   9.954  0.1446  0.4707  1.2761
 5915SOL     OW29206   3.264   0.405   5.726  0.0415  0.3240  0.6117
 5915SOL    HW129207   3.358   0.391   5.738  0.5919  2.7035 -0.9799
 5915SOL    HW229208   3.264   0.500   5.729  0.3610  0.3900 -1.0145
 5916SOL     OW29209   0.378   3.480   3.365  0.5146  0.8928 -0.7849
 5916SOL    HW129210   0.406   3.507   3.278 -1.3416  2.2472 -0.9615
 5916SOL    HW229211   0.414   3.553   3.415  0.6489  0.0147  0.4025
 5917SOL     OW29212   3.310   4.676   3.178 -0.0360  0.0064  0.0927
 5917SOL    HW129213   3.365   4.627   3.239  0.9588  2.1653  0.9378
 5917SOL    HW229214   3.306   4.622   3.099  0.6744  0.9736 -0.6156
 5918SOL     OW29215   1.900   2.205   3.054  0.1023 -0.2334 -0.0640
 5918SOL    HW129216   1.931   2.158   2.977  2.6975  1.7741 -0.2303
 5918SOL    HW229217   1.965   2.181   3.120  1.0108 -0.7876 -1.1623
 5919SOL     OW29218   0.687   3.400  10.082  0.1480 -0.4580  0.0775
 5919SOL    HW129219   0.709   3.486  10.117  0.8164 -1.1465  1.3547
 5919SOL    HW229220   0.775   3.364  10.072  1.0335  2.4305 -2.1790
 5920SOL     OW29221   1.061   2.346   5.863  0.0079 -0.1004  0.6568
 5920SOL    HW129222   1.077   2.269   5.809  0.9387  1.4551 -1.2989
 5920SOL    HW229223   1.077   2.420   5.804 -1.0807 -0.3915 -0.0079
 5921SOL     OW29224   3.466   3.974  10.932 -0.2527  0.1327  0.1358
 5921SOL    HW129225   3.508   3.910  10.875 -2.6780 -2.0611  0.7733
 5921SOL    HW229226   3.389   3.929  10.969 -1.9228  0.4272 -3.0177
 5922SOL     OW29227   2.299   1.623  10.070  0.2958  0.3704 -0.6317
 5922SOL    HW129228   2.261   1.709  10.090 -2.2640 -0.8122 -0.3954
 5922SOL    HW229229   2.229   1.573  10.028  1.7691 -0.7033 -1.7992
 5923SOL     OW29230   0.912   0.390   1.491  0.5557 -0.0307  0.1210
 5923SOL    HW129231   0.920   0.299   1.519 -1.1634  0.3280  1.8075
 5923SOL    HW229232   0.846   0.380   1.423 -0.4602  1.0180  0.9465
 5924SOL     OW29233   3.420   1.271   0.954 -0.2714 -0.1794 -1.2274
 5924SOL    HW129234   3.401   1.358   0.919  2.9344  1.1873  0.3972
 5924SOL    HW229235   3.511   1.254   0.930 -0.6083 -2.3423 -1.0391
 5925SOL     OW29236   2.767   4.533  16.976  0.6775  0.1863  0.1415
 5925SOL    HW129237   2.845   4.581  16.949  0.8900  0.7206  1.6796
 5925SOL    HW229238   2.798   4.494  17.058 -0.9520 -3.5911 -1.0536
 5926SOL     OW29239   0.311   3.034  12.767  0.4490  0.2200 -0.1737
 5926SOL    HW129240   0.406   3.036  12.757  0.3843 -0.9409 -0.8858
 5926SOL    HW229241   0.296   2.941  12.785  0.9561  0.5307  1.8540
 5927SOL     OW29242   3.677   1.399   8.250 -0.0011  0.2718 -0.0571
 5927SOL    HW129243   3.608   1.362   8.195 -0.4415 -1.4264  1.6376
 5927SOL    HW229244   3.647   1.482   8.288  0.2005  0.1109  0.4616
 5928SOL     OW29245   0.511   0.175   9.237  0.2427  0.3448  0.2954
 5928SOL    HW129246   0.424   0.135   9.229  0.2422  0.1535  1.2799
 5928SOL    HW229247   0.495   0.221   9.319  0.5253 -0.1483  0.6254
 5929SOL     OW29248   1.211   1.653  15.319  0.3223  0.6506 -0.2028
 5929SOL    HW129249   1.154   1.727  15.296  1.7185  0.5084 -3.9643
 5929SOL    HW229250   1.277   1.707  15.363  1.8940 -0.6808 -0.9502
 5930SOL     OW29251   3.440   2.008   8.612 -0.8522  0.1669 -0.6078
 5930SOL    HW129252   3.483   2.060   8.680  1.7518 -0.4455 -1.7866
 5930SOL    HW229253   3.443   1.921   8.650 -3.5753  0.2809 -0.1620
 5931SOL     OW29254   3.161   4.414   9.654 -0.6873  0.6046  0.3280
 5931SOL    HW129255   3.143   4.500   9.692 -1.5082  0.2894  0.6513
 5931SOL    HW229256   3.074   4.382   9.630 -1.2016  0.8207  1.9290
 5932SOL     OW29257   1.789   1.012   6.192  0.3932  0.3918  0.5639
 5932SOL    HW129258   1.858   1.000   6.127 -0.8139  1.6272 -0.9405
 5932SOL    HW229259   1.713   0.959   6.164  0.2432  0.5992  0.5797
 5933SOL     OW29260   3.637   3.943   6.329 -0.6013 -0.5435  0.4715
 5933SOL    HW129261   3.617   4.025   6.373  0.8006 -0.5669  1.1429
 5933SOL    HW229262   3.614   3.963   6.238  0.0469 -0.3315  0.3592
 5934SOL     OW29263   3.682   0.635   6.800  0.4776 -0.3587  0.1361
 5934SOL    HW129264   3.600   0.637   6.848  0.8816 -1.4810  0.8703
 5934SOL    HW229265   3.671   0.677   6.715 -0.4870 -0.8474  0.0199
 5935SOL     OW29266   1.251   3.335   2.887 -0.1866  0.2427  0.7054
 5935SOL    HW129267   1.294   3.276   2.825 -0.0582  0.6524  0.4085
 5935SOL    HW229268   1.166   3.291   2.878 -0.5023  0.7789  1.0396
 5936SOL     OW29269   0.723   0.753   2.977  0.2276 -0.2543  0.2722
 5936SOL    HW129270   0.785   0.682   2.991  0.5236 -0.0623 -0.0456
 5936SOL    HW229271   0.641   0.704   2.985  0.2196 -0.0398  1.4475
 5937SOL     OW29272   0.200   1.328  11.721  0.0744  0.3572 -0.1705
 5937SOL    HW129273   0.262   1.260  11.695 -0.1997  0.4047 -0.9433
 5937SOL    HW229274   0.210   1.393  11.652 -0.1729  0.7723  0.1862
 5938SOL     OW29275   0.566   1.306   8.876 -0.3126 -0.1810 -0.3970
 5938SOL    HW129276   0.532   1.364   8.807 -1.6776  0.0745  0.4983
 5938SOL    HW229277   0.523   1.341   8.954  0.7792  0.8525 -0.2551
 5939SOL     OW29278   4.136   3.916   3.881  0.0067  0.4002  0.4475
 5939SOL    HW129279   4.128   4.008   3.855 -1.5460  0.1509  0.0806
 5939SOL    HW229280   4.042   3.907   3.895  0.0068 -0.6903 -0.2511
 5940SOL     OW29281   1.428   3.451   0.262  0.4174  0.1981 -0.3458
 5940SOL    HW129282   1.382   3.528   0.294  1.3544  0.8096 -0.4741
 5940SOL    HW229283   1.520   3.476   0.265  0.8238 -0.8897 -4.0017
 5941SOL     OW29284   1.146   3.273  10.351  0.0237  0.3896 -0.1498
 5941SOL    HW129285   1.143   3.194  10.298  0.0788  1.2332 -1.3955
 5941SOL    HW229286   1.096   3.239  10.426  2.1389 -1.4979  0.3710
 5942SOL     OW29287   2.955   1.471   3.025 -0.0941  0.1283 -0.2789
 5942SOL    HW129288   3.025   1.475   2.959  0.1924  1.5030  0.1159
 5942SOL    HW229289   2.991   1.535   3.086 -1.4717  2.0319 -1.4884
 5943SOL     OW29290   1.620   0.674   5.871 -0.0768  0.3231 -0.1085
 5943SOL    HW129291   1.542   0.684   5.816 -0.8182  1.6674  1.1850
 5943SOL    HW229292   1.629   0.579   5.878  1.3120  0.1886 -3.4585
 5944SOL     OW29293   1.752   1.854   9.729  0.7696 -0.0206 -0.7530
 5944SOL    HW129294   1.699   1.846   9.650 -0.1723  1.4342 -0.2499
 5944SOL    HW229295   1.749   1.947   9.747  1.3678 -0.0544 -0.4776
 5945SOL     OW29296   4.413   2.466   3.851 -0.2156  0.0723 -0.6199
 5945SOL    HW129297   4.364   2.487   3.930  0.0676  2.4912 -1.0964
 5945SOL    HW229298   4.408   2.371   3.858  0.7069  0.1074  0.4184
 5946SOL     OW29299   1.284   1.372   2.463 -0.2688  0.1121 -0.0701
 5946SOL    HW129300   1.369   1.362   2.421  0.0129  3.3854 -0.3024
 5946SOL    HW229301   1.220   1.407   2.401 -2.5965  0.7518  2.6546
 5947SOL     OW29302   2.240   1.005   5.124 -0.2204  0.0699 -0.2331
 5947SOL    HW129303   2.319   0.988   5.073 -1.5078 -1.9848 -1.5220
 5947SOL    HW229304   2.257   0.945   5.197 -1.7805  0.3855  0.3763
 5948SOL     OW29305   3.343   4.497   7.038 -0.0726 -0.2620 -0.5045
 5948SOL    HW129306   3.348   4.574   7.094 -0.4769 -0.5508 -0.0708
 5948SOL    HW229307   3.403   4.442   7.089 -0.1394 -0.0904 -0.2407
 5949SOL     OW29308   0.161   1.977   1.599 -0.5107 -1.1315 -0.4457
 5949SOL    HW129309   0.113   1.987   1.681 -0.3486  0.6964 -0.5683
 5949SOL    HW229310   0.204   2.063   1.600 -2.5554 -0.1054 -0.2342
 5950SOL     OW29311   2.515   2.526   8.333  0.1395  0.5064  0.0252
 5950SOL    HW129312   2.545   2.617   8.325 -2.9409  1.6298  0.9248
 5950SOL    HW229313   2.421   2.544   8.339  0.1974  1.2248 -1.0475
 5951SOL     OW29314   2.314   2.550   3.678 -0.1482 -1.1139 -0.0860
 5951SOL    HW129315   2.390   2.540   3.621  0.4478  0.1717  0.4812
 5951SOL    HW229316   2.324   2.468   3.727 -2.5418 -0.8668  0.8269
 5952SOL     OW29317   2.149   1.394   5.204 -0.1804  0.0135 -0.3797
 5952SOL    HW129318   2.213   1.426   5.140  0.1306  0.8668  0.3680
 5952SOL    HW229319   2.204   1.322   5.233  0.0444  0.6205  0.6805
 5953SOL     OW29320   2.900   3.733   7.018 -0.2942  0.6193  0.4042
 5953SOL    HW129321   2.979   3.784   7.037 -0.2701  0.0509  1.8501
 5953SOL    HW229322   2.839   3.788   7.067 -0.2734  1.5169 -0.5894
 5954SOL     OW29323   0.401   2.607   8.826  0.4184 -0.0841  0.9328
 5954SOL    HW129324   0.424   2.693   8.862  1.5962 -0.1909  0.4521
 5954SOL    HW229325   0.386   2.555   8.905  0.0371 -0.5935  0.5252
 5955SOL     OW29326   1.298   4.120  10.379 -0.5451  0.1125 -0.0229
 5955SOL    HW129327   1.248   4.128  10.461  1.5887  0.4078  1.2512
 5955SOL    HW229328   1.384   4.142  10.415 -0.5890 -0.1949  0.2689
 5956SOL     OW29329   0.770   0.140   0.780 -0.3069  0.1673 -0.1156
 5956SOL    HW129330   0.851   0.188   0.765  1.1460 -2.8490 -1.8833
 5956SOL    HW229331   0.749   0.123   0.688  0.6793 -0.8676 -0.1478
 5957SOL     OW29332   2.679   1.866   3.356 -0.2524 -0.5313 -0.8448
 5957SOL    HW129333   2.623   1.929   3.310  0.3768  0.5854 -0.0734
 5957SOL    HW229334   2.720   1.818   3.284  0.4892  0.2714 -0.9635
 5958SOL     OW29335   2.597   2.280  10.704 -0.7125 -0.1799 -0.1887
 5958SOL    HW129336   2.596   2.202  10.760 -0.6419 -0.6932 -0.9049
 5958SOL    HW229337   2.669   2.338  10.730 -0.5923  0.6314 -2.3621
 5959SOL     OW29338   1.698   3.610   0.523  0.1533  0.0433  0.3385
 5959SOL    HW129339   1.670   3.522   0.548 -1.2536  0.5558  0.5687
 5959SOL    HW229340   1.623   3.655   0.562  0.7606  1.6856 -0.4050
 5960SOL     OW29341   2.624   0.014   5.821  0.6379  0.5290  0.4175
 5960SOL    HW129342   2.644   0.025   5.728  1.6961 -0.2938  0.5525
 5960SOL    HW229343   2.599   4.647   5.828  0.5595  0.5179 -0.0270
 5961SOL     OW29344   3.969   0.165  14.560  0.0929 -0.6617 -0.0172
 5961SOL    HW129345   4.050   0.211  14.582 -0.2853 -0.0650  0.1470
 5961SOL    HW229346   3.970   0.180  14.466 -0.2012  1.9147  0.3795
 5962SOL     OW29347   0.524   0.702  13.012 -0.1855  0.3602 -0.1432
 5962SOL    HW129348   0.446   0.670  12.966 -1.2118  1.8901  0.5566
 5962SOL    HW229349   0.585   0.711  12.939 -1.1344 -0.9358 -1.0988
 5963SOL     OW29350   4.521   3.684   9.820  0.3125 -0.1349  0.5136
 5963SOL    HW129351   4.446   3.628   9.799 -0.2370  1.4429 -1.7177
 5963SOL    HW229352   4.588   3.617   9.834 -2.0800 -3.2787 -2.8847
 5964SOL     OW29353   0.862   3.946  14.776 -0.0837 -0.3148  0.0245
 5964SOL    HW129354   0.827   3.875  14.723  0.1554  1.1023 -2.0267
 5964SOL    HW229355   0.954   3.927  14.756  1.0404  2.1933  2.6704
 5965SOL     OW29356   1.210   0.170   8.515 -0.3018 -0.0209  0.6091
 5965SOL    HW129357   1.282   0.182   8.453 -1.0509  0.6202 -0.1356
 5965SOL    HW229358   1.191   0.076   8.513  0.3674 -0.1752  1.3943
 5966SOL     OW29359   3.643   0.547   4.948 -0.2745  0.1223 -0.2580
 5966SOL    HW129360   3.714   0.611   4.952 -0.2418  0.1623 -1.6395
 5966SOL    HW229361   3.693   0.466   4.956 -1.0417 -0.4756 -1.5347
 5967SOL     OW29362   1.835   2.914   1.977 -0.2367  0.5645 -0.0669
 5967SOL    HW129363   1.828   2.819   1.989  0.1665  0.5900  0.3792
 5967SOL    HW229364   1.832   2.921   2.073 -1.1840  1.4799 -0.1631
 5968SOL     OW29365   0.921   3.039  16.484  0.7626  0.6213  0.3383
 5968SOL    HW129366   1.009   3.076  16.477  0.4643  1.3499  0.4513
 5968SOL    HW229367   0.936   2.955  16.527  1.5496 -0.2710 -1.6905
 5969SOL     OW29368   0.270   0.767  11.940  0.2511 -0.6374  0.2971
 5969SOL    HW129369   0.357   0.791  11.910 -0.0902  1.4858  1.0495
 5969SOL    HW229370   0.221   0.775  11.859  0.6166  0.5546  0.1946
 5970SOL     OW29371   1.210   4.409   2.059 -0.3995 -0.1070 -0.5436
 5970SOL    HW129372   1.128   4.396   2.012 -0.8392 -2.5973  0.9159
 5970SOL    HW229373   1.200   4.503   2.073 -1.6581 -0.5881  1.9348
 5971SOL     OW29374   1.204   1.528   4.478 -0.2179  0.4172  0.2506
 5971SOL    HW129375   1.123   1.579   4.483 -0.7569 -0.3929 -0.0813
 5971SOL    HW229376   1.174   1.448   4.523 -1.6641  0.2077 -1.0698
 5972SOL     OW29377   2.638   1.513   4.462  0.1964 -0.2730 -0.1111
 5972SOL    HW129378   2.674   1.571   4.394  0.6146 -0.3150  0.0746
 5972SOL    HW229379   2.687   1.432   4.448  1.0142  0.3430 -0.8414
 5973SOL     OW29380   4.211   4.239   8.688  0.2239 -0.2758  0.0260
 5973SOL    HW129381   4.199   4.159   8.740  2.7863 -0.6237  0.0973
 5973SOL    HW229382   4.120   4.246   8.660  0.0821 -1.0824  0.2813
 5974SOL     OW29383   1.327   0.133   6.931 -0.1377  0.0970  0.0337
 5974SOL    HW129384   1.283   0.197   6.987 -0.0244 -1.8518  2.3216
 5974SOL    HW229385   1.391   0.104   6.996 -1.5672 -2.5691  0.2423
 5975SOL     OW29386   3.457   2.596  13.651 -0.1809  0.1602 -0.4260
 5975SOL    HW129387   3.409   2.518  13.623  0.9497 -1.2413  1.4908
 5975SOL    HW229388   3.509   2.565  13.725 -1.1971 -1.1462 -0.2639
 5976SOL     OW29389   4.015   0.966   5.633  0.2008 -0.2632 -0.2532
 5976SOL    HW129390   4.041   1.058   5.626 -0.9607  0.1016  0.3129
 5976SOL    HW229391   4.083   0.931   5.691 -0.9223  2.4792  2.6759
 5977SOL     OW29392   1.205   4.054   8.829 -0.0253  0.0520 -0.1505
 5977SOL    HW129393   1.242   4.011   8.906  2.7408  0.2978 -1.3610
 5977SOL    HW229394   1.255   4.007   8.763  0.2125  1.5843 -1.0652
 5978SOL     OW29395   1.105   4.135   8.386  0.2943 -0.0180 -0.2785
 5978SOL    HW129396   1.194   4.164   8.403  0.4290 -0.2059 -0.6756
 5978SOL    HW229397   1.061   4.197   8.445 -0.2993  0.7596 -1.5254
 5979SOL     OW29398   2.570   2.319   7.080  0.0404  0.5995  0.0822
 5979SOL    HW129399   2.639   2.346   7.142 -2.0394  1.3677  2.0889
 5979SOL    HW229400   2.567   2.392   7.018  3.7501  0.3946 -0.3508
 5980SOL     OW29401   3.468   1.812   4.651 -0.3749  0.1040 -0.1187
 5980SOL    HW129402   3.544   1.819   4.593  1.8081  2.1585  2.9669
 5980SOL    HW229403   3.410   1.762   4.593  0.1294 -1.2121  0.5004
 5981SOL     OW29404   1.030   4.511   3.707 -0.1801 -0.2336 -0.6160
 5981SOL    HW129405   1.071   4.426   3.689 -0.2574 -0.4155  0.0658
 5981SOL    HW229406   0.941   4.479   3.699  0.1364 -1.3884  0.5936
 5982SOL     OW29407   1.070   2.172   0.968 -0.1844 -0.0262  0.0375
 5982SOL    HW129408   1.060   2.239   0.901  0.4814 -0.8046 -0.8315
 5982SOL    HW229409   1.066   2.092   0.917 -1.5325  0.9972 -1.4280
 5983SOL     OW29410   3.936   3.077   2.511  0.0681 -0.5530 -0.3889
 5983SOL    HW129411   3.854   3.028   2.505 -0.1514 -0.4946  2.2706
 5983SOL    HW229412   3.928   3.119   2.597  1.1842 -0.5802 -0.2761
 5984SOL     OW29413   1.849   4.460   9.044 -0.1364 -0.5149  0.3169
 5984SOL    HW129414   1.809   4.418   9.120  0.5008 -0.3352  0.7516
 5984SOL    HW229415   1.774   4.457   8.985  1.6468 -1.5486 -1.8836
 5985SOL     OW29416   3.817   4.261   1.339  0.2930  0.1915  0.1570
 5985SOL    HW129417   3.774   4.213   1.269 -2.1078  1.1888  0.9347
 5985SOL    HW229418   3.814   4.349   1.301  1.8310 -1.5659 -3.9442
 5986SOL     OW29419   4.550   2.673  11.736 -0.5086 -0.4395 -0.0092
 5986SOL    HW129420   4.591   2.753  11.770 -0.6920 -0.4314  0.1939
 5986SOL    HW229421   4.503   2.710  11.662 -0.5620 -1.3545 -0.4299
 5987SOL     OW29422   0.230   2.353   8.253 -0.2648 -0.5975  0.0927
 5987SOL    HW129423   0.201   2.319   8.169  0.4237 -2.1579  0.4990
 5987SOL    HW229424   0.228   2.279   8.313 -1.3412 -1.8323 -1.4781
 5988SOL     OW29425   3.970   2.115   9.359 -0.2821 -0.5381  0.2862
 5988SOL    HW129426   3.912   2.052   9.316 -0.4589  1.1819 -2.0196
 5988SOL    HW229427   4.047   2.059   9.368  0.7411  1.0852  1.5655
 5989SOL     OW29428   1.448   1.779   8.184 -0.2098 -0.5325 -0.7985
 5989SOL    HW129429   1.501   1.720   8.131  1.9980  1.9767 -1.4004
 5989SOL    HW229430   1.518   1.835   8.218 -0.9535 -0.6099  0.8738
 5990SOL     OW29431   0.736   4.180   4.174 -0.2464 -0.3599  0.3900
 5990SOL    HW129432   0.827   4.206   4.163 -1.7990  4.3622 -1.2215
 5990SOL    HW229433   0.747   4.086   4.192 -2.0615 -1.2348 -2.9356
 5991SOL     OW29434   3.571   0.053   0.182  0.1791  0.4764 -0.0260
 5991SOL    HW129435   3.648   0.010   0.221  0.6291  1.1823 -0.1445
 5991SOL    HW229436   3.597   0.139   0.214  0.8818  0.4492 -0.5314
 5992SOL     OW29437   3.813   1.394  15.510  0.2793 -0.2451  0.3289
 5992SOL    HW129438   3.873   1.466  15.491 -0.6383  0.7886  1.3439
 5992SOL    HW229439   3.871   1.344  15.568 -0.6643 -2.0458 -0.2929
 5993SOL     OW29440   4.722   1.054  17.679 -0.0900  0.3455  0.4532
 5993SOL    HW129441   0.080   1.091   0.006 -0.1374  0.2252  0.7366
 5993SOL    HW229442   4.689   1.138  17.647 -1.7293 -0.5734 -0.2949
 5994SOL     OW29443   1.446   0.804   8.805 -0.1384 -0.0413  0.3553
 5994SOL    HW129444   1.382   0.734   8.816 -2.4058  1.7732 -1.4252
 5994SOL    HW229445   1.396   0.883   8.787  2.2813  1.8880  2.0963
 5995SOL     OW29446   3.519   4.708  10.052 -0.2358 -0.0801 -0.2668
 5995SOL    HW129447   3.489   4.670   9.969  2.5446 -2.7874 -0.0520
 5995SOL    HW229448   3.496   0.072  10.027 -0.1449 -0.0423 -0.2121
 5996SOL     OW29449   1.956   2.357   6.898  0.0061 -0.5893 -0.3044
 5996SOL    HW129450   1.995   2.430   6.946  0.9354 -1.2613 -0.0337
 5996SOL    HW229451   2.011   2.282   6.917  2.1838  1.1554  0.2903
 5997SOL     OW29452   0.656   4.165   8.142 -0.1396  0.8806  0.2597
 5997SOL    HW129453   0.689   4.211   8.064 -0.5840  0.5477 -0.1281
 5997SOL    HW229454   0.603   4.090   8.115 -1.5373  2.8269 -2.4163
 5998SOL     OW29455   3.087   2.064  13.353 -0.3573  0.1815  0.5910
 5998SOL    HW129456   3.099   2.019  13.269 -1.7894 -0.3428  0.6589
 5998SOL    HW229457   3.108   2.004  13.424  0.9533 -0.3180 -0.2132
 5999SOL     OW29458   2.120   3.910   9.011  0.2200  0.2994 -0.0070
 5999SOL    HW129459   2.056   3.847   8.976 -1.8777  2.1779  0.4128
 5999SOL    HW229460   2.206   3.879   8.982 -0.9665 -1.0282 -2.1457
 6000SOL     OW29461   3.288   0.402  10.760 -0.2088  0.2817 -0.0025
 6000SOL    HW129462   3.292   0.316  10.801 -2.7353  0.7748  1.2937
 6000SOL    HW229463   3.227   0.443  10.821  1.0008  1.3912  0.4820
 6001SOL     OW29464   0.439   3.811   8.401 -0.2791  0.5687 -0.3614
 6001SOL    HW129465   0.369   3.827   8.465 -0.0338  0.8838 -0.1730
 6001SOL    HW229466   0.503   3.772   8.460 -0.8726  0.0709 -0.0487
 6002SOL     OW29467   0.334   4.152  16.657  0.1355 -0.2082  0.0132
 6002SOL    HW129468   0.249   4.121  16.688  0.2323 -2.5735 -2.0417
 6002SOL    HW229469   0.337   4.157  16.562  0.4797  3.1410  0.1986
 6003SOL     OW29470   2.682   1.486   7.890 -0.2617 -0.4344 -0.1408
 6003SOL    HW129471   2.728   1.403   7.908  0.3393 -0.0073  0.3042
 6003SOL    HW229472   2.655   1.512   7.978 -1.6510 -3.1878  0.2520
 6004SOL     OW29473   3.956   1.087  12.028  0.1520 -0.3790  0.2394
 6004SOL    HW129474   3.923   1.157  12.084  1.0694 -1.2498  1.8552
 6004SOL    HW229475   4.045   1.120  12.016  0.0335 -0.0503  0.2611
 6005SOL     OW29476   0.283   0.403   1.261 -0.0298 -0.3806 -0.1418
 6005SOL    HW129477   0.305   0.316   1.293  1.2021  0.0452  0.1870
 6005SOL    HW229478   0.189   0.402   1.275 -0.0823 -1.4542 -0.5811
 6006SOL     OW29479   1.266   2.111   8.878  0.2877  0.3822 -0.0154
 6006SOL    HW129480   1.342   2.169   8.888 -1.4978  2.7831 -0.2245
 6006SOL    HW229481   1.210   2.161   8.937  1.6833  0.9514  0.8175
 6007SOL     OW29482   4.400   1.202   7.930  0.0917  0.1355  0.2320
 6007SOL    HW129483   4.374   1.119   7.971 -1.8304 -0.0969 -1.4316
 6007SOL    HW229484   4.327   1.222   7.872 -0.7839 -0.4650  1.1218
 6008SOL     OW29485   2.445   1.006   6.622  0.2321  0.2222  0.8383
 6008SOL    HW129486   2.493   1.059   6.558 -2.7588 -0.2267 -1.7951
 6008SOL    HW229487   2.493   0.923   6.622  0.6321  0.4498 -0.2751
 6009SOL     OW29488   2.677   1.967   5.073  0.2346  0.1909  0.6971
 6009SOL    HW129489   2.703   2.035   5.135  0.4453 -0.1216  0.9565
 6009SOL    HW229490   2.732   1.897   5.108 -0.3540 -0.9139 -0.5781
 6010SOL     OW29491   4.104   1.264   4.447 -0.3419 -0.3314  0.0322
 6010SOL    HW129492   4.023   1.249   4.398 -0.3506  0.6973 -0.2797
 6010SOL    HW229493   4.166   1.201   4.412 -1.3277 -0.2922 -1.8089
 6011SOL     OW29494   1.082   1.299   7.922 -0.4292  0.0039 -0.4174
 6011SOL    HW129495   1.053   1.321   7.833  2.4377  1.1169 -1.0725
 6011SOL    HW229496   1.034   1.217   7.934 -2.0752  1.0513  0.0070
 6012SOL     OW29497   3.246   2.558   8.456  0.4511 -0.0464 -0.0004
 6012SOL    HW129498   3.274   2.519   8.373  2.1289  0.4732  0.3115
 6012SOL    HW229499   3.326   2.542   8.507  0.1296 -1.1581  0.1455
 6013SOL     OW29500   1.296   0.814   1.406 -0.2095 -0.0130 -0.5117
 6013SOL    HW129501   1.259   0.818   1.494  0.7949  1.1331 -0.1398
 6013SOL    HW229502   1.332   0.897   1.375  1.3794  0.1798  1.8365
 6014SOL     OW29503   0.550   0.084   1.709  0.1339 -0.6568 -0.2498
 6014SOL    HW129504   0.525   4.718   1.693  1.7976 -0.8519 -1.6689
 6014SOL    HW229505   0.538   0.088   1.804 -1.8437  2.7683 -0.6124
 6015SOL     OW29506   1.125   0.726   0.640  0.6436  0.1703 -0.1411
 6015SOL    HW129507   1.082   0.797   0.688 -1.5116 -0.8480 -0.5579
 6015SOL    HW229508   1.158   0.779   0.567 -1.5692  0.7018 -0.7573
 6016SOL     OW29509   0.521   0.530   5.154 -0.2633 -0.1289 -0.0315
 6016SOL    HW129510   0.457   0.479   5.205  0.8922 -1.0724  0.4803
 6016SOL    HW229511   0.471   0.578   5.088 -0.9899 -0.7094  0.0911
 6017SOL     OW29512   3.163   4.601  10.021 -0.6046  0.2419  0.1274
 6017SOL    HW129513   3.229   4.667  10.044 -0.6617  0.3028  0.1180
 6017SOL    HW229514   3.156   4.616   9.927 -0.0078  1.3271  0.2519
 6018SOL     OW29515   2.510   1.863   1.540 -0.1603  0.1421 -0.0368
 6018SOL    HW129516   2.553   1.890   1.621 -1.2768 -1.7826  1.2080
 6018SOL    HW229517   2.585   1.843   1.484  0.3327  0.3456  0.5495
 6019SOL     OW29518   0.067   2.038   1.828 -0.1208  0.5420 -0.2655
 6019SOL    HW129519   0.118   2.109   1.868  0.0202 -0.8723  2.1041
 6019SOL    HW229520   4.705   2.061   1.860 -0.1936  0.8443 -0.6859
 6020SOL     OW29521   1.645   0.990   9.687  0.0848  0.1943 -0.1444
 6020SOL    HW129522   1.678   1.027   9.769 -1.3416  0.9549  0.0748
 6020SOL    HW229523   1.584   0.925   9.722 -0.6958  0.8634 -0.2779
 6021SOL     OW29524   1.965   2.484   8.386 -0.1530 -0.5896 -0.6924
 6021SOL    HW129525   1.955   2.448   8.298 -2.7257 -1.1420 -0.1666
 6021SOL    HW229526   1.878   2.467   8.423 -0.3628 -0.2573 -1.0380
 6022SOL     OW29527   3.214   4.156   8.747  0.2247 -0.1920 -0.6626
 6022SOL    HW129528   3.290   4.147   8.689 -1.2484 -3.1336 -2.1101
 6022SOL    HW229529   3.140   4.171   8.688  0.8134 -1.2733 -1.6767
 6023SOL     OW29530   0.751   1.513   3.722  0.2704 -0.5010  0.4632
 6023SOL    HW129531   0.676   1.532   3.666  0.3841 -0.0049  0.4761
 6023SOL    HW229532   0.741   1.580   3.790  1.9419 -1.0072  1.2051
 6024SOL     OW29533   0.182   3.803   2.238 -1.1285  0.2765  0.2447
 6024SOL    HW129534   0.187   3.897   2.217 -0.8584 -0.3264 -2.3314
 6024SOL    HW229535   0.102   3.811   2.291 -0.3007  0.0378  1.5436
 6025SOL     OW29536   4.578   1.218  17.024 -0.7045  0.1919  0.7351
 6025SOL    HW129537   4.571   1.145  16.962  1.1636  0.3600  0.3285
 6025SOL    HW229538   4.671   1.209  17.042 -0.0976  0.3683 -2.2607
 6026SOL     OW29539   1.956   1.496   2.392  0.2364 -0.1068 -0.1198
 6026SOL    HW129540   2.033   1.528   2.438  0.5500 -0.9730 -0.0453
 6026SOL    HW229541   1.965   1.401   2.394  1.4934  0.0084 -0.3916
 6027SOL     OW29542   0.947   3.637   9.108 -0.4759 -0.6845  0.0057
 6027SOL    HW129543   0.864   3.649   9.061 -1.9552 -1.6407  2.4311
 6027SOL    HW229544   1.002   3.651   9.030 -3.5458  0.7836 -1.9243
 6028SOL     OW29545   1.546   2.787   9.759  0.1672 -0.4169 -0.0298
 6028SOL    HW129546   1.637   2.764   9.780 -0.6261 -1.2988  2.4206
 6028SOL    HW229547   1.545   2.768   9.665  1.1501  0.3173 -0.1981
 6029SOL     OW29548   1.259   0.892   2.481  0.4897 -0.3886 -0.3661
 6029SOL    HW129549   1.225   0.839   2.553  1.4266  1.4598  1.4485
 6029SOL    HW229550   1.260   0.829   2.409 -1.8009 -0.1491 -0.6147
 6030SOL     OW29551   0.803   2.649   6.174  0.2425 -0.6416 -0.5689
 6030SOL    HW129552   0.725   2.601   6.202  0.7949 -0.5735  1.1007
 6030SOL    HW229553   0.851   2.584   6.123  1.2005 -0.4456  0.0854
 6031SOL     OW29554   0.343   0.518   1.726 -0.2529  0.3247  0.2896
 6031SOL    HW129555   0.357   0.561   1.642  0.3149 -1.0419 -0.3201
 6031SOL    HW229556   0.340   0.425   1.703  0.8575  0.4554 -0.4033
 6032SOL     OW29557   0.107   3.274  10.193  0.3975  0.6568 -0.3890
 6032SOL    HW129558   0.057   3.271  10.111 -1.2332 -1.7798  0.6924
 6032SOL    HW229559   0.151   3.189  10.185 -1.2438 -0.2039 -0.2763
 6033SOL     OW29560   1.237   1.697   5.516  0.5135 -0.1199 -0.3113
 6033SOL    HW129561   1.245   1.735   5.429 -2.3013 -0.8386 -0.8604
 6033SOL    HW229562   1.163   1.746   5.550  1.8978  0.9638  1.1658
 6034SOL     OW29563   3.837   3.050   8.385 -0.4736  0.3567  0.0907
 6034SOL    HW129564   3.802   3.062   8.297  1.5701  0.7937 -0.6839
 6034SOL    HW229565   3.819   3.134   8.428 -0.0372 -0.6573  2.2540
 6035SOL     OW29566   0.152   0.696  13.119  0.0359 -0.0562  0.4442
 6035SOL    HW129567   0.135   0.605  13.096  0.3246 -0.7777  3.0080
 6035SOL    HW229568   0.127   0.745  13.041 -1.4734 -2.8559 -0.8120
 6036SOL     OW29569   3.418   0.953   3.443  0.1914 -0.6186 -0.2032
 6036SOL    HW129570   3.447   1.004   3.367 -1.0421  0.3615 -0.0080
 6036SOL    HW229571   3.437   0.861   3.422  0.3624 -0.6292  0.0006
 6037SOL     OW29572   1.283   2.511   7.055 -0.1365 -0.2529  0.5193
 6037SOL    HW129573   1.305   2.601   7.078 -0.6808 -0.9943  3.8732
 6037SOL    HW229574   1.348   2.487   6.989  0.6595  2.3757  0.3274
 6038SOL     OW29575   1.032   1.850   5.566  0.3464 -0.2299 -0.3761
 6038SOL    HW129576   0.946   1.811   5.584  1.0380 -1.3430  0.5598
 6038SOL    HW229577   1.019   1.888   5.479 -0.9946  0.5084  0.1549
 6039SOL     OW29578   3.090   1.544   5.646 -0.3957 -0.0659 -0.2221
 6039SOL    HW129579   3.025   1.546   5.715 -0.5969 -2.7103 -0.3386
 6039SOL    HW229580   3.128   1.632   5.652  1.4578 -0.9255  0.7861
 6040SOL     OW29581   4.371   0.123  17.260  0.6161 -0.0362  0.4331
 6040SOL    HW129582   4.334   0.074  17.334 -1.3559 -0.5176 -0.8687
 6040SOL    HW229583   4.410   0.199  17.304  1.6338 -0.8958  1.0255
 6041SOL     OW29584   2.794   0.614  11.363 -0.1636  0.1343 -0.1721
 6041SOL    HW129585   2.738   0.542  11.336 -2.3680  1.5635  0.5387
 6041SOL    HW229586   2.830   0.580  11.444  0.0663 -0.3444 -0.4788
 6042SOL     OW29587   1.745   2.500   5.984  0.2206  0.1405 -0.1217
 6042SOL    HW129588   1.714   2.410   5.971 -0.3060  0.2784  0.1945
 6042SOL    HW229589   1.673   2.547   5.941 -0.7106 -0.0655  1.2099
 6043SOL     OW29590   2.966   3.404   2.253 -0.6282 -0.3334  0.0476
 6043SOL    HW129591   2.975   3.461   2.177  1.7269 -1.5224 -0.5453
 6043SOL    HW229592   3.051   3.363   2.267  0.0136  1.4110  1.4003
 6044SOL     OW29593   1.111   1.831   2.491 -0.4610 -0.1234  0.2937
 6044SOL    HW129594   1.150   1.901   2.439 -2.2916  0.2565 -0.5824
 6044SOL    HW229595   1.090   1.771   2.420  0.4636  0.3496 -0.3776
 6045SOL     OW29596   3.834   1.947  13.410 -0.0838 -0.6186 -0.0981
 6045SOL    HW129597   3.751   1.925  13.451 -0.5180  1.0372 -0.0695
 6045SOL    HW229598   3.820   2.036  13.377  1.1502  0.1643  1.4971
 6046SOL     OW29599   2.516   2.545   4.569  0.1353  0.2852 -0.6206
 6046SOL    HW129600   2.545   2.537   4.661  0.4994  3.7585 -0.4360
 6046SOL    HW229601   2.473   2.630   4.568 -1.8372 -0.6857  0.2844
 6047SOL     OW29602   0.975   1.739   2.216 -0.0722  0.2301 -0.2133
 6047SOL    HW129603   0.908   1.807   2.223 -1.5922 -1.0332 -2.6187
 6047SOL    HW229604   1.023   1.757   2.135  0.3681 -3.1245 -0.7185
 6048SOL     OW29605   2.028   3.725  12.111 -0.9696 -0.6538  0.0238
 6048SOL    HW129606   2.011   3.634  12.135 -1.1195 -0.4502  0.6758
 6048SOL    HW229607   2.014   3.710  12.017 -2.0687  0.1406  0.0688
 6049SOL     OW29608   2.771   1.269   4.446  0.9442 -0.2374  0.2991
 6049SOL    HW129609   2.765   1.190   4.500  0.8379  0.0603  0.7255
 6049SOL    HW229610   2.853   1.313   4.470  0.7068  0.5843 -0.4010
 6050SOL     OW29611   0.469   3.889   5.881 -0.1021  0.7546 -0.6560
 6050SOL    HW129612   0.549   3.846   5.848  0.0630 -1.1998  2.2682
 6050SOL    HW229613   0.455   3.818   5.944  0.1132  0.3213 -1.0945
 6051SOL     OW29614   3.689   3.031   4.474  0.5952  0.3142 -0.1029
 6051SOL    HW129615   3.686   2.944   4.513  0.1152  1.0461  1.4834
 6051SOL    HW229616   3.755   3.012   4.407  0.4343 -0.1388 -0.1359
 6052SOL     OW29617   2.086   1.318  17.152  0.2860  0.3424 -0.0522
 6052SOL    HW129618   2.070   1.332  17.245 -1.1891 -1.2414 -0.0493
 6052SOL    HW229619   2.123   1.402  17.123  2.4690 -0.6905 -0.2714
 6053SOL     OW29620   4.247   2.763   5.921 -0.1236 -0.4207  0.2416
 6053SOL    HW129621   4.178   2.830   5.914  2.2157  1.7925 -1.6563
 6053SOL    HW229622   4.232   2.716   5.839  0.4684  1.9791 -1.2263
 6054SOL     OW29623   1.054   0.510   0.251 -0.0564  0.0560  0.1204
 6054SOL    HW129624   0.987   0.440   0.251 -1.2613  1.2014 -0.2124
 6054SOL    HW229625   1.008   0.571   0.308  1.0710  1.8626 -0.9311
 6055SOL     OW29626   0.282   3.300   2.824  0.0278 -0.0507 -0.4336
 6055SOL    HW129627   0.286   3.259   2.738  0.1973  1.9891 -1.3999
 6055SOL    HW229628   0.190   3.326   2.833 -0.1189 -1.3275  1.8599
 6056SOL     OW29629   0.700   0.064   5.754  0.1876  0.9338 -0.2156
 6056SOL    HW129630   0.700   4.710   5.808 -2.9756 -0.6640 -2.5045
 6056SOL    HW229631   0.614   0.102   5.773  0.2120  0.4056  0.9286
 6057SOL     OW29632   3.517   2.374   6.390 -0.0049 -0.4196 -0.2393
 6057SOL    HW129633   3.520   2.466   6.414  1.9556 -1.1544  2.3560
 6057SOL    HW229634   3.575   2.344   6.460 -1.2186 -0.8305  0.5969
 6058SOL     OW29635   2.387   2.769   4.187  0.5058  0.7057 -0.2794
 6058SOL    HW129636   2.395   2.777   4.092  0.5959 -0.3502 -0.3623
 6058SOL    HW229637   2.359   2.858   4.206  0.8687  0.8296 -0.3201
 6059SOL     OW29638   2.419   0.190   8.176  0.0696 -0.5900  0.2151
 6059SOL    HW129639   2.492   0.149   8.130  0.2288 -1.2843  1.0993
 6059SOL    HW229640   2.449   0.181   8.266  0.1580  1.0281  0.3491
 6060SOL     OW29641   0.911   2.013  14.945  0.4265 -0.6829 -0.1404
 6060SOL    HW129642   0.915   2.030  14.851 -0.6890  0.8545  0.0944
 6060SOL    HW229643   0.945   1.924  14.943  0.7876 -0.5713  0.9076
 6061SOL     OW29644   0.751   3.526   6.026 -0.3932  0.6656 -0.4076
 6061SOL    HW129645   0.709   3.445   5.997 -0.0707 -0.3650  1.9917
 6061SOL    HW229646   0.827   3.518   5.969  1.1123 -0.9946  1.8081
 6062SOL     OW29647   0.481   0.355  12.743 -0.2990 -0.3238 -0.0497
 6062SOL    HW129648   0.456   0.447  12.746 -0.0408 -0.2095 -1.3031
 6062SOL    HW229649   0.528   0.331  12.823 -2.8071  1.3000  1.9065
 6063SOL     OW29650   0.776   2.235  10.560 -0.3144 -0.2337  0.6524
 6063SOL    HW129651   0.819   2.263  10.479 -0.3490 -1.1157  0.3235
 6063SOL    HW229652   0.818   2.291  10.624 -1.6819  2.1384 -0.5277
 6064SOL     OW29653   2.858   4.412   6.272  0.4755  0.4254 -0.3885
 6064SOL    HW129654   2.934   4.470   6.273 -0.9378  2.2566  1.0838
 6064SOL    HW229655   2.886   4.329   6.235  1.4704 -0.0678  1.4548
 6065SOL     OW29656   0.147   2.164   8.856  0.3689 -0.6108  0.5796
 6065SOL    HW129657   0.123   2.102   8.925 -0.9797 -0.3951  0.2965
 6065SOL    HW229658   0.146   2.249   8.900 -0.7572 -0.6547  0.6299
 6066SOL     OW29659   0.398   2.742   9.389 -0.4604 -0.4335  0.0022
 6066SOL    HW129660   0.471   2.732   9.328 -0.5331  0.4546 -0.2317
 6066SOL    HW229661   0.326   2.734   9.328 -0.2772  3.0986 -0.6713
 6067SOL     OW29662   1.610   1.625   4.890 -0.3855  0.4557 -0.4779
 6067SOL    HW129663   1.557   1.546   4.901 -0.7784  0.2871 -3.6569
 6067SOL    HW229664   1.696   1.583   4.881 -0.4530 -0.1989  1.7944
 6068SOL     OW29665   0.363   3.513   7.447 -0.1528 -0.3069  0.4250
 6068SOL    HW129666   0.414   3.526   7.526 -0.2190  2.4598  0.0146
 6068SOL    HW229667   0.365   3.418   7.439 -2.3491 -0.3742  0.4524
 6069SOL     OW29668   2.299   4.589  17.617  0.2419 -0.0626  0.2266
 6069SOL    HW129669   2.240   4.518  17.594 -0.3254 -0.2163  2.1731
 6069SOL    HW229670   2.320   4.646  17.543 -0.1264 -0.9763 -0.5853
 6070SOL     OW29671   4.704   1.756  16.701  0.4526  0.8012 -0.1319
 6070SOL    HW129672   4.621   1.803  16.688 -0.5546 -1.3276 -1.3273
 6070SOL    HW229673   0.020   1.799  16.625  0.0358 -1.7706 -1.8016
 6071SOL     OW29674   0.065   1.319   5.511 -0.0196 -0.4599  0.2701
 6071SOL    HW129675   0.084   1.231   5.545  1.0292 -0.3099  0.0829
 6071SOL    HW229676   0.154   1.336   5.479  0.1584  1.1380  1.6075
 6072SOL     OW29677   0.102   2.200  16.460  0.1713  0.0102  0.5172
 6072SOL    HW129678   0.076   2.286  16.430 -2.7931 -1.1422 -0.2349
 6072SOL    HW229679   0.030   2.144  16.431 -0.8988  1.2730  0.7322
 6073SOL     OW29680   0.151   3.256   0.955 -0.2344  0.0736  0.3636
 6073SOL    HW129681   0.246   3.262   0.941 -0.3976  2.2322  0.1247
 6073SOL    HW229682   0.139   3.163   0.937 -0.7025  0.4952 -1.4670
 6074SOL     OW29683   4.118   0.796   0.548 -0.2729 -0.0529 -0.2716
 6074SOL    HW129684   4.102   0.702   0.537  2.3565 -0.3630 -1.2881
 6074SOL    HW229685   4.203   0.799   0.591  0.8230 -1.8218 -2.3406
 6075SOL     OW29686   0.723   4.066  17.600 -0.6116 -0.3332  0.0207
 6075SOL    HW129687   0.777   3.987  17.612 -0.1701 -0.0062  0.1788
 6075SOL    HW229688   0.681   4.038  17.518  0.0733 -1.0936 -0.0753
 6076SOL     OW29689   0.041   2.367   5.959  0.3451  0.4194 -0.1226
 6076SOL    HW129690   0.104   2.400   6.023 -0.2755 -0.2253  0.8305
 6076SOL    HW229691   0.095   2.294   5.926 -0.7328 -0.6388  0.4682
 6077SOL     OW29692   1.046   2.669   5.972  0.2118 -0.0315 -0.2861
 6077SOL    HW129693   1.063   2.684   6.065  0.3909 -0.4274 -0.2529
 6077SOL    HW229694   1.020   2.577   5.979 -0.9713  0.3279 -0.0516
 6078SOL     OW29695   3.678   2.402   2.385 -0.4263 -0.2137 -0.1394
 6078SOL    HW129696   3.669   2.467   2.316 -0.1244 -0.4698 -0.4221
 6078SOL    HW229697   3.747   2.346   2.349 -1.2807 -0.5826 -1.1976
 6079SOL     OW29698   4.364   2.874   6.202  0.3824 -0.6107 -0.0807
 6079SOL    HW129699   4.358   2.888   6.296 -2.8319  1.5330 -0.5944
 6079SOL    HW229700   4.280   2.832   6.188  0.2587 -1.2490  2.6508
 6080SOL     OW29701   1.133   0.132   4.397  0.3599 -0.1114 -0.3883
 6080SOL    HW129702   1.205   0.070   4.407 -1.1940 -1.6460  1.4660
 6080SOL    HW229703   1.126   0.120   4.302  0.3966  1.3268 -0.5677
 6081SOL     OW29704   4.413   0.230   1.182  0.0063 -0.8947  0.0196
 6081SOL    HW129705   4.491   0.197   1.139 -0.3780 -4.0841  1.7358
 6081SOL    HW229706   4.450   0.309   1.222 -1.5022 -0.2601  0.1857
 6082SOL     OW29707   0.045   2.331   2.407  0.2568  0.7243 -0.0388
 6082SOL    HW129708   0.102   2.313   2.332  0.8839 -0.1717  0.6561
 6082SOL    HW229709   4.690   2.304   2.361 -0.8588  2.4763  0.8948
 6083SOL     OW29710   1.034   2.732   7.835 -0.1713  0.3183 -0.7912
 6083SOL    HW129711   1.013   2.739   7.928  0.2010 -1.5033 -0.5666
 6083SOL    HW229712   0.950   2.762   7.800  0.2606  1.5727 -0.7692
 6084SOL     OW29713   1.801   3.325   3.870 -0.3076 -0.0648 -0.2599
 6084SOL    HW129714   1.809   3.403   3.814 -1.0060 -1.7166 -2.6640
 6084SOL    HW229715   1.758   3.255   3.821  2.5092 -1.0966 -1.2403
 6085SOL     OW29716   1.519   3.423   1.706  0.2475  0.1411 -0.1143
 6085SOL    HW129717   1.520   3.407   1.612  1.0972  0.5406 -0.1792
 6085SOL    HW229718   1.493   3.515   1.710 -1.1515 -0.2430 -0.4599
 6086SOL     OW29719   0.295   2.683   4.791  0.3596 -0.2491  0.3652
 6086SOL    HW129720   0.342   2.758   4.754  1.6782 -1.5634 -0.6576
 6086SOL    HW229721   0.372   2.656   4.841 -1.4908 -2.2543  2.0781
 6087SOL     OW29722   3.610   4.299   3.246  0.5037  0.2232  0.1791
 6087SOL    HW129723   3.647   4.371   3.297 -0.2294 -0.1547  1.2388
 6087SOL    HW229724   3.677   4.282   3.180 -0.3218 -0.0568 -0.5962
 6088SOL     OW29725   1.498   0.852  17.528 -0.2301 -0.5693 -0.2799
 6088SOL    HW129726   1.416   0.896  17.503 -0.3073 -0.5501  0.0094
 6088SOL    HW229727   1.506   0.810  17.443  1.9867 -1.8568  0.5782
 6089SOL     OW29728   1.838   2.067   8.010 -0.0809  0.0327  0.4765
 6089SOL    HW129729   1.791   2.000   8.060 -1.5721  0.1695 -0.7288
 6089SOL    HW229730   1.785   2.071   7.931 -1.5809  1.9118  1.5925
 6090SOL     OW29731   4.171   2.699   3.637  0.0201  0.3554 -0.2507
 6090SOL    HW129732   4.176   2.792   3.656  2.5039  0.1247  0.2262
 6090SOL    HW229733   4.225   2.698   3.558  0.7953 -1.9535  0.3152
 6091SOL     OW29734   1.073   4.180   0.417 -0.7265 -0.9059 -0.2142
 6091SOL    HW129735   1.093   4.092   0.387  0.8563 -0.5022 -0.3808
 6091SOL    HW229736   1.161   4.196   0.451  0.1575 -0.9333 -2.4283
 6092SOL     OW29737   0.697   1.860   9.139 -0.2674 -0.0069  0.0550
 6092SOL    HW129738   0.768   1.813   9.094 -1.1161 -0.1982 -1.0737
 6092SOL    HW229739   0.738   1.930   9.190 -0.6896  0.7138 -0.5858
 6093SOL     OW29740   4.591   4.103   5.781 -0.3530 -0.2119  0.2019
 6093SOL    HW129741   4.542   4.113   5.699  0.5143 -1.2870 -0.4483
 6093SOL    HW229742   4.592   4.007   5.781 -2.6198 -0.2228  1.4844
 6094SOL     OW29743   2.518   1.641   7.605  0.0153 -0.1685  0.2028
 6094SOL    HW129744   2.582   1.669   7.539 -2.2374  1.0870 -1.4360
 6094SOL    HW229745   2.550   1.683   7.684  1.7690 -1.5441  0.2340
 6095SOL     OW29746   0.792   4.111   6.450  0.5296  0.1560 -0.2936
 6095SOL    HW129747   0.760   4.083   6.364 -0.2372 -1.3043  0.4700
 6095SOL    HW229748   0.709   4.119   6.499  0.7444  1.9718 -0.1982
 6096SOL     OW29749   0.122   4.441  12.449  0.7048  0.3158 -0.2028
 6096SOL    HW129750   0.136   4.400  12.534 -0.3281 -0.3263 -0.3398
 6096SOL    HW229751   0.026   4.436  12.447  0.7381  0.3833 -1.9757
 6097SOL     OW29752   4.060   3.145  17.674 -0.1278 -0.2932  0.4710
 6097SOL    HW129753   4.008   3.198   0.032  1.0433  1.6923 -0.2539
 6097SOL    HW229754   4.081   3.209  17.606  0.1412  0.6727  1.4726
 6098SOL     OW29755   0.914   3.332   7.019  0.1145 -0.1770 -0.0714
 6098SOL    HW129756   0.931   3.295   6.933  1.2562 -2.7547  1.2916
 6098SOL    HW229757   0.892   3.250   7.062 -4.0223 -0.5873 -2.9744
 6099SOL     OW29758   2.706   0.895  14.515  0.2072  0.1521  0.4242
 6099SOL    HW129759   2.745   0.837  14.580  1.7161  2.0364  1.1774
 6099SOL    HW229760   2.778   0.897  14.452 -0.4843 -3.2980 -0.4501
 6100SOL     OW29761   0.500   3.157   2.646  0.6287 -0.0909  0.2684
 6100SOL    HW129762   0.491   3.064   2.626  3.6550  0.0675 -1.9589
 6100SOL    HW229763   0.421   3.196   2.611  0.8539 -2.3090 -2.7338
 6101SOL     OW29764   2.841   4.700   6.680  0.3569  0.6956  0.2526
 6101SOL    HW129765   2.834   4.612   6.643  2.0005  1.8587 -2.8858
 6101SOL    HW229766   2.863   0.022   6.599  0.1889 -2.4971 -1.6397
 6102SOL     OW29767   2.476   3.133   5.212 -0.7432 -0.3762  0.2237
 6102SOL    HW129768   2.533   3.065   5.176  0.6747  0.8107  0.1798
 6102SOL    HW229769   2.468   3.103   5.302  0.5437  1.0846  0.8255
 6103SOL     OW29770   4.341   3.442   8.062  0.5276 -0.4270  0.1828
 6103SOL    HW129771   4.336   3.498   8.139  1.2700  0.4551 -0.4061
 6103SOL    HW229772   4.330   3.359   8.109 -0.9522  0.0926  0.7452
 6104SOL     OW29773   0.815   3.839   8.102 -1.0470  0.3822  0.5003
 6104SOL    HW129774   0.724   3.859   8.083 -1.0658 -0.6558 -0.5405
 6104SOL    HW229775   0.811   3.744   8.115 -1.3759  0.2788 -0.3191
 6105SOL     OW29776   1.143   2.026  11.397  0.7213  0.0441  0.1718
 6105SOL    HW129777   1.111   2.111  11.365 -1.1165 -0.5965  0.3079
 6105SOL    HW229778   1.191   2.051  11.477  0.8615  0.2497  0.0240
 6106SOL     OW29779   3.946   4.158  17.197 -0.3461 -0.6554 -0.5382
 6106SOL    HW129780   3.979   4.097  17.131  3.1351 -1.3246  1.8079
 6106SOL    HW229781   3.886   4.208  17.141 -0.5122  1.7851  1.8104
 6107SOL     OW29782   2.793   1.393   9.460  0.3820  0.5432 -0.4138
 6107SOL    HW129783   2.841   1.475   9.468  0.9212  0.1479  0.3864
 6107SOL    HW229784   2.791   1.364   9.551 -2.4084  1.1004 -0.2775
 6108SOL     OW29785   3.305   1.297   6.953 -0.7614 -0.0012 -0.6083
 6108SOL    HW129786   3.322   1.253   6.869 -0.4930 -0.3087 -0.3942
 6108SOL    HW229787   3.396   1.314   6.978 -0.9142 -0.3502  0.1766
 6109SOL     OW29788   0.871   2.431   4.522  0.1198  0.1894  0.6162
 6109SOL    HW129789   0.888   2.340   4.544  0.8738 -0.1041 -1.1832
 6109SOL    HW229790   0.778   2.435   4.501  0.2452  0.5064  0.1069
 6110SOL     OW29791   2.439   2.919   1.752  0.3143  0.3578 -0.2694
 6110SOL    HW129792   2.457   2.845   1.810  1.9158  0.7442 -0.2676
 6110SOL    HW229793   2.343   2.919   1.752  0.3101 -0.8883 -0.0781
 6111SOL     OW29794   0.883   0.539   8.054  0.1822 -0.2647  0.2379
 6111SOL    HW129795   0.836   0.495   7.983  2.2877 -1.1367 -0.5984
 6111SOL    HW229796   0.832   0.620   8.051  1.2502  0.3587 -1.1679
 6112SOL     OW29797   2.082   0.252   6.582  0.1408 -0.2162  0.0335
 6112SOL    HW129798   2.159   0.306   6.562  0.3056  0.1723  1.7150
 6112SOL    HW229799   2.031   0.327   6.613  1.3504  0.4086  0.5250
 6113SOL     OW29800   3.871   1.807  17.370  0.5340  0.0393 -0.2289
 6113SOL    HW129801   3.832   1.742  17.429  0.9042 -1.2663 -1.4190
 6113SOL    HW229802   3.801   1.801  17.305  1.8204 -0.2874 -1.5785
 6114SOL     OW29803   4.541   1.734   3.096  0.3604 -0.7081 -0.4748
 6114SOL    HW129804   4.452   1.717   3.065  0.7799 -0.2213 -1.9639
 6114SOL    HW229805   4.593   1.661   3.060 -2.5523 -1.8036 -2.5212
 6115SOL     OW29806   1.867   0.119   3.416  0.4222  0.2179 -0.7588
 6115SOL    HW129807   1.786   0.161   3.445  0.4945 -0.5698  0.5930
 6115SOL    HW229808   1.893   0.065   3.491 -1.1590 -0.0027 -0.3501
 6116SOL     OW29809   3.339   1.621   4.478  0.3460  0.2749 -0.0996
 6116SOL    HW129810   3.359   1.528   4.473  1.4617  0.4976  0.1497
 6116SOL    HW229811   3.382   1.664   4.405 -0.3649 -1.2208 -1.3852
 6117SOL     OW29812   1.684   3.520   0.221 -0.1619 -0.2779  0.5646
 6117SOL    HW129813   1.695   3.590   0.285 -3.3302  0.7751 -0.0082
 6117SOL    HW229814   1.765   3.470   0.226 -0.3487 -0.3950  2.1266
 6118SOL     OW29815   4.623   3.425   7.402  0.3866 -0.1086  0.3105
 6118SOL    HW129816   4.625   3.458   7.312 -2.4612 -1.0713 -0.1063
 6118SOL    HW229817   4.549   3.477   7.434  0.2168 -0.5527  0.6586
 6119SOL     OW29818   4.440   2.077   4.962 -0.0689 -0.2746 -0.2450
 6119SOL    HW129819   4.431   2.172   4.969 -1.3669 -0.5365  1.6324
 6119SOL    HW229820   4.412   2.068   4.871 -1.3863 -1.5495  0.2908
 6120SOL     OW29821   3.693   1.685   7.165  0.4899 -0.1189  0.0539
 6120SOL    HW129822   3.705   1.776   7.137 -2.0116  0.9125  2.3704
 6120SOL    HW229823   3.672   1.631   7.088  0.6712 -2.0043  1.3155
 6121SOL     OW29824   1.695   3.211   2.513 -0.3728  0.7767  0.5946
 6121SOL    HW129825   1.630   3.270   2.474 -0.8686 -1.4208 -1.9207
 6121SOL    HW229826   1.646   3.129   2.520  0.0487  0.1131 -4.4273
 6122SOL     OW29827   0.172   3.399   9.095 -0.2115 -0.8076  0.3679
 6122SOL    HW129828   0.095   3.342   9.092 -1.0704  0.4909 -1.8781
 6122SOL    HW229829   0.237   3.333   9.119 -0.1709 -1.1322 -0.6648
 6123SOL     OW29830   3.199   1.348  15.169 -0.6559  0.4621  0.4222
 6123SOL    HW129831   3.204   1.444  15.165 -2.6199  0.6805  3.5291
 6123SOL    HW229832   3.225   1.333  15.260 -0.4938  0.9259  0.4509
 6124SOL     OW29833   3.133   4.386   3.789 -0.3845  0.2059  0.4242
 6124SOL    HW129834   3.193   4.432   3.847 -0.3109 -0.5687  0.9729
 6124SOL    HW229835   3.102   4.458   3.734 -2.5696  0.0519  1.4393
 6125SOL     OW29836   1.795   3.781  13.524  0.2938 -0.6702 -0.1461
 6125SOL    HW129837   1.706   3.745  13.519  0.0252  0.1594 -1.1479
 6125SOL    HW229838   1.843   3.741  13.597  1.0321  1.7163  0.6644
 6126SOL     OW29839   4.001   1.581  15.464 -0.3830  0.0636  0.1597
 6126SOL    HW129840   4.092   1.595  15.492 -0.9881  0.6420  1.8262
 6126SOL    HW229841   4.000   1.619  15.377 -1.0312  2.1182  1.0752
 6127SOL     OW29842   2.482   1.752   5.125  0.0865 -0.0569  0.7866
 6127SOL    HW129843   2.463   1.733   5.217 -0.2358 -2.8246  0.1278
 6127SOL    HW229844   2.565   1.799   5.134  0.3481 -0.9246  3.0149
 6128SOL     OW29845   2.082   4.720   2.263 -0.2329  0.5162  0.4323
 6128SOL    HW129846   2.034   0.043   2.331 -1.4893 -0.3650  0.1510
 6128SOL    HW229847   2.104   0.064   2.200  0.6181 -0.3579 -0.2320
 6129SOL     OW29848   3.458   4.191   2.448 -0.6993  0.4826 -0.0925
 6129SOL    HW129849   3.472   4.098   2.467 -2.7562  0.0248 -0.8419
 6129SOL    HW229850   3.527   4.235   2.498  1.4133 -0.4133 -2.2393
 6130SOL     OW29851   1.780   3.432   4.498  0.3538  0.2681  0.9272
 6130SOL    HW129852   1.741   3.499   4.442 -3.0168 -0.0726  2.9252
 6130SOL    HW229853   1.748   3.347   4.466 -0.1541  0.4050  1.0826
 6131SOL     OW29854   1.360   4.210   8.488 -0.1024 -0.1171 -0.2235
 6131SOL    HW129855   1.442   4.161   8.487 -0.2238 -0.2921 -1.3782
 6131SOL    HW229856   1.375   4.269   8.562  1.6022 -0.5678 -0.2085
 6132SOL     OW29857   0.216   2.237   1.926  0.0769 -0.7774  0.1889
 6132SOL    HW129858   0.206   2.328   1.898 -1.9468  0.0476  3.5824
 6132SOL    HW229859   0.278   2.207   1.860  0.7902  0.3870  0.3390
 6133SOL     OW29860   2.687   3.919  14.298  0.5581  0.4144 -0.2858
 6133SOL    HW129861   2.741   3.947  14.224  3.1746  0.4426  1.6159
 6133SOL    HW229862   2.603   3.961  14.282 -0.7776 -1.7684  1.1460
 6134SOL     OW29863   0.862   2.251   9.041 -0.4139 -0.9659  0.2159
 6134SOL    HW129864   0.790   2.267   8.980 -1.2848 -1.2764  1.1685
 6134SOL    HW229865   0.915   2.330   9.046  3.1403 -3.3120 -0.4083
 6135SOL     OW29866   3.922   1.938  11.274 -0.3895 -0.2499  0.1164
 6135SOL    HW129867   3.944   1.882  11.348  0.3618  1.4656  1.1972
 6135SOL    HW229868   3.873   2.007  11.318 -0.7787  0.9984 -2.2654
 6136SOL     OW29869   2.007   2.746   4.944  0.6274 -0.0163  0.0460
 6136SOL    HW129870   2.057   2.769   5.023 -0.6176  0.0500  0.8121
 6136SOL    HW229871   1.920   2.776   4.971  0.3324 -0.3863 -0.5151
 6137SOL     OW29872   4.107   2.835   5.052 -0.6041 -0.2453 -0.2040
 6137SOL    HW129873   4.134   2.743   5.049 -0.9309 -0.3949  1.3216
 6137SOL    HW229874   4.052   2.825   5.130  1.4437  0.5599  1.3696
 6138SOL     OW29875   1.492   1.342   7.287  0.0285 -0.8344 -0.0474
 6138SOL    HW129876   1.486   1.403   7.361 -1.9457  0.0949 -0.9703
 6138SOL    HW229877   1.554   1.384   7.227  1.7680 -0.4736  2.0201
 6139SOL     OW29878   0.036   0.415  10.506  0.3396  0.5373 -0.1853
 6139SOL    HW129879   0.095   0.483  10.537 -0.5583  0.8391  0.8353
 6139SOL    HW229880   4.685   0.421  10.564  0.7853  3.3082  0.0778
 6140SOL     OW29881   3.753   1.038  15.614 -0.0448  0.3667 -0.2509
 6140SOL    HW129882   3.826   1.047  15.552 -0.6827  1.2215 -0.8702
 6140SOL    HW229883   3.760   0.942  15.611  1.5555  0.5161 -1.7287
 6141SOL     OW29884   4.720   0.413  10.072 -0.4431 -0.1243 -0.1075
 6141SOL    HW129885   0.035   0.409   9.986  0.5020  1.3316  0.2797
 6141SOL    HW229886   4.643   0.470  10.067 -0.6775 -0.4531 -0.3370
 6142SOL     OW29887   0.540   2.658   3.828  0.0765  0.1216 -0.3297
 6142SOL    HW129888   0.603   2.690   3.893 -0.9618 -1.8762  1.7012
 6142SOL    HW229889   0.459   2.666   3.879  0.4400 -1.5319  0.5301
 6143SOL     OW29890   2.126   1.063   4.184  0.3387 -0.1117 -0.1062
 6143SOL    HW129891   2.200   1.023   4.139  1.3939  1.3144  0.3373
 6143SOL    HW229892   2.098   0.992   4.242 -0.5128  2.6677  2.8956
 6144SOL     OW29893   4.468   4.504  16.619  0.6766 -0.1319  0.0605
 6144SOL    HW129894   4.433   4.417  16.603 -2.7846  1.1539  0.5442
 6144SOL    HW229895   4.430   4.516  16.706  2.6360 -3.5057  1.3262
 6145SOL     OW29896   2.899   0.539   8.756  0.0269  0.5869 -0.0571
 6145SOL    HW129897   2.952   0.518   8.834 -0.5398 -0.8516 -0.0655
 6145SOL    HW229898   2.908   0.634   8.747  3.4089  0.3473  0.6999
 6146SOL     OW29899   2.472   4.650   3.624  0.0960  0.9908  0.6151
 6146SOL    HW129900   2.459   4.639   3.530  1.4700 -1.5032  0.7210
 6146SOL    HW229901   2.509   4.563   3.638  2.1530  1.8736  0.6560
 6147SOL     OW29902   3.902   4.480   5.425  0.7327 -0.2231 -0.2587
 6147SOL    HW129903   3.939   4.452   5.508 -1.6425  1.5489  1.4045
 6147SOL    HW229904   3.939   4.407   5.376 -0.3906  0.1382 -1.6528
 6148SOL     OW29905   0.172   0.732   2.142  0.2146  0.3087  0.5721
 6148SOL    HW129906   0.121   0.742   2.062  0.0852 -1.5152  0.4374
 6148SOL    HW229907   0.147   0.646   2.175 -2.2809  1.4377  1.5612
 6149SOL     OW29908   4.093   2.285   4.730 -0.0906 -0.4182  0.5047
 6149SOL    HW129909   4.020   2.252   4.782 -0.2625  0.3706  0.7675
 6149SOL    HW229910   4.054   2.343   4.665  0.7684 -1.5481 -1.0209
 6150SOL     OW29911   1.926   1.161   4.011  0.0855  0.7920 -0.2920
 6150SOL    HW129912   2.016   1.139   4.037 -0.3923 -0.5766  0.1889
 6150SOL    HW229913   1.879   1.117   4.082  3.9313 -0.6168  1.3882
 6151SOL     OW29914   0.451   3.000   3.449  0.7489 -0.4127  0.1183
 6151SOL    HW129915   0.461   2.907   3.430 -0.9161 -0.1044 -2.2349
 6151SOL    HW229916   0.469   2.991   3.542 -0.2559  0.7112  0.4167
 6152SOL     OW29917   3.305   2.939   5.653 -1.3407  0.1534 -0.1424
 6152SOL    HW129918   3.334   2.891   5.576 -1.5835 -2.2130  1.2471
 6152SOL    HW229919   3.297   2.866   5.714 -1.3114 -0.6842 -1.1496
 6153SOL     OW29920   2.870   0.938   8.220  0.4414  0.6118  0.6051
 6153SOL    HW129921   2.790   0.955   8.170 -0.0364 -0.4020  1.0281
 6153SOL    HW229922   2.826   0.904   8.298 -0.5073 -0.1499 -0.2609
 6154SOL     OW29923   0.471   4.010  10.976 -0.5716 -0.3866  0.0582
 6154SOL    HW129924   0.469   4.050  10.889 -0.5859 -0.4605  0.0239
 6154SOL    HW229925   0.563   3.983  10.979 -1.1174 -2.2865 -0.3619
 6155SOL     OW29926   1.038   4.461   7.829  0.4782  0.3312  0.5384
 6155SOL    HW129927   1.077   4.480   7.915 -1.9570 -0.0339  1.7195
 6155SOL    HW229928   0.948   4.488   7.845 -0.1374 -0.2235 -2.0224
 6156SOL     OW29929   2.510   2.224   6.337  0.0455 -0.1303  0.2555
 6156SOL    HW129930   2.487   2.312   6.365  1.3445 -0.0011  0.9595
 6156SOL    HW229931   2.586   2.241   6.281  0.9481 -0.4976  1.3760
 6157SOL     OW29932   0.088   0.044   2.822 -0.3699 -0.3043  0.2081
 6157SOL    HW129933   0.099   0.135   2.794 -1.4075  0.3414  1.9081
 6157SOL    HW229934   0.166   0.012   2.776  0.1477  0.6121  0.4470
 6158SOL     OW29935   2.852   2.695   3.828 -0.0567  0.3650 -0.5383
 6158SOL    HW129936   2.777   2.747   3.855 -0.7549 -1.2951  0.7905
 6158SOL    HW229937   2.852   2.723   3.737  0.8857 -2.7921 -1.5325
 6159SOL     OW29938   4.312   2.800   6.478  0.2429 -1.0884  0.5506
 6159SOL    HW129939   4.304   2.818   6.572  2.5045 -0.5000  0.6195
 6159SOL    HW229940   4.297   2.705   6.478  1.4690 -1.2624 -1.0518
 6160SOL     OW29941   3.806   1.572   2.759 -0.9431 -0.4435 -0.3858
 6160SOL    HW129942   3.786   1.567   2.852 -0.2202  1.6424 -0.1217
 6160SOL    HW229943   3.832   1.485   2.729  4.4576  0.2819  2.2370
 6161SOL     OW29944   2.849   0.032   2.813  0.4573 -0.0815  0.4982
 6161SOL    HW129945   2.828   4.689   2.878  1.4496  0.2065  1.1153
 6161SOL    HW229946   2.898   4.698   2.756 -0.9787 -0.7416 -0.0594
 6162SOL     OW29947   1.250   2.121   7.311  0.1303 -0.3153 -0.2892
 6162SOL    HW129948   1.342   2.094   7.314  0.0007 -0.8476 -1.0481
 6162SOL    HW229949   1.215   2.061   7.376 -2.3191  2.6787  1.1386
 6163SOL     OW29950   2.144   2.683   2.923 -0.0202  0.0241 -0.4936
 6163SOL    HW129951   2.159   2.596   2.887  0.6015 -0.4119  0.8208
 6163SOL    HW229952   2.071   2.698   2.862 -0.2582 -2.0368 -0.7240
 6164SOL     OW29953   2.705   1.915  14.833 -0.1860 -0.2832  0.5809
 6164SOL    HW129954   2.709   1.832  14.881 -0.1823 -0.7445 -0.2224
 6164SOL    HW229955   2.691   1.885  14.743  1.3320 -2.2750  1.0281
 6165SOL     OW29956   2.422   1.424   7.443 -0.6340 -0.3249  0.5867
 6165SOL    HW129957   2.346   1.369   7.465 -1.5025  0.3745 -0.6876
 6165SOL    HW229958   2.441   1.477   7.521  0.9090 -0.8011  0.5351
 6166SOL     OW29959   3.873   1.934   2.070  0.9362 -0.1349 -0.2384
 6166SOL    HW129960   3.865   2.019   2.028 -0.0060 -0.3290 -0.4555
 6166SOL    HW229961   3.943   1.890   2.022  0.1708  1.3463 -2.7149
 6167SOL     OW29962   2.988   3.386   8.600  0.0568 -0.3832  0.5981
 6167SOL    HW129963   2.930   3.310   8.593  1.1478 -1.2029  0.5051
 6167SOL    HW229964   3.058   3.338   8.644  0.0468  1.7330  2.8600
 6168SOL     OW29965   3.053   4.101   2.708  0.1378  0.0199 -0.1835
 6168SOL    HW129966   3.056   4.040   2.635  3.0298 -3.3373  2.7057
 6168SOL    HW229967   3.100   4.049   2.773 -0.3112  1.4157  1.2694
 6169SOL     OW29968   4.232   0.087   0.659 -0.2644 -0.4695 -0.9287
 6169SOL    HW129969   4.256   0.011   0.711 -1.8933 -0.4246 -0.1266
 6169SOL    HW229970   4.210   0.153   0.725  1.0120 -0.4688 -0.4979
 6170SOL     OW29971   4.590   2.375   8.256  0.3609  0.1097  0.3929
 6170SOL    HW129972   4.555   2.373   8.345  0.1380  0.8546  0.3198
 6170SOL    HW229973   4.643   2.454   8.262  2.1540 -0.8519 -2.5908
 6171SOL     OW29974   3.833   2.151  16.699 -0.1200  0.2036 -0.5244
 6171SOL    HW129975   3.927   2.146  16.715  0.0682 -0.3711 -1.7883
 6171SOL    HW229976   3.803   2.113  16.782  1.7182  1.7554  0.8400
 6172SOL     OW29977   0.943   2.931  15.416 -0.0432 -0.1631  0.2702
 6172SOL    HW129978   0.874   2.997  15.418 -0.5118 -0.6425 -0.2673
 6172SOL    HW229979   1.009   2.985  15.372 -1.8389  2.9468  1.3911
 6173SOL     OW29980   3.825   2.135   8.607  0.4421  0.6155  0.2559
 6173SOL    HW129981   3.897   2.076   8.582 -0.5631 -1.3599  2.0055
 6173SOL    HW229982   3.847   2.156   8.698  1.0326 -2.0701  0.7457
 6174SOL     OW29983   3.784   1.550   2.301 -0.0707  0.1885  0.2532
 6174SOL    HW129984   3.705   1.597   2.327 -0.6442 -0.2605 -0.6900
 6174SOL    HW229985   3.776   1.562   2.207  0.4190 -1.2000  0.0326
 6175SOL     OW29986   4.228   1.023  17.606 -0.4235 -0.6862  0.0840
 6175SOL    HW129987   4.258   1.091  17.665 -0.4756 -1.9332  1.5464
 6175SOL    HW229988   4.220   1.076  17.527 -3.0828  2.0679  2.2150
 6176SOL     OW29989   0.051   4.623   1.883 -0.4691 -0.1472  0.3818
 6176SOL    HW129990   0.035   4.717   1.895  2.3700  0.4606 -0.5385
 6176SOL    HW229991   0.012   4.618   1.796  1.2273 -0.0702 -0.3932
 6177SOL     OW29992   3.877   2.901   2.213  0.0293  0.8954 -0.0343
 6177SOL    HW129993   3.895   2.928   2.123 -0.6863 -0.5296 -0.6017
 6177SOL    HW229994   3.781   2.899   2.222 -0.0129 -0.7692 -1.0176
 6178SOL     OW29995   2.431   2.488   6.262 -0.0521  0.1851 -0.3916
 6178SOL    HW129996   2.472   2.563   6.219  1.1793  0.4668  1.2653
 6178SOL    HW229997   2.467   2.502   6.350 -1.2460 -1.0323  0.3059
 6179SOL     OW29998   1.717   4.509   3.415 -0.0929  0.6913 -0.3262
 6179SOL    HW129999   1.804   4.519   3.375  1.3759  0.5950  2.8661
 6179SOL    HW230000   1.681   4.585   3.368  1.6085  1.5834 -0.2112
 6180SOL     OW30001   2.042   4.704   4.940 -0.9273 -0.5161 -0.7755
 6180SOL    HW130002   2.104   4.637   4.912  0.4200  0.9849 -1.3808
 6180SOL    HW230003   2.023   4.671   5.027 -0.4882 -1.0171 -0.8764
 6181SOL     OW30004   0.730   1.619  15.991 -0.6951  0.1183  0.0090
 6181SOL    HW130005   0.663   1.554  16.009 -0.6207  0.9901  3.6430
 6181SOL    HW230006   0.698   1.693  16.044 -1.7668  2.2872 -3.6885
 6182SOL     OW30007   2.411   2.504   8.860  0.5986  0.1627  0.2358
 6182SOL    HW130008   2.410   2.449   8.938 -1.2403 -0.6678 -0.3847
 6182SOL    HW230009   2.321   2.497   8.828  1.1599  1.4671 -1.6308
 6183SOL     OW30010   4.600   0.608   5.308 -0.0832 -0.2872  0.7544
 6183SOL    HW130011   4.556   0.668   5.368 -1.8910 -2.3901  1.5074
 6183SOL    HW230012   4.545   0.530   5.307  0.6166 -0.7463 -1.8793
 6184SOL     OW30013   4.247   1.910  11.203 -0.1483 -0.0520  0.5275
 6184SOL    HW130014   4.305   1.948  11.269  0.4723  0.1210 -0.1162
 6184SOL    HW230015   4.209   1.833  11.245 -0.7212 -0.6408 -1.0631
 6185SOL     OW30016   2.862   3.952   1.528 -0.1088  0.2579  0.0242
 6185SOL    HW130017   2.925   4.008   1.483  1.3996 -1.5061 -0.0550
 6185SOL    HW230018   2.909   3.926   1.607 -1.3851  0.1904  0.7490
 6186SOL     OW30019   2.079   1.865   6.861 -0.1357 -0.1745  0.4745
 6186SOL    HW130020   2.131   1.808   6.804 -0.5103 -0.2323  0.1859
 6186SOL    HW230021   2.148   1.926   6.886 -0.4288  1.3247 -2.2999
 6187SOL     OW30022   4.460   3.189   1.882 -0.3490  0.4279  1.0088
 6187SOL    HW130023   4.528   3.242   1.923  0.1042  1.7145 -1.3504
 6187SOL    HW230024   4.399   3.176   1.955 -0.2135 -0.6566  0.9211
 6188SOL     OW30025   3.529   4.073   7.774  0.2164 -0.1777 -0.3790
 6188SOL    HW130026   3.446   4.027   7.782  1.0334 -1.3617  1.3619
 6188SOL    HW230027   3.501   4.161   7.799  0.7169 -0.9975  3.0720
 6189SOL     OW30028   1.415   4.000   4.789 -0.3375 -0.6173 -0.1253
 6189SOL    HW130029   1.343   3.941   4.814 -0.3646 -1.2768 -1.7329
 6189SOL    HW230030   1.402   4.003   4.694 -1.4562 -0.5246  0.0328
 6190SOL     OW30031   3.755   2.155   6.799  0.3158 -0.2836  0.3491
 6190SOL    HW130032   3.748   2.064   6.769  5.0956 -0.1706 -1.0840
 6190SOL    HW230033   3.691   2.166   6.869  0.0939  0.6034 -0.0026
 6191SOL     OW30034   1.625   4.448  15.664 -0.1635 -0.4052  0.0976
 6191SOL    HW130035   1.557   4.394  15.624 -1.2678  1.0939 -0.0743
 6191SOL    HW230036   1.565   4.496  15.721 -0.6395  2.3433 -2.6783
 6192SOL     OW30037   2.633   1.227  17.183  0.3316 -0.5142  0.5859
 6192SOL    HW130038   2.676   1.292  17.238  0.4759  0.2434 -0.4221
 6192SOL    HW230039   2.701   1.211  17.118 -0.9567  0.4284 -1.0006
 6193SOL     OW30040   1.745   1.445   1.217  0.0624  0.0443  0.2033
 6193SOL    HW130041   1.772   1.474   1.130 -1.1459  0.1043 -0.1452
 6193SOL    HW230042   1.779   1.355   1.217 -0.4755 -0.1346 -2.9509
 6194SOL     OW30043   0.554   3.869   0.548  0.3040 -0.0490  0.0875
 6194SOL    HW130044   0.621   3.897   0.486  0.1481  0.6589  0.2332
 6194SOL    HW230045   0.591   3.890   0.634 -0.4611 -0.7296  0.5911
 6195SOL     OW30046   3.789   3.048   9.140 -0.3913 -0.0546  0.0546
 6195SOL    HW130047   3.794   2.968   9.193 -0.2017 -0.6320 -0.8407
 6195SOL    HW230048   3.827   3.113   9.200  0.0458  0.2413 -0.5380
 6196SOL     OW30049   4.285   3.693   4.816  0.2175 -0.7201  0.6045
 6196SOL    HW130050   4.190   3.688   4.821  0.1562 -2.4367 -2.6017
 6196SOL    HW230051   4.307   3.701   4.909  1.0521 -0.8427  0.4207
 6197SOL     OW30052   2.416   4.457   2.933  0.1003  0.0569 -0.5855
 6197SOL    HW130053   2.511   4.455   2.926  0.3759  1.5973  2.6469
 6197SOL    HW230054   2.401   4.387   2.997  0.8942  0.3293 -0.0968
 6198SOL     OW30055   3.642   0.067  15.321 -0.9118  0.7268 -0.2334
 6198SOL    HW130056   3.594   4.716  15.354  1.2971 -0.2894  0.6633
 6198SOL    HW230057   3.698   0.044  15.247 -1.7187 -0.8185 -0.3740
 6199SOL     OW30058   2.524   3.612   6.685 -0.5344 -0.2484 -0.1256
 6199SOL    HW130059   2.602   3.602   6.740 -1.4926 -0.2157  1.2192
 6199SOL    HW230060   2.473   3.535   6.709  0.2108 -0.7142 -0.0293
 6200SOL     OW30061   0.817   2.144   3.402  0.3194  0.0566  0.0233
 6200SOL    HW130062   0.820   2.162   3.308  1.0850  0.2052  0.0766
 6200SOL    HW230063   0.722   2.144   3.417  0.3864  2.9364  0.4024
 6201SOL     OW30064   0.773   3.972   3.707  1.1337  0.1598 -0.3608
 6201SOL    HW130065   0.753   4.011   3.792 -0.0572 -3.6222  1.0943
 6201SOL    HW230066   0.692   3.999   3.664  2.1375  2.1530 -0.9836
 6202SOL     OW30067   3.022   0.182   7.105 -0.6444  0.3821  0.2241
 6202SOL    HW130068   3.052   0.144   7.022  1.3271 -0.5795  1.3560
 6202SOL    HW230069   2.945   0.128   7.122  0.9869 -1.4075  1.9886
 6203SOL     OW30070   3.186   1.794   5.679 -0.3448  0.0038 -0.4909
 6203SOL    HW130071   3.277   1.766   5.682 -1.3948 -3.1621  1.6551
 6203SOL    HW230072   3.197   1.889   5.676  1.2443 -0.1855 -0.6541
 6204SOL     OW30073   2.789   4.382  11.231 -0.2290  0.3856  0.0027
 6204SOL    HW130074   2.715   4.323  11.238 -0.3400  0.3321 -1.7382
 6204SOL    HW230075   2.854   4.343  11.172  1.7866 -2.4315  4.0730
 6205SOL     OW30076   3.923   3.992   6.306  0.0151  0.3231  0.5983
 6205SOL    HW130077   3.828   3.999   6.302  0.0238 -0.3755 -0.6142
 6205SOL    HW230078   3.939   3.902   6.336  0.4886 -0.3393 -1.6808
 6206SOL     OW30079   2.097   3.751  10.699  0.1694 -0.1175 -0.2644
 6206SOL    HW130080   2.024   3.771  10.759  2.2529 -1.5996  2.7628
 6206SOL    HW230081   2.053   3.732  10.617 -0.8042  2.1444 -0.2836
 6207SOL     OW30082   1.679   2.834  15.682  0.4996  0.3746 -0.3699
 6207SOL    HW130083   1.718   2.906  15.633 -0.2123  0.1882 -1.2059
 6207SOL    HW230084   1.630   2.882  15.749 -1.2283  0.7376 -1.9115
 6208SOL     OW30085   1.538   1.510   7.570  0.3329 -0.1093  0.0901
 6208SOL    HW130086   1.626   1.545   7.583  0.6626 -0.8212 -0.2245
 6208SOL    HW230087   1.531   1.445   7.640 -1.5117 -0.4263 -0.3762
 6209SOL     OW30088   0.105   3.206   4.872  0.4881 -0.4328 -0.2761
 6209SOL    HW130089   0.181   3.243   4.917 -0.8124 -1.3916  2.7565
 6209SOL    HW230090   0.060   3.285   4.843  2.3684  0.5980 -0.3972
 6210SOL     OW30091   3.473   1.778   6.226  0.3934 -0.2902 -0.1772
 6210SOL    HW130092   3.415   1.756   6.153 -1.5501  0.0077  1.2487
 6210SOL    HW230093   3.430   1.714   6.283  1.0139 -1.1062 -0.6381
 6211SOL     OW30094   3.151   0.607   6.399  0.0115 -0.0288  0.4539
 6211SOL    HW130095   3.081   0.670   6.413  0.2861 -0.1117  2.2513
 6211SOL    HW230096   3.139   0.591   6.305 -0.5697 -0.3033  0.5776
 6212SOL     OW30097   3.390   3.821  14.541  0.2113 -0.0752 -0.2065
 6212SOL    HW130098   3.416   3.892  14.600  0.7112  1.1671 -1.9152
 6212SOL    HW230099   3.410   3.857  14.454  1.5842  0.2236  0.2259
 6213SOL     OW30100   2.955   2.676   2.244 -0.0701 -0.0006 -0.2817
 6213SOL    HW130101   2.990   2.626   2.318  2.7285  3.7558  0.9370
 6213SOL    HW230102   2.874   2.701   2.288  1.1960  2.1304  0.8572
 6214SOL     OW30103   4.055   3.970   7.895 -0.3837 -0.2292 -0.1496
 6214SOL    HW130104   4.028   3.895   7.948  2.5989 -1.2090 -0.0434
 6214SOL    HW230105   3.975   4.017   7.870 -0.1681 -1.3253 -2.9622
 6215SOL     OW30106   1.016   1.277  15.853  0.2418  0.7466 -0.2158
 6215SOL    HW130107   0.961   1.311  15.781  0.1534 -1.6261 -1.2785
 6215SOL    HW230108   1.021   1.354  15.908  1.5474 -0.6233  1.5612
 6216SOL     OW30109   4.722   1.716   3.707 -0.2882 -0.1303 -0.5342
 6216SOL    HW130110   4.702   1.698   3.615  0.7729  0.6414 -0.9115
 6216SOL    HW230111   4.725   1.630   3.751  1.3131 -0.1719 -0.7327
 6217SOL     OW30112   4.433   4.501   5.780 -0.0852  0.7624  0.4959
 6217SOL    HW130113   4.401   4.487   5.869  0.5127 -2.9107  0.1557
 6217SOL    HW230114   4.528   4.498   5.789 -0.0654  1.4071  0.5050
 6218SOL     OW30115   2.010   2.829   6.370 -0.3039 -0.8701  0.0530
 6218SOL    HW130116   2.024   2.773   6.294  1.0862 -0.2798 -0.1298
 6218SOL    HW230117   1.997   2.762   6.438 -1.7161 -0.6921 -0.0456
 6219SOL     OW30118   3.125   3.817   7.510  0.2342  0.4625 -0.5424
 6219SOL    HW130119   3.154   3.904   7.484 -0.5498  0.2660 -2.0568
 6219SOL    HW230120   3.208   3.769   7.499 -0.9565 -1.7249 -0.0130
 6220SOL     OW30121   3.537   2.560  14.549  0.0061 -0.2654 -0.4518
 6220SOL    HW130122   3.558   2.575  14.457  1.5021  0.2308 -0.0357
 6220SOL    HW230123   3.543   2.650  14.582  0.8428 -1.1552  1.7753
 6221SOL     OW30124   1.141   3.055   8.952  0.4027 -1.0004  0.0727
 6221SOL    HW130125   1.234   3.077   8.952 -0.2478  1.7731  1.9553
 6221SOL    HW230126   1.117   3.099   9.033  2.2924 -0.4191  0.3031
 6222SOL     OW30127   0.725   4.359  17.270  0.2961 -1.1087 -0.3946
 6222SOL    HW130128   0.815   4.390  17.271 -0.3426  0.7287  0.9535
 6222SOL    HW230129   0.705   4.387  17.181 -0.7786  2.2858  0.9177
 6223SOL     OW30130   0.926   1.081   7.114 -0.1376  0.1533 -0.4943
 6223SOL    HW130131   0.956   1.063   7.025  1.1173  2.3711 -0.5323
 6223SOL    HW230132   0.863   1.148   7.085 -1.3574 -1.0505 -0.6241
 6224SOL     OW30133   3.723   3.790   0.044  0.1184 -0.0593 -0.1874
 6224SOL    HW130134   3.673   3.871   0.043  0.7584  0.3151 -1.2419
 6224SOL    HW230135   3.773   3.807  17.667  0.8881  0.5812  0.4356
 6225SOL     OW30136   0.485   1.382   3.699  0.6042 -0.2465  0.2215
 6225SOL    HW130137   0.451   1.415   3.782 -3.8325  0.2922 -1.8410
 6225SOL    HW230138   0.402   1.382   3.652  2.1424  1.6775 -2.5389
 6226SOL     OW30139   3.022   4.561   3.607  0.1495  0.2144 -0.1071
 6226SOL    HW130140   2.992   4.641   3.562 -2.5598 -1.9338 -2.1235
 6226SOL    HW230141   2.947   4.545   3.664  0.1226 -1.3504 -0.5824
 6227SOL     OW30142   1.114   4.631   2.233 -0.4846 -0.0010  0.5339
 6227SOL    HW130143   1.143   4.721   2.216 -2.7874  0.5072 -0.7455
 6227SOL    HW230144   1.178   4.593   2.292 -0.7785  1.3389  1.7191
 6228SOL     OW30145   2.358   3.178   7.884  0.2853 -0.0642 -0.0561
 6228SOL    HW130146   2.327   3.116   7.950  0.6878 -0.6444 -0.4127
 6228SOL    HW230147   2.400   3.242   7.942 -0.6312  0.4372  0.0425
 6229SOL     OW30148   4.510   4.557   0.070 -0.4507  0.2042  0.0474
 6229SOL    HW130149   4.517   4.578   0.163  2.2396  1.9212 -0.5248
 6229SOL    HW230150   4.589   4.503   0.059 -2.6959 -2.9561 -0.5956
 6230SOL     OW30151   4.341   3.256  13.205 -0.0681  0.1491 -0.5405
 6230SOL    HW130152   4.309   3.179  13.250 -1.2933  0.9339 -0.0738
 6230SOL    HW230153   4.430   3.229  13.181  0.2848  2.0080 -1.3851
 6231SOL     OW30154   0.463   1.475  11.810 -0.0407 -0.6528  0.0156
 6231SOL    HW130155   0.535   1.454  11.750  0.1510 -0.3542  0.1414
 6231SOL    HW230156   0.400   1.405  11.793 -0.0269 -0.5851 -0.3312
 6232SOL     OW30157   0.547   1.473   2.619  0.1637  0.2690  0.0260
 6232SOL    HW130158   0.625   1.430   2.584  0.6016  0.7427  0.4271
 6232SOL    HW230159   0.568   1.566   2.613 -0.5290  0.3220 -1.6324
 6233SOL     OW30160   1.435   3.809   0.292  0.0597 -0.5016 -0.1720
 6233SOL    HW130161   1.472   3.855   0.367  0.5532  0.2265 -0.8622
 6233SOL    HW230162   1.394   3.735   0.337 -0.8703  1.3241  1.9861
 6234SOL     OW30163   1.381   1.210   6.259 -0.0052  0.6893 -0.7527
 6234SOL    HW130164   1.296   1.227   6.299  0.1702  0.1985 -0.1640
 6234SOL    HW230165   1.383   1.119   6.229  1.5568  0.0760  1.1812
 6235SOL     OW30166   2.723   3.804   4.863 -0.4198 -0.8687  0.3788
 6235SOL    HW130167   2.807   3.794   4.906 -0.0078 -2.7821 -0.8388
 6235SOL    HW230168   2.653   3.759   4.910 -0.8822 -1.4774 -0.8709
 6236SOL     OW30169   3.502   3.385  16.747 -0.5256  0.1813  0.0274
 6236SOL    HW130170   3.537   3.393  16.658  0.4640  0.1888  0.4122
 6236SOL    HW230171   3.411   3.373  16.720 -0.1993  0.5349 -1.2384
 6237SOL     OW30172   0.977   1.090   3.529 -0.1636 -0.1887 -0.2537
 6237SOL    HW130173   1.055   1.075   3.582 -0.8567 -0.9646  0.5698
 6237SOL    HW230174   1.004   1.172   3.488  1.4815  0.0916  1.4154
 6238SOL     OW30175   0.818   2.450   3.319 -0.3510  0.3139 -0.0580
 6238SOL    HW130176   0.818   2.527   3.263  1.6250  0.5586  0.2922
 6238SOL    HW230177   0.867   2.486   3.393 -0.3734 -1.2086  0.6870
 6239SOL     OW30178   0.832   3.677  16.123  0.3269 -0.0863 -0.0298
 6239SOL    HW130179   0.782   3.759  16.114 -1.7076 -1.4215 -0.8041
 6239SOL    HW230180   0.857   3.679  16.215  2.4606  0.1569 -0.6048
 6240SOL     OW30181   1.279   2.219   5.020  0.0924 -0.3298  0.4492
 6240SOL    HW130182   1.259   2.309   5.045  0.0752 -0.0207 -0.6574
 6240SOL    HW230183   1.197   2.171   5.031 -1.0893  1.5701 -0.1153
 6241SOL     OW30184   0.305   4.461  10.666  0.3534  0.0689  0.3739
 6241SOL    HW130185   0.361   4.445  10.590  2.1922  0.2386  1.7167
 6241SOL    HW230186   0.296   4.556  10.663  0.1629  0.0057 -1.3967
 6242SOL     OW30187   3.557   2.206  15.211 -0.0565  0.8405 -0.3559
 6242SOL    HW130188   3.585   2.127  15.257 -0.6989  0.3304 -0.8274
 6242SOL    HW230189   3.602   2.274  15.262 -0.4174  0.4662  0.4591
 6243SOL     OW30190   0.490   0.269   2.200  0.3876  0.4658  0.4121
 6243SOL    HW130191   0.412   0.264   2.145  1.1530  0.5670 -0.7031
 6243SOL    HW230192   0.468   0.348   2.249 -2.0791  0.0727 -0.1014
 6244SOL     OW30193   0.079   0.511   8.460 -0.4033 -0.3288 -0.0049
 6244SOL    HW130194   0.043   0.452   8.394 -1.6777 -0.5603  0.8882
 6244SOL    HW230195   0.115   0.451   8.525  0.9338 -1.1656 -1.5233
 6245SOL     OW30196   1.334   3.832   4.317  0.3635 -0.2578  0.0606
 6245SOL    HW130197   1.286   3.824   4.235 -1.3049 -0.0247  1.0180
 6245SOL    HW230198   1.411   3.879   4.284 -0.9404  2.4129  0.8421
 6246SOL     OW30199   3.508   0.302  17.437 -0.6209  0.6954 -0.9475
 6246SOL    HW130200   3.515   0.229  17.498  1.9470 -0.7579 -2.9858
 6246SOL    HW230201   3.571   0.286  17.367 -1.3242  0.1893 -1.4693
 6247SOL     OW30202   1.895   4.247   8.436  0.1520  0.2710  0.3730
 6247SOL    HW130203   1.910   4.319   8.374  0.6117 -0.4237 -0.3335
 6247SOL    HW230204   1.978   4.202   8.423  0.9414  2.0934 -0.9547
 6248SOL     OW30205   3.852   1.066   2.564  0.0831  0.0166 -0.5595
 6248SOL    HW130206   3.793   0.990   2.556  0.1257 -0.1688  0.9450
 6248SOL    HW230207   3.817   1.126   2.498 -0.5221  0.3492  0.0647
 6249SOL     OW30208   0.746   2.244  17.151  0.2988 -0.0735  0.1417
 6249SOL    HW130209   0.767   2.203  17.235  0.5362  1.9024  1.0474
 6249SOL    HW230210   0.686   2.181  17.110  0.5613 -0.8544  0.9506
 6250SOL     OW30211   2.571   3.502   9.753 -0.4592  0.5563 -0.3393
 6250SOL    HW130212   2.492   3.448   9.744  0.3006 -1.0486  2.6365
 6250SOL    HW230213   2.530   3.583   9.724  1.9473  0.5638 -3.6548
 6251SOL     OW30214   2.206   0.772   7.391  0.2439 -0.3402  0.1300
 6251SOL    HW130215   2.193   0.684   7.429 -2.3232 -0.3325 -0.7224
 6251SOL    HW230216   2.126   0.802   7.434  1.9944  2.3462  1.4843
 6252SOL     OW30217   2.450   4.382  13.647  0.5774 -0.4771  0.4262
 6252SOL    HW130218   2.374   4.434  13.620  0.7021 -0.7267 -0.3868
 6252SOL    HW230219   2.517   4.449  13.641 -0.2056  0.3124  0.4386
 6253SOL     OW30220   3.972   3.158   5.245  0.0114  0.0079 -0.0182
 6253SOL    HW130221   3.889   3.135   5.287 -0.8548 -0.4318 -1.9876
 6253SOL    HW230222   3.990   3.231   5.305 -1.2275  0.5698 -0.3215
 6254SOL     OW30223   0.149   4.304  12.898  0.3871  0.7376 -0.1805
 6254SOL    HW130224   0.210   4.242  12.858  0.1027  0.5904 -0.3790
 6254SOL    HW230225   0.212   4.350  12.954  2.8749 -2.9466  0.0018
 6255SOL     OW30226   0.192   4.304   3.466 -1.6298  0.0436  0.0079
 6255SOL    HW130227   0.148   4.382   3.500 -1.6560  0.2177 -0.4175
 6255SOL    HW230228   0.113   4.261   3.434 -2.6962  2.0994 -0.1269
 6256SOL     OW30229   2.652   1.461  16.142 -0.4064  0.2617  0.3523
 6256SOL    HW130230   2.735   1.510  16.139 -0.8248  0.6391 -4.9620
 6256SOL    HW230231   2.667   1.381  16.090  0.7274  0.5860  0.1809
 6257SOL     OW30232   0.508   1.823  12.923 -0.2772 -0.6853  0.6887
 6257SOL    HW130233   0.559   1.888  12.876 -0.4602 -1.0149  0.0286
 6257SOL    HW230234   0.578   1.772  12.964  0.3655  0.0182  0.4620
 6258SOL     OW30235   1.430   0.029  10.773 -0.8376 -0.5838  0.0164
 6258SOL    HW130236   1.416   4.678  10.829  2.1452  0.1829  1.7669
 6258SOL    HW230237   1.520   0.015  10.743 -0.7348 -1.8405  0.9101
 6259SOL     OW30238   4.454   0.855   1.604 -0.0082  0.0673 -0.4150
 6259SOL    HW130239   4.501   0.880   1.525  0.3435 -1.9966 -0.8375
 6259SOL    HW230240   4.482   0.765   1.621  1.9324  1.0786  1.6656
 6260SOL     OW30241   0.522   2.717  12.881 -0.2702 -0.6661 -0.0175
 6260SOL    HW130242   0.564   2.740  12.964 -0.7096 -1.4571  0.4163
 6260SOL    HW230243   0.544   2.795  12.830 -4.1559  0.2976 -0.2276
 6261SOL     OW30244   1.837   0.838   5.820 -0.1649 -0.0306 -1.0482
 6261SOL    HW130245   1.902   0.795   5.875  0.1094  0.9046 -0.6308
 6261SOL    HW230246   1.759   0.787   5.843 -0.5410  0.7980 -0.4848
 6262SOL     OW30247   3.948   3.658   3.416 -0.8216  0.1989  0.2897
 6262SOL    HW130248   3.875   3.615   3.371 -0.2629 -0.2630 -0.1670
 6262SOL    HW230249   4.025   3.606   3.395 -0.9714 -0.0676  0.3845
 6263SOL     OW30250   0.782   2.786  13.509  0.4547  0.1445  0.7083
 6263SOL    HW130251   0.829   2.726  13.567 -0.2164 -2.0534 -1.0264
 6263SOL    HW230252   0.713   2.725  13.484  1.2246  0.1662 -1.4707
 6264SOL     OW30253   1.677   0.420   1.459  0.0258 -0.0134  0.7702
 6264SOL    HW130254   1.653   0.511   1.474  2.6868  1.2190 -2.4245
 6264SOL    HW230255   1.601   0.393   1.406  0.9779 -1.5221  0.1738
 6265SOL     OW30256   1.555   3.691   4.734 -0.0687 -0.3260 -0.0175
 6265SOL    HW130257   1.518   3.634   4.802  0.7570 -0.0162  0.6869
 6265SOL    HW230258   1.521   3.653   4.653  0.2332  0.9812 -0.7508
 6266SOL     OW30259   1.976   4.003  17.601 -0.6964 -0.0235  0.4481
 6266SOL    HW130260   1.935   3.918  17.585  0.7820 -0.4318 -1.1644
 6266SOL    HW230261   1.939   4.013  17.689  1.3402 -1.0155  1.4185
 6267SOL     OW30262   0.943   3.002   9.407  0.1034 -0.5774 -0.1455
 6267SOL    HW130263   0.928   2.956   9.489 -0.5654  0.7474  0.4746
 6267SOL    HW230264   0.870   3.064   9.410  1.8616  1.4410  0.4575
 6268SOL     OW30265   3.572   1.635  10.239  0.2601  0.2189  0.1450
 6268SOL    HW130266   3.616   1.612  10.157  0.1145  1.7924 -0.3854
 6268SOL    HW230267   3.516   1.559  10.254 -0.4344  1.2411  2.7625
 6269SOL     OW30268   1.104   0.847   2.964 -0.6271  0.2697  0.1613
 6269SOL    HW130269   1.047   0.772   2.948  1.0767 -0.2264 -3.5531
 6269SOL    HW230270   1.158   0.819   3.038  0.6634 -0.5058 -1.0728
 6270SOL     OW30271   1.844   1.473   0.966  0.1602 -0.2000  0.0833
 6270SOL    HW130272   1.837   1.384   0.931 -0.5810  0.2801 -1.0150
 6270SOL    HW230273   1.925   1.493   0.919  0.4686  1.4655  1.3442
 6271SOL     OW30274   3.556   2.808  12.595 -1.5112 -0.3467  0.4624
 6271SOL    HW130275   3.588   2.718  12.601  0.6524  0.3303 -0.7617
 6271SOL    HW230276   3.631   2.856  12.558 -0.3134 -1.8054  0.9870
 6272SOL     OW30277   3.716   3.779   3.686 -0.7462  0.0721  0.6575
 6272SOL    HW130278   3.710   3.710   3.621  1.7180  0.3492  0.1446
 6272SOL    HW230279   3.802   3.762   3.724  0.1096 -1.5505 -2.0150
 6273SOL     OW30280   2.212   0.119  15.703  0.1266  0.0411  0.0449
 6273SOL    HW130281   2.158   0.191  15.733 -0.1292  0.3286 -1.1096
 6273SOL    HW230282   2.145   0.051  15.696  0.3362  0.0529 -2.0362
 6274SOL     OW30283   2.380   2.235   6.078 -0.2614 -0.2183  0.5706
 6274SOL    HW130284   2.436   2.298   6.032  0.3512 -0.2957  1.2108
 6274SOL    HW230285   2.409   2.237   6.169 -1.6569 -1.2727  1.0357
 6275SOL     OW30286   0.254   2.018   6.202 -0.4229 -0.3957 -0.1638
 6275SOL    HW130287   0.210   2.071   6.269  1.4064 -1.8613  2.1839
 6275SOL    HW230288   0.220   1.931   6.222 -1.2206 -0.4116 -1.5534
 6276SOL     OW30289   1.414   3.956  12.481  0.2972  0.3385  0.4169
 6276SOL    HW130290   1.427   4.048  12.505  1.9186  0.1279  0.3318
 6276SOL    HW230291   1.504   3.923  12.481  0.5813  1.1011  0.9409
 6277SOL     OW30292   2.920   4.030   6.345 -0.2752  0.3133  0.4351
 6277SOL    HW130293   3.011   4.052   6.369 -0.4289  0.5295  0.8204
 6277SOL    HW230294   2.912   3.936   6.362 -0.8339  0.1943 -0.4784
 6278SOL     OW30295   1.244   0.451   4.918  0.1184  0.4177 -0.0862
 6278SOL    HW130296   1.256   0.542   4.891  2.2931  0.8357  2.2475
 6278SOL    HW230297   1.328   0.421   4.884 -0.8235 -0.0628 -1.9748
 6279SOL     OW30298   0.258   3.102   5.132  0.2252  0.1522  0.6374
 6279SOL    HW130299   0.268   3.120   5.225 -0.8434 -1.3113  1.0435
 6279SOL    HW230300   0.180   3.047   5.145 -1.3613  1.9074 -1.4323
 6280SOL     OW30301   1.925   4.445  10.026  0.3962  0.3912  0.0799
 6280SOL    HW130302   1.966   4.531  10.035 -2.9512  1.9463  0.8008
 6280SOL    HW230303   1.991   4.400   9.974  0.2100  1.1545 -0.8281
 6281SOL     OW30304   0.848   2.067  10.896  0.5935  1.3863 -0.6110
 6281SOL    HW130305   0.879   2.031  10.813 -3.8688 -0.4373 -1.4823
 6281SOL    HW230306   0.926   2.061  10.951  1.2110 -1.5403 -1.8112
 6282SOL     OW30307   1.524   3.765  15.764  0.2286  0.1587  0.9088
 6282SOL    HW130308   1.581   3.834  15.728 -0.9815  0.5326 -0.2651
 6282SOL    HW230309   1.525   3.689  15.706 -0.3038  1.2843 -0.5783
 6283SOL     OW30310   2.157   4.141  10.886 -0.0330 -0.5745  0.2468
 6283SOL    HW130311   2.208   4.070  10.923  3.8712  2.3006  0.4133
 6283SOL    HW230312   2.201   4.145  10.801  1.0345 -1.8349  0.7445
 6284SOL     OW30313   1.630   2.518  13.567 -0.3611  0.2375 -0.3327
 6284SOL    HW130314   1.691   2.457  13.610  0.6677  2.3494  1.2473
 6284SOL    HW230315   1.575   2.553  13.637 -0.1504  0.2151 -0.1564
 6285SOL     OW30316   2.434   2.976   1.083  0.0399  0.2422 -0.7103
 6285SOL    HW130317   2.497   2.924   1.034  0.3890  0.8077 -0.8540
 6285SOL    HW230318   2.438   3.060   1.038 -3.5231  0.7710 -0.0776
 6286SOL     OW30319   0.150   0.399   3.493 -0.0645 -0.7104  0.3867
 6286SOL    HW130320   0.060   0.396   3.460  0.4104 -2.3008 -0.7441
 6286SOL    HW230321   0.195   0.458   3.432 -2.0723  0.1901 -0.2515
 6287SOL     OW30322   3.446   1.484   8.757 -0.4930 -0.0750 -0.4294
 6287SOL    HW130323   3.481   1.406   8.800 -0.3314  0.2433  0.0097
 6287SOL    HW230324   3.465   1.451   8.669 -2.1082 -1.1884 -0.3723
 6288SOL     OW30325   3.373   3.823   4.578  0.2726 -0.5236  0.3159
 6288SOL    HW130326   3.453   3.776   4.554 -0.1671 -1.4536  0.6826
 6288SOL    HW230327   3.313   3.761   4.537 -1.4179  1.2044  0.1622
 6289SOL     OW30328   1.971   0.896   1.297  0.6475  0.7328  0.6779
 6289SOL    HW130329   1.941   0.890   1.388  0.2601  1.1537  0.5747
 6289SOL    HW230330   1.971   0.803   1.271  0.6455  0.4595  1.6591
 6290SOL     OW30331   0.882   0.748  11.568 -0.0306  0.8810  0.1014
 6290SOL    HW130332   0.965   0.795  11.579 -0.7082  1.9614  0.4899
 6290SOL    HW230333   0.899   0.685  11.638 -0.1202  1.4423  0.6251
 6291SOL     OW30334   1.551   2.608   9.116  0.1962  0.3219 -0.0947
 6291SOL    HW130335   1.640   2.615   9.152  0.7679 -2.4485 -0.9964
 6291SOL    HW230336   1.568   2.666   9.041 -0.0127 -0.5769 -0.8297
 6292SOL     OW30337   1.869   3.106   4.905 -0.4988  0.5675 -0.1804
 6292SOL    HW130338   1.823   3.190   4.895 -0.3418  0.6800  0.0726
 6292SOL    HW230339   1.925   3.110   4.827 -0.5847 -0.1843 -0.2777
 6293SOL     OW30340   3.964   1.681   6.854  0.3189 -0.1613  0.3324
 6293SOL    HW130341   3.982   1.740   6.928 -1.4936  0.5613  0.2029
 6293SOL    HW230342   3.998   1.736   6.783  1.7857  1.3204  2.1637
 6294SOL     OW30343   1.128   4.098   7.123 -0.2867  0.2723 -0.0629
 6294SOL    HW130344   1.069   4.023   7.131 -0.8196  0.5967 -0.9953
 6294SOL    HW230345   1.209   4.046   7.125  0.0638  0.8963  2.5422
 6295SOL     OW30346   0.138   2.466   4.701 -0.4783 -0.2666 -0.1894
 6295SOL    HW130347   0.193   2.519   4.759 -0.5941 -1.5316  1.0721
 6295SOL    HW230348   0.122   2.398   4.766 -3.2783  1.1047  0.5689
 6296SOL     OW30349   1.524   4.573  12.388 -0.9682 -0.4124  0.0275
 6296SOL    HW130350   1.607   4.528  12.375  0.1680  1.7652 -0.3569
 6296SOL    HW230351   1.532   4.590  12.482  0.9175  0.8570 -0.3529
 6297SOL     OW30352   1.472   3.436   3.360 -0.2167  0.8391 -0.1078
 6297SOL    HW130353   1.454   3.371   3.292  0.5819 -1.3870  1.8101
 6297SOL    HW230354   1.475   3.389   3.444  2.5374  0.8771 -0.2015
 6298SOL     OW30355   1.446   1.501   8.560  0.3797  0.3023  0.7985
 6298SOL    HW130356   1.420   1.433   8.622 -1.9401 -0.4075 -0.9630
 6298SOL    HW230357   1.541   1.501   8.575  0.3904  0.3671  0.7293
 6299SOL     OW30358   4.501   2.718  15.243  0.0875  0.4660 -0.8391
 6299SOL    HW130359   4.418   2.715  15.195 -0.5784  1.3942  0.2768
 6299SOL    HW230360   4.550   2.784  15.193  1.3150 -0.7022 -1.1720
 6300SOL     OW30361   4.123   2.687   7.291 -0.0846 -0.2753 -0.3540
 6300SOL    HW130362   4.188   2.700   7.222  1.6396  0.4076  1.4012
 6300SOL    HW230363   4.156   2.604   7.325 -0.8511 -0.8801 -1.0977
 6301SOL     OW30364   0.754   0.055   9.216  0.5755  1.2070  0.5060
 6301SOL    HW130365   0.725   4.689   9.208  3.0867  0.1965  2.8458
 6301SOL    HW230366   0.671   0.102   9.211 -0.8857 -1.5144 -1.0115
 6302SOL     OW30367   2.058   4.485   0.259 -0.2380 -0.1063  0.9057
 6302SOL    HW130368   2.105   4.412   0.219  0.4281  1.4093 -1.0667
 6302SOL    HW230369   2.114   4.559   0.233  1.0534 -1.0614  0.9671
 6303SOL     OW30370   4.091   0.400   3.124  0.4834 -0.5745  0.4271
 6303SOL    HW130371   4.065   0.312   3.150 -0.4467 -0.3717  0.1535
 6303SOL    HW230372   4.099   0.381   3.031  2.6509  1.2736  0.2406
 6304SOL     OW30373   1.865   1.883  14.838  0.3434 -0.7864 -0.3818
 6304SOL    HW130374   1.931   1.914  14.900  0.1863  2.4792 -1.8547
 6304SOL    HW230375   1.911   1.888  14.755  0.9028  1.1845  0.0544
 6305SOL     OW30376   2.357   4.209  11.892 -0.3194 -0.1071  0.1593
 6305SOL    HW130377   2.385   4.257  11.970 -1.1810  0.1521  0.3006
 6305SOL    HW230378   2.269   4.244  11.900  0.1801  1.0108  0.8198
 6306SOL     OW30379   3.603   1.692  15.909 -0.0232 -0.1736  1.0820
 6306SOL    HW130380   3.556   1.612  15.886  0.5463 -0.6868  1.6933
 6306SOL    HW230381   3.533   1.756  15.921 -1.5084 -1.7700  0.8074
 6307SOL     OW30382   3.272   2.989   1.508 -0.5172 -0.1407 -0.0380
 6307SOL    HW130383   3.198   2.937   1.476 -0.9009  0.7240 -0.5698
 6307SOL    HW230384   3.283   3.050   1.435  0.0080  0.5621  0.6224
 6308SOL     OW30385   4.041   3.956   2.803 -0.0982  0.8024 -0.4195
 6308SOL    HW130386   3.980   3.995   2.866 -0.7134 -1.1913  0.2227
 6308SOL    HW230387   4.002   3.979   2.719 -1.3839 -0.3728 -0.1350
 6309SOL     OW30388   0.537   2.431  13.125 -0.4439 -0.3627 -0.5443
 6309SOL    HW130389   0.602   2.369  13.157  0.8946  1.9648  1.2769
 6309SOL    HW230390   0.558   2.507  13.180  0.7306  0.0193 -1.5158
 6310SOL     OW30391   4.368   3.598   3.508 -0.4630 -0.3702 -0.3113
 6310SOL    HW130392   4.381   3.508   3.537 -1.3877 -0.5848 -0.5608
 6310SOL    HW230393   4.273   3.600   3.498 -0.5490 -1.8740  0.1634
 6311SOL     OW30394   0.064   1.627   5.015 -0.0941 -0.1943  0.2580
 6311SOL    HW130395   0.014   1.607   5.094 -2.4841  1.7211 -0.7813
 6311SOL    HW230396   0.095   1.539   4.994  0.2943 -0.0856  0.3654
 6312SOL     OW30397   0.945   3.193  11.950  0.4052  0.2453  0.1308
 6312SOL    HW130398   0.943   3.283  11.983  3.6581  1.0919 -1.9629
 6312SOL    HW230399   0.944   3.153  12.036 -0.0955 -0.2579 -0.1081
 6313SOL     OW30400   0.305   0.544   3.316  0.1324  0.4574  0.3639
 6313SOL    HW130401   0.346   0.532   3.231 -2.0100  0.3352 -0.6603
 6313SOL    HW230402   0.312   0.640   3.318 -1.8691  0.6295 -1.0988
 6314SOL     OW30403   1.265   4.034  14.717 -0.1934 -0.3916 -0.0586
 6314SOL    HW130404   1.267   4.050  14.812 -0.4172  1.4468 -0.3597
 6314SOL    HW230405   1.216   3.952  14.710  1.2612 -1.4425  2.0390
 6315SOL     OW30406   3.555   4.379   5.408 -0.6886  0.3457  0.1058
 6315SOL    HW130407   3.609   4.446   5.366  3.1704 -2.1050  1.1419
 6315SOL    HW230408   3.573   4.305   5.350 -0.8243  2.0724 -2.1653
 6316SOL     OW30409   2.664   2.021   5.930 -0.7904  0.3023  0.1159
 6316SOL    HW130410   2.684   2.111   5.954 -1.4334  0.3304  0.5495
 6316SOL    HW230411   2.639   1.981   6.013 -1.3972 -1.7598 -1.0635
 6317SOL     OW30412   3.063   3.946   1.009  0.2368  0.7977  0.0127
 6317SOL    HW130413   3.123   3.976   0.941 -0.8124  0.4611 -1.0545
 6317SOL    HW230414   3.114   3.953   1.090  0.1302 -1.8275  0.3146
 6318SOL     OW30415   3.965   1.405   0.035  0.1760 -0.0100  0.2933
 6318SOL    HW130416   3.884   1.399   0.086  0.5454  2.2441  1.1549
 6318SOL    HW230417   4.034   1.370   0.092 -1.2316 -1.7338  0.9364
 6319SOL     OW30418   2.631   4.268   2.984 -0.1477 -0.2342  0.4573
 6319SOL    HW130419   2.558   4.237   3.037 -2.1079  1.5308 -1.1998
 6319SOL    HW230420   2.697   4.213   3.025 -0.6720  0.1988  1.8970
 6320SOL     OW30421   2.888   1.884   8.647 -0.3175  0.1343 -0.0483
 6320SOL    HW130422   2.878   1.791   8.629 -0.2832 -0.0220  0.7498
 6320SOL    HW230423   2.930   1.914   8.566  0.1874 -2.3240 -0.7057
 6321SOL     OW30424   4.482   2.128   3.305 -0.2711  0.0596 -0.1708
 6321SOL    HW130425   4.388   2.131   3.284  0.0214  0.1471 -1.4162
 6321SOL    HW230426   4.523   2.100   3.223  1.0187  0.6943  0.2621
 6322SOL     OW30427   3.155   2.279   6.010  0.1089 -0.2026 -0.6565
 6322SOL    HW130428   3.200   2.271   6.094  0.8789  2.8619 -0.7697
 6322SOL    HW230429   3.219   2.237   5.952 -1.4153 -2.6415 -0.5655
 6323SOL     OW30430   3.917   2.052   8.074  0.2320 -0.4127  0.1465
 6323SOL    HW130431   3.855   1.981   8.092 -0.8679  0.4577 -0.1642
 6323SOL    HW230432   3.914   2.093   8.160  0.0619  1.9018 -0.9520
 6324SOL     OW30433   1.432   2.589   9.486 -0.2747  0.3316 -0.1046
 6324SOL    HW130434   1.374   2.662   9.507 -1.0280  0.1291 -1.4919
 6324SOL    HW230435   1.514   2.633   9.464 -0.7348  1.0381 -0.4038
 6325SOL     OW30436   1.246   2.500   4.196  0.0300  0.4270  0.0110
 6325SOL    HW130437   1.318   2.456   4.242  0.8295  2.3624  0.6185
 6325SOL    HW230438   1.166   2.455   4.221 -0.3166  0.6366 -0.7178
 6326SOL     OW30439   1.566   1.172  10.256 -0.2949 -0.4083  0.2576
 6326SOL    HW130440   1.654   1.198  10.230  0.2113 -2.6227 -0.1633
 6326SOL    HW230441   1.514   1.199  10.180 -0.2279 -0.2900  0.2536
 6327SOL     OW30442   0.915   3.563   3.668 -0.1122  0.3174  0.3400
 6327SOL    HW130443   0.894   3.478   3.628 -0.2070  0.5488 -0.1064
 6327SOL    HW230444   1.010   3.569   3.657 -0.1488 -0.4113 -0.3704
 6328SOL     OW30445   0.293   1.456  16.333 -0.0749  0.2450  0.4034
 6328SOL    HW130446   0.298   1.383  16.396  1.8682  0.8227  0.9191
 6328SOL    HW230447   0.385   1.479  16.321  0.0569  0.3798  1.6674
 6329SOL     OW30448   3.436   1.916   9.250 -0.3783  0.0359 -0.0640
 6329SOL    HW130449   3.444   1.906   9.345 -0.6267 -1.7411 -0.2270
 6329SOL    HW230450   3.510   1.865   9.216 -1.4046  0.4753 -2.9460
 6330SOL     OW30451   3.337   1.419   0.082 -0.9236 -0.8028 -0.4484
 6330SOL    HW130452   3.283   1.469   0.143  0.9610 -0.6429  1.1186
 6330SOL    HW230453   3.321   1.331   0.118 -0.0477 -0.8318 -0.1273
 6331SOL     OW30454   4.002   4.456   4.658  0.3197 -0.3806 -0.0269
 6331SOL    HW130455   3.921   4.502   4.634  1.4706  1.0641 -1.1871
 6331SOL    HW230456   3.992   4.374   4.610  1.5533  0.6191 -2.0271
 6332SOL     OW30457   2.570   3.234   0.670 -0.4042  0.6824 -0.4393
 6332SOL    HW130458   2.574   3.267   0.581  0.4809  1.6155 -0.0551
 6332SOL    HW230459   2.655   3.258   0.707  0.1884  0.0435 -1.4089
 6333SOL     OW30460   4.594   3.004   0.216  0.0194  0.0522  0.5546
 6333SOL    HW130461   4.514   2.971   0.257  0.7169  0.5805  2.3612
 6333SOL    HW230462   4.566   3.076   0.160  2.5099  1.9744  1.7642
 6334SOL     OW30463   2.193   2.785   3.496  0.4889  0.2543  0.0917
 6334SOL    HW130464   2.139   2.707   3.485 -0.0035  0.6401 -0.2343
 6334SOL    HW230465   2.269   2.762   3.442  0.2560  1.3565 -0.7092
 6335SOL     OW30466   3.929   3.837   2.529 -0.0382 -0.2469 -0.1635
 6335SOL    HW130467   3.875   3.876   2.460  1.5323  0.9310 -0.7225
 6335SOL    HW230468   3.995   3.782   2.486  0.7763 -0.2776  1.1050
 6336SOL     OW30469   3.812   1.256   0.347  0.3308 -0.2482  0.3372
 6336SOL    HW130470   3.832   1.213   0.430 -0.3378 -0.2792  0.4859
 6336SOL    HW230471   3.739   1.209   0.307  0.9488  0.6111 -1.7657
 6337SOL     OW30472   2.937   4.321   7.026 -0.3459 -0.0528  0.2777
 6337SOL    HW130473   2.864   4.381   7.032  1.3154  1.7611  2.3129
 6337SOL    HW230474   2.970   4.328   6.937  3.0983 -0.2043  1.5340
 6338SOL     OW30475   4.511   1.320   2.006  0.0369 -0.4219 -0.1975
 6338SOL    HW130476   4.563   1.312   2.085  0.5225 -0.8260 -0.5558
 6338SOL    HW230477   4.498   1.414   1.996 -3.0884 -0.4992  3.0826
 6339SOL     OW30478   0.490   1.200   6.286  0.4883  0.0557 -0.4148
 6339SOL    HW130479   0.411   1.155   6.315 -0.9076  0.8517 -2.9694
 6339SOL    HW230480   0.459   1.259   6.218  2.1218 -0.2082 -1.3737
 6340SOL     OW30481   1.787   2.613   1.431 -0.0444  0.3058 -0.2134
 6340SOL    HW130482   1.698   2.609   1.396  0.1613  1.8942 -0.9222
 6340SOL    HW230483   1.795   2.701   1.468  1.3414 -0.2273  0.7667
 6341SOL     OW30484   2.210   2.137   8.321  0.3463  0.0347  0.4537
 6341SOL    HW130485   2.200   2.178   8.235 -4.3276 -2.0641  0.0535
 6341SOL    HW230486   2.232   2.048   8.293 -0.2902  0.8573 -2.5559
 6342SOL     OW30487   3.803   3.519   6.234 -0.4045  0.4358  0.5256
 6342SOL    HW130488   3.820   3.536   6.142 -1.8591 -3.1785 -0.3722
 6342SOL    HW230489   3.811   3.425   6.246 -2.5808  0.0406 -1.1037
 6343SOL     OW30490   3.696   1.221  13.874  0.0860 -0.4326 -0.1534
 6343SOL    HW130491   3.681   1.258  13.787 -3.1044 -0.2816  0.4505
 6343SOL    HW230492   3.659   1.288  13.932 -1.4097 -0.0569 -1.5440
 6344SOL     OW30493   1.247   1.634   1.623 -0.3866  0.0692 -0.3655
 6344SOL    HW130494   1.306   1.560   1.607  2.2256  2.4142 -1.5397
 6344SOL    HW230495   1.163   1.596   1.597  0.0642 -0.2473 -1.3638
 6345SOL     OW30496   2.573   3.634   3.473 -0.0812  0.4690 -0.1179
 6345SOL    HW130497   2.536   3.721   3.462  2.7454  1.6547 -0.3820
 6345SOL    HW230498   2.492   3.585   3.486  0.1743  1.0176  3.5578
 6346SOL     OW30499   0.031   4.239   1.837  0.0050  0.1804 -0.3181
 6346SOL    HW130500   4.680   4.294   1.819  0.8426  1.1255 -0.9545
 6346SOL    HW230501   0.053   4.257   1.928  2.0377  0.8084 -0.9403
 6347SOL     OW30502   0.131   4.236   6.981  0.4119 -0.3258  0.0209
 6347SOL    HW130503   0.063   4.217   6.916  1.1116  0.5197 -0.9583
 6347SOL    HW230504   0.077   4.280   7.046  1.5942  2.9102 -1.1855
 6348SOL     OW30505   0.394   4.379   5.454  0.3525  0.8578 -0.2866
 6348SOL    HW130506   0.450   4.436   5.507  0.8152 -1.6773  1.9575
 6348SOL    HW230507   0.317   4.434   5.471 -1.0709 -1.7208  1.7025
 6349SOL     OW30508   3.658   4.110   4.321 -0.6701  0.1867  0.0163
 6349SOL    HW130509   3.579   4.138   4.275  0.1417  1.8363 -0.3719
 6349SOL    HW230510   3.654   4.015   4.307  1.8705  0.1568 -0.5373
 6350SOL     OW30511   4.144   1.500   7.622 -0.5997  0.3548 -0.3333
 6350SOL    HW130512   4.116   1.588   7.646 -0.6858  0.4180 -0.6671
 6350SOL    HW230513   4.169   1.513   7.531 -0.1870 -2.6532 -0.6677
 6351SOL     OW30514   2.622   2.871   0.894  0.1679 -0.2272  0.3592
 6351SOL    HW130515   2.686   2.907   0.955  1.4399  1.7274 -2.1492
 6351SOL    HW230516   2.670   2.803   0.845  3.0274  0.6183  2.0195
 6352SOL     OW30517   1.755   0.664   3.472  0.3362  0.2967 -0.1670
 6352SOL    HW130518   1.776   0.673   3.565 -2.6054 -0.0855  0.5502
 6352SOL    HW230519   1.783   0.574   3.453  0.3048  0.4092 -0.7327
 6353SOL     OW30520   2.941   0.212  10.132  0.6844 -0.1310  0.0463
 6353SOL    HW130521   2.919   0.141  10.071  0.9440 -0.5532  0.4439
 6353SOL    HW230522   3.014   0.254  10.085  1.3982 -0.1369  1.1422
 6354SOL     OW30523   0.678   1.421   2.200 -0.4534  0.8650 -0.0329
 6354SOL    HW130524   0.733   1.491   2.167  0.2584 -0.4592 -1.6655
 6354SOL    HW230525   0.711   1.397   2.287  0.1555  1.7155 -0.0325
 6355SOL     OW30526   2.893   3.212   2.088  0.4741 -0.9016  0.1658
 6355SOL    HW130527   2.922   3.277   2.153  1.2890 -1.4847  0.3881
 6355SOL    HW230528   2.978   3.172   2.069  1.1490  0.3972  0.4441
 6356SOL     OW30529   2.667   2.974   0.540  0.1255 -0.6906  0.5158
 6356SOL    HW130530   2.747   3.025   0.552  0.0399 -0.0973 -1.3916
 6356SOL    HW230531   2.613   3.014   0.608 -0.4294  0.0249 -0.3468
 6357SOL     OW30532   2.178   2.314  12.939  0.0408  0.1635  0.5685
 6357SOL    HW130533   2.099   2.280  12.981 -0.1174  0.6485  0.6613
 6357SOL    HW230534   2.145   2.352  12.858 -1.4525 -0.6673  0.7997
 6358SOL     OW30535   3.508   3.522  15.311  0.0058  0.1094  0.0383
 6358SOL    HW130536   3.582   3.527  15.249  0.0730 -3.7710 -0.1981
 6358SOL    HW230537   3.475   3.610  15.325 -1.2386 -0.2028 -0.9158
 6359SOL     OW30538   0.226   0.358   8.087  0.1485 -0.4031 -0.3488
 6359SOL    HW130539   0.240   0.268   8.118  1.0332 -0.2315 -0.2498
 6359SOL    HW230540   0.145   0.343   8.038 -0.5046  0.7690  0.3850
 6360SOL     OW30541   4.140   4.170   6.984  0.1371  0.2414  0.3032
 6360SOL    HW130542   4.098   4.085   6.976 -1.2489  0.9121  0.4005
 6360SOL    HW230543   4.178   4.185   6.897  2.0975 -0.3491  1.0426
 6361SOL     OW30544   3.239   0.236   0.699 -0.5909  0.4450  0.1395
 6361SOL    HW130545   3.301   0.297   0.659  0.1540  0.3035  1.0660
 6361SOL    HW230546   3.165   0.233   0.638 -0.0229  1.5062 -0.6061
 6362SOL     OW30547   0.475   0.754   1.138  0.4705 -0.1775  0.2745
 6362SOL    HW130548   0.414   0.805   1.191  1.3144 -0.8322  1.8429
 6362SOL    HW230549   0.492   0.830   1.081 -1.4309  0.7627  0.9716
 6363SOL     OW30550   2.527   4.468   8.592 -0.4616  0.4702  0.6138
 6363SOL    HW130551   2.464   4.506   8.653 -1.7603 -2.3621  1.0244
 6363SOL    HW230552   2.583   4.420   8.653  0.3347  0.5168 -0.0760
 6364SOL     OW30553   1.284   2.901  11.324 -0.3687 -0.5616 -0.3488
 6364SOL    HW130554   1.218   2.895  11.255 -0.3943 -1.1039 -0.2750
 6364SOL    HW230555   1.273   2.833  11.390 -1.5130  0.1010  0.1299
 6365SOL     OW30556   4.583   3.157  10.816 -0.5898  0.2765 -0.2969
 6365SOL    HW130557   4.574   3.108  10.734  0.2229  2.3304 -1.6298
 6365SOL    HW230558   4.543   3.239  10.790  2.0903  1.4322 -0.8399
 6366SOL     OW30559   2.818   0.866  14.239  0.1343 -0.9653 -0.0396
 6366SOL    HW130560   2.739   0.919  14.225  0.2342 -0.4822  1.2317
 6366SOL    HW230561   2.883   0.934  14.221 -1.1179  0.1039 -0.5759
 6367SOL     OW30562   1.055   1.270   5.529 -0.2976  0.4260  0.5777
 6367SOL    HW130563   1.081   1.193   5.580 -0.9872  0.5128  1.0488
 6367SOL    HW230564   0.963   1.251   5.513 -0.2267 -2.2194  3.3207
 6368SOL     OW30565   3.758   1.588  17.502  0.3031 -0.3599  0.2035
 6368SOL    HW130566   3.788   1.499  17.487  0.9592  0.2559 -2.1479
 6368SOL    HW230567   3.700   1.570  17.576 -0.6892  2.1639  0.0417
 6369SOL     OW30568   2.022   1.205   4.734  0.0245  0.2482  0.3211
 6369SOL    HW130569   1.954   1.141   4.758 -3.0219  3.5286  0.4338
 6369SOL    HW230570   2.049   1.186   4.644  0.4858  0.1252  0.4870
 6370SOL     OW30571   4.032   1.829  13.284 -0.0566  0.4493 -0.1091
 6370SOL    HW130572   4.092   1.845  13.357 -3.1298  4.7653  1.4606
 6370SOL    HW230573   3.957   1.864  13.331  0.1838  0.0842  0.5504
 6371SOL     OW30574   4.259   4.563   1.147  0.2057 -0.3536  0.1031
 6371SOL    HW130575   4.222   4.486   1.191 -2.5314  1.0306  0.2487
 6371SOL    HW230576   4.316   4.604   1.213  0.4955  2.3726 -1.8417
 6372SOL     OW30577   2.040   4.537  12.497  0.0407 -0.2918  0.0119
 6372SOL    HW130578   2.123   4.499  12.469 -1.4083 -2.2520 -1.6824
 6372SOL    HW230579   2.053   4.570  12.586 -1.6232  0.5081 -0.0422
 6373SOL     OW30580   1.857   0.677   7.846 -0.3023  0.2469  0.1536
 6373SOL    HW130581   1.919   0.625   7.896  2.1020  0.7492 -2.3125
 6373SOL    HW230582   1.892   0.763   7.869 -1.0011  0.4283  0.5384
 6374SOL     OW30583   1.655   3.297   8.205 -0.9643 -0.7782 -0.5257
 6374SOL    HW130584   1.684   3.235   8.272 -0.9941 -0.2466 -0.0244
 6374SOL    HW230585   1.729   3.281   8.146  0.4237 -1.0236  1.2632
 6375SOL     OW30586   0.235   1.387   1.917 -0.3788  0.2599 -0.3410
 6375SOL    HW130587   0.231   1.421   2.007  0.1967 -0.0173 -0.2125
 6375SOL    HW230588   0.254   1.294   1.932  3.2306  0.9185 -0.7638
 6376SOL     OW30589   4.267   0.718   8.026 -0.5652 -0.1267 -0.3101
 6376SOL    HW130590   4.227   0.723   7.939 -1.7794 -1.2573  0.1880
 6376SOL    HW230591   4.192   0.687   8.078 -0.3007 -1.8057 -0.9340
 6377SOL     OW30592   0.197   2.717   4.279 -0.2899 -1.1424 -0.2380
 6377SOL    HW130593   0.166   2.709   4.369  0.9678  0.2291  0.3193
 6377SOL    HW230594   0.136   2.652   4.244 -0.9945 -0.2481 -0.6746
 6378SOL     OW30595   1.533   1.408   2.373 -1.0346  0.1880  0.6606
 6378SOL    HW130596   1.500   1.362   2.295 -0.4207 -0.3205  0.7041
 6378SOL    HW230597   1.569   1.343   2.433 -2.6317 -1.1005  0.2425
 6379SOL     OW30598   1.940   1.993  10.044  0.2052  0.1057 -0.1850
 6379SOL    HW130599   1.922   2.086  10.055  0.5272  0.0252  1.0982
 6379SOL    HW230600   1.916   1.988   9.952 -2.0254 -1.9887  0.5386
 6380SOL     OW30601   3.888   1.341  17.490  0.0574 -0.1038 -0.0663
 6380SOL    HW130602   3.963   1.290  17.458 -0.0576 -1.0976  1.2479
 6380SOL    HW230603   3.917   1.360  17.579  0.2303  0.8495 -0.3205
 6381SOL     OW30604   2.732   2.259   6.125 -0.3927  0.5768 -0.6429
 6381SOL    HW130605   2.725   2.354   6.117 -0.3356  0.3952 -2.7128
 6381SOL    HW230606   2.827   2.250   6.121 -0.5523 -1.2132 -0.5413
 6382SOL     OW30607   1.337   2.414   2.852 -0.0214 -0.1110 -0.3132
 6382SOL    HW130608   1.303   2.394   2.939  4.0380 -0.7621  1.1145
 6382SOL    HW230609   1.306   2.332   2.814  0.1529 -0.7054  0.8348
 6383SOL     OW30610   2.576   1.352   7.190 -0.5487  0.1927 -0.2644
 6383SOL    HW130611   2.542   1.349   7.279  0.0612 -1.0987 -0.0696
 6383SOL    HW230612   2.555   1.264   7.158  1.3819  0.1942 -1.5530
 6384SOL     OW30613   4.178   2.900  17.650 -0.2435 -0.4062  0.3643
 6384SOL    HW130614   4.268   2.931  17.660 -0.3607  0.1699 -0.4073
 6384SOL    HW230615   4.128   2.982  17.644  0.3093 -0.3139 -2.9634
 6385SOL     OW30616   4.676   4.148   3.142  0.5258 -0.4103 -0.3605
 6385SOL    HW130617   0.016   4.215   3.124  0.0693  0.6632  2.0201
 6385SOL    HW230618   4.719   4.078   3.190  0.8969 -0.8998 -1.4091
 6386SOL     OW30619   4.444   1.456  17.572  0.2287 -0.0243 -0.3362
 6386SOL    HW130620   4.498   1.535  17.563  1.5900 -0.7357  1.6813
 6386SOL    HW230621   4.371   1.492  17.622  1.0349  2.3142 -0.8564
 6387SOL     OW30622   1.793   1.746   3.672 -0.1965  0.2374 -0.3945
 6387SOL    HW130623   1.849   1.808   3.718 -0.5269  0.6978 -0.6156
 6387SOL    HW230624   1.843   1.665   3.677  0.3378  0.5080 -1.3143
 6388SOL     OW30625   0.726   3.937  16.100 -0.3848 -0.1819  0.1851
 6388SOL    HW130626   0.689   4.014  16.056  0.9390 -0.9439 -2.2574
 6388SOL    HW230627   0.709   3.940  16.194 -0.1739 -0.4847  0.2329
 6389SOL     OW30628   4.516   0.351  17.669  0.2333  0.5796  0.5958
 6389SOL    HW130629   4.514   0.267   0.012 -0.9682 -0.1013 -0.7335
 6389SOL    HW230630   4.489   0.414   0.034  1.2699  2.9540 -1.2213
 6390SOL     OW30631   4.706   3.206   2.282 -0.1002  0.0228 -0.2906
 6390SOL    HW130632   0.011   3.140   2.343  1.4679  0.0356 -1.0570
 6390SOL    HW230633   4.652   3.255   2.344  0.3243  2.5072 -1.8567
 6391SOL     OW30634   0.243   2.113   8.444 -0.1964 -0.5205  0.3770
 6391SOL    HW130635   0.284   2.067   8.517  2.9223 -1.2231 -1.8035
 6391SOL    HW230636   0.161   2.064   8.442 -0.0492 -0.7976  1.1960
 6392SOL     OW30637   2.860   1.267   5.834  0.0835  0.2490 -0.1615
 6392SOL    HW130638   2.829   1.219   5.757 -4.0970  1.7959  0.5460
 6392SOL    HW230639   2.781   1.273   5.887  0.1284 -1.1358  0.0692
 6393SOL     OW30640   4.599   3.843   7.646  0.2561 -0.7378 -0.3212
 6393SOL    HW130641   4.533   3.814   7.710 -1.0093  0.0827 -1.2503
 6393SOL    HW230642   4.601   3.938   7.658 -4.2640 -0.5722 -0.7651
 6394SOL     OW30643   4.056   2.104  11.105 -0.1458  0.2265 -0.5297
 6394SOL    HW130644   4.013   2.046  11.168 -1.3087  1.6965  0.0316
 6394SOL    HW230645   4.135   2.053  11.089  0.0549  0.5504 -0.5893
 6395SOL     OW30646   0.860   1.604   9.266 -0.4467  0.4004  0.1815
 6395SOL    HW130647   0.811   1.674   9.310  2.6767  0.2031  4.0274
 6395SOL    HW230648   0.921   1.645   9.204 -1.6818  1.3741 -0.4037
 6396SOL     OW30649   4.229   4.237   7.392  0.2110 -0.2254 -0.4000
 6396SOL    HW130650   4.305   4.179   7.404  0.0430 -0.0758  1.3078
 6396SOL    HW230651   4.167   4.199   7.453  0.1774 -0.4884 -0.5957
 6397SOL     OW30652   1.270   0.497   8.565  0.7138 -0.2356 -0.2492
 6397SOL    HW130653   1.358   0.472   8.537  1.1525  1.3428 -0.2923
 6397SOL    HW230654   1.224   0.413   8.557  0.7405 -0.0544 -2.4220
 6398SOL     OW30655   0.178   4.216  11.058  0.5014  0.3313  0.4606
 6398SOL    HW130656   0.223   4.289  11.015  1.4334 -0.9560 -0.7979
 6398SOL    HW230657   0.166   4.164  10.978  0.4531  0.9889  0.0354
 6399SOL     OW30658   3.025   1.292   4.243 -0.3050  0.6012  0.1847
 6399SOL    HW130659   3.011   1.305   4.337 -1.5274 -0.1466  0.1076
 6399SOL    HW230660   2.989   1.365   4.193 -0.8093  0.2039 -0.0270
 6400SOL     OW30661   4.510   4.027   6.785 -0.4356 -0.2663  0.0594
 6400SOL    HW130662   4.440   4.087   6.810 -0.3975  0.8457 -2.5137
 6400SOL    HW230663   4.555   4.082   6.721 -1.8948  2.0666  1.0709
 6401SOL     OW30664   4.303   2.273   3.615  0.2856 -0.1967  0.0995
 6401SOL    HW130665   4.390   2.275   3.576  0.2467 -0.4609 -0.0026
 6401SOL    HW230666   4.306   2.197   3.674 -1.1236 -0.2163  0.1643
 6402SOL     OW30667   2.020   0.896  14.842  0.3951 -0.1346  0.3456
 6402SOL    HW130668   2.079   0.946  14.785 -1.5928  0.0510 -1.5252
 6402SOL    HW230669   2.051   0.811  14.811 -0.4669 -0.2111 -0.2992
 6403SOL     OW30670   0.287   1.939   2.205 -0.2235 -0.5538 -0.4004
 6403SOL    HW130671   0.307   1.846   2.213 -2.2004 -1.0704 -1.4616
 6403SOL    HW230672   0.370   1.987   2.203  0.4203 -1.6364  0.5474
 6404SOL     OW30673   0.564   1.764   5.253  0.1931  0.4634 -0.0162
 6404SOL    HW130674   0.489   1.802   5.207  0.0832  0.0772 -0.1580
 6404SOL    HW230675   0.616   1.733   5.179 -0.7914  0.1249 -0.5751
 6405SOL     OW30676   0.549   1.205  10.909 -0.1998  0.3868 -0.0952
 6405SOL    HW130677   0.617   1.227  10.972 -0.9386  0.9793  0.4879
 6405SOL    HW230678   0.485   1.159  10.963 -0.5403  0.2162 -0.6370
 6406SOL     OW30679   4.643   3.325  16.865  0.3116 -0.4284  0.0952
 6406SOL    HW130680   4.650   3.292  16.955  0.5508  0.4704  0.4111
 6406SOL    HW230681   0.005   3.296  16.837 -0.2816 -0.3794 -1.7316
 6407SOL     OW30682   4.065   0.812   4.670 -0.4146  0.1114 -0.8892
 6407SOL    HW130683   4.047   0.718   4.670  0.4325 -0.0555 -3.1352
 6407SOL    HW230684   4.115   0.811   4.588  1.7484  3.4601  0.3680
 6408SOL     OW30685   2.077   2.845  14.158  0.0536  0.4919  0.0429
 6408SOL    HW130686   2.133   2.773  14.189  0.0168  0.5013  0.1293
 6408SOL    HW230687   2.010   2.843  14.227 -0.3177 -0.6005 -0.3368
 6409SOL     OW30688   1.390   2.694   8.500 -0.2288 -0.0039 -0.1390
 6409SOL    HW130689   1.366   2.602   8.510 -4.1155  0.7540 -2.4757
 6409SOL    HW230690   1.356   2.736   8.578 -1.2296  0.3952 -0.7879
 6410SOL     OW30691   2.677   2.345   7.786  0.4803 -0.4083  0.3099
 6410SOL    HW130692   2.771   2.329   7.778  0.4125  0.9097 -2.9898
 6410SOL    HW230693   2.676   2.371   7.878  2.6251 -0.1294  0.2406
 6411SOL     OW30694   2.864   0.819   5.186  0.6328 -0.8814  0.1425
 6411SOL    HW130695   2.812   0.743   5.213  1.1146 -0.8176  1.2551
 6411SOL    HW230696   2.794   0.884   5.181 -2.1256 -3.9186 -0.6356
 6412SOL     OW30697   4.386   0.268   4.828 -0.7037  0.8400  0.1286
 6412SOL    HW130698   4.415   0.303   4.744 -1.0332  0.4576 -0.1490
 6412SOL    HW230699   4.473   0.253   4.865 -1.1615 -0.0799  0.8471
 6413SOL     OW30700   1.610   2.059   5.901  0.6297 -0.1200 -0.1859
 6413SOL    HW130701   1.559   2.003   5.843 -1.4996  1.6789 -0.0718
 6413SOL    HW230702   1.668   1.988   5.925 -0.3623 -0.4447  1.2593
 6414SOL     OW30703   2.241   2.771  11.019  0.0281  0.0796 -0.1809
 6414SOL    HW130704   2.178   2.844  11.019 -0.4602 -0.3383 -0.0587
 6414SOL    HW230705   2.312   2.806  10.965 -1.8544 -0.6504 -3.1147
 6415SOL     OW30706   1.022   1.319  11.041  0.3346 -0.6958  0.5402
 6415SOL    HW130707   1.074   1.370  10.980  1.0636 -1.7972  0.2436
 6415SOL    HW230708   1.091   1.301  11.104  1.7630 -1.3802 -1.2322
 6416SOL     OW30709   4.711   3.222  11.229 -0.3501  0.2309  0.6530
 6416SOL    HW130710   0.022   3.294  11.177  0.0990 -0.6263 -0.2307
 6416SOL    HW230711   0.029   3.150  11.184  0.0929  0.2740  1.0143
 6417SOL     OW30712   3.058   2.231   3.021  0.6685 -0.0528 -0.4922
 6417SOL    HW130713   3.150   2.246   2.999 -0.0057  1.8332 -2.0714
 6417SOL    HW230714   3.054   2.299   3.088  3.3389 -0.3473 -0.0345
 6418SOL     OW30715   1.305   3.082   2.200 -0.3107  0.0670 -0.0938
 6418SOL    HW130716   1.368   3.153   2.188  1.2356 -1.1881  0.6314
 6418SOL    HW230717   1.229   3.122   2.243  1.1918  1.7393  1.0038
 6419SOL     OW30718   4.300   1.071   4.463 -0.1726  0.0608 -0.3895
 6419SOL    HW130719   4.380   1.019   4.450 -1.0434 -1.2156 -0.6823
 6419SOL    HW230720   4.318   1.121   4.543  0.5884  2.4318 -2.0794
 6420SOL     OW30721   2.942   3.145  16.726  0.2684 -0.2686 -0.1560
 6420SOL    HW130722   2.882   3.100  16.666  1.1250 -1.9435  0.2310
 6420SOL    HW230723   2.906   3.121  16.811 -1.6611 -0.2436 -0.9590
 6421SOL     OW30724   4.485   2.927   4.213 -0.1453 -0.3234  1.0141
 6421SOL    HW130725   4.440   2.883   4.285  0.1737 -1.2457  0.6609
 6421SOL    HW230726   4.549   2.865   4.177 -1.5018 -1.3191  0.3111
 6422SOL     OW30727   2.173   2.260  12.186  0.1687 -0.2196  0.0965
 6422SOL    HW130728   2.158   2.308  12.104 -0.8655  0.5832  0.7607
 6422SOL    HW230729   2.264   2.238  12.166  0.3441 -0.5556  1.2933
 6423SOL     OW30730   0.555   2.609   4.862 -0.0231  0.5136  0.6102
 6423SOL    HW130731   0.635   2.649   4.828 -0.4247  1.7009  1.0661
 6423SOL    HW230732   0.569   2.527   4.814 -1.2746 -0.0540  1.1904
 6424SOL     OW30733   3.019   1.050  15.898  0.1035 -0.4862 -0.3414
 6424SOL    HW130734   3.073   1.021  15.825 -2.3705 -2.2658 -1.4753
 6424SOL    HW230735   3.008   0.980  15.963  0.2750 -0.6887 -0.5298
 6425SOL     OW30736   1.360   2.071   4.556 -0.0030 -0.2253  0.8534
 6425SOL    HW130737   1.321   2.145   4.603 -0.4637 -1.1761  1.9787
 6425SOL    HW230738   1.420   2.034   4.622 -0.3688 -1.4676  0.4985
 6426SOL     OW30739   1.560   3.811   2.484  0.5138 -0.7562  0.3999
 6426SOL    HW130740   1.647   3.775   2.499  0.8387  0.8543  2.3517
 6426SOL    HW230741   1.522   3.753   2.418  1.5802  0.1670 -1.0198
 6427SOL     OW30742   2.595   1.924   4.777 -0.1875  0.3981 -0.1420
 6427SOL    HW130743   2.670   1.877   4.741 -1.0481 -1.8948  1.0633
 6427SOL    HW230744   2.565   1.850   4.831  0.1853  0.8285  0.6471
 6428SOL     OW30745   1.096   1.173   6.293  0.2136 -0.0309  0.3991
 6428SOL    HW130746   1.089   1.097   6.236 -0.7651  0.0092  0.4723
 6428SOL    HW230747   1.073   1.240   6.228  2.5535 -1.0402 -1.4420
 6429SOL     OW30748   0.427   0.805   7.413 -0.4157 -0.0062 -0.3679
 6429SOL    HW130749   0.448   0.770   7.499  1.6717  1.9815 -0.0805
 6429SOL    HW230750   0.365   0.738   7.383 -2.6287  1.3483  1.1343
 6430SOL     OW30751   3.412   4.348   7.840 -0.0528  0.3024 -0.0610
 6430SOL    HW130752   3.431   4.426   7.892 -2.2896 -0.5540  2.0426
 6430SOL    HW230753   3.321   4.339   7.867  0.3332  0.6375  1.3503
 6431SOL     OW30754   0.886   1.590   3.362  0.0457  0.1064  0.1316
 6431SOL    HW130755   0.918   1.629   3.281  0.5529  1.8650  1.1644
 6431SOL    HW230756   0.891   1.670   3.415  2.1680 -1.1543  1.8407
 6432SOL     OW30757   1.128   4.484   8.667  0.5555 -0.2078  0.0696
 6432SOL    HW130758   1.090   4.396   8.658 -0.2325  0.1063  0.3933
 6432SOL    HW230759   1.213   4.457   8.700  1.3507  0.5524 -1.3428
 6433SOL     OW30760   3.284   1.524   5.088 -0.3080 -0.0758  0.2096
 6433SOL    HW130761   3.247   1.551   5.003 -0.6422 -2.1719 -0.3051
 6433SOL    HW230762   3.356   1.586   5.088 -1.8356  1.7097 -1.2561
 6434SOL     OW30763   2.303   2.609   6.001  0.5172  0.0134 -0.9688
 6434SOL    HW130764   2.214   2.625   5.970  0.6817  1.8592 -0.4977
 6434SOL    HW230765   2.288   2.570   6.087  0.4801 -2.9165 -2.3176
 6435SOL     OW30766   3.315   3.645  10.867 -0.2793 -0.0563 -0.0283
 6435SOL    HW130767   3.317   3.709  10.938  1.9653 -1.9240  1.5844
 6435SOL    HW230768   3.394   3.594  10.886  1.1729  2.8596  1.6776
 6436SOL     OW30769   4.142   3.503   7.164  0.6688  0.2181 -0.6269
 6436SOL    HW130770   4.094   3.545   7.235  1.2025  0.7412 -0.5790
 6436SOL    HW230771   4.215   3.479   7.221  0.1740 -0.0477 -0.0977
 6437SOL     OW30772   1.572   0.631  12.930 -0.3969 -0.0176 -0.6985
 6437SOL    HW130773   1.484   0.668  12.931  0.6686  2.4495  1.1070
 6437SOL    HW230774   1.571   0.608  12.837 -0.8623  2.6915 -1.3737
 6438SOL     OW30775   4.496   2.847   8.458 -0.3736 -0.1395 -0.2722
 6438SOL    HW130776   4.464   2.934   8.483 -2.2546 -0.7555 -0.5311
 6438SOL    HW230777   4.591   2.859   8.466 -0.5871 -0.0760  2.3215
 6439SOL     OW30778   1.224   2.313   8.071  0.5797 -0.0784  0.2055
 6439SOL    HW130779   1.205   2.401   8.101 -1.4108 -1.0215  1.6787
 6439SOL    HW230780   1.151   2.252   8.082  0.4969 -0.3092 -1.6282
 6440SOL     OW30781   2.168   3.459   5.462 -0.0512 -0.4717 -0.6703
 6440SOL    HW130782   2.076   3.482   5.448  0.8341  2.4580 -1.6945
 6440SOL    HW230783   2.210   3.544   5.452 -2.1765  0.4210 -2.0963
 6441SOL     OW30784   1.551   3.039  12.916 -0.0757 -0.2545 -0.1867
 6441SOL    HW130785   1.460   3.027  12.889  0.4992  0.9031 -2.5944
 6441SOL    HW230786   1.587   2.951  12.906  1.0212  0.3096 -1.1073
 6442SOL     OW30787   4.429   0.719   3.579 -0.1729  0.4376 -0.1533
 6442SOL    HW130788   4.474   0.723   3.495 -0.7383 -0.4036 -0.4918
 6442SOL    HW230789   4.338   0.718   3.551  0.1580  0.8720 -1.2485
 6443SOL     OW30790   1.284   0.469   5.872 -0.8582 -0.1031 -0.3584
 6443SOL    HW130791   1.316   0.551   5.834 -0.2613  0.3000  1.0136
 6443SOL    HW230792   1.268   0.415   5.796 -1.8308 -1.2146  0.6400
 6444SOL     OW30793   4.011   0.203   4.255 -0.3675 -0.2616 -0.0679
 6444SOL    HW130794   4.081   0.169   4.312 -0.1745  0.7258  0.2962
 6444SOL    HW230795   3.967   0.255   4.322  1.1423  0.5106  0.3420
 6445SOL     OW30796   1.334   0.255   5.668  0.6958 -0.1326  0.1877
 6445SOL    HW130797   1.332   0.162   5.644  0.1397 -0.0872  0.0524
 6445SOL    HW230798   1.428   0.271   5.667  0.9184 -1.3983  0.5927
 6446SOL     OW30799   2.974   4.215   3.267  0.3257 -0.2781 -0.1046
 6446SOL    HW130800   3.035   4.288   3.254  0.3735 -0.5318 -1.2384
 6446SOL    HW230801   2.975   4.197   3.361 -1.2360 -0.6668 -0.1633
 6447SOL     OW30802   3.895   4.073   4.807  0.1771 -0.7910  0.1751
 6447SOL    HW130803   3.841   4.137   4.853  1.4800 -0.4058  1.1776
 6447SOL    HW230804   3.887   4.099   4.715  1.2444  2.3531  0.9649
 6448SOL     OW30805   3.448   4.135   9.232 -0.8140 -0.2060  0.0540
 6448SOL    HW130806   3.390   4.181   9.172 -0.6315  0.1907  0.1784
 6448SOL    HW230807   3.400   4.147   9.314 -2.8820 -3.6687 -0.6429
 6449SOL     OW30808   4.039   1.524   8.336  0.6763 -0.4225  0.9298
 6449SOL    HW130809   4.000   1.438   8.320 -0.9091  0.6333 -0.8737
 6449SOL    HW230810   4.119   1.506   8.287  0.2391 -3.2755  1.2374
 6450SOL     OW30811   4.333   2.547  11.822  0.2075  0.7838 -0.1217
 6450SOL    HW130812   4.399   2.582  11.762  1.3167  0.1256  0.7020
 6450SOL    HW230813   4.355   2.590  11.905  0.1652  1.0944 -0.2709
 6451SOL     OW30814   3.534   0.380   6.068 -0.3152 -0.5445  0.3321
 6451SOL    HW130815   3.451   0.404   6.109 -0.1930 -0.9997  0.8476
 6451SOL    HW230816   3.589   0.392   6.145  0.8909 -0.4143 -0.5569
 6452SOL     OW30817   0.960   2.424  13.585 -0.0611 -0.8617  0.0963
 6452SOL    HW130818   0.942   2.498  13.644  1.2170  0.3432 -1.0543
 6452SOL    HW230819   0.917   2.454  13.506 -0.9377  0.1109  0.9449
 6453SOL     OW30820   3.873   2.815   1.920  0.1997  0.3110  0.4916
 6453SOL    HW130821   3.806   2.769   1.869  0.9635  0.9711 -1.1261
 6453SOL    HW230822   3.891   2.747   1.985 -0.6765  0.4240  0.8484
 6454SOL     OW30823   3.816   3.396   2.338 -0.2144  0.3299  0.0943
 6454SOL    HW130824   3.878   3.359   2.275 -0.6583  0.2046 -0.2711
 6454SOL    HW230825   3.839   3.489   2.337 -0.8363  0.4802 -0.2556
 6455SOL     OW30826   1.531   4.622   7.167 -0.1669  0.2245  0.4310
 6455SOL    HW130827   1.513   4.626   7.073  0.2205 -1.2926  0.3052
 6455SOL    HW230828   1.524   4.715   7.189  0.8219  0.6640 -1.1250
 6456SOL     OW30829   4.306   1.450   8.715 -0.6442  0.0096 -0.8793
 6456SOL    HW130830   4.258   1.409   8.642 -1.0973 -2.0487  0.5573
 6456SOL    HW230831   4.232   1.481   8.767  0.4315  1.7599 -0.4060
 6457SOL     OW30832   1.095   1.703   1.958  0.4224 -0.6970  0.1687
 6457SOL    HW130833   1.023   1.640   1.948  0.0753 -0.2946  0.1408
 6457SOL    HW230834   1.159   1.647   2.002 -0.4766 -1.9142 -0.0358
 6458SOL     OW30835   2.144   0.707   3.070 -0.3612  0.3149 -0.1229
 6458SOL    HW130836   2.054   0.719   3.042 -0.9869 -1.5562  1.0923
 6458SOL    HW230837   2.183   0.757   2.998 -0.0745 -2.4709 -1.9421
 6459SOL     OW30838   0.896   2.670   3.172  0.2430 -0.2550  0.0095
 6459SOL    HW130839   0.954   2.658   3.097  0.1725  0.8074 -0.2147
 6459SOL    HW230840   0.907   2.762   3.195  1.8564 -0.4726  0.1300
 6460SOL     OW30841   2.492   0.623   7.186  0.5500  0.4859 -0.4462
 6460SOL    HW130842   2.570   0.570   7.169  0.1584 -0.1898 -0.1232
 6460SOL    HW230843   2.430   0.551   7.174  0.6799  0.0534  1.5466
 6461SOL     OW30844   3.553   3.770   2.843 -0.3950  0.2598  0.8566
 6461SOL    HW130845   3.463   3.783   2.813 -0.4102 -1.6439  0.0928
 6461SOL    HW230846   3.597   3.753   2.760 -2.0389 -0.4866  0.1378
 6462SOL     OW30847   2.821   4.540  15.061 -0.5341  0.1088  0.7819
 6462SOL    HW130848   2.761   4.467  15.075 -0.0529 -0.2727  0.8650
 6462SOL    HW230849   2.808   4.599  15.135 -0.8273  0.0782  0.7518
 6463SOL     OW30850   0.769   4.482   1.613 -0.3724  0.2238  0.1547
 6463SOL    HW130851   0.740   4.512   1.699 -3.0814  0.6046 -0.8980
 6463SOL    HW230852   0.859   4.464   1.640 -0.6394 -0.6855  0.4308
 6464SOL     OW30853   4.097   3.444   6.890  0.3681 -0.3282 -0.3623
 6464SOL    HW130854   4.023   3.500   6.865  0.0544  0.1771  1.6787
 6464SOL    HW230855   4.101   3.459   6.984 -1.5747 -0.6116 -0.2415
 6465SOL     OW30856   3.500   1.037   4.385  0.0040  0.4142 -0.3452
 6465SOL    HW130857   3.556   1.001   4.316 -0.1765  0.5652 -0.5660
 6465SOL    HW230858   3.444   1.103   4.345  0.2982  0.2819 -0.9809
 6466SOL     OW30859   3.916   1.356   7.398 -0.0465  0.5622 -0.4669
 6466SOL    HW130860   3.875   1.371   7.313 -0.6274 -1.8975 -0.6042
 6466SOL    HW230861   3.837   1.369   7.451 -1.7920 -2.1534 -2.4338
 6467SOL     OW30862   0.647   2.530   5.345 -0.1044  0.4130  0.2584
 6467SOL    HW130863   0.672   2.598   5.408  0.5618 -0.7538  1.2452
 6467SOL    HW230864   0.625   2.582   5.268  1.9651  0.1453 -0.4814
 6468SOL     OW30865   0.611   4.127   1.310 -0.0937 -0.2355 -0.2884
 6468SOL    HW130866   0.683   4.186   1.288 -0.1629 -0.5003 -1.2289
 6468SOL    HW230867   0.596   4.157   1.400 -0.3065 -0.2609 -0.3173
 6469SOL     OW30868   1.084   0.807  13.235  0.4167  0.0523 -0.4831
 6469SOL    HW130869   1.068   0.899  13.213  2.4375  0.9487  1.7137
 6469SOL    HW230870   1.001   0.778  13.199  0.4053  1.5226 -1.6262
 6470SOL     OW30871   4.173   2.234  16.397  0.5120 -0.7451 -0.5310
 6470SOL    HW130872   4.188   2.275  16.312 -0.3355 -1.7733 -1.1828
 6470SOL    HW230873   4.154   2.305  16.459  0.3511 -1.7380  0.5680
 6471SOL     OW30874   3.071   2.470   3.184  0.1732 -0.0017  0.2977
 6471SOL    HW130875   3.163   2.467   3.211  0.8729  2.4830 -1.8139
 6471SOL    HW230876   3.029   2.489   3.268  2.0257 -1.9426  1.6893
 6472SOL     OW30877   3.199   0.361   3.957 -0.3628 -0.5154  0.0751
 6472SOL    HW130878   3.210   0.273   3.992  0.6887 -0.7654 -0.8720
 6472SOL    HW230879   3.274   0.412   3.989  0.5957 -2.0404  0.2733
 6473SOL     OW30880   4.215   3.433  16.411 -0.2039  0.4582  0.0469
 6473SOL    HW130881   4.166   3.471  16.484  1.1639  0.7177  0.8242
 6473SOL    HW230882   4.205   3.338  16.419 -0.6968  0.7166  2.3824
 6474SOL     OW30883   4.242   0.754   3.961 -0.2617 -0.3502  0.0831
 6474SOL    HW130884   4.294   0.686   3.918 -0.3217 -2.4756  3.4224
 6474SOL    HW230885   4.308   0.823   3.952 -1.3603  0.6704 -0.1992
 6475SOL     OW30886   2.074   1.924  14.681  0.3518 -0.1559  0.3589
 6475SOL    HW130887   2.072   1.954  14.590 -0.3132  0.2327  0.4987
 6475SOL    HW230888   2.168   1.916  14.693  0.3254 -1.8385 -0.5156
 6476SOL     OW30889   0.144   0.670   5.755 -0.5197  0.1396  0.0561
 6476SOL    HW130890   0.133   0.759   5.722 -0.2237  0.9719  2.2813
 6476SOL    HW230891   0.118   0.621   5.676  2.7714  1.0276 -1.5887
 6477SOL     OW30892   3.033   4.327   6.028  0.1747  0.4208 -0.3651
 6477SOL    HW130893   3.095   4.343   5.956 -0.6706 -0.6957 -1.3468
 6477SOL    HW230894   2.954   4.370   5.994 -1.2091 -1.4791  0.4522
 6478SOL     OW30895   2.732   1.778   8.211 -0.4748  0.3778  0.9700
 6478SOL    HW130896   2.827   1.771   8.200 -0.6332 -0.0920 -0.0650
 6478SOL    HW230897   2.709   1.870   8.223  1.3508  0.8988  0.4528
 6479SOL     OW30898   2.741   3.029  16.578 -0.3716  0.1717 -0.2834
 6479SOL    HW130899   2.700   2.942  16.583 -0.6721  0.3579  0.5408
 6479SOL    HW230900   2.709   3.047  16.490  0.5410  1.3997 -0.3587
 6480SOL     OW30901   4.050   0.799  12.029  0.2396  0.3041 -0.5249
 6480SOL    HW130902   4.016   0.758  11.950  0.1964 -0.3147 -0.1801
 6480SOL    HW230903   3.971   0.852  12.038 -0.2551 -0.6155  0.4379
 6481SOL     OW30904   3.711   3.713  14.649  0.2407 -0.2121 -0.1980
 6481SOL    HW130905   3.669   3.796  14.673  1.0412  0.7721 -2.2425
 6481SOL    HW230906   3.800   3.723  14.682  0.2018 -0.4664 -0.0134
 6482SOL     OW30907   4.495   0.888   4.451 -0.3533  0.9707 -0.3287
 6482SOL    HW130908   4.465   0.798   4.469 -0.7010  0.8387 -1.5418
 6482SOL    HW230909   4.469   0.900   4.360  0.8159  0.9918 -0.6556
 6483SOL     OW30910   2.192   3.889   6.038  0.0220  0.3037  0.5086
 6483SOL    HW130911   2.212   3.879   5.945 -2.3919 -2.3196  0.2709
 6483SOL    HW230912   2.097   3.903   6.032  0.5090  4.3902  2.7179
 6484SOL     OW30913   0.111   2.885   3.383 -0.0355  0.6409  0.4153
 6484SOL    HW130914   0.154   2.832   3.450  1.1964 -2.6161 -2.9575
 6484SOL    HW230915   0.179   2.893   3.317 -0.7386 -0.9346 -0.4959
 6485SOL     OW30916   1.892   0.236  12.731 -0.7377 -0.1540  0.5597
 6485SOL    HW130917   1.970   0.187  12.757 -0.1985  0.9800  1.0914
 6485SOL    HW230918   1.840   0.163  12.698 -0.7346 -0.3638  1.0243
 6486SOL     OW30919   4.241   2.365   1.594  0.3381 -0.3434 -0.0536
 6486SOL    HW130920   4.236   2.373   1.689 -2.0067 -0.9006 -0.1417
 6486SOL    HW230921   4.151   2.349   1.565  0.5991  0.5884 -1.3624
 6487SOL     OW30922   3.397   1.767   2.715  0.6021  0.1123  0.0321
 6487SOL    HW130923   3.380   1.743   2.807 -0.9732 -2.9930 -1.0747
 6487SOL    HW230924   3.421   1.685   2.673  1.5966  0.3770  0.0951
 6488SOL     OW30925   1.726   3.042   1.736  0.2844 -0.2514  0.0641
 6488SOL    HW130926   1.636   3.018   1.713  0.5590  0.0403 -1.3161
 6488SOL    HW230927   1.735   3.025   1.830 -1.9652 -1.9954 -0.0208
 6489SOL     OW30928   3.249   0.192   1.480 -0.6766 -0.7950 -0.1333
 6489SOL    HW130929   3.327   0.153   1.441  0.1388  1.0518 -0.3234
 6489SOL    HW230930   3.188   0.135   1.434 -2.0746  1.9071 -1.6282
 6490SOL     OW30931   1.910   3.907   6.034 -0.3346 -0.1769  0.4025
 6490SOL    HW130932   1.853   3.975   5.998 -0.7366 -0.0178  1.3386
 6490SOL    HW230933   1.869   3.905   6.121 -1.6078 -0.8272 -0.1998
 6491SOL     OW30934   0.531   1.449   7.441 -0.2681  0.2717  0.5599
 6491SOL    HW130935   0.484   1.403   7.372 -0.7962  0.5523  0.7323
 6491SOL    HW230936   0.549   1.534   7.401  0.1077  0.1020  0.3694
 6492SOL     OW30937   0.393   0.371   6.478 -0.0966 -0.1685  0.1121
 6492SOL    HW130938   0.441   0.352   6.397 -1.6409 -1.7195 -0.4323
 6492SOL    HW230939   0.452   0.430   6.526 -0.0643 -0.2259  0.1432
 6493SOL     OW30940   2.308   3.518   3.476 -0.2637 -0.2296 -0.2935
 6493SOL    HW130941   2.335   3.439   3.428  2.4137 -0.0578  0.9406
 6493SOL    HW230942   2.220   3.538   3.442 -0.4915  0.4032  0.6610
 6494SOL     OW30943   4.609   1.112   8.746 -0.2143  0.8907  0.1299
 6494SOL    HW130944   4.573   1.201   8.739 -1.2641  0.4737  0.1957
 6494SOL    HW230945   4.703   1.126   8.754 -0.1781  1.7022 -1.6302
 6495SOL     OW30946   2.385   4.333   2.663 -0.6921 -0.2474  0.5839
 6495SOL    HW130947   2.479   4.316   2.671 -0.8157 -0.5078  1.5040
 6495SOL    HW230948   2.374   4.395   2.591 -1.1784 -0.2701  0.6412
 6496SOL     OW30949   3.914   3.140  14.283 -1.1165  0.0632  0.1422
 6496SOL    HW130950   3.843   3.202  14.272 -1.2749 -0.2243 -0.4241
 6496SOL    HW230951   3.981   3.153  14.215  1.7554 -2.6593  2.4219
 6497SOL     OW30952   1.896   4.163   4.291  0.1146  0.1914 -0.5478
 6497SOL    HW130953   1.926   4.246   4.328  0.5835 -0.6988  1.0551
 6497SOL    HW230954   1.805   4.170   4.320  0.5231  0.5676  0.6447
 6498SOL     OW30955   4.501   1.577  11.240 -0.1917  0.0167 -0.2974
 6498SOL    HW130956   4.480   1.484  11.244  0.7869 -0.0289  3.7272
 6498SOL    HW230957   4.466   1.608  11.323  3.2954  0.0088  1.1752
 6499SOL     OW30958   4.652   0.853  14.076 -0.3407  0.1943  0.5664
 6499SOL    HW130959   4.694   0.911  14.013  0.1099 -0.0422  0.6407
 6499SOL    HW230960   4.642   0.772  14.025  1.0070  0.4256 -0.0655
 6500SOL     OW30961   2.440   2.349   2.315  0.0562 -0.0724 -0.2412
 6500SOL    HW130962   2.430   2.411   2.388 -5.5853  0.4779 -1.4802
 6500SOL    HW230963   2.520   2.381   2.273  0.2216  0.6733  0.6215
 6501SOL     OW30964   1.949   4.095   4.675 -0.3130  0.8773 -0.1119
 6501SOL    HW130965   1.867   4.125   4.715  1.1687  1.5870  2.4024
 6501SOL    HW230966   1.999   4.091   4.757 -0.6847 -0.7241  0.0338
 6502SOL     OW30967   1.260   0.615   9.802  0.0292  0.0052 -0.2732
 6502SOL    HW130968   1.207   0.642   9.877 -0.4518 -1.6537 -0.0132
 6502SOL    HW230969   1.224   0.533   9.767 -1.3438  0.2046  0.6722
 6503SOL     OW30970   4.281   2.089   4.734  0.0750 -0.1523 -0.7656
 6503SOL    HW130971   4.208   2.150   4.733  0.2093  0.0018 -1.0752
 6503SOL    HW230972   4.227   2.017   4.703  0.2193 -1.5071  2.0459
 6504SOL     OW30973   0.367   1.678   4.863  0.0143  0.4972 -0.0906
 6504SOL    HW130974   0.371   1.750   4.926 -2.2525  0.7956 -0.2904
 6504SOL    HW230975   0.283   1.694   4.820 -0.9702  0.2865  1.7330
 6505SOL     OW30976   4.335   4.099  13.806  0.4206 -0.0363 -0.4705
 6505SOL    HW130977   4.243   4.106  13.833  0.7884  1.7239  0.3585
 6505SOL    HW230978   4.368   4.189  13.799 -0.1534  0.1423 -0.8832
 6506SOL     OW30979   0.611   0.338   8.993 -0.5260  0.3028  0.9805
 6506SOL    HW130980   0.610   0.434   9.000 -0.4257  0.4660 -1.2538
 6506SOL    HW230981   0.551   0.317   9.064  1.0445 -0.6520  2.0069
 6507SOL     OW30982   3.806   2.991   3.234 -0.5133 -0.5024  0.0159
 6507SOL    HW130983   3.900   3.008   3.235 -1.2884  3.8324 -2.0256
 6507SOL    HW230984   3.798   2.900   3.205 -0.4381 -0.0917 -1.3087
 6508SOL     OW30985   2.646   2.483   4.797  0.1903  0.3013 -0.0738
 6508SOL    HW130986   2.579   2.431   4.841 -0.4063  1.4783  0.3926
 6508SOL    HW230987   2.698   2.413   4.758 -1.4681 -0.5349 -0.7892
 6509SOL     OW30988   3.973   3.728  11.630 -0.2329 -0.3338  0.3442
 6509SOL    HW130989   3.901   3.717  11.691  1.1959 -0.3309  2.0219
 6509SOL    HW230990   3.941   3.791  11.565  1.1867  1.3422  1.2698
 6510SOL     OW30991   0.360   0.104   7.571 -0.0569 -0.1841 -0.1691
 6510SOL    HW130992   0.337   0.151   7.651 -3.9551 -1.2560 -0.6873
 6510SOL    HW230993   0.420   0.042   7.611  1.4743  1.7007  0.4657
 6511SOL     OW30994   1.861   4.697   4.510 -0.4519  0.1448  0.0316
 6511SOL    HW130995   1.825   0.060   4.504  0.3737  0.4392 -0.7935
 6511SOL    HW230996   1.902   4.706   4.596 -1.0298  1.7607  0.1332
 6512SOL     OW30997   4.695   4.475   8.717 -0.0914 -0.5540  0.6537
 6512SOL    HW130998   0.040   4.521   8.672 -2.4800  1.0180 -1.4663
 6512SOL    HW230999   4.651   4.446   8.637 -0.2871  0.1448  0.5102
 6513SOL     OW31000   3.829   0.395   5.715 -0.1018 -0.2323  0.7157
 6513SOL    HW131001   3.875   0.446   5.648 -3.2019  1.9718  0.2462
 6513SOL    HW231002   3.859   0.444   5.792 -0.7017  1.7158 -0.2822
 6514SOL     OW31003   4.046   3.381   8.384  0.1263  0.3586 -0.3223
 6514SOL    HW131004   4.044   3.400   8.478 -0.3031  1.4666 -0.5613
 6514SOL    HW231005   4.081   3.464   8.354 -2.0352  0.5993 -2.1278
 6515SOL     OW31006   1.707   0.815   2.719 -0.4438 -0.1144  0.4059
 6515SOL    HW131007   1.751   0.776   2.795  0.0173 -0.4537 -0.0328
 6515SOL    HW231008   1.620   0.842   2.749 -0.6984  0.5914 -0.9886
 6516SOL     OW31009   1.472   3.857   3.537  0.0331  0.2169  0.2943
 6516SOL    HW131010   1.501   3.871   3.627  0.1834 -0.1062  0.2973
 6516SOL    HW231011   1.376   3.848   3.539  0.0704 -0.5879 -1.8262
 6517SOL     OW31012   1.729   1.199   5.125  0.3211  0.5504 -0.3960
 6517SOL    HW131013   1.722   1.223   5.033  1.1052  0.6595 -0.4274
 6517SOL    HW231014   1.818   1.170   5.141 -0.8419 -1.0135  3.3381
 6518SOL     OW31015   0.946   0.288  17.495 -0.7181  0.7489 -0.3444
 6518SOL    HW131016   0.986   0.250  17.416 -0.5213  0.8432 -0.2908
 6518SOL    HW231017   1.022   0.270  17.551 -0.4615  2.0231 -0.2768
 6519SOL     OW31018   3.546   0.798   3.168 -0.4230 -0.1891 -0.4409
 6519SOL    HW131019   3.473   0.744   3.140 -0.0801 -0.4057 -0.9196
 6519SOL    HW231020   3.556   0.843   3.084  0.8409  1.0531  0.3641
 6520SOL     OW31021   2.175   3.286   0.477  0.1069 -0.0824  0.5188
 6520SOL    HW131022   2.161   3.380   0.461 -2.2713  0.1165  3.7395
 6520SOL    HW231023   2.120   3.264   0.552  0.3818 -1.7525  0.2346
 6521SOL     OW31024   4.330   2.662   8.323 -0.0455 -0.0337 -0.0098
 6521SOL    HW131025   4.366   2.685   8.238 -1.4914  0.3420 -0.5204
 6521SOL    HW231026   4.374   2.732   8.372  0.5786  0.3026 -1.0487
 6522SOL     OW31027   2.696   2.196  14.863  0.2692 -0.0201 -0.6149
 6522SOL    HW131028   2.711   2.102  14.870 -3.6234 -0.6819 -1.4578
 6522SOL    HW231029   2.761   2.215  14.795 -0.0819 -1.2848 -1.3061
 6523SOL     OW31030   3.179   3.176   6.990  0.2347  0.0544 -0.0455
 6523SOL    HW131031   3.248   3.118   7.022 -0.7902 -0.3909  1.3575
 6523SOL    HW231032   3.197   3.193   6.897  0.4235  1.4142  0.2395
 6524SOL     OW31033   2.848   1.430   5.163 -0.5153  0.2853 -0.0167
 6524SOL    HW131034   2.824   1.350   5.118 -1.4076 -0.7166  2.2092
 6524SOL    HW231035   2.893   1.403   5.243  0.5864  3.7545  0.5409
 6525SOL     OW31036   3.615   3.442   8.638  0.0190  0.1810  0.3955
 6525SOL    HW131037   3.561   3.365   8.655  1.3098 -0.5919  1.0274
 6525SOL    HW231038   3.688   3.432   8.699  0.4551  2.1773  0.1964
 6526SOL     OW31039   0.253   1.525   7.337 -0.3923 -0.1111 -0.6573
 6526SOL    HW131040   0.198   1.513   7.260 -2.7882 -2.0081  1.3950
 6526SOL    HW231041   0.242   1.444   7.386 -0.3584  0.3995  0.1998
 6527SOL     OW31042   0.572   0.159   4.841 -0.0585 -0.0141 -0.1311
 6527SOL    HW131043   0.513   0.084   4.829  1.6226 -1.5170  1.0862
 6527SOL    HW231044   0.529   0.198   4.917 -2.2669 -1.9843 -0.3445
 6528SOL     OW31045   0.035   3.250   7.551  0.0406 -0.7762 -0.0432
 6528SOL    HW131046   4.708   3.298   7.487  0.9166 -0.5814 -0.6131
 6528SOL    HW231047   4.710   3.247   7.632 -1.4006 -0.3205 -0.9085
 6529SOL     OW31048   0.921   0.040   7.689  0.3243 -0.3514 -0.1252
 6529SOL    HW131049   1.015   0.023   7.699  0.2301 -1.2270 -0.6859
 6529SOL    HW231050   0.908   0.108   7.755 -1.7859 -0.6275 -0.2684
 6530SOL     OW31051   0.858   3.970   4.709  0.2626 -0.3888 -0.8020
 6530SOL    HW131052   0.804   3.912   4.656 -0.9143 -1.4471  1.5377
 6530SOL    HW231053   0.917   3.897   4.726 -0.1134 -1.3531 -3.6863
 6531SOL     OW31054   2.560   4.457  11.756 -0.1353 -0.0911 -0.8165
 6531SOL    HW131055   2.593   4.502  11.834 -1.0989 -2.3791  0.9064
 6531SOL    HW231056   2.550   4.367  11.786  2.6727  0.3557  1.5460
 6532SOL     OW31057   1.969   2.357   8.932 -0.1337 -0.8334 -0.5164
 6532SOL    HW131058   2.025   2.410   8.876 -1.6382  1.3099  0.0028
 6532SOL    HW231059   2.035   2.300   8.973 -0.0094 -0.1705  0.1901
 6533SOL     OW31060   3.824   3.095   4.058  0.0315  0.4350 -0.6049
 6533SOL    HW131061   3.847   3.034   3.988 -1.0530 -0.9578  0.2404
 6533SOL    HW231062   3.839   3.049   4.141  0.7896  3.9380  1.2013
 6534SOL     OW31063   2.883   1.608   2.380 -0.5899 -0.1714  0.1580
 6534SOL    HW131064   2.883   1.548   2.456 -1.0963 -0.3054  0.0565
 6534SOL    HW231065   2.976   1.596   2.363 -1.0547 -0.4349 -2.1902
 6535SOL     OW31066   0.025   0.898  13.280 -0.1945  0.3581 -0.2029
 6535SOL    HW131067   4.675   0.845  13.256  0.2455  0.4030 -1.7013
 6535SOL    HW231068   0.090   0.834  13.250 -1.5457 -0.3862 -1.5267
 6536SOL     OW31069   3.549   2.039   1.982 -0.5481 -0.6585  1.0171
 6536SOL    HW131070   3.578   1.961   2.028  0.7233 -0.9469 -0.3151
 6536SOL    HW231071   3.575   2.012   1.894  3.6826  3.4212  1.0408
 6537SOL     OW31072   0.998   3.027  10.030  0.0443  0.2118 -0.5239
 6537SOL    HW131073   0.919   2.977  10.050  0.2218 -0.9640 -2.7155
 6537SOL    HW231074   1.060   3.005  10.100  0.1084  1.6690 -0.1338
 6538SOL     OW31075   2.666   2.783   8.051 -0.9084 -0.0616  0.2486
 6538SOL    HW131076   2.682   2.736   8.133 -0.3146  0.9734  0.7299
 6538SOL    HW231077   2.717   2.863   8.064 -1.3625 -0.2723  3.4856
 6539SOL     OW31078   2.322   1.799   0.763 -0.3142  0.3581 -0.2161
 6539SOL    HW131079   2.364   1.846   0.836 -0.6663  0.0827  0.1639
 6539SOL    HW231080   2.238   1.844   0.756 -1.0873 -1.3701 -1.7633
 6540SOL     OW31081   1.107   0.391   2.824 -0.3645  0.4318 -0.1233
 6540SOL    HW131082   1.076   0.375   2.735 -1.6934  2.7398 -0.0840
 6540SOL    HW231083   1.107   0.299   2.851 -0.1376  0.3633 -0.3580
 6541SOL     OW31084   2.210   1.388   8.363  0.0963  0.4080 -0.0787
 6541SOL    HW131085   2.261   1.316   8.327  0.5303 -0.3417  2.0630
 6541SOL    HW231086   2.129   1.392   8.311 -1.4429 -1.0948  2.1780
 6542SOL     OW31087   2.188   0.567  10.732 -0.2402  0.0612 -0.4397
 6542SOL    HW131088   2.191   0.471  10.740 -2.9576  0.3002  2.8496
 6542SOL    HW231089   2.184   0.611  10.817 -0.1894  0.3987 -0.6121
 6543SOL     OW31090   2.707   3.937   3.626 -0.4429 -0.7867  0.3477
 6543SOL    HW131091   2.718   3.943   3.532  1.4117  2.0768  0.7495
 6543SOL    HW231092   2.796   3.904   3.641 -0.1723 -0.5199 -0.7323
 6544SOL     OW31093   3.849   3.955   0.788  1.2928 -0.3415 -0.2183
 6544SOL    HW131094   3.780   3.973   0.725  0.6880  1.0372  0.8386
 6544SOL    HW231095   3.917   3.991   0.731  2.9788 -2.4921  0.4200
 6545SOL     OW31096   1.418   4.473   6.489 -0.1493  0.1622 -0.0814
 6545SOL    HW131097   1.345   4.511   6.537 -1.6387 -3.7704  0.7467
 6545SOL    HW231098   1.489   4.502   6.547 -0.5188 -0.0831  0.4966
 6546SOL     OW31099   1.273   1.499   3.052  0.5925 -0.7360  0.2846
 6546SOL    HW131100   1.348   1.494   2.993  1.2856 -1.8780  1.2733
 6546SOL    HW231101   1.215   1.555   3.000  0.7765 -1.7937 -1.0455
 6547SOL     OW31102   4.398   4.569  16.889  0.2404  0.1820 -0.0296
 6547SOL    HW131103   4.431   4.646  16.935 -0.1583 -0.9831  2.2222
 6547SOL    HW231104   4.460   4.509  16.931 -1.4938 -1.3906  0.2824
 6548SOL     OW31105   0.211   3.344  16.597  0.2344 -0.3616  0.7745
 6548SOL    HW131106   0.253   3.409  16.653 -1.1182  2.7009 -1.7699
 6548SOL    HW231107   0.157   3.293  16.657 -3.2458  1.3926 -0.8352
 6549SOL     OW31108   1.763   3.059   4.612 -0.3105 -0.3124 -0.1077
 6549SOL    HW131109   1.690   3.005   4.640  1.1019 -1.1385  2.0372
 6549SOL    HW231110   1.835   2.999   4.634 -1.0112 -0.8096  0.8298
 6550SOL     OW31111   1.189   0.016  15.210 -0.7517 -0.0031  0.1764
 6550SOL    HW131112   1.113   4.705  15.256  0.6803 -1.1457  1.6198
 6550SOL    HW231113   1.181   4.690  15.129  0.9337  0.8025 -0.4918
 6551SOL     OW31114   2.898   4.443   8.308 -0.0604 -0.1996  0.2894
 6551SOL    HW131115   2.966   4.380   8.329 -1.6314 -2.5433 -1.7033
 6551SOL    HW231116   2.918   4.517   8.365  4.3560 -0.4446 -0.9233
 6552SOL     OW31117   1.904   2.811   2.827 -0.0894  0.1439 -0.6206
 6552SOL    HW131118   1.836   2.823   2.761 -0.4924 -0.1611 -0.2676
 6552SOL    HW231119   1.855   2.759   2.892  0.3824  2.5581  1.6395
 6553SOL     OW31120   4.286   4.138   2.495  0.2674 -0.4178 -0.0177
 6553SOL    HW131121   4.194   4.113   2.485  0.7031 -1.6765 -0.8678
 6553SOL    HW231122   4.307   4.121   2.587 -2.5976 -1.6559  0.4183
 6554SOL     OW31123   2.893   4.639  12.890 -0.6285 -0.4275  0.2726
 6554SOL    HW131124   2.883   4.569  12.825  0.3260 -0.4423  0.1462
 6554SOL    HW231125   2.918   4.712  12.834  4.1560 -0.3061  2.6013
 6555SOL     OW31126   3.530   3.889   3.877 -0.6471  0.2989  0.2786
 6555SOL    HW131127   3.566   3.822   3.935 -1.7516  0.5535  1.2361
 6555SOL    HW231128   3.596   3.901   3.808 -0.2899 -0.6068  0.4592
 6556SOL     OW31129   0.576   2.912   3.687  0.2195 -0.3196 -0.0646
 6556SOL    HW131130   0.576   2.820   3.713  0.1442 -0.2670  0.1236
 6556SOL    HW231131   0.664   2.949   3.697 -0.1352  1.1592 -2.4080
 6557SOL     OW31132   2.264   0.872   2.889 -0.6236 -0.0897 -0.6150
 6557SOL    HW131133   2.299   0.926   2.818 -0.9199  0.2412 -0.5097
 6557SOL    HW231134   2.242   0.935   2.958  0.0794  0.6329 -1.0388
 6558SOL     OW31135   0.326   1.311   5.435  0.1864  0.4641  0.1383
 6558SOL    HW131136   0.399   1.336   5.491 -1.8208  0.9995  2.4999
 6558SOL    HW231137   0.372   1.283   5.355 -0.5473  2.5033 -1.0097
 6559SOL     OW31138   0.800   4.434   2.484 -0.2180 -0.0607  0.8288
 6559SOL    HW131139   0.747   4.405   2.409  0.0777  0.0512  0.5770
 6559SOL    HW231140   0.874   4.373   2.490  0.5142  0.7466  0.0605
 6560SOL     OW31141   2.337   1.371   2.984  0.9773 -0.6186  0.4849
 6560SOL    HW131142   2.298   1.341   2.902 -0.0331 -0.7458  1.0078
 6560SOL    HW231143   2.406   1.306   2.994  0.6441 -0.8526  1.2896
 6561SOL     OW31144   1.485   4.178   1.452 -0.6005 -0.1853  0.0825
 6561SOL    HW131145   1.391   4.183   1.464 -0.8866 -2.8054 -1.0987
 6561SOL    HW231146   1.504   4.271   1.440 -1.9330 -0.2279 -2.4179
 6562SOL     OW31147   3.762   0.789   2.548 -0.4899  0.1955  0.2832
 6562SOL    HW131148   3.695   0.720   2.548 -2.2650  1.8953  1.0308
 6562SOL    HW231149   3.831   0.757   2.605 -0.3577  1.9130  1.1151
 6563SOL     OW31150   0.975   3.247   6.084 -0.0322  0.1890  0.0869
 6563SOL    HW131151   0.893   3.201   6.066 -0.5634  1.2138 -0.1531
 6563SOL    HW231152   1.036   3.177   6.106  0.8984  0.6656 -0.9474
 6564SOL     OW31153   3.822   2.173   9.786  0.6859 -0.7008 -0.2946
 6564SOL    HW131154   3.746   2.116   9.794  2.0494 -2.8109 -2.4847
 6564SOL    HW231155   3.774   2.256   9.789  1.3632 -0.3365  0.8569
 6565SOL     OW31156   4.218   3.040   5.184  0.2924 -0.0833  0.5046
 6565SOL    HW131157   4.191   2.978   5.117 -0.2496 -1.1325  1.7064
 6565SOL    HW231158   4.133   3.061   5.221  0.9218  3.0161  0.1879
 6566SOL     OW31159   1.666   2.536  17.194  0.2853  0.3493  0.3470
 6566SOL    HW131160   1.610   2.461  17.213 -0.3807  0.3099 -1.7776
 6566SOL    HW231161   1.704   2.509  17.110  1.0723  3.2839 -0.2307
 6567SOL     OW31162   2.281   1.419   7.760  0.6975 -0.4774 -0.0685
 6567SOL    HW131163   2.253   1.510   7.761 -2.0797 -1.3468  0.2449
 6567SOL    HW231164   2.207   1.365   7.733 -3.5414  4.5344  1.5482
 6568SOL     OW31165   0.574   3.653  10.195  0.1684  0.4257 -0.0077
 6568SOL    HW131166   0.564   3.746  10.215 -2.1236 -0.4462  2.8091
 6568SOL    HW231167   0.536   3.637  10.109  0.5135 -1.1731  0.1371
 6569SOL     OW31168   1.372   4.191   3.990 -0.4217  0.2596  0.6634
 6569SOL    HW131169   1.320   4.270   3.979 -0.1895  0.2308 -0.6455
 6569SOL    HW231170   1.443   4.208   3.929  1.5717 -3.0544  2.0594
 6570SOL     OW31171   3.479   3.476  12.776  0.2781  0.1878  0.7724
 6570SOL    HW131172   3.489   3.429  12.858  1.9647  0.8231  0.9345
 6570SOL    HW231173   3.572   3.493  12.765  0.3883 -0.5962  0.4903
 6571SOL     OW31174   3.856   2.882   4.261  0.7101  0.1001  0.4964
 6571SOL    HW131175   3.916   2.846   4.326  0.6760  1.1686  1.1137
 6571SOL    HW231176   3.805   2.804   4.238 -1.5012  2.2902 -2.1332
 6572SOL     OW31177   4.549   4.384   8.449 -0.3323  0.2922  0.0983
 6572SOL    HW131178   4.464   4.340   8.453 -0.2468  0.1456  0.2741
 6572SOL    HW231179   4.547   4.413   8.358 -1.2055  1.0636  0.3573
 6573SOL     OW31180   3.681   1.081   3.749 -0.1050  0.0061 -0.0324
 6573SOL    HW131181   3.709   1.013   3.810 -2.0082 -0.2975  0.5085
 6573SOL    HW231182   3.652   1.023   3.678 -0.6108  1.3752 -0.9535
 6574SOL     OW31183   2.788   4.641   8.638  0.4433  0.2042  0.2140
 6574SOL    HW131184   2.797   4.670   8.729 -1.6830 -1.6542  1.0303
 6574SOL    HW231185   2.770   4.549   8.657  0.3800  0.1173 -0.2694
 6575SOL     OW31186   3.606   0.715  14.123  0.0081 -0.0165  0.3874
 6575SOL    HW131187   3.523   0.690  14.163  0.9550 -1.2251  1.6424
 6575SOL    HW231188   3.650   0.631  14.108 -1.4190 -1.0997  2.2743
 6576SOL     OW31189   4.321   1.291   8.403 -0.0676 -0.8346 -0.4928
 6576SOL    HW131190   4.320   1.366   8.344  2.2079 -0.9516 -0.6920
 6576SOL    HW231191   4.363   1.228   8.344 -0.3389 -1.3075 -0.1773
 6577SOL     OW31192   0.767   1.118   4.590 -0.1391  0.8672 -0.3819
 6577SOL    HW131193   0.855   1.135   4.624  0.0374 -1.1651  0.1738
 6577SOL    HW231194   0.717   1.176   4.648  0.5048 -1.1557  2.1720
 6578SOL     OW31195   3.010   3.854  10.017 -0.1011  0.5987 -0.6289
 6578SOL    HW131196   2.989   3.879  10.107 -1.9259  0.5747 -1.0407
 6578SOL    HW231197   3.045   3.765  10.028 -1.6518 -0.2242 -2.3335
 6579SOL     OW31198   1.111   4.650   8.412 -0.3974 -0.2971 -0.1788
 6579SOL    HW131199   1.128   4.585   8.481  1.0117  0.0176 -0.2269
 6579SOL    HW231200   1.028   4.614   8.382 -1.8046  0.1314  3.2023
 6580SOL     OW31201   3.918   2.404  16.689  0.6252  0.5929 -0.0858
 6580SOL    HW131202   3.870   2.323  16.669  1.1692  0.3346 -0.3388
 6580SOL    HW231203   3.888   2.411  16.780  0.7150  1.4512 -0.1259
 6581SOL     OW31204   4.108   4.168  17.615  0.6645 -0.2791 -0.3727
 6581SOL    HW131205   4.175   4.102  17.596  2.4913  1.6715 -0.7561
 6581SOL    HW231206   4.145   4.218  17.688 -1.0214  0.7429 -0.2144
 6582SOL     OW31207   1.625   3.334  16.123  0.2893 -0.0267 -0.5779
 6582SOL    HW131208   1.682   3.286  16.063 -1.9497 -1.4276 -1.5557
 6582SOL    HW231209   1.610   3.415  16.074  3.0255  0.6207 -0.3586
 6583SOL     OW31210   0.058   2.689   6.262 -0.1604 -0.1178 -0.2402
 6583SOL    HW131211   0.094   2.771   6.296 -0.4762  0.2939 -0.9029
 6583SOL    HW231212   4.720   2.670   6.332  1.3115  2.0246  1.6762
 6584SOL     OW31213   0.684   3.734   1.002 -0.4534  0.0221 -0.1380
 6584SOL    HW131214   0.590   3.718   0.993 -0.5832  0.3476  0.6294
 6584SOL    HW231215   0.717   3.660   0.951  0.3137  0.7196 -0.6499
 6585SOL     OW31216   2.565   1.489   3.979  0.3958 -0.0214  0.5343
 6585SOL    HW131217   2.604   1.419   3.927 -0.7962 -1.2506  1.3141
 6585SOL    HW231218   2.554   1.452   4.066 -0.0321 -0.3677  0.3308
 6586SOL     OW31219   1.950   3.070  14.321 -0.7028  0.1316 -0.0398
 6586SOL    HW131220   1.919   2.991  14.366 -1.3554  0.9520  0.9435
 6586SOL    HW231221   2.038   3.079  14.358 -1.3909 -0.5402  1.7469
 6587SOL     OW31222   3.280   3.947   4.947 -0.3162  0.0267 -0.4659
 6587SOL    HW131223   3.220   3.933   5.020 -0.3811 -0.9232 -0.7032
 6587SOL    HW231224   3.329   3.865   4.944 -0.1871  0.0616  0.4447
 6588SOL     OW31225   3.385   4.487   8.601  0.5279  0.2910  0.3289
 6588SOL    HW131226   3.472   4.527   8.615  0.4449  0.8293 -0.6769
 6588SOL    HW231227   3.413   4.433   8.527  1.2270  2.4963 -1.0372
 6589SOL     OW31228   2.676   4.256   7.415  0.0661 -0.1561  0.3069
 6589SOL    HW131229   2.643   4.190   7.475 -0.2680 -0.4751 -0.2276
 6589SOL    HW231230   2.639   4.215   7.337  0.9622  0.0203 -0.2147
 6590SOL     OW31231   1.189   3.205   5.332  0.0147  0.1528 -0.1949
 6590SOL    HW131232   1.111   3.260   5.329  0.0135  0.0742 -2.1986
 6590SOL    HW231233   1.228   3.223   5.417 -1.2598 -0.3345  0.5004
 6591SOL     OW31234   4.598   3.272   8.574 -0.2814 -0.4983 -0.5549
 6591SOL    HW131235   4.514   3.232   8.596  0.0379 -0.3797  0.8498
 6591SOL    HW231236   4.645   3.210   8.517  0.6686 -0.6030  0.3474
 6592SOL     OW31237   2.570   0.720   4.344  0.2316  0.3661 -0.1900
 6592SOL    HW131238   2.540   0.630   4.352  0.1863  0.4543  0.6033
 6592SOL    HW231239   2.648   0.717   4.288  1.1738 -0.5963  1.1686
 6593SOL     OW31240   0.161   3.092   8.761  0.3383 -0.1027  0.0808
 6593SOL    HW131241   0.212   3.171   8.778  0.0974 -0.0725  0.6578
 6593SOL    HW231242   0.134   3.104   8.670 -0.7661 -0.4109  0.3711
 6594SOL     OW31243   4.233   2.489  10.922 -0.5502 -0.0138  0.0912
 6594SOL    HW131244   4.149   2.534  10.916 -1.8771 -2.0684  3.2303
 6594SOL    HW231245   4.235   2.443  11.006 -1.8504 -0.9805 -0.4121
 6595SOL     OW31246   0.716   3.703   4.874 -0.3150 -0.0209  0.6647
 6595SOL    HW131247   0.664   3.662   4.804  0.7848 -1.5394  0.7351
 6595SOL    HW231248   0.734   3.627   4.930 -0.6731 -0.7211 -0.1666
 6596SOL     OW31249   4.054   3.648   7.424  0.4171  0.5852  0.1798
 6596SOL    HW131250   4.021   3.729   7.386  0.6605  0.1449 -0.9796
 6596SOL    HW231251   3.975   3.619   7.470 -0.9235  0.1338 -2.4320
 6597SOL     OW31252   0.795   4.446  16.764 -0.0323  0.0296 -0.3869
 6597SOL    HW131253   0.807   4.353  16.748 -0.5974 -0.1223  0.0711
 6597SOL    HW231254   0.779   4.475  16.674 -0.8053  0.3879 -0.1385
 6598SOL     OW31255   0.719   4.155  14.878 -0.5030 -0.3265  0.3100
 6598SOL    HW131256   0.794   4.214  14.886 -1.7206  1.2759 -0.0098
 6598SOL    HW231257   0.759   4.072  14.853 -0.9020 -0.6606  0.7851
 6599SOL     OW31258   2.867   1.937   9.947  0.5350 -0.0697 -0.1279
 6599SOL    HW131259   2.950   1.908   9.910  0.3965 -0.1175 -0.4061
 6599SOL    HW231260   2.894   2.015   9.996  1.3717 -0.9349  0.7800
 6600SOL     OW31261   4.386   1.203   7.602  0.1865  0.7146  0.0702
 6600SOL    HW131262   4.422   1.289   7.579 -0.8000  0.9095 -0.7567
 6600SOL    HW231263   4.305   1.233   7.645  0.3943 -1.4777  1.9963
 6601SOL     OW31264   3.201   4.297   7.248  0.0621 -0.6591 -0.1958
 6601SOL    HW131265   3.225   4.326   7.160  3.4272 -2.5116  0.1033
 6601SOL    HW231266   3.122   4.347   7.266  0.3366 -0.0512 -0.6737
 6602SOL     OW31267   2.536   3.540  11.399  0.6012 -0.3999  0.3092
 6602SOL    HW131268   2.571   3.579  11.319  0.3883  1.1261  0.9559
 6602SOL    HW231269   2.546   3.445  11.396  1.2133 -0.2801 -1.0153
 6603SOL     OW31270   2.768   2.643   5.532 -0.1795 -0.3715 -0.2636
 6603SOL    HW131271   2.844   2.631   5.589 -0.4977 -1.3808 -0.0682
 6603SOL    HW231272   2.784   2.726   5.487 -0.6522  1.3037  2.6656
 6604SOL     OW31273   3.751   0.889   5.620  0.0635  0.3246 -0.2718
 6604SOL    HW131274   3.845   0.906   5.627  0.4790 -1.1072 -2.1623
 6604SOL    HW231275   3.733   0.927   5.706 -0.9346 -2.5203  0.7588
 6605SOL     OW31276   4.244   3.072   2.914  0.0670  0.4906  0.1160
 6605SOL    HW131277   4.151   3.056   2.929  1.3173 -5.2289  1.7832
 6605SOL    HW231278   4.250   3.144   2.977  2.2875 -1.5124  2.1789
 6606SOL     OW31279   4.086   4.468   7.486 -0.2174 -0.6774  0.3863
 6606SOL    HW131280   4.129   4.382   7.486 -1.6309 -1.4007  2.3160
 6606SOL    HW231281   4.010   4.438   7.436 -0.3919  0.3759  0.0199
 6607SOL     OW31282   0.151   0.327   2.814 -0.1006  0.2084  0.2028
 6607SOL    HW131283   0.224   0.378   2.780  1.1538  0.6825  3.5836
 6607SOL    HW231284   0.153   0.349   2.907 -1.6120  1.1834  0.0098
 6608SOL     OW31285   4.187   1.464   7.362 -0.4117 -0.5232 -0.1955
 6608SOL    HW131286   4.096   1.474   7.333 -0.6400  2.1861  1.4504
 6608SOL    HW231287   4.207   1.371   7.353  1.3330 -0.3258  1.7527
 6609SOL     OW31288   1.392   4.622  12.875  0.2447  0.1002 -0.1555
 6609SOL    HW131289   1.463   4.625  12.940  0.7186 -1.0668 -0.6127
 6609SOL    HW231290   1.433   4.601  12.791 -1.3826 -1.0724 -0.6525
 6610SOL     OW31291   3.254   0.875   2.611 -0.3269 -0.4322 -0.2762
 6610SOL    HW131292   3.236   0.856   2.703 -2.2291 -0.2240 -0.6056
 6610SOL    HW231293   3.227   0.966   2.600  0.2763 -0.1843  0.3204
 6611SOL     OW31294   4.169   3.275  13.723  0.0993  0.0887 -0.1709
 6611SOL    HW131295   4.258   3.248  13.699 -0.4662 -2.0620  0.1908
 6611SOL    HW231296   4.116   3.196  13.712  0.8302 -0.3880 -0.2574
 6612SOL     OW31297   2.683   2.004   1.109 -0.3350  0.5107 -0.8004
 6612SOL    HW131298   2.771   1.980   1.080  0.1132  1.4912 -0.2574
 6612SOL    HW231299   2.699   2.096   1.130 -0.6977  0.4627 -0.3312
 6613SOL     OW31300   1.849   1.096   5.770  0.6366 -0.8431 -0.0645
 6613SOL    HW131301   1.849   1.001   5.783  1.1536 -0.5732  1.9208
 6613SOL    HW231302   1.843   1.098   5.674 -0.3673 -0.9017 -0.0042
 6614SOL     OW31303   3.945   2.257   5.697 -0.2635  0.4792 -0.4323
 6614SOL    HW131304   3.962   2.165   5.717  1.2563  0.6255 -1.0602
 6614SOL    HW231305   4.026   2.300   5.722 -0.4565 -0.2145  1.4034
 6615SOL     OW31306   4.155   3.701   9.044 -0.4674 -0.4617 -0.1710
 6615SOL    HW131307   4.138   3.688   9.137  3.8192 -0.8622  0.5746
 6615SOL    HW231308   4.067   3.712   9.008 -0.9927 -2.0387  0.6626
 6616SOL     OW31309   4.366   2.465   6.236  0.1751 -0.1304 -0.2658
 6616SOL    HW131310   4.381   2.526   6.164 -0.0077  0.7311  0.4280
 6616SOL    HW231311   4.390   2.379   6.202  0.2710  0.3636 -1.4355
 6617SOL     OW31312   1.354   3.767   7.474 -0.0631  0.5436 -0.3550
 6617SOL    HW131313   1.371   3.807   7.559 -2.8091  2.5719 -0.7692
 6617SOL    HW231314   1.267   3.801   7.456  1.0679  3.3406 -0.5403
 6618SOL     OW31315   1.449   4.345  16.542  0.2387  0.0189 -0.4598
 6618SOL    HW131316   1.483   4.255  16.541 -0.6051 -0.2777 -1.7374
 6618SOL    HW231317   1.524   4.383  16.589  0.0207 -2.9026  2.2404
 6619SOL     OW31318   3.255   2.018   4.981  0.1738  0.2431 -0.5601
 6619SOL    HW131319   3.216   2.013   4.893 -1.1241 -0.9042  0.0681
 6619SOL    HW231320   3.177   2.028   5.036  1.1083 -1.5428  1.0855
 6620SOL     OW31321   2.685   2.391   2.802  0.5047  0.1746 -0.2924
 6620SOL    HW131322   2.752   2.323   2.811  0.5359  0.0418 -1.6123
 6620SOL    HW231323   2.694   2.435   2.887 -1.0328 -0.6769  0.3213
 6621SOL     OW31324   4.111   0.377   3.451  0.5058 -0.0083  0.4229
 6621SOL    HW131325   4.108   0.306   3.387  1.0560 -0.4595  0.8944
 6621SOL    HW231326   4.017   0.397   3.450  0.8090  1.5037  1.8152
 6622SOL     OW31327   3.538   3.492  17.531  0.2999 -0.6212  0.2418
 6622SOL    HW131328   3.521   3.531  17.445 -1.4690 -0.2680  0.7366
 6622SOL    HW231329   3.514   3.578  17.567  1.0838 -0.0289 -0.6613
 6623SOL     OW31330   4.489   0.357  15.782  0.1344  0.3453 -0.2280
 6623SOL    HW131331   4.529   0.444  15.787  0.5244  0.0437  2.0875
 6623SOL    HW231332   4.488   0.341  15.876  3.0088 -1.3572 -0.4720
 6624SOL     OW31333   0.953   2.949   3.138  0.1950  0.6816  0.2099
 6624SOL    HW131334   1.046   2.972   3.137  0.3595 -0.0225 -0.1102
 6624SOL    HW231335   0.913   2.950   3.051  3.6470 -1.8996 -1.3918
 6625SOL     OW31336   1.244   2.750   4.488 -0.2375  0.0564 -0.1965
 6625SOL    HW131337   1.276   2.819   4.546  0.2073 -1.7668  1.7441
 6625SOL    HW231338   1.325   2.701   4.480 -1.8342 -2.7128  0.6993
 6626SOL     OW31339   2.598   1.041  14.298 -0.4627 -0.5732  0.0623
 6626SOL    HW131340   2.586   0.983  14.374  2.2342 -0.6774  0.3786
 6626SOL    HW231341   2.531   1.008  14.238 -0.5363  1.1776 -0.7920
 6627SOL     OW31342   0.774   1.911   6.693  0.2964  0.1775  0.4500
 6627SOL    HW131343   0.783   1.967   6.770 -0.4241 -0.4589  0.9994
 6627SOL    HW231344   0.704   1.955   6.647  2.0103  0.4513 -1.9126
 6628SOL     OW31345   0.549   4.184   6.577  0.4968 -0.6537 -0.3596
 6628SOL    HW131346   0.471   4.201   6.630  1.6221 -1.6445  1.6150
 6628SOL    HW231347   0.603   4.254   6.612  0.2879  0.5403 -2.4292
 6629SOL     OW31348   2.959   1.045   6.458 -0.4968 -0.5323 -0.1651
 6629SOL    HW131349   3.032   1.081   6.509 -0.4422  1.1119 -1.4355
 6629SOL    HW231350   2.894   1.054   6.529 -0.8933  1.0030 -0.7392
 6630SOL     OW31351   4.543   4.619   0.325 -0.0957  0.0537  0.5985
 6630SOL    HW131352   4.597   4.698   0.325 -2.1627  1.4591 -1.0999
 6630SOL    HW231353   4.463   4.664   0.353 -0.8860  0.0537 -1.6942
 6631SOL     OW31354   1.191   3.417   3.565 -0.6204 -0.0682  0.1135
 6631SOL    HW131355   1.275   3.422   3.610 -0.5528  2.3921 -0.3063
 6631SOL    HW231356   1.192   3.325   3.536 -1.5183  0.2186 -0.8416
 6632SOL     OW31357   0.691   4.246   2.327 -0.3283  0.0922 -0.1791
 6632SOL    HW131358   0.676   4.225   2.419  0.1224 -3.0022 -0.8041
 6632SOL    HW231359   0.756   4.178   2.309 -1.7004 -0.6573 -2.3829
 6633SOL     OW31360   4.028   2.837   2.406 -0.4495 -0.1264 -0.3147
 6633SOL    HW131361   3.989   2.855   2.321  0.2726  0.4360 -0.5317
 6633SOL    HW231362   3.993   2.911   2.456 -1.9904 -0.6532 -0.6321
 6634SOL     OW31363   2.622   1.507   8.451 -0.4317 -0.9065  0.5303
 6634SOL    HW131364   2.618   1.414   8.471 -0.9486 -0.8223  0.8121
 6634SOL    HW231365   2.537   1.540   8.421  0.7484  0.2729 -1.5411
 6635SOL     OW31366   1.310   2.157   8.596  0.3334 -0.3981  0.4969
 6635SOL    HW131367   1.365   2.079   8.590 -0.4438 -0.9925  1.0611
 6635SOL    HW231368   1.272   2.149   8.684  0.9893 -1.2735  0.6981
 6636SOL     OW31369   1.805   2.089   0.296 -0.0300  0.4500 -0.6329
 6636SOL    HW131370   1.757   2.071   0.216  0.3367  1.1099 -0.9996
 6636SOL    HW231371   1.885   2.130   0.261  0.1632 -1.9306 -2.9035
 6637SOL     OW31372   1.032   0.680   2.329 -0.5538  0.1098 -0.4961
 6637SOL    HW131373   1.058   0.723   2.248  0.4346 -1.2861 -0.9226
 6637SOL    HW231374   0.978   0.747   2.370 -1.1936 -0.0037 -1.1687
 6638SOL     OW31375   2.225   1.867  10.138 -0.0965 -0.2342 -0.1894
 6638SOL    HW131376   2.243   1.943  10.083  4.1846 -0.9148  0.2726
 6638SOL    HW231377   2.141   1.902  10.168  0.3588 -0.8810  1.8603
 6639SOL     OW31378   2.707   1.788   1.719  0.4085 -0.2486 -0.4230
 6639SOL    HW131379   2.802   1.794   1.730  0.2779  0.4210  0.3516
 6639SOL    HW231380   2.706   1.701   1.680  0.3263 -0.7534  0.7172
 6640SOL     OW31381   3.312   4.120   8.115  0.5032  0.0151 -0.7625
 6640SOL    HW131382   3.340   4.208   8.091  0.5227  0.2714  0.1970
 6640SOL    HW231383   3.239   4.119   8.053 -0.6918  0.0076  0.6490
 6641SOL     OW31384   3.626   4.186   1.059 -0.4284  0.3280  0.1946
 6641SOL    HW131385   3.631   4.232   0.974 -1.1102 -1.1703 -0.6484
 6641SOL    HW231386   3.532   4.182   1.077 -0.4482  2.0934  0.4847
 6642SOL     OW31387   2.337   2.395  13.219 -0.5203 -0.0327  0.2293
 6642SOL    HW131388   2.257   2.380  13.268  0.0004 -0.4200  0.9517
 6642SOL    HW231389   2.371   2.477  13.257 -0.3120  0.2170 -0.4852
 6643SOL     OW31390   3.302   0.965  15.240 -0.1349 -0.2575  0.4317
 6643SOL    HW131391   3.354   0.934  15.314  0.4253  2.1208  1.0457
 6643SOL    HW231392   3.244   1.022  15.291  1.9260  2.6522 -0.4526
 6644SOL     OW31393   1.189   2.797  12.560 -0.1198 -0.5886  0.0699
 6644SOL    HW131394   1.179   2.708  12.593  0.0714  0.8836  4.1408
 6644SOL    HW231395   1.261   2.775  12.500  0.3944 -0.6299  0.6936
 6645SOL     OW31396   0.037   4.665  15.261 -0.6357 -0.4889  0.1077
 6645SOL    HW131397   0.005   4.724  15.194  0.2672 -0.7416 -0.5408
 6645SOL    HW231398   4.676   4.659  15.302 -1.3187  1.3068 -1.0980
 6646SOL     OW31399   3.228   4.053   4.564 -0.4383  0.1594 -0.3760
 6646SOL    HW131400   3.281   3.975   4.575 -1.1146 -0.2240  0.1999
 6646SOL    HW231401   3.247   4.059   4.471  2.0565 -0.5202  0.0818
 6647SOL     OW31402   0.056   3.475  11.096 -0.3151  0.5562 -0.0818
 6647SOL    HW131403   0.053   3.564  11.132 -1.5869  0.1029  0.9464
 6647SOL    HW231404   0.142   3.477  11.056 -0.9536 -1.3402 -1.5625
 6648SOL     OW31405   1.321   2.238   6.356 -0.1318 -0.4336  0.0593
 6648SOL    HW131406   1.347   2.191   6.277 -0.2476  1.4109 -1.0811
 6648SOL    HW231407   1.400   2.229   6.408 -1.5303  0.7971  2.3779
 6649SOL     OW31408   0.116   3.777   3.954 -0.6457  0.3642  0.1787
 6649SOL    HW131409   0.029   3.809   3.933  0.4492  3.5911  0.5747
 6649SOL    HW231410   0.099   3.683   3.960  0.1329  0.2118  0.0558
 6650SOL     OW31411   1.661   4.099  13.556 -0.0443  0.7053 -0.4395
 6650SOL    HW131412   1.641   4.104  13.463  0.2262  2.1560 -0.4228
 6650SOL    HW231413   1.578   4.068  13.591  0.3655 -1.9959 -1.8422
 6651SOL     OW31414   0.902   0.590   4.648 -0.5592  0.2413 -0.0034
 6651SOL    HW131415   0.927   0.501   4.624  0.6207  0.3856  0.7125
 6651SOL    HW231416   0.808   0.581   4.632 -0.5849 -1.1232  0.9129
 6652SOL     OW31417   3.119   2.308   2.131 -0.1831 -0.1081 -0.6515
 6652SOL    HW131418   3.152   2.238   2.075 -0.1875 -2.6172  2.5339
 6652SOL    HW231419   3.055   2.266   2.187 -0.0178 -0.5464 -0.7885
 6653SOL     OW31420   2.550   3.361   8.931  0.3433  0.3636  0.9154
 6653SOL    HW131421   2.506   3.380   9.014  0.2498  1.6465  0.5825
 6653SOL    HW231422   2.590   3.278   8.958 -0.2768 -0.7480 -1.6189
 6654SOL     OW31423   0.829   3.530   0.244  0.3472 -0.5625 -0.6838
 6654SOL    HW131424   0.922   3.517   0.260  0.8214  0.5041 -2.6157
 6654SOL    HW231425   0.800   3.461   0.184  0.7697 -1.3893  0.0628
 6655SOL     OW31426   2.548   2.132   8.474 -0.2614  0.1435 -0.1042
 6655SOL    HW131427   2.600   2.108   8.551  0.8435  2.9617  0.0092
 6655SOL    HW231428   2.597   2.211   8.449  0.1019 -0.1863 -0.4385
 6656SOL     OW31429   2.816   4.439   6.567  0.2907 -0.2172  0.4452
 6656SOL    HW131430   2.845   4.428   6.477 -0.9967 -0.0296  0.0076
 6656SOL    HW231431   2.747   4.373   6.576  3.8684 -3.9735 -0.0326
 6657SOL     OW31432   2.268   1.016   2.647  0.3701  0.2889  0.0353
 6657SOL    HW131433   2.178   0.996   2.621  1.3146 -0.7331 -2.4733
 6657SOL    HW231434   2.313   0.988   2.567  0.4676 -0.8769  0.5027
 6658SOL     OW31435   1.832   1.470   4.610  0.4474  0.1807  0.0103
 6658SOL    HW131436   1.825   1.564   4.626  1.2121  0.2863 -0.2714
 6658SOL    HW231437   1.901   1.474   4.543  1.4069 -0.3514  0.9723
 6659SOL     OW31438   4.280   1.373   3.111 -0.5863  0.3352  0.1185
 6659SOL    HW131439   4.283   1.453   3.059  2.5136 -0.8573 -1.5554
 6659SOL    HW231440   4.190   1.362   3.141 -0.2308  0.9842  1.3827
 6660SOL     OW31441   4.427   0.712   2.193 -0.0025 -0.9277  0.3491
 6660SOL    HW131442   4.492   0.673   2.135 -0.0910 -2.6212  1.3947
 6660SOL    HW231443   4.473   0.706   2.276  1.2384  1.3643 -0.1718
 6661SOL     OW31444   1.704   0.227   2.732  0.6706  0.0968 -0.0774
 6661SOL    HW131445   1.732   0.140   2.760 -0.9990 -0.8849 -1.5432
 6661SOL    HW231446   1.677   0.204   2.644 -0.3886  0.9035  0.0342
 6662SOL     OW31447   0.041   3.944   3.285  0.2142 -0.5080 -0.7625
 6662SOL    HW131448   4.680   3.948   3.327  0.9818 -2.4810  0.9734
 6662SOL    HW231449   0.056   3.860   3.243 -2.5828 -1.3130 -0.1831
 6663SOL     OW31450   1.508   2.447  17.480  0.4958 -0.0914 -0.0985
 6663SOL    HW131451   1.582   2.499  17.447  0.1097  1.3321  1.3209
 6663SOL    HW231452   1.500   2.471  17.572 -0.6743  0.5994 -0.3845
 6664SOL     OW31453   1.081   1.503   2.331 -0.1355  0.0390  0.0283
 6664SOL    HW131454   1.047   1.586   2.296 -1.7333 -0.8701 -0.5706
 6664SOL    HW231455   1.011   1.466   2.383  0.1677  0.8476  1.0143
 6665SOL     OW31456   2.163   2.088   0.010  0.5272 -0.6854 -0.7123
 6665SOL    HW131457   2.115   2.146  17.651  0.2062 -3.6663 -3.2842
 6665SOL    HW231458   2.097   2.034   0.055 -0.4506 -0.5424 -1.9684
 6666SOL     OW31459   1.169   4.513  14.367  0.2854  0.2731  0.7386
 6666SOL    HW131460   1.212   4.472  14.442 -0.3449 -0.9794  0.4291
 6666SOL    HW231461   1.246   4.541  14.318  0.1697 -1.5069 -0.4968
 6667SOL     OW31462   0.972   4.627   5.430 -0.6246  0.2570  0.1018
 6667SOL    HW131463   1.009   4.547   5.395 -1.3414 -0.6450  1.4198
 6667SOL    HW231464   0.913   4.665   5.365 -0.7098  0.1777  0.1329
 6668SOL     OW31465   4.627   2.268   0.914  0.3753 -0.0128 -0.4320
 6668SOL    HW131466   4.609   2.361   0.906 -0.4851 -0.2188 -0.8116
 6668SOL    HW231467   4.545   2.229   0.944  0.0330  0.4448 -0.7721
 6669SOL     OW31468   1.262   3.152   5.035 -0.3671 -0.3749  0.2059
 6669SOL    HW131469   1.244   3.245   5.028 -0.0190 -0.3619 -0.5297
 6669SOL    HW231470   1.258   3.148   5.130  1.9147  0.1965  0.3405
 6670SOL     OW31471   1.073   2.981   6.765 -0.1345  0.0525 -0.0714
 6670SOL    HW131472   1.103   3.059   6.718  1.5058 -0.5192  0.0361
 6670SOL    HW231473   0.988   3.011   6.799  0.1017  1.8164 -1.0199
 6671SOL     OW31474   0.881   2.659   5.661 -0.1284  0.3729 -0.1687
 6671SOL    HW131475   0.845   2.660   5.572 -0.0321 -0.2439 -0.2126
 6671SOL    HW231476   0.808   2.660   5.722  0.3828 -1.3481  0.4539
 6672SOL     OW31477   3.892   2.890   3.852 -0.1170  0.4223 -0.5267
 6672SOL    HW131478   3.842   2.859   3.776  0.7834  0.1020 -0.9840
 6672SOL    HW231479   3.964   2.829   3.868  0.8924  1.9382  0.6167
 6673SOL     OW31480   3.341   0.570   0.300  0.4275  0.2416 -0.7103
 6673SOL    HW131481   3.270   0.615   0.256  0.0118 -1.2861 -1.6012
 6673SOL    HW231482   3.388   0.545   0.220 -1.3601  0.0677 -1.6890
 6674SOL     OW31483   0.554   0.619   3.924  0.4264 -0.3204  0.3104
 6674SOL    HW131484   0.607   0.660   3.992  1.5011 -0.8675 -0.2097
 6674SOL    HW231485   0.568   0.684   3.855 -0.0673  0.4156  0.9019
 6675SOL     OW31486   2.352   2.633  13.658  0.0486 -0.2141 -0.2784
 6675SOL    HW131487   2.427   2.693  13.664  0.9976 -1.4809  0.3455
 6675SOL    HW231488   2.289   2.695  13.694  0.7458  0.9089 -0.9708
 6676SOL     OW31489   0.894   1.889  11.964  0.0849 -0.4120 -0.0727
 6676SOL    HW131490   0.890   1.950  12.038 -2.0973 -0.3382 -0.2556
 6676SOL    HW231491   0.867   1.803  11.997 -3.5093  0.4756 -0.6978
 6677SOL     OW31492   2.290   4.427   7.395  0.1836  0.2418  0.3610
 6677SOL    HW131493   2.340   4.346   7.394 -0.8227 -0.3981  1.4911
 6677SOL    HW231494   2.324   4.477   7.469  0.0977  1.7104 -0.6074
 6678SOL     OW31495   1.855   0.320   0.585 -0.0486 -0.0428  0.3144
 6678SOL    HW131496   1.889   0.378   0.517  1.6785 -0.4982  0.7897
 6678SOL    HW231497   1.868   0.380   0.659 -0.4405 -1.1590  1.2916
 6679SOL     OW31498   0.049   1.670  11.196 -0.2646  0.6035 -0.3132
 6679SOL    HW131499   4.686   1.665  11.232 -0.2844 -1.9074 -0.6447
 6679SOL    HW231500   0.101   1.703  11.269 -0.4287  1.4874 -0.6050
 6680SOL     OW31501   3.789   3.606   4.976  0.5193 -0.0699 -0.3260
 6680SOL    HW131502   3.728   3.679   4.982 -0.7553 -1.4876  3.8093
 6680SOL    HW231503   3.734   3.535   5.010 -1.7538  2.0651  0.4099
 6681SOL     OW31504   2.811   2.287  10.332 -0.4741  0.2177 -0.3543
 6681SOL    HW131505   2.842   2.333  10.410 -3.7024  1.4397  0.2157
 6681SOL    HW231506   2.718   2.271  10.346 -0.1134 -1.4423  0.0377
 6682SOL     OW31507   1.735   1.379   9.567  0.0837  0.3860  0.0662
 6682SOL    HW131508   1.663   1.327   9.603  1.4831  0.1647  2.6116
 6682SOL    HW231509   1.733   1.353   9.475 -0.6830  1.1606 -0.1311
 6683SOL     OW31510   0.603   2.713   4.105  0.1334  0.0633  0.0948
 6683SOL    HW131511   0.580   2.806   4.109 -1.6026 -0.2393 -2.2995
 6683SOL    HW231512   0.668   2.715   4.175 -0.4263 -0.5012  0.6222
 6684SOL     OW31513   3.658   4.246   7.261 -0.0293 -0.2460  0.6370
 6684SOL    HW131514   3.721   4.184   7.226 -2.2252 -0.9615 -2.0894
 6684SOL    HW231515   3.718   4.319   7.276  1.1325 -1.0289 -0.2072
 6685SOL     OW31516   0.708   1.749   5.032 -0.0931 -0.1940  0.7098
 6685SOL    HW131517   0.695   1.828   4.979  0.7643 -0.9366 -0.5968
 6685SOL    HW231518   0.677   1.683   4.971 -0.4405  1.3626 -0.8131
 6686SOL     OW31519   3.354   2.136   6.803  0.2398  0.2092  0.0738
 6686SOL    HW131520   3.376   2.224   6.836 -1.1398  1.1731 -1.6080
 6686SOL    HW231521   3.272   2.128   6.852  0.4977 -0.9341  0.3188
 6687SOL     OW31522   2.271   3.992   7.750 -0.5982  0.2541  0.6017
 6687SOL    HW131523   2.274   3.968   7.842 -0.6638 -0.3112  0.4545
 6687SOL    HW231524   2.253   3.903   7.719 -3.6280  1.0063  0.1463
 6688SOL     OW31525   2.505   1.430   9.173  0.0352 -0.2230  0.7566
 6688SOL    HW131526   2.460   1.496   9.226 -1.5975 -1.4445  0.9075
 6688SOL    HW231527   2.430   1.371   9.183  1.0950 -1.4407  1.4903
 6689SOL     OW31528   2.718   0.138   0.492  0.4590 -0.0890 -0.3208
 6689SOL    HW131529   2.725   0.225   0.452  1.1915  0.9128  2.0069
 6689SOL    HW231530   2.801   0.099   0.465  0.7859 -1.3171  2.4778
 6690SOL     OW31531   1.684   1.824   4.354  0.0183  0.1203  0.0846
 6690SOL    HW131532   1.719   1.784   4.434 -0.0510  1.7023  0.9189
 6690SOL    HW231533   1.682   1.756   4.287  3.8130 -0.6203  0.7197
 6691SOL     OW31534   4.588   2.529   7.751  0.2781 -0.5759 -0.3422
 6691SOL    HW131535   4.628   2.602   7.703 -0.2302 -0.6485 -0.8709
 6691SOL    HW231536   4.644   2.526   7.828 -2.0088  2.4850  1.4509
 6692SOL     OW31537   1.908   1.892   9.090 -0.5865 -0.0265 -0.3606
 6692SOL    HW131538   1.951   1.873   9.174 -1.8275  0.0882  0.3011
 6692SOL    HW231539   1.900   1.800   9.067 -2.3186  0.0321  0.0292
 6693SOL     OW31540   4.467   0.763   6.658  0.4128  0.2062  0.1021
 6693SOL    HW131541   4.475   0.856   6.678 -0.8635  0.3061  0.0941
 6693SOL    HW231542   4.522   0.735   6.732 -0.5662 -1.0486  0.3520
 6694SOL     OW31543   3.752   4.099   6.905  0.6624  0.1879  0.5339
 6694SOL    HW131544   3.790   4.187   6.908  0.6609  0.2459 -0.7609
 6694SOL    HW231545   3.822   4.046   6.943  1.4459  0.7439 -0.1193
 6695SOL     OW31546   1.654   3.439   6.203  0.5139  0.1580 -0.2433
 6695SOL    HW131547   1.647   3.347   6.180 -0.5849 -0.1631  1.3954
 6695SOL    HW231548   1.728   3.443   6.264 -0.3124 -0.4427  0.7955
 6696SOL     OW31549   0.386   2.173   1.685 -0.3068 -0.2435  0.0064
 6696SOL    HW131550   0.343   2.214   1.610 -2.0546 -1.1342  0.5229
 6696SOL    HW231551   0.480   2.187   1.678 -0.3923 -0.2392 -1.0416
 6697SOL     OW31552   0.827   0.767   8.580  0.3051 -0.4255 -0.1737
 6697SOL    HW131553   0.791   0.678   8.582  1.3294 -0.9295 -4.1170
 6697SOL    HW231554   0.873   0.769   8.664 -0.3282 -1.5845  0.2023
 6698SOL     OW31555   3.120   1.631   6.739  0.2666 -0.0024  0.0863
 6698SOL    HW131556   3.059   1.644   6.812 -0.3522 -0.8222 -0.2828
 6698SOL    HW231557   3.202   1.592   6.770  0.2340 -1.2204 -1.3461
 6699SOL     OW31558   1.228   3.590   1.615  0.4051  0.1881 -0.7328
 6699SOL    HW131559   1.310   3.637   1.626 -0.3314  0.9339  1.5641
 6699SOL    HW231560   1.168   3.657   1.649 -1.7083 -2.2079  0.2587
 6700SOL     OW31561   3.040   0.313   5.852 -0.3257  0.4772  0.0544
 6700SOL    HW131562   3.117   0.334   5.799  0.0579  2.4995  1.3894
 6700SOL    HW231563   2.987   0.390   5.830  0.3165  0.7017 -0.7154
 6701SOL     OW31564   1.302   1.606   5.184  0.3438 -0.7458  0.4598
 6701SOL    HW131565   1.253   1.687   5.200 -0.7397 -1.2504 -0.2820
 6701SOL    HW231566   1.386   1.627   5.224  0.6181  0.5489 -0.8016
 6702SOL     OW31567   3.592   0.009   3.029 -0.1917 -0.0637 -0.0549
 6702SOL    HW131568   3.571   0.005   3.123 -2.4372  0.3559 -0.5317
 6702SOL    HW231569   3.625   4.644   3.023 -0.9727 -0.1788 -2.3369
 6703SOL     OW31570   1.630   1.813   5.101  0.5088  0.4176  0.1174
 6703SOL    HW131571   1.645   1.766   5.019 -1.3209  2.5961 -1.4581
 6703SOL    HW231572   1.585   1.752   5.159 -1.2717 -0.4845 -2.1980
 6704SOL     OW31573   4.391   0.592  11.492 -0.2621 -0.3203  0.3748
 6704SOL    HW131574   4.470   0.604  11.545 -1.9964 -0.7686  3.0762
 6704SOL    HW231575   4.331   0.599  11.566  0.7117  1.4921  1.0026
 6705SOL     OW31576   1.127   1.904  11.773  0.0010  0.0235 -0.8870
 6705SOL    HW131577   1.159   1.819  11.803  0.1498  0.6999  0.8165
 6705SOL    HW231578   1.064   1.932  11.838  0.3807 -2.5645  0.5991
 6706SOL     OW31579   3.806   1.637   5.587  0.7313 -0.1162  0.0112
 6706SOL    HW131580   3.730   1.580   5.584 -0.0531  0.8712  1.4327
 6706SOL    HW231581   3.863   1.585   5.643 -0.3487  0.9091  2.0682
 6707SOL     OW31582   1.098   1.611   7.745  0.2039  0.2564 -0.1858
 6707SOL    HW131583   1.049   1.608   7.662  2.6871 -0.9207 -1.5999
 6707SOL    HW231584   1.041   1.600   7.821 -2.2435  2.9789 -1.5884
 6708SOL     OW31585   1.613   0.483   0.185  0.1180  0.1652  1.0073
 6708SOL    HW131586   1.650   0.552   0.130  1.7665 -0.9244  0.7492
 6708SOL    HW231587   1.544   0.528   0.233 -0.5228  2.5254 -2.1249
 6709SOL     OW31588   2.639   3.058   6.415 -0.0652  0.3576 -0.4682
 6709SOL    HW131589   2.685   2.991   6.465 -0.8574 -0.4930 -0.8800
 6709SOL    HW231590   2.557   3.067   6.463 -0.0374  1.5443 -0.6408
 6710SOL     OW31591   1.729   3.502  11.900 -0.7331 -0.2225 -0.1932
 6710SOL    HW131592   1.820   3.503  11.871 -0.7946 -3.3549 -0.5063
 6710SOL    HW231593   1.727   3.578  11.958  1.5893  0.6288 -1.2616
 6711SOL     OW31594   2.182   3.950   4.354  0.4402 -0.1522  0.0223
 6711SOL    HW131595   2.111   3.898   4.316  0.5513  0.5700 -1.1452
 6711SOL    HW231596   2.138   4.031   4.379  1.1794 -1.0996  4.4055
 6712SOL     OW31597   0.463   3.125  11.702  0.3553 -0.2452  0.5982
 6712SOL    HW131598   0.478   3.036  11.731 -0.6495 -0.0565  1.6871
 6712SOL    HW231599   0.550   3.162  11.685 -0.1492  1.7958  2.4203
 6713SOL     OW31600   3.987   3.821  13.334  0.0085 -0.0174 -0.2138
 6713SOL    HW131601   3.988   3.856  13.245 -1.9789 -0.1696 -0.3156
 6713SOL    HW231602   3.897   3.788  13.334  0.5812 -1.5865  1.4316
 6714SOL     OW31603   0.619   3.273   8.607  0.4274  0.8051  0.1536
 6714SOL    HW131604   0.608   3.181   8.629  1.8788 -0.0468 -2.7678
 6714SOL    HW231605   0.714   3.281   8.609  0.3302  1.8842  0.7277
 6715SOL     OW31606   2.431   2.365   8.037  0.1651 -0.4644  0.4320
 6715SOL    HW131607   2.399   2.431   7.976 -0.3302 -0.6971  0.4443
 6715SOL    HW231608   2.514   2.394   8.074 -0.2776 -1.4222  2.1541
 6716SOL     OW31609   4.398   0.214   3.529  0.1646 -0.3993  0.3605
 6716SOL    HW131610   4.310   0.252   3.528  0.4330  0.2328  1.8839
 6716SOL    HW231611   4.379   0.120   3.527  1.3886 -0.6278 -0.0427
 6717SOL     OW31612   2.993   4.447   7.348  0.2624 -0.1067  0.3167
 6717SOL    HW131613   2.982   4.371   7.405 -1.9436 -0.3947 -0.4733
 6717SOL    HW231614   2.909   4.484   7.320  0.5605 -0.2620 -0.7452
 6718SOL     OW31615   3.801   4.005   9.059 -0.4201 -0.4967 -0.7396
 6718SOL    HW131616   3.731   4.014   8.994  0.7642 -0.5123 -2.0077
 6718SOL    HW231617   3.753   4.039   9.135 -0.5187  0.7415 -1.3599
 6719SOL     OW31618   3.105   4.680  16.747 -0.2990  0.4578  0.1695
 6719SOL    HW131619   3.070   0.043  16.735 -1.8276 -0.0112  1.1282
 6719SOL    HW231620   3.153   4.668  16.665  0.6939 -1.7559  1.0723
 6720SOL     OW31621   1.884   3.243   8.569  0.1896  0.6172  0.0114
 6720SOL    HW131622   1.953   3.306   8.592 -0.9940  1.7958  0.3580
 6720SOL    HW231623   1.802   3.286   8.593  1.2413  1.9324  1.2730
 6721SOL     OW31624   2.502   3.062  12.537 -0.2297 -0.4348  0.3680
 6721SOL    HW131625   2.549   2.981  12.518  1.6033  0.3030  1.6843
 6721SOL    HW231626   2.522   3.068  12.630 -1.2167  0.1365  0.5435
 6722SOL     OW31627   4.491   0.822  11.931 -0.8930 -0.0036  0.4495
 6722SOL    HW131628   4.583   0.820  11.958 -0.5086  0.0427 -0.8580
 6722SOL    HW231629   4.467   0.730  11.926 -1.2365  0.2336 -2.0958
 6723SOL     OW31630   0.643   0.855   7.125 -0.9436 -0.5290  0.3070
 6723SOL    HW131631   0.685   0.889   7.203  1.9058 -0.4459 -1.2567
 6723SOL    HW231632   0.590   0.789   7.170 -0.9655  0.1776  1.3086
 6724SOL     OW31633   1.139   0.250   6.718 -0.4826 -0.8579  0.7595
 6724SOL    HW131634   1.065   0.210   6.765 -1.3494  0.3442  0.4244
 6724SOL    HW231635   1.210   0.202   6.760  0.4752 -0.8301 -0.8417
 6725SOL     OW31636   2.674   3.131   1.229 -0.2209 -0.2799  0.4507
 6725SOL    HW131637   2.659   3.224   1.209  2.9277 -0.7924 -4.1309
 6725SOL    HW231638   2.617   3.123   1.306  1.3309  2.1104  1.8476
 6726SOL     OW31639   0.014   2.515  17.332  0.3221 -0.7283  0.1690
 6726SOL    HW131640   4.689   2.560  17.264  1.9766  0.3927 -0.3246
 6726SOL    HW231641   0.044   2.589  17.385 -1.7679 -0.7764  1.4021
 6727SOL     OW31642   3.724   3.831   5.795  0.8193  0.2741  0.5629
 6727SOL    HW131643   3.767   3.756   5.755  1.0527  0.3673  0.6367
 6727SOL    HW231644   3.803   3.868   5.835 -0.1746  2.2691  0.6950
 6728SOL     OW31645   2.542   2.559  12.772 -0.6514  0.0548  1.0017
 6728SOL    HW131646   2.548   2.491  12.705 -0.1838  1.2662 -0.1823
 6728SOL    HW231647   2.540   2.504  12.850 -0.5215  0.7306  1.4834
 6729SOL     OW31648   3.261   2.743   3.668 -0.3583  0.3392 -0.3239
 6729SOL    HW131649   3.216   2.812   3.619  0.7041  1.8872  0.8595
 6729SOL    HW231650   3.205   2.716   3.741 -0.6468  1.8923  0.0192
 6730SOL     OW31651   3.811   2.174  11.683  0.1651 -0.6343 -0.2001
 6730SOL    HW131652   3.880   2.240  11.689  0.9961 -1.4474 -0.6693
 6730SOL    HW231653   3.780   2.183  11.773  2.5787 -1.8011  0.7572
 6731SOL     OW31654   4.178   4.183   6.407  0.1309  0.5303 -0.2552
 6731SOL    HW131655   4.085   4.160   6.415 -0.5242  3.5877  0.6238
 6731SOL    HW231656   4.180   4.207   6.315 -1.3460 -0.3550 -0.5332
 6732SOL     OW31657   2.240   0.032   3.713 -0.1584  0.2777  0.2087
 6732SOL    HW131658   2.318   4.711   3.682 -1.7058 -1.8140 -0.5730
 6732SOL    HW231659   2.191   0.044   3.631 -1.2634 -1.1964  0.6345
 6733SOL     OW31660   3.478   3.138  11.724  0.7410 -0.6026 -0.3238
 6733SOL    HW131661   3.421   3.153  11.800  0.5898 -0.7594 -0.4053
 6733SOL    HW231662   3.432   3.185  11.655  1.2306 -0.6023 -0.6489
 6734SOL     OW31663   3.139   3.916   7.939 -0.3533  0.2469 -0.1088
 6734SOL    HW131664   3.234   3.925   7.938 -0.3953  1.3642  3.3966
 6734SOL    HW231665   3.126   3.824   7.916  0.9780 -0.0176  0.2128
 6735SOL     OW31666   2.983   3.438   9.942  0.5951 -0.4974  0.5004
 6735SOL    HW131667   3.065   3.392   9.925  1.0913  0.4024  0.4860
 6735SOL    HW231668   3.005   3.490  10.020  0.2371 -0.3201  0.4818
 6736SOL     OW31669   3.472   3.385  15.594  0.3240  0.0720 -0.0097
 6736SOL    HW131670   3.525   3.404  15.517 -1.0100 -1.4782 -1.2908
 6736SOL    HW231671   3.449   3.293  15.583  0.9202  0.0091 -0.7063
 6737SOL     OW31672   2.988   4.057   4.755  0.2144  0.2562 -0.4134
 6737SOL    HW131673   2.981   3.973   4.801 -0.1044  0.5071 -0.0035
 6737SOL    HW231674   3.034   4.040   4.673 -0.6309  1.7004 -1.1926
 6738SOL     OW31675   4.711   0.211   8.029  0.3823  0.2221 -0.2758
 6738SOL    HW131676   4.647   0.277   8.001  1.7381  1.4349 -0.4983
 6738SOL    HW231677   4.650   0.137   8.025  0.1340  0.3198  1.5016
 6739SOL     OW31678   0.774   2.548  15.898  0.5812  0.6801  0.8674
 6739SOL    HW131679   0.728   2.624  15.861  0.2442  0.1959  0.2985
 6739SOL    HW231680   0.833   2.592  15.959  0.0357  1.2823  0.9744
 6740SOL     OW31681   3.183   2.523   4.173  0.2123  0.6079  0.4705
 6740SOL    HW131682   3.267   2.563   4.153  0.5220  0.1444  0.8719
 6740SOL    HW231683   3.187   2.533   4.268 -0.4739 -1.8563  0.7670
 6741SOL     OW31684   2.695   2.626   7.578  0.5565 -0.0226  0.3144
 6741SOL    HW131685   2.747   2.679   7.638  0.9216 -0.2315  0.1794
 6741SOL    HW231686   2.606   2.660   7.591  1.0258  1.0336  0.7014
 6742SOL     OW31687   3.741   3.489   4.691  0.6513  0.1031 -0.6917
 6742SOL    HW131688   3.663   3.453   4.651 -0.2491  0.9548  0.3043
 6742SOL    HW231689   3.706   3.569   4.731 -1.6998 -0.9092 -0.7640
 6743SOL     OW31690   0.600   1.962   7.502 -0.2067  0.1593 -0.3038
 6743SOL    HW131691   0.532   2.017   7.463  0.8530  2.3931  0.9757
 6743SOL    HW231692   0.565   1.874   7.488 -0.0292 -0.5717  3.5986
 6744SOL     OW31693   3.125   3.184   1.237  0.4612 -0.1600 -0.8471
 6744SOL    HW131694   3.077   3.221   1.162 -0.6133  1.7307  0.7843
 6744SOL    HW231695   3.059   3.146   1.295 -0.2569  1.8318 -0.3542
 6745SOL     OW31696   2.102   4.242   0.159  0.0685 -0.6128  0.5117
 6745SOL    HW131697   2.100   4.274   0.069  0.9742  1.3752  1.1929
 6745SOL    HW231698   2.036   4.173   0.154  0.0575 -0.5127 -0.8036
 6746SOL     OW31699   0.611   4.689   8.147  0.5852  0.5247 -0.6677
 6746SOL    HW131700   0.591   0.038   8.204  2.0784  1.3567 -1.2047
 6746SOL    HW231701   0.558   4.708   8.070 -0.1783 -4.0317 -1.2592
 6747SOL     OW31702   0.147   2.844   7.508  0.4280  0.2224  0.2427
 6747SOL    HW131703   0.149   2.749   7.512  1.2529  0.2032 -0.7567
 6747SOL    HW231704   0.099   2.864   7.588  0.9205 -4.4701  1.7149
 6748SOL     OW31705   0.420   0.285   5.336 -0.2941 -0.0892 -0.1887
 6748SOL    HW131706   0.460   0.207   5.374 -0.6577 -0.3429 -0.3284
 6748SOL    HW231707   0.385   0.327   5.415  2.1738 -0.7212  1.2342
 6749SOL     OW31708   1.781   3.157  14.148  0.0492 -0.4957 -0.7957
 6749SOL    HW131709   1.853   3.126  14.204 -0.2789 -0.2804 -0.2527
 6749SOL    HW231710   1.779   3.246  14.184 -2.9474 -0.7286 -0.3797
 6750SOL     OW31711   1.787   0.403   1.778  0.1044 -0.0162 -0.5580
 6750SOL    HW131712   1.788   0.374   1.869  0.9960  0.9050 -0.2683
 6750SOL    HW231713   1.812   0.495   1.789 -0.3502 -0.2111  2.0388
 6751SOL     OW31714   0.664   0.826   3.801 -0.2398  0.2495  0.3545
 6751SOL    HW131715   0.693   0.888   3.868 -0.2350  0.2609  0.3418
 6751SOL    HW231716   0.675   0.881   3.724 -0.7029 -2.7612 -1.8618
 6752SOL     OW31717   4.050   2.803   7.805 -0.0457 -0.1934  0.1399
 6752SOL    HW131718   3.987   2.788   7.875  1.2770  1.1432  1.6092
 6752SOL    HW231719   4.049   2.708   7.791 -3.0311 -0.4242  2.0463
 6753SOL     OW31720   0.412   2.563   6.340  0.6753  0.0728 -0.1908
 6753SOL    HW131721   0.322   2.540   6.362  0.1903 -0.0005 -2.2114
 6753SOL    HW231722   0.407   2.564   6.244  0.8066 -4.1334 -0.2195
 6754SOL     OW31723   3.745   3.516  12.665  0.2836 -0.1292  0.4681
 6754SOL    HW131724   3.797   3.451  12.711  0.0421 -0.7431 -0.1174
 6754SOL    HW231725   3.804   3.546  12.595 -1.2585 -2.3045 -1.7951
 6755SOL     OW31726   3.821   4.338  16.998  0.2358 -0.3811 -0.5171
 6755SOL    HW131727   3.867   4.399  16.941  1.5267  0.0395  0.9870
 6755SOL    HW231728   3.764   4.303  16.929 -2.8634  1.4829  1.1126
 6756SOL     OW31729   3.048   1.975   8.439 -0.0547 -0.0159  0.2516
 6756SOL    HW131730   3.051   1.912   8.367 -1.1547 -0.4329  0.5720
 6756SOL    HW231731   3.009   2.048   8.391  1.1079  0.7258  0.4339
 6757SOL     OW31732   0.581   3.138   6.626 -0.4933  0.2255  0.2974
 6757SOL    HW131733   0.517   3.207   6.643  1.6567  2.2240  0.2829
 6757SOL    HW231734   0.645   3.180   6.568 -2.7320  1.3665 -1.3607
 6758SOL     OW31735   2.637   2.211   6.668  0.3251 -0.2540  0.2693
 6758SOL    HW131736   2.605   2.139   6.615  0.5594  1.4466 -2.1673
 6758SOL    HW231737   2.561   2.269   6.666 -0.3922 -1.1478  1.4527
 6759SOL     OW31738   4.553   1.564  14.049  0.0109 -0.0214 -0.1997
 6759SOL    HW131739   4.586   1.555  13.960 -0.6558  2.4818 -0.7028
 6759SOL    HW231740   4.478   1.504  14.047 -0.1311  0.1842 -1.1212
 6760SOL     OW31741   3.070   2.050   7.278  0.2130 -0.3229 -0.3397
 6760SOL    HW131742   3.065   2.144   7.264  2.1782  0.0234  1.4101
 6760SOL    HW231743   2.985   2.037   7.319  0.4601 -0.9530 -0.0199
 6761SOL     OW31744   3.582   0.984  12.577 -0.1378  0.2244 -0.3538
 6761SOL    HW131745   3.578   0.894  12.545  0.8789  0.4430 -1.1115
 6761SOL    HW231746   3.491   0.980  12.604 -0.0317  1.6316  0.2042
 6762SOL     OW31747   3.647   2.667   4.376 -0.4308 -0.2131  0.1043
 6762SOL    HW131748   3.630   2.665   4.282  0.1986 -3.6728  0.0597
 6762SOL    HW231749   3.647   2.572   4.392  0.1493 -0.4137 -1.0661
 6763SOL     OW31750   0.562   3.993  16.619  0.5860  0.2881 -0.1026
 6763SOL    HW131751   0.481   4.042  16.630  1.2027  1.1164  0.6552
 6763SOL    HW231752   0.542   3.907  16.657 -2.4768  0.4736 -1.3303
 6764SOL     OW31753   4.392   0.477  10.419 -0.1014  0.5921  0.2517
 6764SOL    HW131754   4.472   0.457  10.372  1.0807 -1.2128  3.0324
 6764SOL    HW231755   4.362   0.397  10.463  0.9579  0.3711  0.5576
 6765SOL     OW31756   2.345   0.306   7.677  0.0428 -0.4914  0.0100
 6765SOL    HW131757   2.317   0.353   7.599 -0.7881 -2.2779 -0.7630
 6765SOL    HW231758   2.437   0.330   7.691 -0.2677  0.4144  0.5470
 6766SOL     OW31759   4.561   0.862  14.978  0.0564  0.5665 -0.1335
 6766SOL    HW131760   4.548   0.947  14.936 -0.9755  0.4240 -0.1013
 6766SOL    HW231761   4.563   0.810  14.898  0.9519  2.0545 -1.0633
 6767SOL     OW31762   3.095   0.674   6.757  0.2015  0.0134  0.1036
 6767SOL    HW131763   3.102   0.732   6.833 -0.6657 -0.3056  0.4288
 6767SOL    HW231764   3.166   0.715   6.708 -0.7596 -1.3229 -2.3890
 6768SOL     OW31765   2.235   3.187   1.734  0.5661  0.1957 -0.3246
 6768SOL    HW131766   2.200   3.249   1.670  1.7503 -0.8660 -2.0389
 6768SOL    HW231767   2.157   3.134   1.748  1.0746  0.1160  2.1997
 6769SOL     OW31768   1.291   3.486   7.595  0.5195 -0.9463  0.4850
 6769SOL    HW131769   1.362   3.546   7.574  0.4526 -1.2698 -0.6412
 6769SOL    HW231770   1.272   3.467   7.503  0.2088 -0.6587  0.4888
 6770SOL     OW31771   1.496   2.359   9.261 -0.1854  0.5034  0.6784
 6770SOL    HW131772   1.533   2.443   9.234  0.7066 -0.0871  0.0869
 6770SOL    HW231773   1.475   2.316   9.179 -0.9567  1.1295  0.5359
 6771SOL     OW31774   0.440   4.336   3.598 -0.3618 -0.3865  0.2269
 6771SOL    HW131775   0.406   4.415   3.640  1.6684  0.1700  0.7832
 6771SOL    HW231776   0.366   4.308   3.544 -0.1724  1.4011 -0.9549
 6772SOL     OW31777   3.976   4.303   2.958  1.1140 -0.2128 -0.8163
 6772SOL    HW131778   3.957   4.261   3.042  2.3576 -1.3894 -1.1355
 6772SOL    HW231779   4.044   4.365   2.985 -2.0666  2.6937  0.6657
 6773SOL     OW31780   2.363   4.231   6.773  0.1320 -0.4213  0.2683
 6773SOL    HW131781   2.311   4.159   6.809  1.6769 -1.7729 -0.1681
 6773SOL    HW231782   2.310   4.309   6.789  1.1153  0.1708  0.6153
 6774SOL     OW31783   0.591   2.514   3.608  0.1178 -0.5723 -0.0774
 6774SOL    HW131784   0.551   2.427   3.607 -1.0833 -0.0215  0.2221
 6774SOL    HW231785   0.576   2.545   3.697 -0.7780 -1.1286 -0.0361
 6775SOL     OW31786   0.488   4.293  13.645 -0.3651  0.4922 -0.3814
 6775SOL    HW131787   0.552   4.356  13.679 -2.2143  2.7549 -1.1272
 6775SOL    HW231788   0.417   4.298  13.708  1.3562 -1.1754  1.6742
 6776SOL     OW31789   4.425   4.702   8.334  0.3035 -0.4344  0.0175
 6776SOL    HW131790   4.465   4.642   8.271  2.5364  2.4235 -1.2981
 6776SOL    HW231791   4.504   4.717   8.385  0.2720 -0.6759  0.1375
 6777SOL     OW31792   2.032   2.792   7.570  0.5773  0.1479  0.1160
 6777SOL    HW131793   2.124   2.819   7.574  0.8145 -0.7623  0.5988
 6777SOL    HW231794   2.031   2.717   7.511  2.0229 -0.6032  1.0516
 6778SOL     OW31795   2.543   3.076   5.532  0.3137  0.0730  0.1942
 6778SOL    HW131796   2.482   3.106   5.599 -0.5715 -0.3396 -0.4303
 6778SOL    HW231797   2.610   3.045   5.592  1.5006  1.0778 -0.6117
 6779SOL     OW31798   0.609   1.815   5.639 -0.3161 -0.3811 -0.2991
 6779SOL    HW131799   0.655   1.864   5.571  3.0538 -4.5823 -1.0192
 6779SOL    HW231800   0.522   1.849   5.619  0.2443  0.6223 -1.0191
 6780SOL     OW31801   0.292   1.810  15.280 -0.7120 -0.4989 -0.1463
 6780SOL    HW131802   0.221   1.759  15.243 -0.6742 -0.7811  0.1680
 6780SOL    HW231803   0.358   1.794  15.213 -0.7648  2.7922 -1.0104
 6781SOL     OW31804   0.920   4.632  10.590  0.5872  0.4139 -0.9927
 6781SOL    HW131805   0.989   4.695  10.611 -0.7317  1.3719  0.4793
 6781SOL    HW231806   0.973   4.565  10.546  0.2696 -1.1320  1.0088
 6782SOL     OW31807   1.736   0.516   7.474  0.4696 -0.0816 -0.2013
 6782SOL    HW131808   1.672   0.519   7.402  0.5174 -0.4245 -0.2593
 6782SOL    HW231809   1.702   0.599   7.509 -0.1754  0.4425 -2.0355
 6783SOL     OW31810   4.380   4.165   4.214 -0.4909  0.3984 -0.0022
 6783SOL    HW131811   4.426   4.105   4.273 -0.0880 -1.1010 -1.8535
 6783SOL    HW231812   4.385   4.128   4.126 -0.6030 -1.6341  0.8414
 6784SOL     OW31813   3.434   3.721  12.666  0.1580 -0.2286 -0.2463
 6784SOL    HW131814   3.442   3.632  12.699 -1.7977 -0.4641 -0.4035
 6784SOL    HW231815   3.498   3.723  12.596  0.5317  0.5244  0.1112
 6785SOL     OW31816   2.700   2.168  12.105  0.5051  0.2150 -0.1558
 6785SOL    HW131817   2.751   2.095  12.140  0.6922  0.9118  1.0220
 6785SOL    HW231818   2.725   2.157  12.013 -1.5836 -3.3930 -0.2899
 6786SOL     OW31819   0.044   1.572   5.298 -0.6519 -0.3238  0.0209
 6786SOL    HW131820   0.066   1.483   5.273  2.7367  0.3976  0.3955
 6786SOL    HW231821   4.679   1.579   5.328 -0.6939  0.1757 -0.2120
 6787SOL     OW31822   4.560   2.150   1.962 -0.2834  0.3154  0.7809
 6787SOL    HW131823   4.470   2.117   1.965  0.3578 -1.5510 -1.1537
 6787SOL    HW231824   4.538   2.239   1.932  0.8061  0.1349 -0.5287
 6788SOL     OW31825   4.392   0.342   4.573 -0.0950  0.3548 -0.1876
 6788SOL    HW131826   4.302   0.373   4.560 -0.3670  0.1738  1.3566
 6788SOL    HW231827   4.425   0.357   4.484 -2.5521  0.7651 -1.0464
 6789SOL     OW31828   1.009   1.120   8.379 -0.3127 -0.4727 -0.7814
 6789SOL    HW131829   0.951   1.090   8.449  0.0415  0.2501 -0.1767
 6789SOL    HW231830   0.948   1.173   8.327 -2.2759 -2.1350 -0.1820
 6790SOL     OW31831   3.843   2.167   6.308 -0.8312  0.7137  0.4958
 6790SOL    HW131832   3.771   2.111   6.337 -0.3506 -0.5153 -0.6666
 6790SOL    HW231833   3.807   2.213   6.232 -0.4423 -0.1882 -0.2403
 6791SOL     OW31834   2.816   1.015  17.133 -0.5350 -0.0184  0.3811
 6791SOL    HW131835   2.863   0.932  17.147 -0.6255 -0.0354  0.5896
 6791SOL    HW231836   2.827   1.015  17.038  0.9804 -0.3015  0.5598
 6792SOL     OW31837   2.190   0.305   6.944 -0.0824  0.8706 -0.4589
 6792SOL    HW131838   2.261   0.244   6.959 -1.1115 -0.9163 -2.9849
 6792SOL    HW231839   2.120   0.245   6.917  1.7545 -1.7626  0.6619
 6793SOL     OW31840   0.418   1.788   7.695 -0.0363 -0.0093 -0.1863
 6793SOL    HW131841   0.465   1.708   7.672  1.6831  0.7419  0.7367
 6793SOL    HW231842   0.471   1.812   7.771  1.4974 -2.4743 -0.4758
 6794SOL     OW31843   2.697   3.125   8.241 -0.4240  0.1592 -0.3219
 6794SOL    HW131844   2.734   3.085   8.162  0.6838  2.0394 -0.7473
 6794SOL    HW231845   2.625   3.067   8.266  2.5835 -4.2841 -1.7410
 6795SOL     OW31846   3.064   3.122  12.707 -0.3203 -0.0980  0.2716
 6795SOL    HW131847   3.055   3.199  12.652 -0.2985  2.0900  3.3276
 6795SOL    HW231848   3.133   3.158  12.763 -0.6200 -1.7109  1.6981
 6796SOL     OW31849   0.898   4.072  15.159 -0.5192  0.1329 -0.2124
 6796SOL    HW131850   0.921   3.995  15.107 -2.5589  0.3848 -1.4655
 6796SOL    HW231851   0.961   4.136  15.127 -0.6498  0.8026  0.8698
 6797SOL     OW31852   2.488   4.501  14.134  0.0506  0.2580 -0.0304
 6797SOL    HW131853   2.516   4.552  14.058 -0.6452 -0.5337 -0.8187
 6797SOL    HW231854   2.532   4.420  14.110  0.3445  0.5528 -0.4902
 6798SOL     OW31855   1.236   0.479   3.308  0.2038 -0.4121  0.0811
 6798SOL    HW131856   1.313   0.472   3.252  0.5416  0.0468  0.4955
 6798SOL    HW231857   1.272   0.515   3.388  1.4371 -1.7656  0.1280
 6799SOL     OW31858   2.136   3.298   8.044 -0.3463 -0.3075  0.0724
 6799SOL    HW131859   2.119   3.276   8.136  2.2711 -0.9943  0.3799
 6799SOL    HW231860   2.219   3.345   8.046 -1.6162  1.9777 -0.6012
 6800SOL     OW31861   3.020   0.542   7.921 -0.3321 -0.0827 -0.5321
 6800SOL    HW131862   2.935   0.575   7.951  0.1293  0.2052  0.4482
 6800SOL    HW231863   2.989   0.465   7.873  2.2680 -1.3949 -0.1274
 6801SOL     OW31864   3.045   1.345  10.420 -0.5617  0.5839  0.0408
 6801SOL    HW131865   3.008   1.409  10.481 -0.8465  0.1113  0.3651
 6801SOL    HW231866   3.117   1.316  10.475  0.6565  1.1210 -1.2837
 6802SOL     OW31867   2.870   0.153   2.229 -0.3277 -0.3552 -0.3389
 6802SOL    HW131868   2.903   0.069   2.199 -0.3429  0.0326 -1.4332
 6802SOL    HW231869   2.846   0.119   2.315  1.6043 -0.5767  0.1110
 6803SOL     OW31870   2.275   1.368   4.281  0.0982  0.8035  0.8373
 6803SOL    HW131871   2.232   1.405   4.204 -2.3066 -0.5929  1.4921
 6803SOL    HW231872   2.361   1.354   4.243 -0.7633 -0.8130 -0.5406
 6804SOL     OW31873   1.760   2.286  10.309 -0.4012  0.0431 -0.0218
 6804SOL    HW131874   1.819   2.252  10.376  2.2794  0.8220 -2.0331
 6804SOL    HW231875   1.695   2.332  10.363  0.4591  1.5223 -0.2360
 6805SOL     OW31876   1.431   0.685   0.736  0.3671 -0.4993 -0.4428
 6805SOL    HW131877   1.355   0.673   0.793  0.9525 -1.2073  0.1960
 6805SOL    HW231878   1.421   0.609   0.679  0.2827 -0.3807 -0.5852
 6806SOL     OW31879   0.485   3.176   7.892  0.0697  0.3477 -0.4712
 6806SOL    HW131880   0.402   3.174   7.940  0.3533 -0.7986 -0.0305
 6806SOL    HW231881   0.450   3.176   7.803 -2.8322  1.1500  0.6463
 6807SOL     OW31882   0.342   3.266   8.854 -0.0364 -0.2934 -0.7712
 6807SOL    HW131883   0.421   3.212   8.865 -0.0052 -0.1719 -0.3834
 6807SOL    HW231884   0.378   3.346   8.891 -0.7106 -0.9118  1.2082
 6808SOL     OW31885   0.820   0.538   3.420  0.1697 -0.0282  0.1525
 6808SOL    HW131886   0.777   0.502   3.498  1.1524 -2.8253 -0.6151
 6808SOL    HW231887   0.799   0.476   3.350 -2.6814  0.5854  0.4619
 6809SOL     OW31888   3.593   1.723   3.460 -0.4419 -0.2166 -0.6441
 6809SOL    HW131889   3.627   1.773   3.535 -0.0569  1.8711 -2.2172
 6809SOL    HW231890   3.661   1.657   3.453  1.6622  1.8690  0.0605
 6810SOL     OW31891   1.120   0.276   3.580 -0.6202 -0.7537 -0.1430
 6810SOL    HW131892   1.111   0.291   3.486  3.2111 -1.0470 -0.5501
 6810SOL    HW231893   1.129   0.180   3.576 -0.3723 -0.6789 -1.6078
 6811SOL     OW31894   2.045   2.293   4.010 -0.1501 -0.3337  0.3778
 6811SOL    HW131895   2.042   2.217   4.067  0.2894 -0.8684 -0.3185
 6811SOL    HW231896   2.021   2.364   4.070  0.0408 -0.2426  0.3470
 6812SOL     OW31897   1.222   3.476   8.479  0.0752 -0.2225  0.0088
 6812SOL    HW131898   1.272   3.407   8.435 -1.1269 -0.2006 -1.3882
 6812SOL    HW231899   1.143   3.480   8.425 -0.4143 -0.6358  0.6974
 6813SOL     OW31900   1.765   0.321  15.114 -0.4026 -0.1165 -0.0586
 6813SOL    HW131901   1.796   0.411  15.112 -0.8693  0.1009  2.3344
 6813SOL    HW231902   1.704   0.318  15.189  1.2242  0.5458  1.2818
 6814SOL     OW31903   0.562   0.907   4.090 -0.4344 -0.2081  0.6560
 6814SOL    HW131904   0.568   0.971   4.161 -0.6147  1.0167 -0.4550
 6814SOL    HW231905   0.586   0.828   4.138 -0.0688  0.0081  0.8278
 6815SOL     OW31906   0.550   3.657   0.198 -0.0237  0.1398  0.2444
 6815SOL    HW131907   0.601   3.577   0.205 -3.2208 -1.9040  0.1781
 6815SOL    HW231908   0.470   3.616   0.164  0.7055 -1.4598  0.4846
 6816SOL     OW31909   3.772   2.939  12.448 -0.0081 -0.0361  0.2646
 6816SOL    HW131910   3.814   3.014  12.407  2.2988 -0.6042  1.6156
 6816SOL    HW231911   3.797   2.859  12.401  1.4160  0.9945 -0.7144
 6817SOL     OW31912   2.217   4.679   4.501  0.3128 -0.1164  0.3238
 6817SOL    HW131913   2.289   4.628   4.538 -0.4639 -1.1302  0.4640
 6817SOL    HW231914   2.251   4.708   4.416 -0.1654 -1.2167 -0.2517
 6818SOL     OW31915   0.070   3.892  15.360 -0.2566  0.1221 -0.7093
 6818SOL    HW131916   0.038   3.928  15.443 -0.7646  0.3185 -0.9906
 6818SOL    HW231917   0.140   3.836  15.392 -1.1426  0.3304  1.5413
 6819SOL     OW31918   3.665   3.327  15.804  0.5949  0.8628 -0.7052
 6819SOL    HW131919   3.599   3.270  15.845  2.1651 -1.7073 -1.7563
 6819SOL    HW231920   3.613   3.375  15.740 -1.4641 -1.3814 -0.7369
 6820SOL     OW31921   2.641   1.556   2.015  0.5015 -0.5204 -0.4933
 6820SOL    HW131922   2.684   1.641   2.024  0.0429 -0.3456 -0.0332
 6820SOL    HW231923   2.698   1.495   2.061 -0.8530 -1.4634 -0.0757
 6821SOL     OW31924   3.402   1.802   1.219 -0.3547  0.0722 -0.3452
 6821SOL    HW131925   3.470   1.805   1.287 -0.6269  0.7237 -0.1041
 6821SOL    HW231926   3.442   1.748   1.151 -3.0379 -1.1871 -0.9287
 6822SOL     OW31927   2.393   2.059  17.562  0.2452  0.1305  0.8644
 6822SOL    HW131928   2.305   2.050  17.600  1.0097 -0.3212  2.5201
 6822SOL    HW231929   2.424   2.142  17.597  0.0140  0.5982 -0.0281
 6823SOL     OW31930   1.959   1.233   7.917  0.0764  0.2695  0.2321
 6823SOL    HW131931   1.872   1.204   7.889  1.3051 -1.0930 -2.2093
 6823SOL    HW231932   1.982   1.298   7.850 -1.2845  1.4538  0.9153
 6824SOL     OW31933   4.723   4.669   7.328 -0.0463 -0.2706 -0.3794
 6824SOL    HW131934   4.682   4.711   7.252 -2.8339 -3.0500 -0.3786
 6824SOL    HW231935   0.080   4.718   7.335 -0.1182 -0.1934 -0.0846
 6825SOL     OW31936   2.342   1.522   5.062 -0.0035  0.4172 -0.1579
 6825SOL    HW131937   2.399   1.599   5.061  0.0996  0.3395 -0.2272
 6825SOL    HW231938   2.334   1.505   4.968  1.6405  3.3482 -0.8266
 6826SOL     OW31939   2.020   2.268   7.222  0.2578 -0.3543 -0.3814
 6826SOL    HW131940   2.060   2.234   7.302 -1.2868 -2.8264 -0.6526
 6826SOL    HW231941   2.065   2.352   7.214 -1.3575  0.5475  0.0108
 6827SOL     OW31942   3.437   1.993   8.088  0.0318 -0.1208 -0.2112
 6827SOL    HW131943   3.446   2.073   8.038  0.2692 -0.0329 -0.0298
 6827SOL    HW231944   3.402   2.022   8.173 -1.1929 -0.6239 -0.5341
 6828SOL     OW31945   0.023   0.681   4.651 -0.0557  0.5264 -0.3494
 6828SOL    HW131946   4.653   0.682   4.648 -0.0730 -0.7172  0.0600
 6828SOL    HW231947   0.053   0.609   4.707 -1.1058 -1.5678 -2.4811
 6829SOL     OW31948   1.100   3.349   3.940 -0.0523  0.2503 -0.6978
 6829SOL    HW131949   1.005   3.363   3.940 -0.4264 -2.4365 -0.5011
 6829SOL    HW231950   1.110   3.280   3.875  0.2775  0.6042 -1.0231
 6830SOL     OW31951   0.111   2.984   4.743 -0.6415  0.6280  0.2199
 6830SOL    HW131952   0.113   3.070   4.785  1.1659  0.7447 -0.1435
 6830SOL    HW231953   0.183   2.938   4.785 -0.0755  0.9998 -0.3497
 6831SOL     OW31954   3.381   0.408   1.161  0.2346 -0.3070  0.5701
 6831SOL    HW131955   3.404   0.351   1.088 -0.7772  0.0894 -0.0639
 6831SOL    HW231956   3.287   0.392   1.174  0.0272  1.7022  1.5418
 6832SOL     OW31957   0.871   1.663   6.590 -0.5279 -0.0315 -0.6944
 6832SOL    HW131958   0.813   1.736   6.613 -0.7402  0.3744 -2.5115
 6832SOL    HW231959   0.854   1.666   6.496  2.8413  0.5940 -1.2825
 6833SOL     OW31960   1.712   1.097   5.497 -0.1508 -0.0099  0.3024
 6833SOL    HW131961   1.655   1.030   5.458  0.3701 -1.0999  1.4296
 6833SOL    HW231962   1.669   1.182   5.491  0.4800  0.3277  0.5471
 6834SOL     OW31963   2.689   1.801   1.323 -0.4593 -0.0033  0.0154
 6834SOL    HW131964   2.648   1.872   1.272  0.8382  0.6140 -0.1597
 6834SOL    HW231965   2.779   1.809   1.291 -0.3129  1.0508  0.6725
 6835SOL     OW31966   1.067   3.145   3.758  0.1909 -0.4397  0.3499
 6835SOL    HW131967   1.135   3.078   3.765 -1.7984 -2.5301 -0.3571
 6835SOL    HW231968   1.057   3.166   3.665  0.6669  0.1653  0.4384
 6836SOL     OW31969   3.756   0.584   0.804  0.0204 -0.5886 -0.0346
 6836SOL    HW131970   3.756   0.588   0.709  0.7676 -0.2627 -0.0217
 6836SOL    HW231971   3.851   0.597   0.810  0.0631 -0.8979 -0.0520
 6837SOL     OW31972   4.543   4.679  16.424  0.0450 -0.7030 -0.3400
 6837SOL    HW131973   4.541   4.608  16.489  1.9614  0.9824  1.5700
 6837SOL    HW231974   4.530   4.631  16.342 -1.0343 -0.3050 -0.4082
 6838SOL     OW31975   2.607   3.957   1.358 -0.0041  0.3205 -0.0859
 6838SOL    HW131976   2.693   3.950   1.316 -0.2439  2.5417 -0.9756
 6838SOL    HW231977   2.560   3.905   1.292  0.6131 -0.1360 -0.1690
 6839SOL     OW31978   0.699   4.476  17.034  0.0992 -0.2319  0.2594
 6839SOL    HW131979   0.728   4.464  16.943 -0.5610 -1.7461  0.2385
 6839SOL    HW231980   0.685   4.570  17.035 -0.9095 -0.3865  0.9675
 6840SOL     OW31981   0.185   2.967  11.672 -0.1316 -0.1394  0.4676
 6840SOL    HW131982   0.267   2.927  11.700  1.2286  0.6180 -2.4726
 6840SOL    HW231983   0.166   2.911  11.597 -0.9491 -1.7293  1.8515
 6841SOL     OW31984   3.747   0.766  15.593  0.3079 -0.3000  0.2158
 6841SOL    HW131985   3.805   0.691  15.605  0.3756 -0.3439 -0.4358
 6841SOL    HW231986   3.678   0.740  15.533  0.7268 -1.8218  0.3964
 6842SOL     OW31987   0.503   3.919   6.846 -0.4564  1.0456 -1.2025
 6842SOL    HW131988   0.478   3.952   6.760  0.2255 -0.4638 -1.9588
 6842SOL    HW231989   0.438   3.957   6.906  0.1921 -2.2906  1.5796
 6843SOL     OW31990   0.399   3.161   0.745 -0.1222  0.4841  0.1327
 6843SOL    HW131991   0.474   3.202   0.701  0.7505  0.4590  1.5892
 6843SOL    HW231992   0.446   3.144   0.827 -2.1816 -2.6138  0.6715
 6844SOL     OW31993   0.858   3.071  10.524 -0.3289  0.1785  0.3929
 6844SOL    HW131994   0.884   3.111  10.607  0.2092  0.8880 -0.1129
 6844SOL    HW231995   0.840   3.147  10.469 -1.1135 -1.9345 -2.2548
 6845SOL     OW31996   0.675   4.076   1.903 -0.1800 -0.2607  0.2411
 6845SOL    HW131997   0.687   4.030   1.986  2.0029 -2.3493 -1.2437
 6845SOL    HW231998   0.701   4.165   1.925  0.9409 -0.3775 -0.5836
 6846SOL     OW31999   0.834   2.743   2.733  0.1966  0.1268 -0.3229
 6846SOL    HW132000   0.883   2.708   2.659 -0.8675  1.1892 -1.5381
 6846SOL    HW232001   0.757   2.687   2.726 -0.7342  1.3504  0.1391
 6847SOL     OW32002   0.530   3.634   4.049  0.2427  0.0692 -0.1556
 6847SOL    HW132003   0.481   3.571   4.102  2.1597 -0.8986  0.4762
 6847SOL    HW232004   0.600   3.650   4.112 -2.3636 -1.2590  3.0934
 6848SOL     OW32005   3.515   0.226  12.051 -0.3323  0.0504  0.4116
 6848SOL    HW132006   3.591   0.171  12.037 -1.1545 -1.0817  0.4316
 6848SOL    HW232007   3.522   0.294  11.984 -0.0669 -2.1530 -1.7561
 6849SOL     OW32008   0.536   1.956   8.225  0.1807  0.2251 -0.0587
 6849SOL    HW132009   0.569   1.883   8.278  0.1177  0.1494 -0.1241
 6849SOL    HW232010   0.444   1.935   8.211  0.6662 -1.5390 -0.6779
 6850SOL     OW32011   2.625   2.640   4.309 -0.2362 -0.8248  0.7168
 6850SOL    HW132012   2.597   2.611   4.396 -1.3601 -0.7149  0.3927
 6850SOL    HW232013   2.546   2.686   4.279  0.9912  1.7410  1.3654
 6851SOL     OW32014   1.024   1.116   2.998  0.7711  0.6195 -0.2893
 6851SOL    HW132015   1.034   1.021   3.000 -0.1617  0.4706 -2.1955
 6851SOL    HW232016   0.928   1.116   2.991  0.6524  0.1944  1.2952
 6852SOL     OW32017   1.999   4.718   4.247  0.2187  0.3825 -0.0197
 6852SOL    HW132018   2.062   0.054   4.286 -0.7050 -0.1657  2.3218
 6852SOL    HW232019   1.940   4.715   4.322  1.3979  2.3844  0.9842
 6853SOL     OW32020   4.067   1.976   8.618  0.0538  0.0193 -0.2886
 6853SOL    HW132021   4.079   1.902   8.559 -0.2080 -1.2428  1.2409
 6853SOL    HW232022   4.036   1.929   8.695  0.2495  0.3173 -0.0283
 6854SOL     OW32023   0.535   2.240  12.661  0.2762  0.2879 -0.1292
 6854SOL    HW132024   0.440   2.237  12.655  0.0348  0.7646  3.3227
 6854SOL    HW232025   0.536   2.289  12.744 -3.0792  1.3441 -0.7022
 6855SOL     OW32026   2.600   0.718   6.933 -0.1575 -0.2382 -0.0480
 6855SOL    HW132027   2.520   0.717   6.985 -1.5327 -2.0090 -2.2183
 6855SOL    HW232028   2.653   0.642   6.957 -0.0306  0.3992  1.6856
 6856SOL     OW32029   0.620   4.269  16.445 -0.2709 -0.2970 -0.4394
 6856SOL    HW132030   0.536   4.299  16.408 -0.0337 -0.9745 -1.5115
 6856SOL    HW232031   0.676   4.346  16.457 -0.5313  0.2455 -2.5823
 6857SOL     OW32032   3.985   3.680   4.795  0.3975 -0.3538 -0.3074
 6857SOL    HW132033   3.922   3.641   4.855  1.0743 -4.7406 -2.3899
 6857SOL    HW232034   3.945   3.661   4.710 -2.3014  0.7833  0.7174
 6858SOL     OW32035   0.131   2.455  14.914 -0.2077  0.2021 -0.0850
 6858SOL    HW132036   0.212   2.473  14.963 -0.0360  0.8712 -0.6180
 6858SOL    HW232037   0.164   2.483  14.829  1.4881 -2.7317 -0.3941
 6859SOL     OW32038   3.063   4.195   2.021 -0.4461  0.1702  0.0286
 6859SOL    HW132039   3.097   4.142   1.950  1.2666 -0.5811  1.4198
 6859SOL    HW232040   3.126   4.267   2.017  0.3013 -0.4775  0.3330
 6860SOL     OW32041   4.193   2.635   5.684  0.0358  0.3820  0.9129
 6860SOL    HW132042   4.183   2.546   5.650  0.2055  0.8589 -0.3983
 6860SOL    HW232043   4.284   2.654   5.662  0.1784 -2.3846 -0.9314
 6861SOL     OW32044   4.715   2.542   8.744 -0.7507  0.4388  0.2268
 6861SOL    HW132045   4.704   2.631   8.777  0.3657  0.3641  0.8092
 6861SOL    HW232046   0.022   2.502   8.825  2.1824  2.6006  0.1099
 6862SOL     OW32047   0.908   4.083   9.922 -0.1956  0.2614 -0.9094
 6862SOL    HW132048   0.910   4.116  10.012 -1.5756  0.1984 -0.8520
 6862SOL    HW232049   0.873   4.154   9.868 -1.1445  0.9943  0.6468
 6863SOL     OW32050   2.757   3.520   4.173 -0.4677 -0.8215 -0.1850
 6863SOL    HW132051   2.710   3.491   4.094 -1.8499 -0.6978  0.5940
 6863SOL    HW232052   2.785   3.609   4.154  1.0434 -0.8823  1.7346
 6864SOL     OW32053   0.440   2.119   4.243  0.5513 -0.3826 -0.0438
 6864SOL    HW132054   0.398   2.109   4.328 -0.7523 -0.9499 -0.7428
 6864SOL    HW232055   0.526   2.086   4.270  0.5874 -0.0085  0.2831
 6865SOL     OW32056   1.332   1.590   2.011 -0.3402  0.2095  0.3470
 6865SOL    HW132057   1.331   1.570   1.918  3.1612  0.2283  0.2821
 6865SOL    HW232058   1.419   1.561   2.039 -0.4460 -2.6733 -2.3716
 6866SOL     OW32059   0.210   2.326   4.154 -0.0025 -0.3495  0.1187
 6866SOL    HW132060   0.296   2.329   4.196 -0.8805  0.4255  1.8361
 6866SOL    HW232061   0.196   2.231   4.157 -1.3893 -0.1854 -1.0829
 6867SOL     OW32062   3.054   1.951   3.803 -0.1827 -0.5568 -0.1874
 6867SOL    HW132063   3.125   1.905   3.848 -0.9302 -0.7169  0.8372
 6867SOL    HW232064   3.091   1.964   3.716 -1.3516 -2.5893 -0.9942
 6868SOL     OW32065   3.374   1.448  10.324  0.0811 -0.4135  0.0205
 6868SOL    HW132066   3.342   1.400  10.247  1.8176  0.9108 -1.5004
 6868SOL    HW232067   3.382   1.382  10.393 -0.4228 -0.9576 -0.4365
 6869SOL     OW32068   4.032   0.114  11.924  0.5305  0.1851 -0.5598
 6869SOL    HW132069   3.985   0.033  11.944  0.9846 -0.1657 -0.9135
 6869SOL    HW232070   4.023   0.148  12.013  3.0718  0.2105 -0.2941
 6870SOL     OW32071   3.345   0.363   8.466  0.2828 -0.6986  0.1060
 6870SOL    HW132072   3.276   0.322   8.518  0.3846  2.4484  2.7019
 6870SOL    HW232073   3.392   0.280   8.475  2.6090  0.5407 -0.5121
 6871SOL     OW32074   1.202   0.820   7.023 -0.6309 -0.0917  0.6730
 6871SOL    HW132075   1.210   0.734   6.982  2.6632 -0.2957  1.7119
 6871SOL    HW232076   1.294   0.843   7.037 -0.8308  1.7902 -1.1064
 6872SOL     OW32077   1.902   2.697  13.553  0.2257  0.3346  0.2926
 6872SOL    HW132078   1.853   2.683  13.634  1.1882  2.7352  1.2906
 6872SOL    HW232079   1.830   2.714  13.492  0.1238 -0.0534  0.3051
 6873SOL     OW32080   0.036   1.080   3.871  0.4614  0.1439  0.1198
 6873SOL    HW132081   0.050   1.153   3.931 -1.7609  0.6245  0.0462
 6873SOL    HW232082   0.106   1.024   3.904  0.6412 -0.1322 -0.7325
 6874SOL     OW32083   4.466   4.236   1.620  0.1398 -0.0043  0.2809
 6874SOL    HW132084   4.402   4.173   1.586  0.4798 -0.7450  1.0451
 6874SOL    HW232085   4.547   4.209   1.577 -0.3153  0.5838 -0.9502
 6875SOL     OW32086   3.444   1.940   5.412  0.0205 -0.1546 -0.5931
 6875SOL    HW132087   3.502   1.929   5.336  0.4078  1.4889 -0.5245
 6875SOL    HW232088   3.418   2.031   5.401  0.5194 -0.2006 -2.2609
 6876SOL     OW32089   1.208   4.353   9.013 -0.4723  0.0611  0.7265
 6876SOL    HW132090   1.205   4.276   8.956 -1.9595  0.2026  0.6072
 6876SOL    HW232091   1.115   4.371   9.030 -0.7789  1.7448 -2.6422
 6877SOL     OW32092   1.285   1.414   3.731  0.5668 -0.7262  0.4311
 6877SOL    HW132093   1.265   1.322   3.716  0.8112 -1.2598  3.3181
 6877SOL    HW232094   1.377   1.402   3.756  0.5385 -0.0482  0.8595
 6878SOL     OW32095   1.994   3.913  12.366 -0.3815  0.4353  0.0152
 6878SOL    HW132096   2.087   3.895  12.381 -0.6010  0.4039  1.3393
 6878SOL    HW232097   1.972   3.846  12.301 -2.1222  1.0013  0.0224
 6879SOL     OW32098   0.441   3.939  16.860  0.0636  0.3972  0.4198
 6879SOL    HW132099   0.346   3.947  16.868 -0.1125 -0.6270 -0.7460
 6879SOL    HW232100   0.471   4.028  16.880  0.6044  0.1083  0.8850
 6880SOL     OW32101   1.720   1.640  13.233 -0.8504  0.4189 -0.0224
 6880SOL    HW132102   1.757   1.723  13.201  0.4877  1.1365  3.4305
 6880SOL    HW232103   1.686   1.659  13.320 -3.3971  0.8609 -1.1141
 6881SOL     OW32104   2.270   4.047   8.013 -0.0340 -0.0768 -0.2568
 6881SOL    HW132105   2.303   4.137   8.012 -0.3673  0.0521  0.0946
 6881SOL    HW232106   2.186   4.052   8.060  0.1654  2.2637 -0.1719
 6882SOL     OW32107   1.517   2.577   1.336 -0.1169 -0.5188 -0.7321
 6882SOL    HW132108   1.425   2.584   1.362 -0.3199  0.9366 -1.9180
 6882SOL    HW232109   1.516   2.594   1.242  2.9084  1.6678 -0.3672
 6883SOL     OW32110   3.845   0.226   0.802 -1.1949  0.3142 -0.2528
 6883SOL    HW132111   3.768   0.212   0.747 -0.7628 -1.6136 -0.3827
 6883SOL    HW232112   3.805   0.276   0.873 -1.8319  0.6824 -0.8695
 6884SOL     OW32113   1.154   0.979  15.959  0.3520 -0.6079  0.0097
 6884SOL    HW132114   1.209   0.904  15.982  0.9961 -0.1503 -0.0380
 6884SOL    HW232115   1.075   0.946  15.916  1.3654 -1.0711 -1.4875
 6885SOL     OW32116   4.556   3.818   5.787 -0.7360 -0.4404 -0.4814
 6885SOL    HW132117   4.638   3.795   5.831  0.9103 -0.4895 -3.5491
 6885SOL    HW232118   4.506   3.737   5.799 -2.1203  0.3796 -0.6897
 6886SOL     OW32119   1.820   0.556   8.523 -0.2284 -0.4878  0.9278
 6886SOL    HW132120   1.865   0.474   8.540  2.2857  0.9702  1.2016
 6886SOL    HW232121   1.877   0.614   8.473 -0.3253  1.2812  2.8410
 6887SOL     OW32122   3.510   4.720   2.566  0.1307  0.2672 -0.2122
 6887SOL    HW132123   3.556   4.696   2.646 -0.3902  0.1328  0.0507
 6887SOL    HW232124   3.419   4.719   2.598  0.6238 -1.4680  1.1105
 6888SOL     OW32125   0.612   0.454   8.397 -0.5402 -0.6360  0.3974
 6888SOL    HW132126   0.519   0.463   8.378 -0.1423  3.2057  0.2412
 6888SOL    HW232127   0.651   0.517   8.336 -1.3587  1.2947  1.8546
 6889SOL     OW32128   1.783   0.224   4.347 -0.0488 -0.4425 -0.2753
 6889SOL    HW132129   1.843   0.278   4.398  0.1886 -1.8549  0.9550
 6889SOL    HW232130   1.699   0.268   4.360 -0.0162 -0.2785 -0.6193
 6890SOL     OW32131   4.409   4.385   2.445 -0.1817 -0.5855 -0.2102
 6890SOL    HW132132   4.359   4.321   2.495 -1.7683  1.7399  1.2106
 6890SOL    HW232133   4.377   4.371   2.356  0.7003  4.7048 -1.3653
 6891SOL     OW32134   3.902   3.317  16.591 -0.2085  0.1425  0.0574
 6891SOL    HW132135   3.944   3.236  16.561  0.6136  0.5990 -0.0150
 6891SOL    HW232136   3.840   3.335  16.520 -0.7478 -2.2006 -0.0829
 6892SOL     OW32137   4.154   3.489   3.350  0.4640  0.6306  0.1582
 6892SOL    HW132138   4.214   3.511   3.279 -1.1978 -0.6488 -1.6336
 6892SOL    HW232139   4.136   3.400   3.322  1.2218 -0.0326  1.8113
 6893SOL     OW32140   1.712   1.252   9.325 -0.2122  0.1659  0.2511
 6893SOL    HW132141   1.640   1.263   9.263 -1.3175 -1.5353  1.2520
 6893SOL    HW232142   1.797   1.258   9.281  0.6807 -0.7753  1.8543
 6894SOL     OW32143   2.105   1.843   2.201  0.2493  0.1901  0.2580
 6894SOL    HW132144   2.176   1.785   2.230 -1.1367 -1.5506  0.1517
 6894SOL    HW232145   2.090   1.794   2.120  2.3465  1.1024 -0.7038
 6895SOL     OW32146   3.896   1.526   5.095 -0.2216 -0.1295 -0.2582
 6895SOL    HW132147   3.983   1.488   5.109  0.5850  1.1371 -1.9106
 6895SOL    HW232148   3.855   1.474   5.026 -1.1821 -0.8443  0.8557
 6896SOL     OW32149   1.767   4.036  17.365 -0.0111 -0.0797  0.5232
 6896SOL    HW132150   1.705   3.964  17.353 -1.1005  0.9477  0.0425
 6896SOL    HW232151   1.815   4.008  17.443  0.2239 -2.8686 -0.6168
 6897SOL     OW32152   2.663   0.102   7.764  0.0217 -0.4588  0.4914
 6897SOL    HW132153   2.727   0.045   7.722  1.1401 -0.5018  2.2793
 6897SOL    HW232154   2.651   0.170   7.697 -1.6084 -1.3617 -0.1446
 6898SOL     OW32155   2.576   3.383   6.147  0.2204 -0.0453  0.1613
 6898SOL    HW132156   2.493   3.403   6.103  0.8069  1.1940 -0.3876
 6898SOL    HW232157   2.583   3.290   6.127 -0.8295 -0.0940 -0.0040
 6899SOL     OW32158   2.442   4.211  15.071 -0.1284 -0.0217  0.2499
 6899SOL    HW132159   2.375   4.182  15.133 -0.5223  3.0040  1.2583
 6899SOL    HW232160   2.475   4.289  15.118  0.5177 -0.3647  0.3726
 6900SOL     OW32161   1.076   0.326  11.669  0.3746 -0.0148  0.5765
 6900SOL    HW132162   1.158   0.337  11.718  1.4658 -1.9078 -0.8405
 6900SOL    HW232163   1.021   0.299  11.743 -1.7735  0.1910 -0.9479
 6901SOL     OW32164   1.132   2.740   6.908 -0.2815 -0.6855 -0.1779
 6901SOL    HW132165   1.069   2.808   6.883  0.8987  0.0449 -1.1829
 6901SOL    HW232166   1.182   2.785   6.977  0.9857  0.7668 -2.0347
 6902SOL     OW32167   4.712   4.452   2.865  0.4114  0.9532  0.2289
 6902SOL    HW132168   4.701   4.399   2.785 -2.7494  2.0620 -0.0760
 6902SOL    HW232169   0.039   4.529   2.844  0.3281  0.6671 -1.0346
 6903SOL     OW32170   1.943   4.187  11.047  0.1423  0.1946 -0.2631
 6903SOL    HW132171   1.915   4.261  10.993  0.1254  0.6980  0.4316
 6903SOL    HW232172   2.023   4.157  11.005 -0.0711 -1.6873  0.6748
 6904SOL     OW32173   2.321   1.290   2.683  0.0248  0.1458 -0.2860
 6904SOL    HW132174   2.295   1.201   2.658 -0.9380  0.2772  0.2685
 6904SOL    HW232175   2.416   1.286   2.679  0.1666  2.8477  0.6291
 6905SOL     OW32176   3.506   0.469   4.648 -0.0582  0.4788  0.0589
 6905SOL    HW132177   3.417   0.442   4.671  0.5275 -3.6327 -2.4656
 6905SOL    HW232178   3.502   0.460   4.553  0.6299  0.2195  0.0547
 6906SOL     OW32179   2.352   4.238   5.241 -0.1333 -0.5177  0.1176
 6906SOL    HW132180   2.362   4.259   5.334 -1.3914  1.5993 -0.2391
 6906SOL    HW232181   2.377   4.145   5.243 -1.1988 -0.7874  1.2947
 6907SOL     OW32182   0.816   0.954   7.341 -0.2868 -0.0913 -0.4906
 6907SOL    HW132183   0.855   0.994   7.263  1.4594 -1.0801 -0.1267
 6907SOL    HW232184   0.870   0.879   7.364 -0.3855 -0.1402 -0.4199
 6908SOL     OW32185   0.325   0.315  12.288  0.3969 -0.2676 -1.0667
 6908SOL    HW132186   0.325   0.221  12.269  0.4547 -0.2015 -1.3854
 6908SOL    HW232187   0.387   0.327  12.360 -1.3895 -1.5686  0.6919
 6909SOL     OW32188   3.674   1.261   7.519 -0.3837 -0.4491  0.1845
 6909SOL    HW132189   3.591   1.266   7.566 -0.6645 -1.1284 -0.2364
 6909SOL    HW232190   3.651   1.280   7.428 -2.5071  0.8067  0.9880
 6910SOL     OW32191   2.447   2.757   7.886 -0.1380 -0.0194  0.3840
 6910SOL    HW132192   2.528   2.777   7.933 -0.4520  1.3201  0.3288
 6910SOL    HW232193   2.396   2.698   7.942 -0.0938  1.9678  2.5154
 6911SOL     OW32194   1.989   1.855  13.940 -0.0631 -0.0053 -0.1182
 6911SOL    HW132195   1.934   1.806  13.879  2.2451 -0.5056 -1.8178
 6911SOL    HW232196   2.072   1.806  13.941 -0.2364 -0.4403 -3.9476
 6912SOL     OW32197   4.491   0.078  17.652  0.1371 -0.1262  0.2168
 6912SOL    HW132198   4.493   4.717  17.695 -1.0287 -0.9992 -1.4527
 6912SOL    HW232199   4.443   0.055  17.573  0.4305  2.0440 -0.5901
 6913SOL     OW32200   1.441   2.811   3.124 -0.2986 -0.1852 -0.5337
 6913SOL    HW132201   1.521   2.764   3.149 -1.4598 -0.8810  1.8793
 6913SOL    HW232202   1.467   2.851   3.041 -0.7527 -1.9508 -1.5184
 6914SOL     OW32203   2.482   0.583   8.056  0.2847  0.3377 -0.3740
 6914SOL    HW132204   2.536   0.598   8.134 -0.1924  1.9361 -0.3634
 6914SOL    HW232205   2.456   0.491   8.068 -0.4976  0.4233 -1.4656
 6915SOL     OW32206   2.089   2.780  13.759  0.1384  0.0361 -0.2682
 6915SOL    HW132207   2.019   2.807  13.700 -0.6084  1.4294  1.2362
 6915SOL    HW232208   2.090   2.854  13.820 -1.8008 -1.5362  1.6649
 6916SOL     OW32209   0.387   1.377   6.135  0.3674  0.7347  0.1085
 6916SOL    HW132210   0.461   1.438   6.138 -1.6527  3.2135 -0.3109
 6916SOL    HW232211   0.370   1.381   6.041  1.9155 -0.6039 -0.2161
 6917SOL     OW32212   3.556   0.122   8.097  0.0668 -0.2366 -0.0488
 6917SOL    HW132213   3.535   0.209   8.131 -0.2419 -0.2533 -0.2034
 6917SOL    HW232214   3.505   0.127   8.016  2.4568  0.1643 -1.5507
 6918SOL     OW32215   3.183   3.249   6.162 -0.2274  0.2141  0.5498
 6918SOL    HW132216   3.248   3.315   6.184  0.4342 -0.0164 -0.7281
 6918SOL    HW232217   3.118   3.291   6.105  0.8222  1.1573  0.0498
 6919SOL     OW32218   0.438   1.950   9.581  0.3542  0.3492  0.0997
 6919SOL    HW132219   0.357   1.907   9.553  0.2693  0.2636  0.4747
 6919SOL    HW232220   0.421   2.035   9.540 -1.8674  1.0459  2.4951
 6920SOL     OW32221   1.595   3.589   5.768  0.5599  0.1128  0.5167
 6920SOL    HW132222   1.630   3.634   5.691 -0.3153 -1.8696 -1.0489
 6920SOL    HW232223   1.669   3.603   5.827  1.1069 -2.4244  0.4529
 6921SOL     OW32224   2.400   2.195   4.227 -0.1604  0.0018  0.4866
 6921SOL    HW132225   2.423   2.139   4.153  0.1239 -0.1271  0.6717
 6921SOL    HW232226   2.420   2.280   4.189 -0.2948  0.2441  0.9628
 6922SOL     OW32227   1.343   3.284  16.029 -1.0676  0.1779  0.6472
 6922SOL    HW132228   1.316   3.345  15.961  0.2237  1.1845  1.0165
 6922SOL    HW232229   1.427   3.320  16.060 -0.5459  0.1669 -0.7529
 6923SOL     OW32230   1.244   2.991   0.682  0.3360  0.3476  0.6106
 6923SOL    HW132231   1.255   2.931   0.755 -0.9697 -2.0551 -1.1500
 6923SOL    HW232232   1.158   3.030   0.696  0.2985 -0.7369  3.3249
 6924SOL     OW32233   2.883   3.988   6.662  0.6102  0.0835  0.3765
 6924SOL    HW132234   2.810   4.023   6.612 -1.1423 -1.0949  2.0581
 6924SOL    HW232235   2.849   4.016   6.747 -0.1049 -0.3367  0.2300
 6925SOL     OW32236   4.680   0.624  13.934  0.0479 -0.2452  0.4060
 6925SOL    HW132237   0.039   0.605  13.892 -1.5731 -0.2248 -2.8005
 6925SOL    HW232238   4.627   0.546  13.949  1.2568 -1.3080 -0.9055
 6926SOL     OW32239   2.701   0.467   7.129 -0.0918 -0.6248 -0.2982
 6926SOL    HW132240   2.781   0.443   7.175 -1.3380 -1.6558  1.3518
 6926SOL    HW232241   2.710   0.411   7.052 -2.2236 -1.0125 -0.2885
 6927SOL     OW32242   2.054   3.711  13.180 -0.5018  0.0056  0.3193
 6927SOL    HW132243   2.147   3.691  13.173 -0.0994  2.8987 -2.9799
 6927SOL    HW232244   2.019   3.673  13.100  0.2913  2.1128 -1.0298
 6928SOL     OW32245   4.108   0.761   6.537 -0.1286 -0.1473  0.0719
 6928SOL    HW132246   4.133   0.673   6.509 -0.9974 -0.1187 -0.8189
 6928SOL    HW232247   4.190   0.782   6.583 -1.4327  1.7424  1.5524
 6929SOL     OW32248   0.181   3.684   6.320 -0.1927  0.0883 -0.3639
 6929SOL    HW132249   0.184   3.671   6.415  0.7992  0.0971 -0.3888
 6929SOL    HW232250   0.268   3.653   6.292  0.0868  0.3141  0.2533
 6930SOL     OW32251   2.243   2.172   5.749  0.4565 -0.1833 -0.5237
 6930SOL    HW132252   2.328   2.210   5.772 -0.5800  0.7817  1.6216
 6930SOL    HW232253   2.256   2.078   5.736  1.1565 -0.1505 -0.0291
 6931SOL     OW32254   1.998   0.443   3.750 -1.0000 -0.3578 -0.3769
 6931SOL    HW132255   2.078   0.416   3.705 -0.7405 -3.7636  2.0987
 6931SOL    HW232256   2.028   0.439   3.840 -0.0309  1.7319 -0.6203
 6932SOL     OW32257   2.747   3.143   6.178  0.7467  0.6887 -0.3935
 6932SOL    HW132258   2.673   3.131   6.238  1.6337  2.1647  0.9779
 6932SOL    HW232259   2.817   3.163   6.240  1.2640  1.3862 -1.2000
 6933SOL     OW32260   4.241   3.712   5.470  0.0955 -0.1052  0.3879
 6933SOL    HW132261   4.255   3.641   5.408 -1.3462 -0.6478  0.6933
 6933SOL    HW232262   4.262   3.666   5.552  0.5598  0.9884  0.8818
 6934SOL     OW32263   3.998   4.218   9.288 -0.0256 -0.0167  0.3147
 6934SOL    HW132264   3.921   4.163   9.275  1.3554 -1.4258 -1.8809
 6934SOL    HW232265   4.012   4.201   9.381  0.6578 -1.2846 -0.0323
 6935SOL     OW32266   4.697   0.251   5.552 -0.4539  0.3554 -0.2712
 6935SOL    HW132267   0.031   0.182   5.520  0.1744 -0.0408  1.7541
 6935SOL    HW232268   4.679   0.222   5.641  0.2602 -0.9412 -0.5377
 6936SOL     OW32269   3.456   1.174   2.548  0.3483 -0.1334  0.4739
 6936SOL    HW132270   3.478   1.092   2.503  0.9171  0.5496 -0.4833
 6936SOL    HW232271   3.512   1.241   2.511  0.7913 -1.1462 -0.7022
 6937SOL     OW32272   4.392   1.779   7.443  0.3689 -0.0807  0.2078
 6937SOL    HW132273   4.481   1.814   7.439  0.0052  1.2300  3.1128
 6937SOL    HW232274   4.373   1.745   7.356 -3.9630  1.9627  0.3492
 6938SOL     OW32275   3.124   0.387   1.595  0.3209  0.3217 -0.2558
 6938SOL    HW132276   3.178   0.322   1.551 -0.2853 -0.9364  0.8588
 6938SOL    HW232277   3.177   0.465   1.573  1.6691 -0.4381  0.2839
 6939SOL     OW32278   0.668   4.413   6.665  0.2113  0.4035 -0.2546
 6939SOL    HW132279   0.601   4.449   6.607 -0.4837  0.1793  0.4098
 6939SOL    HW232280   0.652   4.469   6.741 -0.2160  0.2577 -0.2355
 6940SOL     OW32281   1.995   3.044   2.902  0.7417  0.0133  0.5218
 6940SOL    HW132282   1.996   3.003   2.989 -0.8939  0.4333  0.7293
 6940SOL    HW232283   1.957   2.971   2.853  0.6868  0.0538  0.5051
 6941SOL     OW32284   4.571   2.981   3.122 -0.1008 -0.0088  0.2084
 6941SOL    HW132285   4.593   2.951   3.034 -1.0008  1.1772 -0.4378
 6941SOL    HW232286   4.656   2.968   3.164 -0.8113 -0.1255  1.5903
 6942SOL     OW32287   1.459   2.926  16.170  0.5964  0.6128 -0.1821
 6942SOL    HW132288   1.403   2.863  16.125 -0.8429  1.2174  0.7277
 6942SOL    HW232289   1.542   2.914  16.125  0.8985  2.1785 -0.0423
 6943SOL     OW32290   0.550   2.192  16.804  0.3994 -0.1799 -0.4468
 6943SOL    HW132291   0.538   2.245  16.725 -0.2577  0.3624  0.0080
 6943SOL    HW232292   0.516   2.244  16.877  3.6696 -0.3857  1.2143
 6944SOL     OW32293   2.708   1.567   0.452  0.1125  0.6021  0.0728
 6944SOL    HW132294   2.794   1.538   0.480  0.2821 -0.6794 -1.7970
 6944SOL    HW232295   2.698   1.534   0.363 -2.5173  0.4901  0.3998
 6945SOL     OW32296   4.413   3.040   2.514  0.2549 -0.2703 -0.8467
 6945SOL    HW132297   4.341   3.101   2.527  1.1452  0.4641  0.7946
 6945SOL    HW232298   4.433   3.017   2.605  2.8108 -0.1903 -1.3710
 6946SOL     OW32299   4.195   1.517   4.125 -0.0342 -0.1756  0.3255
 6946SOL    HW132300   4.131   1.462   4.081  1.1409 -0.0547 -1.5397
 6946SOL    HW232301   4.262   1.527   4.057  0.3530  0.5616  0.8166
 6947SOL     OW32302   0.682   3.157   2.828 -0.4823  0.3138  0.4005
 6947SOL    HW132303   0.618   3.172   2.758 -0.7786  0.9371  0.8019
 6947SOL    HW232304   0.622   3.119   2.891 -1.7818 -0.1793 -1.1357
 6948SOL     OW32305   2.481   0.568  12.399 -0.0339 -0.2255 -0.1976
 6948SOL    HW132306   2.486   0.553  12.494  0.0786 -0.9376 -0.3165
 6948SOL    HW232307   2.394   0.536  12.379 -0.7760  2.3917 -1.2122
 6949SOL     OW32308   0.770   3.552  10.349  0.0465  1.0098 -0.0255
 6949SOL    HW132309   0.764   3.597  10.433 -0.5046  0.8559  0.0173
 6949SOL    HW232310   0.691   3.576  10.302  0.2076 -1.3897 -1.5114
 6950SOL     OW32311   1.844   4.389  10.887  0.1385 -0.4282 -0.3902
 6950SOL    HW132312   1.760   4.342  10.887  1.1684 -2.2693 -3.2060
 6950SOL    HW232313   1.821   4.482  10.886  1.6579 -0.0827 -1.6960
 6951SOL     OW32314   4.671   4.586   5.240 -0.1760  0.5752 -0.2938
 6951SOL    HW132315   4.629   4.672   5.230 -0.3483  0.3440 -1.5588
 6951SOL    HW232316   4.706   4.574   5.151  2.2378 -0.4972  0.8099
 6952SOL     OW32317   1.626   1.807   0.633 -0.5053 -0.3607 -0.3559
 6952SOL    HW132318   1.652   1.727   0.679 -0.5883 -0.4089 -0.3920
 6952SOL    HW232319   1.618   1.872   0.703 -0.9779 -0.8564  0.0555
 6953SOL     OW32320   3.829   4.532   2.137 -0.2180 -0.4616 -0.5996
 6953SOL    HW132321   3.789   4.495   2.216 -0.3104  1.5773  0.3127
 6953SOL    HW232322   3.922   4.535   2.160 -0.9180 -1.4628  2.3438
 6954SOL     OW32323   1.559   4.345   0.522 -0.1531 -0.3559  0.4294
 6954SOL    HW132324   1.611   4.411   0.476  1.9129 -1.2386  1.4918
 6954SOL    HW232325   1.631   4.290   0.554 -0.3564  0.5630  2.4646
 6955SOL     OW32326   4.562   3.307   6.685 -0.0876 -0.6852  0.2253
 6955SOL    HW132327   4.472   3.315   6.717 -0.0968 -2.9885  0.7561
 6955SOL    HW232328   4.567   3.213   6.672 -0.8736 -1.1127  2.9877
 6956SOL     OW32329   0.222   0.518  13.817 -0.6838 -0.3308  0.2355
 6956SOL    HW132330   0.206   0.452  13.884 -1.6142 -2.4555 -2.1148
 6956SOL    HW232331   0.291   0.468  13.774  0.6680  1.4558  0.2865
 6957SOL     OW32332   3.419   4.357   7.432  0.1813  0.2506 -0.1725
 6957SOL    HW132333   3.490   4.320   7.379  0.0052  1.3731 -1.1955
 6957SOL    HW232334   3.341   4.332   7.383  1.1499 -0.4614 -1.3604
 6958SOL     OW32335   1.293   2.362  10.688  0.2680 -0.3051  0.0087
 6958SOL    HW132336   1.387   2.365  10.708 -0.2418  1.1341  2.1342
 6958SOL    HW232337   1.295   2.373  10.593 -0.8944 -1.9067 -0.1948
 6959SOL     OW32338   1.146   1.091  11.418  0.3109  0.5037 -0.7888
 6959SOL    HW132339   1.135   1.058  11.507  0.1493 -0.2890 -1.1026
 6959SOL    HW232340   1.204   1.024  11.382 -1.5344 -1.2560 -0.4806
 6960SOL     OW32341   1.423   1.960   5.178 -0.1449 -0.8350  0.0948
 6960SOL    HW132342   1.487   1.938   5.110 -1.3329 -0.3577 -1.1876
 6960SOL    HW232343   1.461   2.042   5.211  0.0567 -1.2388  0.8534
 6961SOL     OW32344   2.441   4.268   1.632 -0.0301 -0.5652 -0.0320
 6961SOL    HW132345   2.502   4.195   1.619  0.5009 -0.1303  0.0113
 6961SOL    HW232346   2.358   4.227   1.653 -0.9329  1.0232 -0.4917
 6962SOL     OW32347   4.134   0.599  14.554 -0.6907  0.1296  0.1061
 6962SOL    HW132348   4.112   0.515  14.594  2.7445 -0.2632  1.2029
 6962SOL    HW232349   4.082   0.593  14.474  0.5525  0.3824 -0.7304
 6963SOL     OW32350   4.642   1.585   4.148  0.3131  0.6520 -0.5427
 6963SOL    HW132351   4.601   1.635   4.219 -2.3853 -1.0753 -0.8674
 6963SOL    HW232352   4.676   1.504   4.184 -1.5650  1.4263  2.9882
 6964SOL     OW32353   3.673   3.899  11.163 -0.4701 -0.2339  0.1924
 6964SOL    HW132354   3.700   3.851  11.241  0.7935  0.1606  0.0102
 6964SOL    HW232355   3.750   3.893  11.106  1.0829  3.0167  1.9395
 6965SOL     OW32356   2.310   4.365   3.976 -0.1518  0.1428  0.0846
 6965SOL    HW132357   2.264   4.283   3.959  0.4422 -0.1810  0.0599
 6965SOL    HW232358   2.311   4.358   4.072 -0.8596  0.9946  0.1636
 6966SOL     OW32359   0.394   1.895   5.074 -0.0045  0.2966  0.3260
 6966SOL    HW132360   0.470   1.937   5.033 -0.5643  0.2130 -0.8058
 6966SOL    HW232361   0.353   1.968   5.121  1.4470  0.2254  1.6897
 6967SOL     OW32362   4.245   1.070   6.452  0.0317  0.0637  0.1608
 6967SOL    HW132363   4.208   1.030   6.374  1.7220 -0.2917 -0.4730
 6967SOL    HW232364   4.277   1.150   6.410  1.1114 -1.3377 -1.6922
 6968SOL     OW32365   2.074   0.816  15.957 -0.1573  0.1408 -0.0610
 6968SOL    HW132366   2.152   0.869  15.972  0.6067 -1.0277  0.0402
 6968SOL    HW232367   2.071   0.829  15.862  1.1805  3.4194  0.3284
 6969SOL     OW32368   0.689   2.967   7.970  0.6507  0.1122 -0.6821
 6969SOL    HW132369   0.610   2.925   7.937  2.0977 -1.8314 -1.6207
 6969SOL    HW232370   0.678   3.058   7.943 -1.3813 -0.0835 -0.5414
 6970SOL     OW32371   1.970   1.234   6.580  0.8105  0.1239  0.2512
 6970SOL    HW132372   1.900   1.263   6.523  1.9872 -0.7286 -1.6327
 6970SOL    HW232373   2.030   1.199   6.515 -0.4149 -0.0726 -0.7539
 6971SOL     OW32374   1.947   4.634   0.868  0.0449 -0.7491  0.1670
 6971SOL    HW132375   2.032   4.669   0.893 -0.4757 -0.2330  1.1959
 6971SOL    HW232376   1.917   4.684   0.792 -1.5760 -3.2831 -0.8796
 6972SOL     OW32377   0.409   0.658   8.066 -0.0203 -0.0292 -0.3262
 6972SOL    HW132378   0.385   0.749   8.078 -0.7666 -0.0838 -1.4214
 6972SOL    HW232379   0.442   0.624   8.149 -1.9007  0.8979  0.7871
 6973SOL     OW32380   1.562   2.259   7.767  0.3362 -0.1048  0.1392
 6973SOL    HW132381   1.530   2.231   7.853  1.7307 -0.4731  0.5421
 6973SOL    HW232382   1.478   2.282   7.729 -0.4020 -1.6447  0.7915
 6974SOL     OW32383   4.660   0.213   3.179 -0.3081 -0.3409  0.0324
 6974SOL    HW132384   4.629   0.246   3.263  1.6373  1.1747  0.1585
 6974SOL    HW232385   0.017   0.262   3.172  0.2356 -0.8922  2.5560
 6975SOL     OW32386   3.719   2.629   4.097  0.5260 -0.0494  0.4726
 6975SOL    HW132387   3.750   2.666   4.015  0.8105 -0.8065  0.2394
 6975SOL    HW232388   3.632   2.600   4.069  0.1307  0.3040  1.3226
 6976SOL     OW32389   1.924   3.954   8.788  0.1439  0.2180 -0.0442
 6976SOL    HW132390   1.875   3.916   8.860  1.4459  2.6791  2.1236
 6976SOL    HW232391   1.943   3.880   8.730 -2.0815  0.3013 -0.8719
 6977SOL     OW32392   1.479   3.654   1.386 -0.0283  0.5592  0.3347
 6977SOL    HW132393   1.462   3.660   1.480  0.2289 -0.9167  0.4793
 6977SOL    HW232394   1.471   3.559   1.389  0.6618  0.5210  1.3291
 6978SOL     OW32395   4.262   0.999   8.069  0.4207  0.0683 -0.4453
 6978SOL    HW132396   4.248   0.905   8.057 -1.8802  0.4869 -1.0890
 6978SOL    HW232397   4.310   1.009   8.151  2.2099  0.8439 -1.6125
 6979SOL     OW32398   0.712   0.734   8.219  0.2836 -0.2306 -0.0627
 6979SOL    HW132399   0.804   0.729   8.245 -0.3433 -0.3935  2.1813
 6979SOL    HW232400   0.681   0.797   8.284 -0.9573 -1.3073  0.4071
 6980SOL     OW32401   0.805   1.205   5.408 -0.5237  0.7884  0.2416
 6980SOL    HW132402   0.794   1.111   5.422 -0.7549  0.9307  0.9900
 6980SOL    HW232403   0.716   1.239   5.417 -1.6580 -2.0929  0.1935
 6981SOL     OW32404   3.980   1.391  12.441  0.5937 -0.2893 -0.3422
 6981SOL    HW132405   4.076   1.387  12.436  0.5612  0.3673 -1.3853
 6981SOL    HW232406   3.958   1.484  12.448  0.3803 -0.4199  0.8070
 6982SOL     OW32407   1.990   0.720   6.843  0.2790 -0.0939 -0.1649
 6982SOL    HW132408   2.000   0.725   6.748 -2.5401 -2.2388 -0.5951
 6982SOL    HW232409   1.968   0.628   6.859 -1.0899  0.5887  1.9037
 6983SOL     OW32410   4.707   1.177   7.362  0.2255  0.2544  0.0524
 6983SOL    HW132411   0.032   1.155   7.440  1.7999  0.0978 -1.0256
 6983SOL    HW232412   4.643   1.106   7.360  0.9433 -0.3476 -0.8084
 6984SOL     OW32413   0.128   3.552   0.365 -0.6546  0.2857  0.5238
 6984SOL    HW132414   0.070   3.512   0.301  0.4556 -0.4769 -0.0120
 6984SOL    HW232415   0.130   3.492   0.439 -0.4336 -0.2375  0.0936
 6985SOL     OW32416   0.739   2.468   0.169 -0.2122  0.1117 -0.0183
 6985SOL    HW132417   0.709   2.515   0.247  1.1440  0.5231  0.2597
 6985SOL    HW232418   0.765   2.544   0.116  1.0198  0.8022  1.5738
 6986SOL     OW32419   2.352   1.789   1.855  0.6219  0.0054  0.4630
 6986SOL    HW132420   2.432   1.837   1.875  1.2169 -0.2536 -1.3815
 6986SOL    HW232421   2.371   1.699   1.884 -2.3268 -1.4302 -2.0668
 6987SOL     OW32422   4.645   0.154   0.263 -0.1780  0.2632  0.4977
 6987SOL    HW132423   4.715   0.195   0.315  0.9187 -1.0238  0.0383
 6987SOL    HW232424   4.701   0.149   0.185  0.1276 -0.1139  0.7411
 6988SOL     OW32425   3.831   0.360   8.700  0.3047  0.5162 -0.8763
 6988SOL    HW132426   3.736   0.349   8.703  0.4112 -1.0002 -2.8197
 6988SOL    HW232427   3.845   0.326   8.612 -3.5858  0.6414 -1.5633
 6989SOL     OW32428   3.958   4.393   0.943  0.1354  0.4237  0.1306
 6989SOL    HW132429   3.955   4.313   0.995  2.7553  0.4949  0.3797
 6989SOL    HW232430   3.981   4.472   0.993  0.7275  0.0905  0.3800
 6990SOL     OW32431   0.632   0.904   8.434 -0.0155 -0.4053 -0.2508
 6990SOL    HW132432   0.700   0.865   8.489  0.4692  1.3702  0.4041
 6990SOL    HW232433   0.622   0.990   8.475  1.0341 -0.4516  0.0923
 6991SOL     OW32434   2.034   4.378   4.709 -0.5440  0.1959 -0.2169
 6991SOL    HW132435   2.031   4.300   4.653  0.4707 -0.5632  0.7803
 6991SOL    HW232436   1.973   4.360   4.780  0.3370  0.0085  0.4894
 6992SOL     OW32437   2.357   1.496   1.240  0.5310  0.1772  0.6627
 6992SOL    HW132438   2.441   1.503   1.284 -0.1309  1.9399  1.6487
 6992SOL    HW232439   2.381   1.526   1.152 -1.2055  1.4178  0.6051
 6993SOL     OW32440   3.222   1.932   1.771  0.1409 -0.3587 -0.3181
 6993SOL    HW132441   3.284   1.859   1.771 -0.1687 -0.6111  0.8860
 6993SOL    HW232442   3.211   1.955   1.678 -2.4537  0.5824  0.2235
 6994SOL     OW32443   2.274   3.106   3.862 -0.0017 -0.5783 -0.3564
 6994SOL    HW132444   2.236   3.128   3.947  1.2281 -0.9676  0.3026
 6994SOL    HW232445   2.260   3.013   3.844  1.2197 -0.7110 -0.6035
 6995SOL     OW32446   3.825   1.070   6.179  0.3971 -0.4030  0.1901
 6995SOL    HW132447   3.800   0.979   6.196 -0.0534 -0.4960 -0.9867
 6995SOL    HW232448   3.915   1.057   6.147 -0.0452  0.1221 -1.2861
 6996SOL     OW32449   2.658   3.228   7.524 -0.1328  0.4989 -0.5523
 6996SOL    HW132450   2.736   3.219   7.468  0.5328  0.1440  0.4370
 6996SOL    HW232451   2.595   3.267   7.464  2.0491  0.9810 -2.5536
 6997SOL     OW32452   4.596   1.349   8.004 -1.1084  0.0837 -0.9462
 6997SOL    HW132453   4.638   1.290   8.066 -2.0499 -0.1199 -0.4989
 6997SOL    HW232454   4.535   1.286   7.964 -3.4201  0.9651  1.1995
 6998SOL     OW32455   2.382   2.318  13.700 -0.1717 -0.1142  0.3504
 6998SOL    HW132456   2.385   2.413  13.716  2.2362 -0.6324  2.9613
 6998SOL    HW232457   2.469   2.288  13.728  0.4989  1.2549 -0.2650
 6999SOL     OW32458   1.056   4.598   3.326  0.2710 -0.2845 -0.1598
 6999SOL    HW132459   1.089   4.512   3.351  1.2694  0.5690  1.4926
 6999SOL    HW232460   0.989   4.580   3.261 -0.6229 -1.6887  1.1483
 7000SOL     OW32461   0.804   1.920   2.502  0.4792 -0.0555  0.2260
 7000SOL    HW132462   0.824   1.902   2.410  0.9654 -0.4739  0.4119
 7000SOL    HW232463   0.854   1.997   2.531  1.1535  0.0147 -1.1436
 7001SOL     OW32464   4.288   3.444   8.521  0.4856 -0.4257  0.1145
 7001SOL    HW132465   4.376   3.427   8.486  1.4095 -0.4410  2.4226
 7001SOL    HW232466   4.273   3.352   8.543  0.5722  0.1014  2.4114
 7002SOL     OW32467   4.650   4.051   1.083  0.2828  0.1565 -0.0940
 7002SOL    HW132468   4.644   4.145   1.100  2.9149  0.4272 -0.6149
 7002SOL    HW232469   4.664   4.025   1.174  2.3196 -0.6147 -0.6188
 7003SOL     OW32470   2.635   0.644   8.279 -0.5843  0.1250 -0.4585
 7003SOL    HW132471   2.729   0.640   8.296 -1.0865 -0.9589  1.9760
 7003SOL    HW232472   2.611   0.726   8.323  0.3475 -0.3471  0.9275
 7004SOL     OW32473   3.301   0.850   6.139  0.0545  0.0968  0.1543
 7004SOL    HW132474   3.376   0.870   6.084  1.2323  0.4447  1.9225
 7004SOL    HW232475   3.240   0.836   6.066 -0.3887  1.5226  0.2470
 7005SOL     OW32476   2.979   0.498   2.387  0.0508 -0.3482  0.0025
 7005SOL    HW132477   3.043   0.536   2.447 -1.2067  0.0785  1.0696
 7005SOL    HW232478   3.015   0.409   2.385 -0.6269 -0.5889 -2.3341
 7006SOL     OW32479   2.090   2.542   0.801 -0.0475 -0.1220 -0.0036
 7006SOL    HW132480   2.061   2.548   0.892  0.8578 -0.3477  0.3027
 7006SOL    HW232481   2.040   2.616   0.767 -2.1360 -2.4677 -1.9466
 7007SOL     OW32482   4.440   1.429   4.429  0.3504 -0.3001  0.0534
 7007SOL    HW132483   4.456   1.382   4.347  1.5968  4.0082 -2.1717
 7007SOL    HW232484   4.346   1.408   4.430  0.1753  0.5199  0.8206
 7008SOL     OW32485   0.482   1.007   0.088  0.3329 -0.0670  0.6130
 7008SOL    HW132486   0.570   0.971   0.075 -0.2027 -1.0092 -0.3259
 7008SOL    HW232487   0.499   1.069   0.159  0.2722 -0.1507  0.7001
 7009SOL     OW32488   1.473   2.703   7.065 -0.4732 -0.2703  0.4100
 7009SOL    HW132489   1.533   2.712   6.991 -0.1543 -0.6941  0.6162
 7009SOL    HW232490   1.523   2.631   7.104 -2.9116 -0.7698  2.5879
 7010SOL     OW32491   4.042   1.316   8.008  1.0977  0.3649  0.1051
 7010SOL    HW132492   4.027   1.302   8.102  1.0177 -3.1896 -0.4218
 7010SOL    HW232493   3.953   1.342   7.984  1.4766  0.6670 -0.9592
 7011SOL     OW32494   2.172   1.765   8.132 -0.1406  0.0144 -0.4574
 7011SOL    HW132495   2.264   1.780   8.151  0.2178 -1.7735 -0.7729
 7011SOL    HW232496   2.135   1.809   8.209  0.4178  0.9251 -0.7088
 7012SOL     OW32497   2.813   4.133   6.119 -0.2046  0.5981  0.1270
 7012SOL    HW132498   2.864   4.077   6.060  0.1375  0.6611  0.3637
 7012SOL    HW232499   2.842   4.092   6.201  0.2800 -0.5436 -0.6220
 7013SOL     OW32500   0.516   4.057  10.522 -0.5618 -0.1599  0.1794
 7013SOL    HW132501   0.604   4.092  10.532 -0.5123 -0.2069 -0.0846
 7013SOL    HW232502   0.466   4.109  10.585 -1.1802 -0.0236 -0.4133
 7014SOL     OW32503   3.409   1.203  11.645 -0.2892  0.7913 -0.0897
 7014SOL    HW132504   3.378   1.255  11.571 -1.7218  0.7282  0.4607
 7014SOL    HW232505   3.330   1.189  11.697  0.0373  0.9207  0.4476
 7015SOL     OW32506   2.608   0.753  13.441 -0.2508 -0.1321 -0.1489
 7015SOL    HW132507   2.693   0.788  13.467 -1.5779  3.2400 -0.3339
 7015SOL    HW232508   2.567   0.822  13.389 -0.8320 -0.1880  0.2261
 7016SOL     OW32509   0.887   2.952   5.488  0.5516  0.0968  0.0182
 7016SOL    HW132510   0.900   2.982   5.578 -0.1142 -0.1515  0.1986
 7016SOL    HW232511   0.807   2.899   5.491  0.8922 -0.2969  2.0614
 7017SOL     OW32512   1.368   1.987   5.755  0.6071 -0.0364 -0.2439
 7017SOL    HW132513   1.287   1.957   5.795 -0.2183  0.8628 -1.2567
 7017SOL    HW232514   1.336   2.045   5.686  0.5629 -1.4953 -1.4578
 7018SOL     OW32515   3.540   2.748  15.506  0.2404  0.7322  0.4870
 7018SOL    HW132516   3.493   2.668  15.526 -0.1546  0.9283  0.3494
 7018SOL    HW232517   3.495   2.816  15.557 -2.3484  0.5882 -1.6137
 7019SOL     OW32518   2.525   0.698   5.013  0.1645  0.0325 -0.2965
 7019SOL    HW132519   2.523   0.788   5.045 -0.2116 -0.1671  0.2311
 7019SOL    HW232520   2.436   0.689   4.980 -0.2814 -1.5957  1.4237
 7020SOL     OW32521   1.969   4.216   3.633  0.3291  1.0841  0.2747
 7020SOL    HW132522   1.989   4.301   3.594  0.3061  0.0367 -2.0265
 7020SOL    HW232523   1.943   4.160   3.559 -1.2663  0.8427  1.0208
 7021SOL     OW32524   2.087   4.247   5.180 -0.3246 -0.0868  0.2191
 7021SOL    HW132525   2.061   4.206   5.262  0.0984  0.5238  0.6556
 7021SOL    HW232526   2.179   4.231   5.201 -0.0846  1.1128  0.1142
 7022SOL     OW32527   1.863   0.844   8.367 -0.0068  0.6760  0.0545
 7022SOL    HW132528   1.923   0.871   8.297 -1.2843  0.8379 -0.9781
 7022SOL    HW232529   1.904   0.887   8.442  0.5956  1.9474 -1.0022
 7023SOL     OW32530   2.696   1.596   2.743  0.0920 -0.2932  0.9706
 7023SOL    HW132531   2.767   1.549   2.700 -0.7973 -0.6080 -0.1679
 7023SOL    HW232532   2.752   1.656   2.791 -0.5399 -0.8517  2.3888
 7024SOL     OW32533   3.616   0.126   4.221  0.3643  0.1494  0.0350
 7024SOL    HW132534   3.644   0.196   4.161  2.4167  0.1731  1.0458
 7024SOL    HW232535   3.624   0.048   4.167  0.7449  0.4616 -0.3576
 7025SOL     OW32536   4.720   2.584   9.475  0.2483 -0.3089 -0.2743
 7025SOL    HW132537   4.659   2.657   9.463  1.4714  0.5521 -1.2226
 7025SOL    HW232538   4.646   2.526   9.494  0.6673 -1.0986 -1.0271
 7026SOL     OW32539   2.271   0.247  13.599 -0.3356  0.1005  0.8046
 7026SOL    HW132540   2.308   0.245  13.687  1.9539  0.2546 -0.1465
 7026SOL    HW232541   2.350   0.219  13.552  0.2873  1.3432  1.0974
 7027SOL     OW32542   0.080   1.302  13.674 -0.5565  0.3961  0.0171
 7027SOL    HW132543   0.078   1.277  13.582 -1.3750  0.9558 -0.1073
 7027SOL    HW232544   0.168   1.338  13.686 -0.9888  1.0117  1.3355
 7028SOL     OW32545   0.812   3.249   3.571 -0.7141 -0.5993  0.0878
 7028SOL    HW132546   0.812   3.230   3.477  0.3414 -1.1978  0.2078
 7028SOL    HW232547   0.724   3.285   3.581 -0.3782  0.8535 -2.3209
 7029SOL     OW32548   1.161   0.449   5.586  0.6366 -0.6681  0.2879
 7029SOL    HW132549   1.110   0.393   5.527  0.3447  0.3945 -0.4652
 7029SOL    HW232550   1.220   0.385   5.626 -1.3931 -1.3993  2.0703
 7030SOL     OW32551   2.832   1.208  16.390  0.2946  0.0021  0.3483
 7030SOL    HW132552   2.866   1.253  16.313 -1.5209 -0.7928 -0.9294
 7030SOL    HW232553   2.763   1.168  16.337 -1.1030 -0.5992  2.6356
 7031SOL     OW32554   4.538   1.252   5.566  0.3261 -0.1822 -0.6694
 7031SOL    HW132555   4.619   1.281   5.525  0.1092 -0.0948 -1.0297
 7031SOL    HW232556   4.532   1.156   5.561  0.0194 -0.2137  0.2500
 7032SOL     OW32557   4.591   3.426  14.100 -0.1968 -0.3843  0.1486
 7032SOL    HW132558   4.570   3.453  14.011  3.6234  0.3025 -0.5214
 7032SOL    HW232559   4.602   3.331  14.092  0.9066 -0.3540  1.2700
 7033SOL     OW32560   1.648   0.817   3.277 -0.0021 -0.1967 -0.0104
 7033SOL    HW132561   1.703   0.780   3.345 -2.4432  0.0135  2.1066
 7033SOL    HW232562   1.716   0.807   3.211 -1.6568 -1.8853 -1.4422
 7034SOL     OW32563   0.431   1.262   5.194  0.2554 -0.3955 -0.0486
 7034SOL    HW132564   0.402   1.342   5.150 -2.8329 -0.9066  1.0204
 7034SOL    HW232565   0.523   1.247   5.175  0.6884  0.8640  1.0720
 7035SOL     OW32566   1.131   0.687  10.029  0.1136  0.6409 -0.1569
 7035SOL    HW132567   1.114   0.612  10.087 -1.6652 -0.1052 -1.6161
 7035SOL    HW232568   1.195   0.735  10.081  0.0455 -1.0161  1.4564
 7036SOL     OW32569   4.161   3.519  13.107 -0.5698  0.9237  0.5391
 7036SOL    HW132570   4.189   3.541  13.018 -0.7773  0.0622  0.2578
 7036SOL    HW232571   4.086   3.579  13.106 -0.1502  1.4568  0.9402
 7037SOL     OW32572   3.747   3.723  10.871 -0.4040 -0.5747  0.1017
 7037SOL    HW132573   3.698   3.785  10.818  2.1467  0.6307 -0.8484
 7037SOL    HW232574   3.694   3.646  10.891 -2.3121  0.9699  0.9401
 7038SOL     OW32575   4.177   3.280  17.475 -0.6801 -0.3813 -0.3100
 7038SOL    HW132576   4.185   3.334  17.396 -0.2737 -1.9422 -1.3149
 7038SOL    HW232577   4.241   3.213  17.452  0.1075  1.1418 -2.6667
 7039SOL     OW32578   0.425   4.627   1.209 -0.1788 -0.4045 -0.5279
 7039SOL    HW132579   0.453   4.710   1.170 -0.0498  0.4311  1.3403
 7039SOL    HW232580   0.513   4.601   1.235  0.2120  0.2683 -1.1788
 7040SOL     OW32581   1.860   0.510   4.187  0.1883 -0.3138 -0.2876
 7040SOL    HW132582   1.889   0.439   4.130  0.8057  1.0962 -1.7267
 7040SOL    HW232583   1.765   0.508   4.174  0.1819  0.7217 -0.3757
 7041SOL     OW32584   1.276   3.904  15.185 -0.2131 -0.5548 -0.0542
 7041SOL    HW132585   1.241   3.914  15.273  1.3601  0.0157  0.4993
 7041SOL    HW232586   1.365   3.940  15.192 -0.3015 -0.2464 -0.5068
 7042SOL     OW32587   3.341   0.966   1.548 -0.0417  0.4438  0.0017
 7042SOL    HW132588   3.326   0.917   1.628  2.2363 -1.4950 -0.7742
 7042SOL    HW232589   3.400   0.911   1.497  1.6077  1.1814  1.1315
 7043SOL     OW32590   1.609   2.639   3.956 -0.0130  0.1491  0.0358
 7043SOL    HW132591   1.637   2.565   4.010 -0.6371 -0.7650 -0.8771
 7043SOL    HW232592   1.518   2.612   3.941 -0.2216  0.6718  0.3762
 7044SOL     OW32593   4.279   0.695   4.534  0.3761 -0.2396  0.1119
 7044SOL    HW132594   4.283   0.702   4.438 -0.4073 -1.8861 -0.0258
 7044SOL    HW232595   4.219   0.621   4.541 -0.3166  0.2586 -0.4166
 7045SOL     OW32596   0.886   0.626   0.434  0.1270 -0.5043 -0.0001
 7045SOL    HW132597   0.835   0.570   0.492  2.9983 -1.6244  1.4779
 7045SOL    HW232598   0.840   0.708   0.450  0.6205 -0.1842 -0.2249
 7046SOL     OW32599   3.690   4.444   2.348  0.4284  0.1425 -0.2494
 7046SOL    HW132600   3.607   4.485   2.321  0.4263  1.0687  1.1905
 7046SOL    HW232601   3.675   4.423   2.440 -0.3169  0.8940 -0.2012
 7047SOL     OW32602   1.035   0.970   3.266  0.3456 -0.2530  0.5561
 7047SOL    HW132603   1.103   0.911   3.299  0.2503  0.3181  1.7912
 7047SOL    HW232604   0.996   1.002   3.347 -0.5675  0.8112 -0.3042
 7048SOL     OW32605   1.780   1.769  14.144  0.1377  0.4276 -0.3218
 7048SOL    HW132606   1.693   1.809  14.143 -0.3277 -0.5731  0.2371
 7048SOL    HW232607   1.836   1.846  14.134 -0.1032  0.7165  0.5765
 7049SOL     OW32608   3.995   2.515   3.757 -0.4156 -0.4089 -0.1868
 7049SOL    HW132609   4.016   2.555   3.841  0.1484 -2.3721  0.6075
 7049SOL    HW232610   4.062   2.560   3.705 -1.1637 -0.0325 -0.8205
 7050SOL     OW32611   0.340   0.753   7.769 -0.1172  0.5592 -0.0768
 7050SOL    HW132612   0.333   0.800   7.853 -0.8363  0.8513 -0.3003
 7050SOL    HW232613   0.296   0.670   7.786  1.0236 -0.0639 -0.1610
 7051SOL     OW32614   1.263   2.769   9.045  0.0050  0.4483 -0.5100
 7051SOL    HW132615   1.253   2.816   8.963 -2.7592 -0.6418 -0.7907
 7051SOL    HW232616   1.206   2.819   9.104  1.0451  0.6684  0.3161
 7052SOL     OW32617   1.542   3.083   3.196  0.1908 -0.2432  0.1591
 7052SOL    HW132618   1.485   3.157   3.218 -0.7205 -0.9702  0.2764
 7052SOL    HW232619   1.485   3.006   3.199  0.2650 -0.3445 -1.0802
 7053SOL     OW32620   1.137   4.470  12.851  0.3271  0.0756  0.2054
 7053SOL    HW132621   1.219   4.511  12.878  1.4669 -2.2636  0.3317
 7053SOL    HW232622   1.102   4.530  12.785  0.0988 -0.8211 -0.4934
 7054SOL     OW32623   4.321   0.255   2.621 -0.1063  0.0591 -0.3568
 7054SOL    HW132624   4.276   0.327   2.578 -2.2936 -2.2961 -1.9906
 7054SOL    HW232625   4.260   0.189   2.590 -1.5765  0.4820  1.5802
 7055SOL     OW32626   2.113   3.956  12.886  0.1954  0.0086 -0.0012
 7055SOL    HW132627   2.073   4.019  12.827 -2.0325  1.7096  3.3135
 7055SOL    HW232628   2.067   3.982  12.966  1.7683 -0.7896  1.1757
 7056SOL     OW32629   2.122   2.948   4.260 -0.4230  0.6222  0.3548
 7056SOL    HW132630   2.123   3.044   4.262 -0.2116  0.5700  3.3625
 7056SOL    HW232631   2.140   2.916   4.349  1.8103 -1.0520 -0.6881
 7057SOL     OW32632   2.417   2.356   6.587 -0.6107  0.1401 -0.3153
 7057SOL    HW132633   2.420   2.451   6.581 -0.7546  0.2004  0.5825
 7057SOL    HW232634   2.333   2.333   6.546 -0.4753  0.9246 -1.0292
 7058SOL     OW32635   2.672   1.573   3.542  1.0995  0.1597 -0.5041
 7058SOL    HW132636   2.670   1.480   3.565  2.3078  0.2313 -0.0979
 7058SOL    HW232637   2.582   1.592   3.515  1.5050  1.7645 -0.7427
 7059SOL     OW32638   0.954   4.467   6.667  0.2778 -0.2397  0.4899
 7059SOL    HW132639   0.862   4.445   6.680 -0.2618  0.9129 -1.4482
 7059SOL    HW232640   0.991   4.451   6.754  1.3125 -0.8568 -0.0734
 7060SOL     OW32641   3.284   3.182  15.524  0.0069 -0.4664  0.0151
 7060SOL    HW132642   3.299   3.089  15.505 -2.7786 -0.8170 -0.4321
 7060SOL    HW232643   3.317   3.230  15.448  0.6825  0.2930  0.7919
 7061SOL     OW32644   1.210   3.432   5.048  0.2648 -0.1081 -0.7220
 7061SOL    HW132645   1.160   3.434   5.129 -1.5869  1.5186 -1.9143
 7061SOL    HW232646   1.138   3.468   4.996 -0.7618 -0.7939  0.2320
 7062SOL     OW32647   1.920   2.126   5.196 -0.2213  0.2095  0.3403
 7062SOL    HW132648   1.950   2.035   5.199  0.1735  0.3074 -0.8896
 7062SOL    HW232649   1.899   2.130   5.103 -0.5299 -1.7595  0.3276
 7063SOL     OW32650   1.473   4.224  16.033 -0.0368 -0.3213 -0.0372
 7063SOL    HW132651   1.553   4.173  16.044 -0.7029 -1.4671 -0.5163
 7063SOL    HW232652   1.456   4.198  15.943  0.1857  1.1858 -0.5078
 7064SOL     OW32653   3.373   4.632   1.987  0.5278 -0.3106 -0.2417
 7064SOL    HW132654   3.371   4.644   1.892 -1.3686  2.7616  0.1742
 7064SOL    HW232655   3.288   4.670   2.010 -0.9462 -2.0204 -2.9548
 7065SOL     OW32656   3.929   3.231  13.384  0.0267 -0.7675  0.1767
 7065SOL    HW132657   3.903   3.322  13.399 -2.2764 -1.2958 -0.5704
 7065SOL    HW232658   3.963   3.218  13.473  3.6783  0.2164 -1.0733
 7066SOL     OW32659   1.110   1.850   7.413 -0.1300  0.0347 -0.0738
 7066SOL    HW132660   1.177   1.793   7.451 -0.9393 -0.5517  0.4737
 7066SOL    HW232661   1.039   1.827   7.473 -1.9618 -0.8852 -2.5811
 7067SOL     OW32662   0.639   4.131  15.840  0.0522 -0.5626 -0.4503
 7067SOL    HW132663   0.716   4.155  15.790 -0.0478  0.4083 -0.1309
 7067SOL    HW232664   0.596   4.215  15.852  1.2927  0.4185 -3.0842
 7068SOL     OW32665   2.371   1.712   8.554  0.2034 -0.1460  0.4095
 7068SOL    HW132666   2.397   1.682   8.467 -0.7624 -1.0132  0.4194
 7068SOL    HW232667   2.413   1.798   8.549  2.3642 -1.2725 -0.5827
 7069SOL     OW32668   3.505   4.596   4.833 -0.1963 -0.5195 -0.0215
 7069SOL    HW132669   3.421   4.553   4.822 -0.3193 -0.9503  2.4806
 7069SOL    HW232670   3.561   4.530   4.792 -1.0651 -1.2204 -0.0784
 7070SOL     OW32671   2.301   3.285  12.821 -0.2708  0.4452 -0.3061
 7070SOL    HW132672   2.298   3.318  12.731  0.5456 -0.9180 -0.8408
 7070SOL    HW232673   2.222   3.326  12.857 -1.2379 -0.2331 -1.6101
 7071SOL     OW32674   0.412   0.458   4.086 -0.9364 -0.2829  0.0779
 7071SOL    HW132675   0.340   0.521   4.093 -0.1358  0.6579 -0.1551
 7071SOL    HW232676   0.475   0.524   4.057 -1.5039  0.3794  0.3396
 7072SOL     OW32677   3.514   1.356   4.256  0.6462  0.3010 -0.7400
 7072SOL    HW132678   3.441   1.313   4.210  0.9179 -1.3895  0.4483
 7072SOL    HW232679   3.464   1.392   4.329 -1.1272  1.6796 -2.6149
 7073SOL     OW32680   1.857   1.687   8.370  0.4772 -0.7730 -0.3717
 7073SOL    HW132681   1.843   1.599   8.403 -2.1611 -0.8040 -1.5584
 7073SOL    HW232682   1.946   1.709   8.397 -0.4550  1.8316  0.6397
 7074SOL     OW32683   3.069   3.723  14.446 -0.4202 -0.3201  0.4173
 7074SOL    HW132684   3.139   3.777  14.483  0.3849  0.6265 -2.4738
 7074SOL    HW232685   3.124   3.654  14.408  0.3407  0.1355  0.6895
 7075SOL     OW32686   3.316   2.543   6.601  0.4820  0.0722  0.4650
 7075SOL    HW132687   3.272   2.470   6.557 -0.6593  1.0360 -0.0205
 7075SOL    HW232688   3.387   2.508   6.655  0.2672 -1.3337 -0.1527
 7076SOL     OW32689   0.278   3.883   7.188  0.2690 -0.0698  0.4550
 7076SOL    HW132690   0.217   3.834   7.242 -0.6150 -0.1270 -0.5925
 7076SOL    HW232691   0.321   3.814   7.138  0.5657  1.0906 -0.8991
 7077SOL     OW32692   1.845   3.422   5.085 -0.5494  0.4468 -0.3142
 7077SOL    HW132693   1.751   3.410   5.070 -0.4637  1.3003 -1.4841
 7077SOL    HW232694   1.850   3.506   5.130 -2.5020  0.3055  0.1785
 7078SOL     OW32695   4.698   1.185   2.436  0.3154  0.7627 -0.2069
 7078SOL    HW132696   4.703   1.109   2.493 -0.2653  0.7500 -0.1751
 7078SOL    HW232697   0.052   1.171   2.383  0.7499 -2.1860  1.2206
 7079SOL     OW32698   0.354   0.915   8.023 -0.1829 -0.0624 -0.1726
 7079SOL    HW132699   0.404   0.997   8.030  0.1822 -0.1835 -1.3258
 7079SOL    HW232700   0.277   0.961   7.988 -0.2654 -1.1672 -1.4715
 7080SOL     OW32701   0.792   1.375  14.350 -0.1944  0.6044 -0.4611
 7080SOL    HW132702   0.789   1.366  14.255 -1.0799 -2.3969 -0.1210
 7080SOL    HW232703   0.730   1.303  14.361  1.0742 -0.7833 -2.4405
 7081SOL     OW32704   2.296   2.523   5.526 -0.4838  0.4083  0.1392
 7081SOL    HW132705   2.228   2.482   5.580  1.6419 -1.5100  1.3749
 7081SOL    HW232706   2.346   2.444   5.505  0.5824  0.8787  0.9105
 7082SOL     OW32707   3.593   3.860   6.047 -0.4288  0.4837  0.0768
 7082SOL    HW132708   3.609   3.805   5.970 -0.6644 -1.2392  1.2759
 7082SOL    HW232709   3.562   3.789   6.103  1.1656  1.4109  2.0975
 7083SOL     OW32710   0.114   2.779   5.753 -0.2984 -0.0329  0.4668
 7083SOL    HW132711   0.084   2.799   5.842  0.2237 -0.1410  0.6626
 7083SOL    HW232712   0.041   2.723   5.728  0.8811 -1.0580 -0.6580
 7084SOL     OW32713   4.278   1.440   8.185  0.1316  0.8879  0.2053
 7084SOL    HW132714   4.316   1.522   8.155 -0.4430  0.7653 -0.8846
 7084SOL    HW232715   4.297   1.374   8.118 -0.4456  0.1065  0.7979
 7085SOL     OW32716   0.129   2.890  13.025  0.7311 -0.0482  0.2305
 7085SOL    HW132717   0.161   2.824  12.963  2.1477  1.6659 -0.8474
 7085SOL    HW232718   0.034   2.877  13.034  0.3898  1.3626 -1.3109
 7086SOL     OW32719   3.722   1.980   6.065 -0.6036  0.5685  0.5196
 7086SOL    HW132720   3.656   1.935   6.013  0.6956  1.6894 -2.1542
 7086SOL    HW232721   3.676   1.994   6.147  1.4844  0.3510  1.7249
 7087SOL     OW32722   0.056   4.721   2.426 -0.5408 -0.2991  0.3222
 7087SOL    HW132723   0.063   4.642   2.479 -2.1720 -0.1444  0.7403
 7087SOL    HW232724   4.707   0.039   2.467 -1.0612  0.6765 -1.6595
 7088SOL     OW32725   2.974   3.025   9.791  0.2831  0.0546 -0.1361
 7088SOL    HW132726   2.882   3.021   9.767 -0.8028 -0.1490  4.0525
 7088SOL    HW232727   3.008   3.096   9.737  0.7165  0.0174  0.0923
 7089SOL     OW32728   1.773   2.406  13.179  1.0085  0.1130 -0.1432
 7089SOL    HW132729   1.722   2.335  13.217  0.5141  0.0567 -0.9032
 7089SOL    HW232730   1.803   2.349  13.108 -0.7841  0.6046 -1.2873
 7090SOL     OW32731   0.558   4.692  12.562 -0.1429  0.5557 -0.1651
 7090SOL    HW132732   0.639   4.694  12.613 -0.2774  0.0014  0.0696
 7090SOL    HW232733   0.491   4.710  12.628  0.8920  1.7905  0.5436
 7091SOL     OW32734   3.003   0.878   4.557 -0.7928  0.9498  0.1061
 7091SOL    HW132735   3.009   0.892   4.462 -1.5262  0.4273 -0.0201
 7091SOL    HW232736   3.032   0.788   4.573 -1.6354  0.9611  1.6933
 7092SOL     OW32737   3.018   1.026   4.318  0.3072 -0.0394 -0.7847
 7092SOL    HW132738   3.060   0.988   4.240  0.3575 -0.8684 -0.3540
 7092SOL    HW232739   3.014   1.120   4.300 -0.5454  0.0498 -0.1188
 7093SOL     OW32740   1.842   1.343   8.398  0.3263  0.1088  0.5921
 7093SOL    HW132741   1.804   1.256   8.391  0.7909 -0.2134  2.1208
 7093SOL    HW232742   1.910   1.342   8.331 -1.0032 -1.7960 -0.7221
 7094SOL     OW32743   1.703   3.436  17.328 -0.2654  0.6662  0.2642
 7094SOL    HW132744   1.673   3.515  17.283 -0.1061  1.5443  1.7067
 7094SOL    HW232745   1.621   3.393  17.354  0.1673 -0.1196  0.3264
 7095SOL     OW32746   0.908   0.403   9.778  0.1447 -0.2945 -0.1679
 7095SOL    HW132747   0.987   0.366   9.817 -0.6363 -0.5484  1.1842
 7095SOL    HW232748   0.848   0.406   9.852  0.1457  0.3818 -0.2005
 7096SOL     OW32749   4.574   2.550   7.360 -0.6187 -0.0886 -0.2449
 7096SOL    HW132750   4.613   2.616   7.418 -0.8736 -0.3535  0.2327
 7096SOL    HW232751   4.538   2.489   7.425 -2.1781 -1.4773 -2.4093
 7097SOL     OW32752   0.419   1.810   9.303 -0.0312 -0.5950  0.4847
 7097SOL    HW132753   0.504   1.774   9.276  0.3133 -1.7485  3.1033
 7097SOL    HW232754   0.403   1.751   9.376  1.2662 -2.1670 -0.5031
 7098SOL     OW32755   1.301   3.227   7.033 -0.2443 -0.3771  0.5118
 7098SOL    HW132756   1.305   3.139   6.994 -1.3360 -0.4603  0.6028
 7098SOL    HW232757   1.246   3.209   7.108 -0.6982  0.2751  0.3262
 7099SOL     OW32758   2.454   4.200  11.516  0.2727  0.9152 -0.1241
 7099SOL    HW132759   2.547   4.202  11.493  0.3770 -0.7996  0.1504
 7099SOL    HW232760   2.417   4.258  11.449 -1.9252  0.5009  0.7362
 7100SOL     OW32761   1.081   2.170  10.725  0.2574  0.3003 -0.7104
 7100SOL    HW132762   1.080   2.167  10.820  1.2393  2.3878 -0.6334
 7100SOL    HW232763   1.166   2.212  10.709  0.3114  1.2144  1.9980
 7101SOL     OW32764   0.225   2.888   3.833  0.1538 -0.4784  0.2357
 7101SOL    HW132765   0.246   2.946   3.905  0.4408 -0.6414  0.2843
 7101SOL    HW232766   0.132   2.911   3.825  0.3352  0.5463  1.1918
 7102SOL     OW32767   4.033   3.277   9.343  0.4509  0.4089 -0.2435
 7102SOL    HW132768   4.053   3.278   9.249 -0.3209 -0.0876 -0.4144
 7102SOL    HW232769   3.972   3.351   9.348 -0.5804 -0.3298 -1.8589
 7103SOL     OW32770   0.433   1.320   2.393 -0.8186 -0.7721 -0.6965
 7103SOL    HW132771   0.369   1.370   2.343  0.0914 -0.2009 -1.2949
 7103SOL    HW232772   0.468   1.377   2.461 -1.6289 -0.9633 -0.1285
 7104SOL     OW32773   1.170   4.451   8.079  0.5245  0.1358  0.5005
 7104SOL    HW132774   1.242   4.514   8.068  1.8925 -2.1272 -3.6304
 7104SOL    HW232775   1.210   4.382   8.131 -0.0474 -0.2769  0.4024
 7105SOL     OW32776   1.402   0.220  13.062 -0.0286  0.0577  0.5029
 7105SOL    HW132777   1.409   0.301  13.112 -0.4964  0.4865 -0.1263
 7105SOL    HW232778   1.457   0.234  12.984 -0.1546  3.7552  1.1014
 7106SOL     OW32779   1.415   1.281   0.425  0.5242 -0.1518 -0.4894
 7106SOL    HW132780   1.491   1.314   0.472  0.5284 -2.8633  1.4237
 7106SOL    HW232781   1.423   1.186   0.428 -0.9112 -0.2399  0.5035
 7107SOL     OW32782   1.828   2.842   6.123  0.6467  0.7252  0.5175
 7107SOL    HW132783   1.852   2.851   6.031 -0.9516 -1.9844 -0.1766
 7107SOL    HW232784   1.833   2.932   6.153 -2.3891  1.9386 -2.6764
 7108SOL     OW32785   2.851   2.644  12.938 -0.8248 -0.1220 -0.3455
 7108SOL    HW132786   2.873   2.664  13.029 -0.7437 -1.0044 -0.1728
 7108SOL    HW232787   2.857   2.548  12.938 -0.2028 -0.0853 -0.3800
 7109SOL     OW32788   2.513   3.729  16.184 -0.1647  0.6050 -0.0669
 7109SOL    HW132789   2.434   3.781  16.200 -0.5179 -0.5048  1.8350
 7109SOL    HW232790   2.574   3.787  16.229  0.8486 -1.2352  0.9146
 7110SOL     OW32791   4.272   3.178  12.053 -0.6355 -0.2063  0.0979
 7110SOL    HW132792   4.267   3.241  11.981  1.3818 -0.9304 -0.6687
 7110SOL    HW232793   4.185   3.188  12.092 -0.8069  1.5481 -0.7555
 7111SOL     OW32794   1.578   3.134   6.675 -0.4170  0.1756 -0.0558
 7111SOL    HW132795   1.569   3.116   6.581  3.3749  2.5031 -0.8525
 7111SOL    HW232796   1.516   3.207   6.668 -1.4490 -0.6640  0.3241
 7112SOL     OW32797   3.587   1.329   5.318  0.0268 -0.2119 -0.2820
 7112SOL    HW132798   3.617   1.257   5.373 -1.4132 -1.0953 -0.6512
 7112SOL    HW232799   3.653   1.322   5.250  0.1874 -0.0276 -0.1451
 7113SOL     OW32800   4.310   3.415   7.355  0.5394 -0.0224  0.0376
 7113SOL    HW132801   4.342   3.493   7.401  1.5840 -1.4026  1.6650
 7113SOL    HW232802   4.329   3.345   7.418  0.4388 -1.3672 -1.4292
 7114SOL     OW32803   1.405   0.499   6.251  0.6214  0.3626 -0.0122
 7114SOL    HW132804   1.421   0.552   6.328  0.2871  0.5319 -0.0571
 7114SOL    HW232805   1.310   0.514   6.245  0.6683 -0.0182 -1.7707
 7115SOL     OW32806   0.294   2.975  10.535  0.7692 -0.7610 -0.1645
 7115SOL    HW132807   0.237   3.052  10.536 -0.9499 -2.0076 -1.5673
 7115SOL    HW232808   0.327   2.994  10.447 -1.4838 -0.6759 -1.0025
 7116SOL     OW32809   4.074   2.070  16.791  0.2705 -0.2070 -0.5216
 7116SOL    HW132810   4.111   1.985  16.812  0.7699 -0.8254 -3.8627
 7116SOL    HW232811   4.074   2.111  16.877 -0.4775 -1.7811  0.2151
 7117SOL     OW32812   3.410   0.585   6.871  0.0132 -0.4696  0.4048
 7117SOL    HW132813   3.388   0.610   6.781  0.5137 -2.2480 -0.2025
 7117SOL    HW232814   3.325   0.601   6.912 -0.8355 -2.2565 -0.6853
 7118SOL     OW32815   2.323   1.210   4.626  0.3380 -0.5187  0.0720
 7118SOL    HW132816   2.389   1.159   4.579 -1.7839 -0.9235 -2.4951
 7118SOL    HW232817   2.259   1.227   4.557  1.7232 -0.2462 -1.1577
 7119SOL     OW32818   1.286   0.322   8.079 -0.2514  0.3302 -0.5051
 7119SOL    HW132819   1.325   0.305   8.165 -2.6011 -1.4535  0.1996
 7119SOL    HW232820   1.264   0.415   8.085  0.2828  0.4256  0.0049
 7120SOL     OW32821   3.131   1.987   4.338 -0.1402 -0.2374 -0.2647
 7120SOL    HW132822   3.061   2.003   4.274 -1.7466  0.2706  1.6242
 7120SOL    HW232823   3.111   2.043   4.413  1.6432  1.4354 -1.0344
 7121SOL     OW32824   0.576   0.874   2.128 -0.4956 -0.1506  0.1675
 7121SOL    HW132825   0.593   0.812   2.058 -1.0863 -0.6132  0.4251
 7121SOL    HW232826   0.496   0.923   2.107  0.4146  1.4390  0.4255
 7122SOL     OW32827   2.298   3.666  12.788 -0.0937 -0.5660 -0.3860
 7122SOL    HW132828   2.360   3.610  12.834  0.3952  1.3409  1.2641
 7122SOL    HW232829   2.327   3.754  12.813  0.1624 -1.3308  2.0418
 7123SOL     OW32830   3.312   0.187  16.121 -0.0488 -0.0904 -0.3156
 7123SOL    HW132831   3.273   0.100  16.117  0.9387 -0.6097  1.6720
 7123SOL    HW232832   3.407   0.178  16.122 -0.1381 -0.8941  0.5096
 7124SOL     OW32833   4.576   1.046   4.713 -0.2793  0.2669 -0.2828
 7124SOL    HW132834   4.530   1.039   4.629  1.2734 -1.0465 -1.0340
 7124SOL    HW232835   4.667   1.041   4.685  0.7814  0.6085  3.1242
 7125SOL     OW32836   3.537   1.980   3.390 -0.3631 -0.3916 -0.3573
 7125SOL    HW132837   3.540   1.885   3.382 -1.0465 -0.7144  2.9380
 7125SOL    HW232838   3.492   1.985   3.475 -1.3550 -2.1458 -0.7757
 7126SOL     OW32839   2.832   2.820  14.830  0.4601  0.5398 -0.6989
 7126SOL    HW132840   2.752   2.869  14.813 -0.5684 -1.1357 -0.6830
 7126SOL    HW232841   2.886   2.862  14.763 -0.3464 -0.7286 -2.1217
 7127SOL     OW32842   4.415   3.972   8.435 -0.0322 -0.1071  0.0086
 7127SOL    HW132843   4.450   4.022   8.509 -0.9445  0.9892 -0.3064
 7127SOL    HW232844   4.405   3.892   8.486  1.3670  0.5019  1.2338
 7128SOL     OW32845   4.572   4.557   3.061  0.1175 -0.8061  0.3492
 7128SOL    HW132846   4.585   4.639   3.013 -0.0200 -0.5109  0.8084
 7128SOL    HW232847   4.612   4.489   3.008  2.3900 -0.4592  1.6083
 7129SOL     OW32848   1.904   3.140   5.182 -0.0502  0.4333 -0.2108
 7129SOL    HW132849   1.904   3.119   5.088  1.4248  0.6629 -0.2605
 7129SOL    HW232850   1.856   3.223   5.177  0.2549  0.7793  2.4944
 7130SOL     OW32851   4.012   4.371   5.909  0.1932  0.1001  0.3226
 7130SOL    HW132852   4.053   4.443   5.956 -0.5256 -0.5902  2.0293
 7130SOL    HW232853   4.027   4.301   5.973 -0.7261  0.5338  1.0088
 7131SOL     OW32854   1.104   1.240  13.316 -0.1031  0.0482  0.4414
 7131SOL    HW132855   1.032   1.179  13.335  0.4410 -0.8015 -0.2415
 7131SOL    HW232856   1.114   1.212  13.225 -0.5994  0.5860  0.2168
 7132SOL     OW32857   0.590   0.019   3.369  1.1047  0.0444 -0.6278
 7132SOL    HW132858   0.500   4.715   3.355  0.7897 -0.7009  2.9867
 7132SOL    HW232859   0.622   4.676   3.428 -0.1288 -1.6420 -1.9205
 7133SOL     OW32860   0.373   3.215   4.614 -0.3327 -0.5066 -0.3325
 7133SOL    HW132861   0.438   3.253   4.673 -1.4696 -1.2429  1.4049
 7133SOL    HW232862   0.388   3.264   4.533 -0.8083 -1.5274 -1.0316
 7134SOL     OW32863   0.199   4.063   2.182 -0.6652  0.1246 -0.0924
 7134SOL    HW132864   0.282   4.102   2.209 -0.3709  0.7559 -1.8519
 7134SOL    HW232865   0.167   4.130   2.122 -1.8158  1.4136  1.9732
 7135SOL     OW32866   0.475   3.479   1.924  0.5495 -0.3873  0.5117
 7135SOL    HW132867   0.407   3.494   1.858 -0.3400 -0.4440  1.4139
 7135SOL    HW232868   0.500   3.571   1.922 -1.6639  0.1932 -0.9317
 7136SOL     OW32869   4.471   3.524  16.839  0.1575 -0.3668 -0.2648
 7136SOL    HW132870   4.547   3.473  16.868 -1.2402 -1.1321  2.0019
 7136SOL    HW232871   4.487   3.519  16.745  2.0238 -2.3034  0.1557
 7137SOL     OW32872   0.103   2.686   7.779  0.4218  0.1172  0.0763
 7137SOL    HW132873   0.187   2.663   7.740  1.6820  0.3895  2.6494
 7137SOL    HW232874   0.130   2.684   7.871 -1.3706 -2.8866  0.5510
 7138SOL     OW32875   3.193   3.094  16.805 -0.2114 -0.9544  0.2378
 7138SOL    HW132876   3.151   3.096  16.891 -1.5244 -1.1960 -0.3994
 7138SOL    HW232877   3.112   3.103  16.756 -0.8727 -2.3295  1.0649
 7139SOL     OW32878   3.564   2.130   8.820 -0.4555  0.4282 -0.1699
 7139SOL    HW132879   3.653   2.164   8.831 -0.0401 -0.4120 -0.9236
 7139SOL    HW232880   3.511   2.187   8.876  1.4742  0.6573  1.3996
 7140SOL     OW32881   4.597   1.710  17.655 -0.3092 -0.1153  0.1081
 7140SOL    HW132882   4.677   1.757  17.675  0.0102  0.1770 -1.7812
 7140SOL    HW232883   4.540   1.786  17.643  1.5042  1.3077  0.6005
 7141SOL     OW32884   0.200   3.574   4.502  0.1307 -0.0200 -0.0505
 7141SOL    HW132885   0.150   3.496   4.474 -1.0784  0.9494 -0.6085
 7141SOL    HW232886   0.158   3.633   4.440  0.8948  1.5282  0.9129
 7142SOL     OW32887   0.635   1.419   1.123  0.1387 -0.5452  0.8078
 7142SOL    HW132888   0.623   1.508   1.090  0.0464  0.6402  4.1313
 7142SOL    HW232889   0.718   1.406   1.076  0.9664  1.1751  1.8177
 7143SOL     OW32890   2.353   3.277   6.380  0.3189 -0.4387 -0.1679
 7143SOL    HW132891   2.311   3.220   6.315 -3.2353  0.5796  1.2481
 7143SOL    HW232892   2.313   3.244   6.460  0.1854  1.0535  0.3667
 7144SOL     OW32893   3.733   0.182   6.637  0.1052  0.6624 -0.0185
 7144SOL    HW132894   3.677   0.229   6.575 -1.9221 -0.4874  0.9677
 7144SOL    HW232895   3.792   0.129   6.583  0.4456 -0.1794  1.1906
 7145SOL     OW32896   3.697   3.217   1.468 -0.1481  0.5104  0.0984
 7145SOL    HW132897   3.651   3.278   1.411 -0.2457 -0.4764 -0.8896
 7145SOL    HW232898   3.701   3.136   1.417  1.3543  2.7714 -3.3239
 7146SOL     OW32899   4.464   1.862  15.566 -0.4076  0.2324 -0.0395
 7146SOL    HW132900   4.533   1.825  15.510 -0.1140 -0.8266  1.0199
 7146SOL    HW232901   4.460   1.956  15.554  0.1902  0.1221 -1.0863
 7147SOL     OW32902   2.566   2.579   0.075 -0.6441 -0.5738 -0.2064
 7147SOL    HW132903   2.519   2.507   0.033 -0.7328  0.1900 -1.4160
 7147SOL    HW232904   2.513   2.589   0.155  0.7678 -1.8694  0.9016
 7148SOL     OW32905   2.144   4.490  10.270  0.3509  0.7269  0.4653
 7148SOL    HW132906   2.146   4.471  10.176 -0.3870 -0.4104  0.6830
 7148SOL    HW232907   2.211   4.429  10.298 -1.4255 -1.2180  0.4918
 7149SOL     OW32908   2.342   3.732   6.503  0.1221  0.1071  0.4800
 7149SOL    HW132909   2.415   3.718   6.563  2.6995  0.1015 -2.6313
 7149SOL    HW232910   2.281   3.764   6.569 -1.1295 -1.9154  0.3309
 7150SOL     OW32911   2.670   2.511  13.633  1.3938  0.2157  0.0164
 7150SOL    HW132912   2.628   2.589  13.669  0.9930  0.7781 -1.6591
 7150SOL    HW232913   2.718   2.541  13.556 -0.0922  0.8561 -0.6574
 7151SOL     OW32914   1.784   0.718  15.807 -0.0084 -0.2627 -0.1154
 7151SOL    HW132915   1.718   0.765  15.858  1.6229 -0.3573  2.1022
 7151SOL    HW232916   1.867   0.755  15.838  0.8515 -0.7221 -1.8176
 7152SOL     OW32917   1.830   2.476   7.182 -0.0300 -0.2876  0.6302
 7152SOL    HW132918   1.741   2.450   7.155 -0.7555 -0.1425  2.8480
 7152SOL    HW232919   1.882   2.396   7.191  2.5643  1.5591  2.1100
 7153SOL     OW32920   2.410   1.817  16.374  0.4580 -0.3649  0.0367
 7153SOL    HW132921   2.358   1.894  16.398  3.1626  1.2208  0.9252
 7153SOL    HW232922   2.492   1.853  16.339  0.0788 -0.0876 -0.5652
 7154SOL     OW32923   1.211   2.521  13.770  0.0137 -0.9232  0.2050
 7154SOL    HW132924   1.198   2.599  13.824  1.3282  1.2642 -2.6358
 7154SOL    HW232925   1.215   2.444  13.826 -1.2823 -1.6467 -0.6892
 7155SOL     OW32926   0.656   1.094  17.182 -0.0454 -0.1389 -0.1792
 7155SOL    HW132927   0.614   1.136  17.108  0.7560  0.9242 -0.0286
 7155SOL    HW232928   0.609   1.011  17.178 -0.0243 -0.0666 -1.7881
 7156SOL     OW32929   2.076   3.013  12.314 -0.5820  0.0136  0.0391
 7156SOL    HW132930   1.995   2.979  12.352 -0.6499  0.7021  0.5054
 7156SOL    HW232931   2.141   2.952  12.348  1.0724  1.0130 -1.2865
 7157SOL     OW32932   1.896   0.488   6.953 -0.5072  0.6708 -0.0671
 7157SOL    HW132933   1.834   0.454   6.888  0.0080 -1.2207  0.4416
 7157SOL    HW232934   1.961   0.418   6.961  0.2811  1.7124  2.6195
 7158SOL     OW32935   1.206   0.260   1.869  0.4414  0.8506 -0.8006
 7158SOL    HW132936   1.164   0.190   1.820 -0.8710 -0.6643  2.4852
 7158SOL    HW232937   1.133   0.319   1.888 -0.8337  0.3355 -4.1429
 7159SOL     OW32938   4.459   2.532  15.983  0.1612 -0.0187 -0.1389
 7159SOL    HW132939   4.545   2.572  15.995  0.3447 -0.4768  0.0943
 7159SOL    HW232940   4.456   2.547  15.889 -1.1264  3.9464  0.5413
 7160SOL     OW32941   3.859   3.246   2.738  0.3036 -0.2121  0.3457
 7160SOL    HW132942   3.890   3.335   2.721 -0.1953 -0.8507 -3.8315
 7160SOL    HW232943   3.767   3.270   2.725  0.7258  0.6331 -1.1078
 7161SOL     OW32944   1.530   3.686   3.249  0.1999  0.4267 -1.1667
 7161SOL    HW132945   1.517   3.607   3.301 -0.5316 -0.2230 -2.3408
 7161SOL    HW232946   1.438   3.703   3.229 -0.1234  0.5045  0.4285
 7162SOL     OW32947   0.953   4.435   0.163 -0.6652  0.2536  0.3339
 7162SOL    HW132948   1.012   4.466   0.095  0.3809 -1.1422  0.5994
 7162SOL    HW232949   0.883   4.399   0.109 -0.3100  1.6196 -1.0089
 7163SOL     OW32950   4.575   3.477  15.093 -0.3820  0.1286  0.4053
 7163SOL    HW132951   4.605   3.555  15.046  0.0468 -1.4218 -1.9120
 7163SOL    HW232952   4.481   3.485  15.082 -0.4631 -0.9949  0.2040
 7164SOL     OW32953   3.337   0.884  10.525 -0.0125  0.1779 -0.6157
 7164SOL    HW132954   3.370   0.938  10.597 -1.4629  1.0008 -0.5713
 7164SOL    HW232955   3.323   0.955  10.463 -0.2426  1.4602  0.9235
 7165SOL     OW32956   2.180   2.446   6.454 -0.1396  0.1090 -0.2846
 7165SOL    HW132957   2.171   2.444   6.358 -0.8573  2.2585 -0.2604
 7165SOL    HW232958   2.096   2.414   6.488 -0.0192 -0.4532 -0.5046
 7166SOL     OW32959   2.060   2.009   9.745  0.3412  0.7195 -0.0264
 7166SOL    HW132960   2.109   2.084   9.777  1.5648 -0.1709  0.1904
 7166SOL    HW232961   2.117   1.991   9.671  1.8522  1.6272  0.9293
 7167SOL     OW32962   1.548   4.090   5.299  0.3896 -0.0674  0.5892
 7167SOL    HW132963   1.524   4.114   5.210  2.1908 -0.5832 -0.0420
 7167SOL    HW232964   1.639   4.062   5.289  0.3191  0.7829 -2.3298
 7168SOL     OW32965   3.055   3.151   1.826 -0.0882  0.5490  0.7083
 7168SOL    HW132966   3.021   3.062   1.836 -0.0894  0.7016  2.0563
 7168SOL    HW232967   3.101   3.166   1.909  1.6389  0.9436 -0.3051
 7169SOL     OW32968   2.396   3.428   1.598  0.4271  0.2950 -0.2982
 7169SOL    HW132969   2.384   3.510   1.646 -0.9952  0.5160 -1.0331
 7169SOL    HW232970   2.305   3.401   1.608  0.4550  0.9121  1.6360
 7170SOL     OW32971   1.386   3.019  12.682 -0.1618  0.3478  0.0408
 7170SOL    HW132972   1.408   3.112  12.674  3.2319 -0.5746 -1.3907
 7170SOL    HW232973   1.392   2.989  12.591 -2.2423 -3.1149  1.0750
 7171SOL     OW32974   2.658   3.042  15.379  0.6374  0.8204  0.6729
 7171SOL    HW132975   2.652   2.957  15.422 -0.1185  1.3193  1.5460
 7171SOL    HW232976   2.584   3.090  15.416  0.3052  0.3335  0.6410
 7172SOL     OW32977   1.360   2.549   3.936 -0.6432  0.4261 -0.5288
 7172SOL    HW132978   1.296   2.577   3.871 -2.8130 -1.8485  0.6368
 7172SOL    HW232979   1.317   2.529   4.019  2.5635  3.3055  1.8324
 7173SOL     OW32980   3.166   2.580   4.442  0.0615  0.3443  0.7814
 7173SOL    HW132981   3.145   2.538   4.525 -0.2318  1.3572  1.2294
 7173SOL    HW232982   3.075   2.580   4.415 -0.5881  0.8794  2.9504
 7174SOL     OW32983   4.334   3.978  17.090 -0.4926 -0.0776  0.2322
 7174SOL    HW132984   4.411   3.922  17.089  0.4058  1.1810 -0.4605
 7174SOL    HW232985   4.372   4.066  17.095 -2.3434  0.8187 -1.3569
 7175SOL     OW32986   4.125   3.191   1.891  0.4708 -0.0957 -0.1627
 7175SOL    HW132987   4.179   3.181   1.969  1.1859  0.1063 -0.6383
 7175SOL    HW232988   4.149   3.281   1.867 -2.5761  0.3004 -1.7588
 7176SOL     OW32989   3.692   2.520   5.114  0.2535 -0.3445 -0.0938
 7176SOL    HW132990   3.774   2.549   5.155 -0.3148  1.2962 -0.0932
 7176SOL    HW232991   3.641   2.599   5.135 -0.4934 -0.7659 -0.3423
 7177SOL     OW32992   3.276   4.124   4.297  0.1623  0.0295 -0.3486
 7177SOL    HW132993   3.182   4.117   4.280  0.0256  1.8041 -0.4021
 7177SOL    HW232994   3.315   4.111   4.211  1.3663  0.5350  0.1189
 7178SOL     OW32995   0.849   1.102   1.612  0.2538 -0.6505 -0.1986
 7178SOL    HW132996   0.876   1.075   1.700 -1.5343  0.1078  0.5694
 7178SOL    HW232997   0.922   1.071   1.558  2.0777 -0.1781  1.9585
 7179SOL     OW32998   1.503   4.330   3.389 -0.4520 -0.2274 -0.2969
 7179SOL    HW132999   1.571   4.397   3.396 -2.1749  1.7005 -2.1179
 7179SOL    HW233000   1.558   4.271   3.338  0.4995  0.1828  0.2407
 7180SOL     OW33001   0.765   1.099  10.751  0.0855 -0.2918 -0.0399
 7180SOL    HW133002   0.688   1.120  10.803  1.3949  0.9746  1.3977
 7180SOL    HW233003   0.720   1.048  10.684  4.1257 -0.6371 -2.5403
 7181SOL     OW33004   2.433   1.574   0.995 -0.2541  0.0874  0.2339
 7181SOL    HW133005   2.506   1.556   0.936 -0.0430  0.7264  0.2972
 7181SOL    HW233006   2.406   1.662   0.970 -0.5129 -0.6382 -2.0404
 7182SOL     OW33007   4.385   1.083  16.017 -0.6020 -0.5922  0.3251
 7182SOL    HW133008   4.471   1.115  15.990 -0.1456 -2.5170 -0.4736
 7182SOL    HW233009   4.335   1.164  16.031  2.2197  0.8756  2.1370
 7183SOL     OW33010   3.128   0.631  11.469  0.1451 -0.2367  0.0315
 7183SOL    HW133011   3.157   0.700  11.529 -3.6567 -0.1462  1.7943
 7183SOL    HW233012   3.197   0.647  11.405  0.8395  0.9881  1.0768
 7184SOL     OW33013   0.354   3.109   7.136  0.0904 -0.5889  0.5121
 7184SOL    HW133014   0.296   3.089   7.209 -0.9727 -2.0452 -0.7314
 7184SOL    HW233015   0.297   3.092   7.061 -0.2680  1.1747  0.3813
 7185SOL     OW33016   4.326   4.060   1.487  0.2665  0.2691 -0.7797
 7185SOL    HW133017   4.385   3.985   1.478  1.5944  1.4110 -1.5109
 7185SOL    HW233018   4.242   4.014   1.480  0.3713 -0.2083  1.1001
 7186SOL     OW33019   3.985   1.263   8.293 -0.1517 -0.4491 -0.4820
 7186SOL    HW133020   4.038   1.236   8.368  1.5220  0.1898 -1.4338
 7186SOL    HW233021   3.943   1.182   8.265  1.4588 -1.7495  0.9141
 7187SOL     OW33022   1.082   0.542  12.201  0.3565 -0.0320  0.1883
 7187SOL    HW133023   1.070   0.565  12.293 -1.0346 -1.5674  0.3944
 7187SOL    HW233024   0.993   0.522  12.171  0.3406 -0.8269  0.7582
 7188SOL     OW33025   1.738   2.064   7.700  0.4269 -0.9929  0.1361
 7188SOL    HW133026   1.659   2.011   7.715  1.4565 -2.4755  0.2261
 7188SOL    HW233027   1.693   2.149   7.700  0.5185 -0.9449 -0.5768
 7189SOL     OW33028   3.069   2.863   1.316  0.0656 -0.4070 -0.0793
 7189SOL    HW133029   3.019   2.943   1.303  1.6510 -0.0811 -4.0667
 7189SOL    HW233030   3.018   2.821   1.385 -0.3374  0.7451  0.3295
 7190SOL     OW33031   2.485   2.320   5.780  0.0777 -0.7004  0.4620
 7190SOL    HW133032   2.529   2.244   5.740  0.2800 -0.2872 -0.0956
 7190SOL    HW233033   2.549   2.388   5.763  1.1036 -2.0394 -1.1125
 7191SOL     OW33034   2.644   3.097   2.136 -0.0158 -0.5001  0.2777
 7191SOL    HW133035   2.650   3.174   2.192  0.5467 -1.3935  1.4412
 7191SOL    HW233036   2.695   3.122   2.059  1.0742 -1.7960  0.5891
 7192SOL     OW33037   4.236   3.251  15.311 -0.6667  0.3894  0.7444
 7192SOL    HW133038   4.182   3.231  15.234 -1.7138  1.9241  1.0770
 7192SOL    HW233039   4.260   3.341  15.290 -0.9093  0.0620 -0.9337
 7193SOL     OW33040   3.788   1.992   1.632  0.8221 -0.3098  0.1878
 7193SOL    HW133041   3.810   2.082   1.606  0.1442  0.1001  1.0083
 7193SOL    HW233042   3.873   1.949   1.636  0.8517 -0.1683  1.1522
 7194SOL     OW33043   1.595   1.295   1.525  0.3600 -0.3154  0.0317
 7194SOL    HW133044   1.686   1.321   1.509  1.2453 -1.5924  3.0426
 7194SOL    HW233045   1.567   1.278   1.435 -1.3576 -0.6889  0.6393
 7195SOL     OW33046   4.640   4.154  11.753  0.6703 -0.4121  0.0716
 7195SOL    HW133047   4.650   4.085  11.818  1.4526 -2.4282 -2.2004
 7195SOL    HW233048   4.683   4.103  11.685 -0.6866 -0.8744 -0.4446
 7196SOL     OW33049   4.331   0.861  17.238  0.1437 -0.1509  0.3095
 7196SOL    HW133050   4.372   0.946  17.252  2.4268 -1.3439  0.8826
 7196SOL    HW233051   4.384   0.805  17.295 -3.5495 -4.0759 -0.0990
 7197SOL     OW33052   4.625   3.532   2.699  0.3825  0.4254 -0.4167
 7197SOL    HW133053   4.673   3.606   2.660  0.7575 -0.6428 -1.9937
 7197SOL    HW233054   4.635   3.553   2.792 -1.5098 -0.7742  0.0555
 7198SOL     OW33055   0.751   2.710   4.718 -0.0784 -0.0305  0.7759
 7198SOL    HW133056   0.816   2.779   4.730  1.6924 -1.4738 -0.5424
 7198SOL    HW233057   0.690   2.747   4.653 -0.8925  2.1266  2.7657
 7199SOL     OW33058   4.407   3.554   6.442  0.1015  0.2391 -0.2315
 7199SOL    HW133059   4.489   3.602   6.437 -1.2668  2.5591 -0.6464
 7199SOL    HW233060   4.355   3.596   6.511 -1.3655 -2.4603  0.3268
 7200SOL     OW33061   1.298   1.150   2.926 -0.1211  0.0099  0.1136
 7200SOL    HW133062   1.261   1.215   2.867  2.0728  1.0650 -0.1096
 7200SOL    HW233063   1.217   1.107   2.952 -0.1108 -0.2714 -0.3002
 7201SOL     OW33064   1.190   3.810   4.883  0.4331 -0.5852 -0.0283
 7201SOL    HW133065   1.133   3.816   4.807  0.7804  0.2718 -0.2281
 7201SOL    HW233066   1.135   3.850   4.951 -0.2359 -0.5254 -0.6005
 7202SOL     OW33067   3.006   1.745   4.943 -0.1157 -0.8937  0.2219
 7202SOL    HW133068   2.973   1.660   4.914 -2.0762 -0.0012 -0.1955
 7202SOL    HW233069   3.096   1.725   4.917  0.3465  0.1784  0.9822
 7203SOL     OW33070   3.382   2.152  10.280 -0.0993 -0.2601 -0.0075
 7203SOL    HW133071   3.359   2.125  10.369 -0.3928 -2.2400 -0.6886
 7203SOL    HW233072   3.434   2.074  10.261  0.3929  0.1339 -0.2901
 7204SOL     OW33073   1.603   4.186   5.989 -0.1541 -0.6524  0.2302
 7204SOL    HW133074   1.526   4.242   5.976  1.0741  1.3878  1.8441
 7204SOL    HW233075   1.668   4.251   5.964 -1.2021  0.2843 -0.1107
 7205SOL     OW33076   4.599   4.152   7.727 -0.4377  0.3816 -0.0083
 7205SOL    HW133077   4.520   4.207   7.729 -1.2127 -0.6416 -2.4513
 7205SOL    HW233078   4.621   4.140   7.819 -2.7415  0.6818  0.5968
 7206SOL     OW33079   2.881   3.707  10.434 -0.4806 -0.3801  0.0614
 7206SOL    HW133080   2.868   3.624  10.480  3.3088 -0.3850  1.1869
 7206SOL    HW233081   2.797   3.752  10.439 -0.5122 -0.5681  1.2570
 7207SOL     OW33082   1.034   0.460   8.270 -0.1547  0.6052 -0.0548
 7207SOL    HW133083   1.116   0.506   8.252  0.6209 -1.1167 -0.9908
 7207SOL    HW233084   0.971   0.494   8.206  0.3989  1.7263  0.0011
 7208SOL     OW33085   0.120   0.088   6.049  0.5356 -0.2775  0.7353
 7208SOL    HW133086   0.129   0.042   5.966 -4.0018  1.5614 -0.7281
 7208SOL    HW233087   0.203   0.065   6.091  1.3489  1.7358  0.2398
 7209SOL     OW33088   2.830   4.724   9.658 -0.7092 -0.1573  0.4130
 7209SOL    HW133089   2.744   0.015   9.620  0.3184  0.3530 -1.6693
 7209SOL    HW233090   2.803   4.712   9.749 -2.3124  0.0990 -0.0364
 7210SOL     OW33091   2.910   0.529   5.768  0.2278 -0.2535  0.1641
 7210SOL    HW133092   2.932   0.571   5.685  1.7392  3.2117  2.3493
 7210SOL    HW233093   2.853   0.594   5.810 -0.8835 -0.3308 -1.2338
 7211SOL     OW33094   3.631   3.989   8.850 -0.5997 -0.4954 -0.0718
 7211SOL    HW133095   3.618   4.076   8.812  0.2671 -1.1347 -1.8392
 7211SOL    HW233096   3.542   3.956   8.865 -0.8387 -0.6492 -1.8457
 7212SOL     OW33097   0.296   3.033   2.941 -0.0384  0.1644 -0.2072
 7212SOL    HW133098   0.370   3.057   2.998 -0.1172  0.2979 -0.1605
 7212SOL    HW233099   0.283   3.119   2.901 -0.6173  0.2200  0.0964
 7213SOL     OW33100   1.104   2.363   8.386  0.2872  0.2250 -0.0049
 7213SOL    HW133101   1.176   2.300   8.381  1.0073  0.9403  1.3813
 7213SOL    HW233102   1.066   2.337   8.469 -0.7476  3.9067  0.6619
 7214SOL     OW33103   4.085   0.957  14.174 -0.0519  0.1992  0.3350
 7214SOL    HW133104   4.035   0.971  14.254 -1.6771 -4.0295  0.0421
 7214SOL    HW233105   4.115   1.046  14.153 -0.8896  0.7426  1.4594
 7215SOL     OW33106   4.190   0.023   5.482  0.3396  0.6570  0.0810
 7215SOL    HW133107   4.266   0.023   5.539  0.2502  0.5974  0.1997
 7215SOL    HW233108   4.148   4.665   5.504  2.4586  0.1502  2.1653
 7216SOL     OW33109   1.099   1.817   8.596 -0.0964 -0.4032  0.3802
 7216SOL    HW133110   1.050   1.847   8.520 -1.6127 -2.3853  0.5815
 7216SOL    HW233111   1.179   1.800   8.546 -0.0794 -0.0372  0.2831
 7217SOL     OW33112   3.122   2.519   4.730 -0.3112  0.6942 -0.6362
 7217SOL    HW133113   3.094   2.490   4.817  2.2642  0.5106  0.1216
 7217SOL    HW233114   3.217   2.522   4.741 -0.5932  0.7835  1.8289
 7218SOL     OW33115   4.008   3.212  10.995 -0.0296 -0.1265  0.5223
 7218SOL    HW133116   3.969   3.296  11.019 -1.0773 -0.4599 -0.0486
 7218SOL    HW233117   3.955   3.182  10.922 -0.8866 -0.8564  1.4464
 7219SOL     OW33118   1.519   4.055  13.323 -0.6579  0.4758 -0.3117
 7219SOL    HW133119   1.432   4.016  13.331 -0.4477  0.0833  0.0807
 7219SOL    HW233120   1.508   4.107  13.244 -0.1571 -1.2675 -1.5484
 7220SOL     OW33121   0.071   4.325   1.279 -0.0561 -0.4345  0.0376
 7220SOL    HW133122   4.720   4.341   1.223  0.5705 -0.7528 -0.8953
 7220SOL    HW233123   0.139   4.279   1.229 -0.0022 -0.3106 -0.0030
 7221SOL     OW33124   0.416   2.307   6.639 -0.7111  0.2837  0.0189
 7221SOL    HW133125   0.390   2.340   6.725  1.1362  0.9267  0.3240
 7221SOL    HW233126   0.379   2.219   6.650 -0.0585  0.1971  1.4193
 7222SOL     OW33127   3.349   0.242   6.397  0.0654  0.6609 -0.1671
 7222SOL    HW133128   3.322   0.328   6.366  1.6399  0.1727 -2.8066
 7222SOL    HW233129   3.349   0.197   6.313 -1.7514  0.7406 -0.2064
 7223SOL     OW33130   4.154   1.652   2.149 -0.0554 -0.1698 -0.2026
 7223SOL    HW133131   4.087   1.687   2.207 -1.7489 -2.4455 -0.8029
 7223SOL    HW233132   4.145   1.712   2.075  1.7655  0.9418  0.4935
 7224SOL     OW33133   2.549   1.784  10.181  0.1597  0.2129 -0.8112
 7224SOL    HW133134   2.464   1.740  10.190 -0.9721  2.1877 -1.7934
 7224SOL    HW233135   2.540   1.856  10.243 -3.4073 -2.3264  1.6315
 7225SOL     OW33136   0.331   3.869   3.341  0.0199  0.0638 -0.2034
 7225SOL    HW133137   0.313   3.834   3.253 -0.7729  0.0226 -0.0206
 7225SOL    HW233138   0.245   3.868   3.381  0.2006  0.5833  0.2011
 7226SOL     OW33139   3.585   1.789  10.538 -0.5170 -0.2093 -0.7157
 7226SOL    HW133140   3.580   1.862  10.600 -1.1243 -0.7029 -0.1814
 7226SOL    HW233141   3.492   1.779  10.519 -0.6786  0.9552 -0.5042
 7227SOL     OW33142   2.705   0.753   4.778  0.7580  0.3646 -0.2117
 7227SOL    HW133143   2.665   0.739   4.864  1.9455  0.4539  0.3493
 7227SOL    HW233144   2.634   0.785   4.721  0.3437  1.6470  1.0371
 7228SOL     OW33145   0.397   4.704   4.705  0.0229  0.1501 -0.1010
 7228SOL    HW133146   0.395   0.056   4.649  0.3973 -0.5568 -1.1004
 7228SOL    HW233147   0.462   4.650   4.661  1.3915  1.2370  0.5940
 7229SOL     OW33148   0.047   0.536   3.904 -0.2032  0.3483  0.3185
 7229SOL    HW133149   4.722   0.587   3.967 -0.5995  0.7983 -0.3659
 7229SOL    HW233150   0.085   0.600   3.844 -1.6875 -0.4378 -1.4769
 7230SOL     OW33151   4.192   3.649  11.787  0.4737  0.0817  0.1435
 7230SOL    HW133152   4.139   3.699  11.726  1.8022  1.2560 -0.0492
 7230SOL    HW233153   4.127   3.631  11.854  0.5302  4.0529  1.2872
 7231SOL     OW33154   0.499   2.273   3.733 -0.6649 -0.2695  0.1107
 7231SOL    HW133155   0.528   2.211   3.800 -0.9816 -1.8260 -1.1891
 7231SOL    HW233156   0.434   2.312   3.792  0.7437  2.7412 -0.3387
 7232SOL     OW33157   4.696   3.233   2.716  0.3355  0.2658  0.1501
 7232SOL    HW133158   4.655   3.319   2.713  0.6729  0.3695 -1.2877
 7232SOL    HW233159   4.714   3.215   2.624  1.0613 -1.4836  0.6266
 7233SOL     OW33160   1.763   2.445   5.672 -0.0357  0.7402  0.8433
 7233SOL    HW133161   1.853   2.416   5.690  0.0597  0.6002  0.1422
 7233SOL    HW233162   1.706   2.384   5.720 -0.2473 -1.2917 -1.9867
 7234SOL     OW33163   3.013   1.426   8.575 -0.8660  0.3511 -0.5851
 7234SOL    HW133164   3.041   1.467   8.494 -2.2368 -0.1382 -1.3073
 7234SOL    HW233165   3.070   1.475   8.634 -0.2927 -1.3001  0.2250
 7235SOL     OW33166   0.022   4.111   4.817 -0.2437  0.2673 -0.0848
 7235SOL    HW133167   4.699   4.102   4.735 -1.5303 -0.1515  0.7164
 7235SOL    HW233168   0.079   4.187   4.804  0.0088 -0.3443 -2.4891
 7236SOL     OW33169   0.009   1.910   2.193 -0.2594 -0.1481 -0.4526
 7236SOL    HW133170   0.105   1.913   2.191 -0.3608  1.9604 -2.1367
 7236SOL    HW233171   0.008   1.815   2.184 -0.2806 -0.1362 -0.5786
 7237SOL     OW33172   3.477   1.405  15.804 -0.2403  0.0088 -0.4003
 7237SOL    HW133173   3.503   1.314  15.789 -0.4796  0.1317 -1.5839
 7237SOL    HW233174   3.383   1.394  15.796 -0.0624 -0.9163 -1.1683
 7238SOL     OW33175   2.884   0.138   5.735 -0.6825  0.2184  0.4679
 7238SOL    HW133176   2.952   0.072   5.719 -0.2369  1.4193 -2.4862
 7238SOL    HW233177   2.934   0.205   5.782 -2.1769  0.3773  1.8616
 7239SOL     OW33178   4.642   2.544   5.768  0.2420 -0.2777  0.0481
 7239SOL    HW133179   4.699   2.525   5.842 -0.1630 -2.2230 -0.1322
 7239SOL    HW233180   4.655   2.467   5.713  0.4977  1.2675 -2.0675
 7240SOL     OW33181   2.165   3.112   2.031  0.6727  0.5714  0.3539
 7240SOL    HW133182   2.246   3.062   2.037  1.2419  1.3827 -0.6809
 7240SOL    HW233183   2.135   3.124   2.121  0.5640  1.3019  0.2199
 7241SOL     OW33184   3.146   2.815  16.204 -0.1276 -0.5995  0.1744
 7241SOL    HW133185   3.192   2.852  16.280 -0.9726  0.0119  0.3893
 7241SOL    HW233186   3.068   2.855  16.242  1.0209 -0.1624  2.0896
 7242SOL     OW33187   2.253   2.964   8.025 -0.1128  0.2067 -0.0958
 7242SOL    HW133188   2.250   3.004   8.111  2.5672  0.0758  0.0443
 7242SOL    HW233189   2.226   2.874   8.042 -2.9760  1.3603  1.4106
 7243SOL     OW33190   0.643   0.527   6.996 -0.0563 -0.3853 -0.0250
 7243SOL    HW133191   0.698   0.493   6.925 -0.3407  0.3611 -0.6060
 7243SOL    HW233192   0.700   0.589   7.042  0.6884 -0.2257 -1.1531
 7244SOL     OW33193   2.015   0.658   5.989 -0.2664 -0.8562 -0.2135
 7244SOL    HW133194   2.097   0.612   6.005  1.4026  1.7188 -1.2803
 7244SOL    HW233195   1.950   0.598   6.025  1.2956 -0.3040  3.5236
 7245SOL     OW33196   1.738   2.694   6.896 -0.1309 -0.2636  0.1790
 7245SOL    HW133197   1.783   2.617   6.931 -1.0675 -0.2485  1.4020
 7245SOL    HW233198   1.763   2.695   6.804  1.4214 -0.0560  0.5969
 7246SOL     OW33199   3.942   3.915   3.399 -0.2092 -0.1467 -0.3101
 7246SOL    HW133200   4.032   3.922   3.366  0.2688  0.6641  1.1804
 7246SOL    HW233201   3.928   3.820   3.393  0.6840 -0.2748 -0.3962
 7247SOL     OW33202   3.136   4.445   5.097  0.1471  0.3275 -0.8203
 7247SOL    HW133203   3.195   4.482   5.163  1.3450  1.3513 -2.4509
 7247SOL    HW233204   3.113   4.358   5.129 -0.8851  0.7794 -0.3549
 7248SOL     OW33205   4.570   3.952   4.175 -1.0646  0.2178  0.2496
 7248SOL    HW133206   4.523   3.943   4.092  1.4625 -1.4649 -0.9648
 7248SOL    HW233207   4.640   4.007   4.140 -0.3225  1.2266  3.2973
 7249SOL     OW33208   2.718   1.086   7.281 -0.4232  0.1917  0.2955
 7249SOL    HW133209   2.750   0.997   7.273 -2.0879 -0.2634 -1.2407
 7249SOL    HW233210   2.633   1.068   7.241  0.3883 -0.3483 -1.1795
 7250SOL     OW33211   1.689   4.199   3.262 -0.0773 -0.1776 -0.0035
 7250SOL    HW133212   1.648   4.119   3.229 -2.0485  1.0516 -0.5808
 7250SOL    HW233213   1.747   4.224   3.190 -1.4508  2.4601 -0.2000
 7251SOL     OW33214   2.216   1.768  11.741 -0.5028 -0.0807 -0.1618
 7251SOL    HW133215   2.128   1.800  11.759  0.0371  1.1230  0.2932
 7251SOL    HW233216   2.259   1.774  11.826  0.6308 -0.8910 -0.6769
 7252SOL     OW33217   2.789   4.233   4.903 -0.0877  0.4562 -0.3968
 7252SOL    HW133218   2.823   4.259   4.989 -0.7999  3.0142 -0.8813
 7252SOL    HW233219   2.864   4.187   4.864 -0.6404 -0.5046 -0.3122
 7253SOL     OW33220   1.239   0.276   8.783  0.2763 -0.0730  0.5573
 7253SOL    HW133221   1.178   0.329   8.835  3.2630  1.4489  2.4559
 7253SOL    HW233222   1.191   0.249   8.704  0.8880  0.0397  0.1463
 7254SOL     OW33223   0.007   2.780   6.000 -0.1451  0.0437 -0.2758
 7254SOL    HW133224   4.642   2.751   6.006  0.0225 -0.1709  1.4264
 7254SOL    HW233225   0.032   2.779   6.093  0.4687  1.8224 -0.4193
 7255SOL     OW33226   2.612   3.641  11.154 -0.0545 -0.3079 -0.4050
 7255SOL    HW133227   2.685   3.697  11.127  1.1053 -1.8713 -0.5304
 7255SOL    HW233228   2.538   3.690  11.118 -0.3184  1.7897  2.9560
 7256SOL     OW33229   0.855   2.100   7.326 -0.3954  0.5821 -0.3113
 7256SOL    HW133230   0.924   2.065   7.383 -1.5551 -0.9617  0.1764
 7256SOL    HW233231   0.906   2.104   7.245  2.4146  0.9054  1.4620
 7257SOL     OW33232   0.976   0.729   1.303 -0.0577  0.2215  0.6082
 7257SOL    HW133233   0.992   0.697   1.391 -2.6140 -0.0389  0.9921
 7257SOL    HW233234   0.883   0.745   1.318 -0.1004  1.7861 -1.2811
 7258SOL     OW33235   2.763   0.249  13.473 -0.3401  1.2918  0.4495
 7258SOL    HW133236   2.734   0.340  13.481 -0.4913  1.1932  0.9742
 7258SOL    HW233237   2.852   0.254  13.509  0.9889 -2.1588 -2.3150
 7259SOL     OW33238   3.704   4.117   0.192  0.3367  0.5246  0.1522
 7259SOL    HW133239   3.731   4.209   0.195 -0.7752  0.9240 -1.6254
 7259SOL    HW233240   3.739   4.099   0.105 -2.6728 -0.9389 -0.7702
 7260SOL     OW33241   0.705   3.810   6.483  0.1224  0.3391  0.2444
 7260SOL    HW133242   0.722   3.881   6.421  1.8295  0.2994  0.6842
 7260SOL    HW233243   0.791   3.802   6.524 -0.9203 -1.7279  2.0073
 7261SOL     OW33244   4.368   0.230   1.696  0.2349 -0.1306 -0.2882
 7261SOL    HW133245   4.328   0.314   1.719 -0.5975 -1.6632  3.7496
 7261SOL    HW233246   4.298   0.186   1.648  1.1458 -1.1567 -0.6756
 7262SOL     OW33247   0.958   1.944   1.913  0.0195  0.3830  0.8883
 7262SOL    HW133248   1.024   2.009   1.940 -1.4900  1.4913  1.9087
 7262SOL    HW233249   1.010   1.864   1.925 -2.7463 -1.6971 -1.0433
 7263SOL     OW33250   3.356   1.742   2.973 -0.3292 -0.1103 -0.4825
 7263SOL    HW133251   3.397   1.708   3.053  0.8227 -2.3287 -2.0179
 7263SOL    HW233252   3.359   1.837   2.987 -0.6071 -0.5172  2.2633
 7264SOL     OW33253   4.217   1.148   2.127  0.0930 -0.5892 -0.1088
 7264SOL    HW133254   4.218   1.243   2.114 -0.7893 -0.4430  0.8221
 7264SOL    HW233255   4.133   1.134   2.171  0.7656  1.9571  1.9647
 7265SOL     OW33256   0.817   1.616  14.494  0.1876 -0.1400  0.0068
 7265SOL    HW133257   0.808   1.553  14.422  0.3987  0.0756 -0.2098
 7265SOL    HW233258   0.884   1.678  14.466  0.0428 -1.0059 -2.2895
 7266SOL     OW33259   1.080   2.534   8.174  0.1736  0.2454  0.7129
 7266SOL    HW133260   1.086   2.487   8.257 -0.8753  1.2575  1.3689
 7266SOL    HW233261   1.070   2.625   8.201  1.3870 -0.3449  3.1648
 7267SOL     OW33262   2.201   3.099   8.541  0.5517  0.6292 -0.1799
 7267SOL    HW133263   2.203   3.191   8.568 -0.5232  0.8349 -0.7788
 7267SOL    HW233264   2.248   3.053   8.610 -1.0031 -0.2662  0.2762
 7268SOL     OW33265   2.999   0.274  16.455  0.1240  0.7876  0.4235
 7268SOL    HW133266   2.907   0.266  16.430  0.5428 -2.1919 -0.0816
 7268SOL    HW233267   3.036   0.341  16.397  1.6890  1.7959  2.6080
 7269SOL     OW33268   0.111   4.561  12.797  0.7219 -0.7764 -0.0879
 7269SOL    HW133269   0.119   4.476  12.840 -0.1451 -0.7118  0.2122
 7269SOL    HW233270   0.091   4.614  12.874  0.5595  0.6698 -1.1204
 7270SOL     OW33271   0.927   1.298   5.168 -0.1084  0.0342 -0.0451
 7270SOL    HW133272   1.013   1.256   5.177  0.4744  1.4289  0.9260
 7270SOL    HW233273   0.918   1.316   5.261  0.0264 -1.8039  0.3286
 7271SOL     OW33274   3.336   2.850   1.036  0.0188 -0.2264 -0.1475
 7271SOL    HW133275   3.413   2.800   1.064  0.1442  0.0416 -0.0066
 7271SOL    HW233276   3.271   2.781   1.047  0.4911 -0.8159 -1.1237
 7272SOL     OW33277   0.880   0.134   3.688 -0.1733  0.6040  0.4148
 7272SOL    HW133278   0.909   0.188   3.761 -2.0796 -0.2938  1.8239
 7272SOL    HW233279   0.963   0.095   3.661 -0.1255  0.3730  0.9021
 7273SOL     OW33280   4.651   1.847   7.454  0.1140  0.4344 -0.1920
 7273SOL    HW133281   4.680   1.807   7.372  0.0933  2.6698 -1.2800
 7273SOL    HW233282   0.005   1.839   7.507  0.2869  1.9440 -0.2491
 7274SOL     OW33283   2.160   2.603   4.685 -0.2837 -0.1969  0.8493
 7274SOL    HW133284   2.242   2.647   4.704 -0.6115  0.3880  0.8884
 7274SOL    HW233285   2.127   2.569   4.768 -1.6180 -1.5416 -0.2059
 7275SOL     OW33286   4.168   1.343  16.348  0.6074 -0.3220 -0.0329
 7275SOL    HW133287   4.192   1.423  16.395 -1.0382  0.2099 -0.1164
 7275SOL    HW233288   4.073   1.342  16.357  0.3752  1.8129 -2.1391
 7276SOL     OW33289   2.893   0.928  15.597  0.4321 -0.9400 -0.2644
 7276SOL    HW133290   2.885   0.837  15.627  1.6131 -1.0512 -0.2998
 7276SOL    HW233291   2.849   0.910  15.513 -0.7593  1.7164 -0.1996
 7277SOL     OW33292   1.604   1.037   1.676  0.3743  0.2180 -0.0101
 7277SOL    HW133293   1.620   1.128   1.651 -2.0351  0.4162 -0.8450
 7277SOL    HW233294   1.605   0.993   1.591  1.0011 -1.8029  1.0302
 7278SOL     OW33295   4.724   3.438   5.579  0.2979  0.0643  0.2372
 7278SOL    HW133296   4.641   3.404   5.547  0.6081 -1.4561  1.0747
 7278SOL    HW233297   4.698   3.465   5.667  0.4850  1.8274 -0.2511
 7279SOL     OW33298   0.590   4.588   2.247 -0.3390  0.5536 -0.0623
 7279SOL    HW133299   0.580   4.671   2.293 -1.0167  1.5800 -2.0689
 7279SOL    HW233300   0.676   4.595   2.207 -0.8630  1.9060 -0.9503
 7280SOL     OW33301   1.790   2.874   1.533 -0.3095 -0.0767  0.1672
 7280SOL    HW133302   1.861   2.908   1.478  0.0096  1.5986  1.6090
 7280SOL    HW233303   1.767   2.936   1.602  0.4682 -0.7415  1.0307
 7281SOL     OW33304   3.505   3.301  16.284 -0.7925  0.1128  0.5957
 7281SOL    HW133305   3.414   3.306  16.313 -0.0964 -0.2070  2.8358
 7281SOL    HW233306   3.550   3.336  16.361  2.1335  0.0226 -1.0865
 7282SOL     OW33307   0.483   2.805   3.195 -0.0730 -0.3394  0.0124
 7282SOL    HW133308   0.496   2.739   3.127 -0.2521 -1.0449  0.6679
 7282SOL    HW233309   0.530   2.762   3.266 -1.3416  0.1499  1.1362
 7283SOL     OW33310   2.800   1.121   5.629 -0.2539  0.3403 -0.0649
 7283SOL    HW133311   2.747   1.170   5.567 -0.8523 -3.2662 -2.4340
 7283SOL    HW233312   2.868   1.091   5.569  2.6557 -0.4867  3.6041
 7284SOL     OW33313   4.463   1.379   4.899 -0.0495  0.2962  0.4107
 7284SOL    HW133314   4.468   1.423   4.984 -0.0400 -0.0495  0.5879
 7284SOL    HW233315   4.393   1.433   4.862  2.4565  1.9205 -1.9537
 7285SOL     OW33316   4.337   2.559  14.379 -0.3601  0.2925 -0.0178
 7285SOL    HW133317   4.346   2.582  14.286  0.8154 -3.2520 -0.7882
 7285SOL    HW233318   4.247   2.587  14.398  0.3798  0.5698  2.9562
 7286SOL     OW33319   2.889   2.187   2.802 -0.0647 -0.2745 -0.4021
 7286SOL    HW133320   2.927   2.218   2.884  0.8188 -0.6399 -0.6763
 7286SOL    HW233321   2.946   2.217   2.731 -2.1549  1.3773 -1.3815
 7287SOL     OW33322   1.442   3.006   1.697 -0.6075  0.3667  0.3345
 7287SOL    HW133323   1.386   2.975   1.768 -1.3062  0.4320 -0.1928
 7287SOL    HW233324   1.377   3.047   1.640  0.9348 -0.6249 -2.1567
 7288SOL     OW33325   2.090   0.226   5.154  0.0714 -0.7119  0.1827
 7288SOL    HW133326   2.176   0.184   5.146  0.6156  0.1962  1.1460
 7288SOL    HW233327   2.086   0.261   5.065  0.4768 -0.0368  0.4255
 7289SOL     OW33328   2.317   3.721  11.462 -0.0216 -0.0847  0.0953
 7289SOL    HW133329   2.402   3.683  11.439  0.8303  2.3935 -0.8845
 7289SOL    HW233330   2.315   3.812  11.432 -3.2677 -0.0503  0.4062
 7290SOL     OW33331   3.565   3.617   6.158 -0.2217 -0.2078 -0.0388
 7290SOL    HW133332   3.642   3.563   6.176 -1.3149 -1.9790 -0.7284
 7290SOL    HW233333   3.557   3.651   6.248 -1.2329  1.8708 -0.9052
 7291SOL     OW33334   3.113   0.776   7.845  0.1413 -0.0675 -0.5610
 7291SOL    HW133335   3.112   0.829   7.925  0.1203 -2.6216  1.1442
 7291SOL    HW233336   3.069   0.705   7.892 -1.4022  0.0357 -1.8467
 7292SOL     OW33337   1.927   2.268  16.373  0.0324  0.6950 -0.0720
 7292SOL    HW133338   1.841   2.308  16.375  0.0297  0.6761  0.3483
 7292SOL    HW233339   1.911   2.182  16.335  0.0733  0.0137  1.4530
 7293SOL     OW33340   2.714   1.352   2.990  0.2350 -0.2755  0.3341
 7293SOL    HW133341   2.803   1.379   3.008 -0.2521  1.9293 -0.6040
 7293SOL    HW233342   2.669   1.433   3.012  0.3738 -0.2058  0.3582
 7294SOL     OW33343   4.609   0.808   7.305  0.0457  0.7023 -0.0972
 7294SOL    HW133344   4.663   0.802   7.384 -0.4233  0.3070  0.1938
 7294SOL    HW233345   4.537   0.852   7.350 -1.2566  0.9291 -2.4176
 7295SOL     OW33346   3.665   1.706   4.054 -0.1227  0.2988  0.7694
 7295SOL    HW133347   3.630   1.653   3.983 -1.1262 -0.0151  1.4869
 7295SOL    HW233348   3.743   1.658   4.082 -0.3151 -0.8998 -0.7936
 7296SOL     OW33349   3.244   4.409   8.819  0.5312  0.2078  0.5154
 7296SOL    HW133350   3.230   4.316   8.805  0.9778  0.5656 -2.3171
 7296SOL    HW233351   3.291   4.434   8.739  0.1802 -2.3813 -0.4790
 7297SOL     OW33352   1.086   4.076   0.794  0.1599 -0.2989 -0.0426
 7297SOL    HW133353   1.116   4.046   0.879 -0.5779  0.9994  0.6725
 7297SOL    HW233354   1.143   4.024   0.737  1.6236  1.0010  0.2212
 7298SOL     OW33355   4.129   0.062   6.718  0.0122  0.5612 -0.0576
 7298SOL    HW133356   4.130   4.693   6.704  1.7304  0.6421 -0.5103
 7298SOL    HW233357   4.085   0.078   6.801  0.5530  0.0248  0.3324
 7299SOL     OW33358   0.464   2.579   0.142 -0.2528  0.1591 -0.0038
 7299SOL    HW133359   0.376   2.550   0.119 -0.2430 -0.7966  1.1685
 7299SOL    HW233360   0.508   2.503   0.180  1.9884  0.4695 -2.0185
 7300SOL     OW33361   4.043   3.800  16.808  0.2091  0.5360 -0.0751
 7300SOL    HW133362   4.135   3.772  16.815 -0.6908 -2.1719  0.9343
 7300SOL    HW233363   4.042   3.796  16.712  4.1024 -1.0892 -0.0452
 7301SOL     OW33364   0.829   1.979  10.613  0.5931  0.0059  0.2539
 7301SOL    HW133365   0.765   1.916  10.580  1.0885  0.4799 -1.6093
 7301SOL    HW233366   0.789   2.063  10.592  1.7956  0.3444 -0.6398
 7302SOL     OW33367   3.149   1.267   4.802 -0.0878  0.0573 -0.0626
 7302SOL    HW133368   3.226   1.239   4.753 -0.1700 -0.6655  0.2292
 7302SOL    HW233369   3.107   1.183   4.821  0.8768 -0.0255  1.6616
 7303SOL     OW33370   0.602   1.198  14.417  0.6218  0.1801 -0.1472
 7303SOL    HW133371   0.559   1.208  14.502 -2.9383  0.0488 -1.9459
 7303SOL    HW233372   0.596   1.103  14.406  1.1672 -0.0067  1.1564
 7304SOL     OW33373   3.761   1.601   0.733  0.1225 -0.0222  1.0076
 7304SOL    HW133374   3.845   1.587   0.776 -0.3641 -1.5109  1.4527
 7304SOL    HW233375   3.790   1.655   0.658  0.2866  1.2908  2.0172
 7305SOL     OW33376   0.826   2.165  16.794 -0.0943  0.4078  0.5611
 7305SOL    HW133377   0.808   2.157  16.701 -2.8005 -1.2473  1.2430
 7305SOL    HW233378   0.738   2.146  16.826 -0.7768  1.2402 -0.8432
 7306SOL     OW33379   0.444   4.643   8.992  0.4193 -0.2106  0.0872
 7306SOL    HW133380   0.531   4.612   9.018 -0.1060 -1.2576  0.5859
 7306SOL    HW233381   0.385   4.640   9.068 -2.4263  1.7685 -2.0254
 7307SOL     OW33382   3.685   3.999   5.565  0.4013  0.6037 -0.1994
 7307SOL    HW133383   3.749   3.933   5.536  0.1205  0.3422 -0.2217
 7307SOL    HW233384   3.700   3.999   5.660  3.3033  1.7842 -0.6435
 7308SOL     OW33385   3.312   1.818  10.450 -0.7858 -0.2880  0.2409
 7308SOL    HW133386   3.307   1.907  10.488 -1.1329 -1.2032  2.3574
 7308SOL    HW233387   3.312   1.846  10.359 -1.4547 -0.4628  0.1878
 7309SOL     OW33388   0.323   0.953   8.818  0.7435 -0.3182  0.3411
 7309SOL    HW133389   0.408   0.909   8.819  0.7444 -0.3225  0.0391
 7309SOL    HW233390   0.260   0.884   8.795  0.9415  0.1631 -1.6282
 7310SOL     OW33391   3.690   1.781   4.899 -0.7186 -0.6994  0.2117
 7310SOL    HW133392   3.673   1.874   4.911 -0.5299 -0.7078  0.5738
 7310SOL    HW233393   3.631   1.762   4.827 -1.2762  0.3332  0.3942
 7311SOL     OW33394   2.545   0.443   1.512  0.3703  0.2831 -0.3207
 7311SOL    HW133395   2.516   0.440   1.603 -0.8109  1.8495 -0.6612
 7311SOL    HW233396   2.621   0.385   1.514  1.0020  1.1633  0.8806
 7312SOL     OW33397   1.245   4.535  12.481 -0.4225 -0.1775 -0.1974
 7312SOL    HW133398   1.258   4.442  12.465  1.2873  0.4338 -2.4827
 7312SOL    HW233399   1.320   4.570  12.433 -0.1490 -0.2472  0.1821
 7313SOL     OW33400   2.539   1.640   9.918  0.1956 -0.0432 -0.3493
 7313SOL    HW133401   2.610   1.596   9.964 -1.8234 -1.8448  1.0445
 7313SOL    HW233402   2.462   1.610   9.967  1.0290 -0.8840  0.4455
 7314SOL     OW33403   2.718   4.151   1.616 -0.8655 -0.0651  0.4384
 7314SOL    HW133404   2.746   4.063   1.593  2.0457  1.1227 -0.5350
 7314SOL    HW233405   2.771   4.192   1.548 -0.4059 -1.4035  0.0055
 7315SOL     OW33406   2.989   1.921   2.058 -0.1156 -0.1939 -0.4426
 7315SOL    HW133407   3.073   1.957   2.085 -0.2128  0.0832 -0.5121
 7315SOL    HW233408   2.997   1.892   1.967  1.2329 -0.7582 -0.1439
 7316SOL     OW33409   2.537   0.862   8.551 -0.2573 -0.1404 -0.2675
 7316SOL    HW133410   2.616   0.900   8.513  0.9314 -0.1884  2.1224
 7316SOL    HW233411   2.572   0.797   8.612  1.7859 -2.3778 -3.9036
 7317SOL     OW33412   1.211   3.116   6.133 -0.5659 -0.2330 -0.1267
 7317SOL    HW133413   1.281   3.059   6.166  0.7555  0.0999 -2.4096
 7317SOL    HW233414   1.249   3.136   6.048  2.3504 -3.3694  0.4316
 7318SOL     OW33415   1.502   2.903   6.790  0.4764 -0.1509 -0.0223
 7318SOL    HW133416   1.539   2.830   6.740 -0.5308 -1.5476  1.2801
 7318SOL    HW233417   1.533   2.979   6.741  3.3511 -1.3642 -0.0748
 7319SOL     OW33418   1.181   0.728  12.016  0.3997 -0.4043 -0.2745
 7319SOL    HW133419   1.139   0.648  12.048 -0.6107 -0.5633 -2.0121
 7319SOL    HW233420   1.207   0.774  12.096 -0.4236  0.4791 -0.5226
 7320SOL     OW33421   2.956   1.815   1.290 -0.1118  0.3946  0.1638
 7320SOL    HW133422   3.006   1.822   1.208 -0.2623  0.7497  0.1013
 7320SOL    HW233423   3.005   1.870   1.351 -1.4444 -0.4579  1.9727
 7321SOL     OW33424   4.043   0.762   5.113  0.5844  0.1489 -0.0448
 7321SOL    HW133425   3.958   0.723   5.136  0.5609  0.3689  0.2521
 7321SOL    HW233426   4.045   0.832   5.179  1.9065 -0.3815  0.4698
 7322SOL     OW33427   4.422   0.345   0.241  0.7779 -0.1337 -0.1351
 7322SOL    HW133428   4.473   0.412   0.288  1.6683  0.7707 -2.3488
 7322SOL    HW233429   4.463   0.261   0.263  0.8850 -0.1345 -0.3402
 7323SOL     OW33430   1.934   4.303  15.681  0.4020 -0.1056 -0.5345
 7323SOL    HW133431   1.904   4.305  15.590  0.9962  1.5736 -0.6957
 7323SOL    HW233432   2.025   4.286  15.655  0.5156 -2.4589  1.4982
 7324SOL     OW33433   3.976   1.702   9.267  0.3188 -0.2134 -0.6301
 7324SOL    HW133434   3.927   1.665   9.340  1.4228 -1.3198 -0.4530
 7324SOL    HW233435   3.987   1.629   9.206 -2.4291 -0.7115 -0.5461
 7325SOL     OW33436   3.302   1.673  12.761  0.1435  0.4427  0.0663
 7325SOL    HW133437   3.380   1.664  12.707  0.6447 -1.8602  1.1654
 7325SOL    HW233438   3.275   1.765  12.756  0.5425  0.6792  2.0304
 7326SOL     OW33439   2.311   0.046   4.263 -0.3583 -0.1598  0.5310
 7326SOL    HW133440   2.378   0.010   4.205 -1.1404 -0.2631 -0.2981
 7326SOL    HW233441   2.272   0.116   4.211 -2.7970 -0.3620  2.0745
 7327SOL     OW33442   2.719   4.146  11.473 -0.4789  0.2722 -0.1330
 7327SOL    HW133443   2.723   4.071  11.533  0.8688  0.7370  0.3425
 7327SOL    HW233444   2.804   4.183  11.497  0.6810 -2.4140 -0.0164
 7328SOL     OW33445   3.083   1.707   4.370 -0.6993 -0.4733 -0.1739
 7328SOL    HW133446   3.170   1.673   4.391  0.4029  2.6445  0.4476
 7328SOL    HW233447   3.104   1.800   4.358  0.7475 -0.6641  0.9522
 7329SOL     OW33448   3.551   0.766   1.444  0.1239 -0.5427 -0.4874
 7329SOL    HW133449   3.616   0.782   1.512 -0.0294 -0.9107 -0.2518
 7329SOL    HW233450   3.529   0.673   1.451 -1.0005 -0.1273  1.3721
 7330SOL     OW33451   3.627   0.232   2.857  0.2015  0.2625  0.4765
 7330SOL    HW133452   3.655   0.296   2.922  0.2447  0.7221  0.0091
 7330SOL    HW233453   3.627   0.147   2.901 -0.7119 -0.9351 -1.7994
 7331SOL     OW33454   1.054   1.844  10.781  0.0724 -0.6454  0.3437
 7331SOL    HW133455   1.052   1.755  10.747 -0.1768 -1.1828  1.7495
 7331SOL    HW233456   1.127   1.832  10.841  0.4766  0.6132  0.1082
 7332SOL     OW33457   3.415   2.324   2.721 -0.1657  0.4624 -0.1063
 7332SOL    HW133458   3.422   2.297   2.629  1.2130  4.9212 -1.3127
 7332SOL    HW233459   3.383   2.246   2.766 -0.0010 -0.5666 -1.7802
 7333SOL     OW33460   2.181   1.368   1.947 -0.9332  0.2522  0.6619
 7333SOL    HW133461   2.134   1.393   1.867 -2.0841 -0.1530  1.2131
 7333SOL    HW233462   2.257   1.424   1.931 -2.1540  1.5702 -0.5052
 7334SOL     OW33463   3.371   0.129   6.139 -0.2442 -0.3358 -0.0173
 7334SOL    HW133464   3.347   0.037   6.128 -0.3349 -0.4183  0.8709
 7334SOL    HW233465   3.437   0.135   6.070 -0.6327  3.2243 -0.0578
 7335SOL     OW33466   2.914   4.351   2.708  0.3760  0.9599  1.4642
 7335SOL    HW133467   2.820   4.338   2.715  0.3675 -0.2864 -1.2279
 7335SOL    HW233468   2.944   4.266   2.740  0.0188 -0.3249 -1.6093
 7336SOL     OW33469   2.803   0.273   3.923 -0.2290  0.1395  0.1771
 7336SOL    HW133470   2.754   0.339   3.972  0.5755  0.9448 -0.0865
 7336SOL    HW233471   2.804   0.306   3.833 -2.4441 -0.1025  0.0756
 7337SOL     OW33472   3.867   3.558   5.959 -0.2922  0.1136 -0.0446
 7337SOL    HW133473   3.887   3.483   5.904  1.9297 -0.6334  1.7981
 7337SOL    HW233474   3.827   3.608   5.888  0.7331  0.6194 -0.2602
 7338SOL     OW33475   3.312   3.507   6.191  0.5188  0.0974  0.5957
 7338SOL    HW133476   3.401   3.543   6.193 -0.4045  2.5054 -1.3048
 7338SOL    HW233477   3.277   3.549   6.112 -0.1447 -0.3989  0.6300
 7339SOL     OW33478   2.794   3.919   7.267 -0.3710 -0.1827 -0.1289
 7339SOL    HW133479   2.861   3.985   7.251 -3.0519  2.7052  0.5032
 7339SOL    HW233480   2.715   3.972   7.254 -1.0093 -1.4936 -1.6826
 7340SOL     OW33481   3.044   2.189   5.599  0.1285 -0.4987  0.2161
 7340SOL    HW133482   3.005   2.231   5.675  0.2448  0.5203 -0.2843
 7340SOL    HW233483   3.105   2.126   5.637 -1.0538 -2.4615 -1.1238
 7341SOL     OW33484   4.462   0.829  16.042 -0.5342  0.2253  0.2010
 7341SOL    HW133485   4.418   0.904  16.002 -3.0834 -0.4675  1.7255
 7341SOL    HW233486   4.387   0.777  16.070 -1.0624 -0.6525 -2.8661
 7342SOL     OW33487   1.368   4.231  17.662  0.2520  0.4800  0.3046
 7342SOL    HW133488   1.403   4.162   0.016 -1.1249 -0.4208  0.0696
 7342SOL    HW233489   1.278   4.199  17.659  0.4773  0.0528 -1.9494
 7343SOL     OW33490   0.255   2.400  13.067  0.4759 -0.1230 -0.1425
 7343SOL    HW133491   0.244   2.306  13.078 -2.3679  0.4046  1.6043
 7343SOL    HW233492   0.346   2.420  13.088  0.2256  1.2319 -0.3502
 7344SOL     OW33493   2.392   0.123   6.966 -0.3103 -0.3116  0.6269
 7344SOL    HW133494   2.391   0.080   7.051 -1.1259 -0.4543  0.5477
 7344SOL    HW233495   2.473   0.093   6.926  0.5499 -0.2942  2.3916
 7345SOL     OW33496   3.589   3.583   2.163  0.4459  0.0902  0.0718
 7345SOL    HW133497   3.633   3.645   2.221  2.3333 -0.4570 -0.8019
 7345SOL    HW233498   3.646   3.578   2.087  0.5860 -0.0269  0.1852
 7346SOL     OW33499   0.069   2.031   5.020  0.1055 -0.0378 -0.3888
 7346SOL    HW133500   0.084   1.946   5.063 -1.7230  0.3844  1.0650
 7346SOL    HW233501   0.103   2.092   5.085 -0.6466 -0.8538  0.7616
 7347SOL     OW33502   2.491   4.138  10.939 -0.0572  0.0892  0.3395
 7347SOL    HW133503   2.430   4.069  10.965  1.3659 -1.4260 -0.3490
 7347SOL    HW233504   2.476   4.138  10.845 -0.2952  0.9411  0.3765
 7348SOL     OW33505   4.297   2.792  15.986  0.5778 -0.2712  0.0759
 7348SOL    HW133506   4.296   2.704  15.950 -2.8261 -0.1195 -0.1251
 7348SOL    HW233507   4.313   2.758  16.074 -1.3960 -1.6227 -0.1134
 7349SOL     OW33508   2.745   1.082   2.972 -0.3562  0.1430  0.2451
 7349SOL    HW133509   2.772   1.169   2.944 -0.0842  0.0132  0.1044
 7349SOL    HW233510   2.785   1.028   2.903 -0.5567 -0.7657  0.8286
 7350SOL     OW33511   1.878   3.931   2.717  0.3337 -0.2253  0.5350
 7350SOL    HW133512   1.953   3.888   2.759 -0.5362 -0.1219  2.2195
 7350SOL    HW233513   1.841   3.857   2.669  2.9740 -1.0120 -0.2773
 7351SOL     OW33514   1.585   1.158   8.386 -0.4037 -1.0436 -0.4961
 7351SOL    HW133515   1.529   1.235   8.394  0.0580 -0.8107  0.5377
 7351SOL    HW233516   1.573   1.119   8.473 -0.1291 -1.1614 -0.5130
 7352SOL     OW33517   3.402   0.311   4.235 -0.0606 -0.0294 -0.0927
 7352SOL    HW133518   3.475   0.248   4.231 -0.6011 -0.6661  0.0500
 7352SOL    HW233519   3.333   0.255   4.201  1.4338 -1.5530 -0.6521
 7353SOL     OW33520   2.090   3.658   4.354  0.2718  0.2101 -0.1365
 7353SOL    HW133521   2.122   3.677   4.442 -2.4929  1.5416  0.5797
 7353SOL    HW233522   2.021   3.724   4.344  1.4333  1.1425 -2.0618
 7354SOL     OW33523   1.627   1.479   9.013  0.4963 -0.4406 -0.6152
 7354SOL    HW133524   1.543   1.499   8.970  0.2101 -0.1870  0.0640
 7354SOL    HW233525   1.610   1.486   9.106 -0.0863 -1.3451 -0.6485
 7355SOL     OW33526   4.234   0.186   3.866  0.1723  0.1821 -0.4043
 7355SOL    HW133527   4.322   0.223   3.880  0.3604 -0.2791 -0.3743
 7355SOL    HW233528   4.212   0.247   3.795 -0.7396  1.9600  1.3965
 7356SOL     OW33529   1.551   3.632   6.359 -0.0268  0.1207 -0.0716
 7356SOL    HW133530   1.501   3.594   6.431  1.5482 -0.8142  0.5243
 7356SOL    HW233531   1.580   3.556   6.309  0.1107 -0.0734  0.3036
 7357SOL     OW33532   2.270   3.829  12.401 -0.0075 -0.5640  0.5021
 7357SOL    HW133533   2.239   3.763  12.462 -1.1924  1.2791  1.9026
 7357SOL    HW233534   2.360   3.834  12.433 -0.4581 -0.6375  1.7719
 7358SOL     OW33535   1.142   0.565   7.975  0.4399  1.2338  0.2789
 7358SOL    HW133536   1.159   0.496   7.912 -0.1079  2.3099 -1.0498
 7358SOL    HW233537   1.049   0.559   7.998  0.4274  2.5044  0.6019
 7359SOL     OW33538   1.155   2.464   6.435  0.1017 -0.4192 -0.8763
 7359SOL    HW133539   1.214   2.392   6.410  1.9438  0.3777  1.1742
 7359SOL    HW233540   1.165   2.444   6.528  0.0171  0.2277 -0.7299
 7360SOL     OW33541   3.054   4.239  13.902 -0.2305 -0.2602 -0.2108
 7360SOL    HW133542   3.065   4.233  13.997  1.3388 -2.1666 -0.5102
 7360SOL    HW233543   2.966   4.275  13.893  0.5129  2.5828  3.6760
 7361SOL     OW33544   2.903   3.699   0.221 -0.2401  0.5095  0.5380
 7361SOL    HW133545   2.994   3.685   0.194  0.2176  0.2206  2.2298
 7361SOL    HW233546   2.911   3.676   0.313 -1.1125 -0.7659  0.2930
 7362SOL     OW33547   2.008   0.635   4.504  0.0304 -0.5482  0.2196
 7362SOL    HW133548   1.960   0.675   4.577  1.5405 -1.8435  1.9367
 7362SOL    HW233549   2.064   0.707   4.473 -0.6633 -0.6115 -1.1791
 7363SOL     OW33550   3.010   1.804   8.227  0.1854  0.0814 -0.6772
 7363SOL    HW133551   3.013   1.709   8.219  0.7732 -0.0112  0.6523
 7363SOL    HW233552   3.060   1.821   8.148 -0.0222 -0.8454 -1.0033
 7364SOL     OW33553   2.175   1.442   4.811 -0.0312  0.6577  0.7086
 7364SOL    HW133554   2.225   1.361   4.800  0.2242  0.9546 -0.3920
 7364SOL    HW233555   2.094   1.407   4.774 -0.0493  1.4879 -0.0443
 7365SOL     OW33556   1.185   3.106  16.445 -0.4640  0.3589  0.1760
 7365SOL    HW133557   1.278   3.088  16.458 -0.4879  0.2255  0.1711
 7365SOL    HW233558   1.185   3.175  16.379 -0.1924 -0.7050 -0.9463
 7366SOL     OW33559   0.207   1.863   4.271  0.3080  0.3232 -0.6136
 7366SOL    HW133560   0.246   1.801   4.210  1.5477 -0.4228  0.9468
 7366SOL    HW233561   0.133   1.806   4.294  0.9155 -0.2401 -0.0563
 7367SOL     OW33562   3.611   4.521   4.235  0.3676  0.8878  0.4119
 7367SOL    HW133563   3.693   4.563   4.261  0.9756  0.3702 -0.6654
 7367SOL    HW233564   3.558   4.555   4.307  0.5956  0.1080  0.9521
 7368SOL     OW33565   1.005   0.398   3.179 -0.4086  0.4024 -0.8470
 7368SOL    HW133566   1.071   0.418   3.244  0.1968 -2.0343 -0.6853
 7368SOL    HW233567   1.063   0.343   3.125 -1.6085 -2.0823  0.4132
 7369SOL     OW33568   2.387   1.711   5.374 -0.1382 -0.4057  0.4028
 7369SOL    HW133569   2.404   1.633   5.426  2.6768 -0.3056 -0.4108
 7369SOL    HW233570   2.315   1.755   5.420 -2.2033 -1.4058 -1.8877
 7370SOL     OW33571   2.708   1.966   3.840  0.5291 -0.1941 -0.4330
 7370SOL    HW133572   2.792   1.943   3.799  1.9660 -0.3514  2.5626
 7370SOL    HW233573   2.678   1.881   3.873  1.3519  0.3995  1.8775
 7371SOL     OW33574   2.686   3.546   2.752  0.1270  0.1453 -0.0456
 7371SOL    HW133575   2.660   3.602   2.679  1.9833  1.7458  0.5591
 7371SOL    HW233576   2.616   3.480   2.742 -1.3833  1.4407  1.9973
 7372SOL     OW33577   0.762   1.952   0.807 -0.1398 -0.4039  0.7179
 7372SOL    HW133578   0.716   1.947   0.724  0.0925  2.2525  0.4499
 7372SOL    HW233579   0.719   2.031   0.839  3.0730  0.9071  1.7449
 7373SOL     OW33580   2.322   2.007   8.554  0.0407  0.2820  0.2217
 7373SOL    HW133581   2.406   2.052   8.553 -0.6811  1.6572  1.5180
 7373SOL    HW233582   2.267   2.060   8.495  1.4524  0.8698 -0.5596
 7374SOL     OW33583   0.350   2.320   7.868  0.2575 -0.3354  0.1516
 7374SOL    HW133584   0.386   2.235   7.843 -1.6445 -0.8651 -0.8365
 7374SOL    HW233585   0.258   2.294   7.875 -0.0559  0.8000  0.1860
 7375SOL     OW33586   0.209   1.606   6.810 -0.3980  0.2271  0.3783
 7375SOL    HW133587   0.171   1.607   6.722  1.6038  0.4673 -0.5046
 7375SOL    HW233588   0.168   1.530   6.851  0.0361 -0.4014 -0.3501
 7376SOL     OW33589   2.954   3.012   6.515  0.4943 -0.0202 -0.3357
 7376SOL    HW133590   2.905   3.059   6.582  0.8580 -1.5757  1.0130
 7376SOL    HW233591   2.946   3.077   6.445 -0.4834  1.2640  0.9746
 7377SOL     OW33592   0.368   2.910   5.737 -0.0003  0.0136 -0.2596
 7377SOL    HW133593   0.275   2.889   5.740 -0.0348  0.0596 -1.1554
 7377SOL    HW233594   0.402   2.844   5.798  0.9324  0.6402 -0.0954
 7378SOL     OW33595   1.869   0.209  13.793 -0.1931  0.3045  0.2377
 7378SOL    HW133596   1.794   0.245  13.746 -0.7527  0.1683  1.0256
 7378SOL    HW233597   1.860   0.243  13.882  4.3309 -0.2912  0.9142
 7379SOL     OW33598   2.495   0.947  14.666 -0.3245 -0.2773 -0.1740
 7379SOL    HW133599   2.566   0.953  14.603  0.8974  1.3510  1.3673
 7379SOL    HW233600   2.445   1.028  14.656  0.3934  0.1705 -0.1098
 7380SOL     OW33601   4.498   0.048   7.499  0.1366 -0.2564  0.1940
 7380SOL    HW133602   4.483   0.015   7.411 -3.8514 -4.1111  2.3370
 7380SOL    HW233603   4.442   4.708   7.541 -0.7689  0.8433  0.6842
 7381SOL     OW33604   1.144   4.343   6.850  0.4008  0.2302 -0.2134
 7381SOL    HW133605   1.211   4.280   6.822 -1.9767 -2.7366  0.6889
 7381SOL    HW233606   1.146   4.324   6.944 -0.5876 -0.3291 -0.3082
 7382SOL     OW33607   3.543   2.860  11.708 -0.1982 -0.1296 -0.4357
 7382SOL    HW133608   3.624   2.850  11.757  1.5658 -1.2827 -3.5602
 7382SOL    HW233609   3.510   2.947  11.729  0.4024 -0.3479  1.4005
 7383SOL     OW33610   2.263   3.557   4.048  0.2024 -0.2757  0.5399
 7383SOL    HW133611   2.199   3.486   4.041 -0.2494  0.6598 -5.2852
 7383SOL    HW233612   2.227   3.623   3.989  0.2432  0.0562  0.8906
 7384SOL     OW33613   4.290   1.634  15.561  0.7405  0.0421  0.0464
 7384SOL    HW133614   4.337   1.604  15.483 -1.9438 -0.1018 -1.5078
 7384SOL    HW233615   4.337   1.704  15.606 -2.1369  1.9533  0.0681
 7385SOL     OW33616   3.635   4.342   3.721  0.0156  0.4490 -0.3263
 7385SOL    HW133617   3.709   4.361   3.778  0.8307  0.7409 -1.4965
 7385SOL    HW233618   3.572   4.394   3.771  0.3760 -0.8287  1.4533
 7386SOL     OW33619   2.790   3.129   1.595  0.5942  0.0355  0.2202
 7386SOL    HW133620   2.706   3.140   1.552  1.0460  2.5742 -0.0043
 7386SOL    HW233621   2.758   3.099   1.680 -1.0352  0.7744 -0.1345
 7387SOL     OW33622   0.981   3.876  17.179 -0.2810  0.1355 -0.2117
 7387SOL    HW133623   0.975   3.951  17.119  1.3977  1.0215  0.7352
 7387SOL    HW233624   0.990   3.936  17.254  0.2919  1.4079 -1.2999
 7388SOL     OW33625   3.299   1.206   4.211 -0.0675 -0.2719 -0.1463
 7388SOL    HW133626   3.261   1.128   4.172 -0.3771  0.0800 -0.5395
 7388SOL    HW233627   3.221   1.261   4.224  0.7980  0.4477  2.0754
 7389SOL     OW33628   4.614   2.823   2.399  0.1261 -0.0787 -0.0918
 7389SOL    HW133629   4.701   2.861   2.409  0.8218 -1.3384 -1.3478
 7389SOL    HW233630   4.559   2.882   2.451  2.2045  1.5467  0.2865
 7390SOL     OW33631   0.209   1.481  11.487 -0.4902  0.4971  0.1128
 7390SOL    HW133632   0.147   1.453  11.420  0.4271  2.0340 -1.3879
 7390SOL    HW233633   0.191   1.575  11.476  1.3269  0.7598 -0.5129
 7391SOL     OW33634   2.424   2.090   7.228 -0.3158 -0.4049  0.0448
 7391SOL    HW133635   2.334   2.060   7.241 -0.2587 -0.3462  0.5932
 7391SOL    HW233636   2.430   2.158   7.162 -0.4773 -0.3503  0.0867
 7392SOL     OW33637   2.170   4.457   5.744  0.7423 -0.5763  0.1581
 7392SOL    HW133638   2.141   4.531   5.690  0.7058 -2.0846 -1.8602
 7392SOL    HW233639   2.243   4.491   5.796  1.7391 -1.1433 -0.8886
 7393SOL     OW33640   1.220   0.154   2.226  0.6963 -0.0393 -0.2783
 7393SOL    HW133641   1.313   0.145   2.248  1.1387  1.1334 -1.6725
 7393SOL    HW233642   1.215   0.229   2.167 -0.9811 -0.8618 -1.1770
 7394SOL     OW33643   2.726   4.112   3.260  0.5754 -0.6005 -0.2142
 7394SOL    HW133644   2.807   4.159   3.243  1.6385 -1.2529  3.0568
 7394SOL    HW233645   2.753   4.021   3.275 -1.9028 -1.5334 -1.4188
 7395SOL     OW33646   2.197   2.127   3.187  0.6528  0.2765 -0.6809
 7395SOL    HW133647   2.178   2.037   3.214  0.6474  0.2077 -0.9149
 7395SOL    HW233648   2.114   2.162   3.218  1.3556  1.8990 -0.6568
 7396SOL     OW33649   1.539   2.211   6.947  0.2131 -0.1500 -0.0363
 7396SOL    HW133650   1.457   2.164   6.928  0.4580 -0.5003 -0.2241
 7396SOL    HW233651   1.609   2.146   6.940 -0.3089 -0.8524  1.1175
 7397SOL     OW33652   2.224   4.564   2.763 -0.1369  0.0514  0.5761
 7397SOL    HW133653   2.224   4.651   2.803  1.1244  0.2286  0.2076
 7397SOL    HW233654   2.289   4.522   2.819 -0.4097 -1.1078  0.0100
 7398SOL     OW33655   2.435   2.578   0.349 -0.1506 -0.4264 -1.0104
 7398SOL    HW133656   2.507   2.596   0.410  0.6025  3.6978 -3.1257
 7398SOL    HW233657   2.358   2.596   0.403 -0.1137 -0.4651 -0.9441
 7399SOL     OW33658   4.074   2.672  11.780  0.0078  0.3283  0.2328
 7399SOL    HW133659   4.107   2.755  11.746  3.2487 -0.4869  1.3256
 7399SOL    HW233660   4.155   2.638  11.819 -0.0951 -1.6583 -1.3139
 7400SOL     OW33661   4.366   2.502   8.910  0.0571 -0.1898 -0.5691
 7400SOL    HW133662   4.400   2.415   8.931 -0.2184 -0.2329 -0.3120
 7400SOL    HW233663   4.404   2.553   8.982 -0.9802  2.0880 -1.6173
 7401SOL     OW33664   0.061   0.966  15.938 -0.2864  0.2522  0.3064
 7401SOL    HW133665   0.018   1.051  15.938 -1.8647 -0.5479  1.6699
 7401SOL    HW233666   0.070   0.947  15.844 -0.3324  1.7740 -0.0048
 7402SOL     OW33667   1.712   3.675   4.331  0.5463  0.0429  0.2410
 7402SOL    HW133668   1.767   3.746   4.364  2.4341 -1.3362  0.0905
 7402SOL    HW233669   1.627   3.691   4.372  1.0703 -0.2416  1.4511
 7403SOL     OW33670   3.504   0.171   5.909  0.1411  0.4160  0.2030
 7403SOL    HW133671   3.496   0.206   5.820  2.8239 -1.2486 -0.6556
 7403SOL    HW233672   3.539   0.248   5.954  0.2495  1.0883 -1.0208
 7404SOL     OW33673   0.129   2.285   1.045 -0.1587  0.0188 -0.0139
 7404SOL    HW133674   0.095   2.374   1.031  0.6769  0.5186  1.1282
 7404SOL    HW233675   0.059   2.229   1.011 -1.5789  2.3229 -0.8874
 7405SOL     OW33676   4.643   2.146   4.529 -0.3605  0.4533 -0.0595
 7405SOL    HW133677   4.709   2.133   4.598  2.0259 -0.9690 -2.6233
 7405SOL    HW233678   4.580   2.207   4.567 -0.0582  1.0141 -0.4552
 7406SOL     OW33679   4.305   2.762   8.969 -0.0256  0.3660  0.0435
 7406SOL    HW133680   4.313   2.857   8.961  0.2378  0.3281 -0.1737
 7406SOL    HW233681   4.323   2.723   8.883 -0.5188 -0.2590  0.2307
 7407SOL     OW33682   1.444   4.705   0.796  0.2378  0.2611  0.3769
 7407SOL    HW133683   1.466   0.070   0.820 -3.7302  1.7019 -1.4166
 7407SOL    HW233684   1.493   4.645   0.852  2.0920  0.0551 -1.4300
 7408SOL     OW33685   0.844   4.212   5.491 -0.1103  0.2047 -0.4777
 7408SOL    HW133686   0.796   4.214   5.573 -2.8019 -5.0069 -1.9306
 7408SOL    HW233687   0.794   4.165   5.424 -0.1143 -0.5404  0.0494
 7409SOL     OW33688   4.556   2.145  17.535  0.3191 -0.4928  0.2640
 7409SOL    HW133689   4.477   2.102  17.569  0.0185 -0.1157  0.0439
 7409SOL    HW233690   4.589   2.075  17.479  0.6107 -0.9606  1.0271
 7410SOL     OW33691   1.650   2.743   8.400 -0.7395 -0.4205 -0.3324
 7410SOL    HW133692   1.562   2.768   8.429  0.6055  1.2714  2.2200
 7410SOL    HW233693   1.644   2.778   8.311 -0.6858 -0.8870 -0.5234
 7411SOL     OW33694   0.248   0.312  15.804  0.1028  0.1691  0.1965
 7411SOL    HW133695   0.191   0.242  15.834  0.7805 -0.7580 -0.6748
 7411SOL    HW233696   0.188   0.361  15.747 -1.1347 -2.6851 -0.9375
 7412SOL     OW33697   3.417   2.887   3.956  0.2535  0.5723  0.0463
 7412SOL    HW133698   3.386   2.923   4.039  4.7147  1.6794  1.2068
 7412SOL    HW233699   3.421   2.967   3.904  0.2117 -0.1472 -1.0737
 7413SOL     OW33700   2.893   0.810   8.718 -0.0123  0.4572 -0.2869
 7413SOL    HW133701   2.976   0.800   8.765 -0.7375  0.3962  0.9800
 7413SOL    HW233702   2.867   0.888   8.767 -0.0816 -0.4648  1.1376
 7414SOL     OW33703   1.737   1.851  12.911  0.3826  0.7697  0.3636
 7414SOL    HW133704   1.826   1.867  12.940 -0.9206  3.9066  2.6819
 7414SOL    HW233705   1.715   1.942  12.890  0.4337  0.5665 -0.5760
 7415SOL     OW33706   4.099   3.411   2.758 -0.0438  0.0074  0.8224
 7415SOL    HW133707   4.086   3.504   2.776  1.3716  0.1347  1.1744
 7415SOL    HW233708   4.071   3.387   2.847  3.0130  2.9978  2.5652
 7416SOL     OW33709   0.607   4.032   2.866 -0.0025  0.0956 -0.2016
 7416SOL    HW133710   0.634   4.098   2.930  0.2686 -0.9768  0.7698
 7416SOL    HW233711   0.587   3.959   2.924 -0.8059 -0.4937 -1.2208
 7417SOL     OW33712   3.196   0.279   7.747 -0.8941  0.3132 -0.5422
 7417SOL    HW133713   3.253   0.204   7.727  1.0440  1.7478 -0.4402
 7417SOL    HW233714   3.203   0.343   7.676  2.8472  0.8977  0.3057
 7418SOL     OW33715   1.067   4.681   6.143  0.0558 -0.4513  0.3253
 7418SOL    HW133716   1.050   0.033   6.197 -2.2416  0.1120 -1.2226
 7418SOL    HW233717   1.102   4.723   6.065  0.0316  1.9505  1.6048
 7419SOL     OW33718   0.114   1.673  15.130 -0.4510  0.0026  0.2857
 7419SOL    HW133719   0.145   1.607  15.067 -1.1329 -0.9798  0.9887
 7419SOL    HW233720   0.055   1.732  15.082 -2.3406 -0.1628  2.4439
 7420SOL     OW33721   3.069   0.374   8.971  0.1713  0.7028  0.7597
 7420SOL    HW133722   3.091   0.317   8.897  0.5444 -0.0482  1.4324
 7420SOL    HW233723   3.129   0.345   9.041  0.1247  0.0997  0.5546
 7421SOL     OW33724   2.474   2.026   4.021 -0.3581  0.3110  0.5083
 7421SOL    HW133725   2.516   1.943   4.044  0.4067  1.3887  2.9967
 7421SOL    HW233726   2.534   2.048   3.950  0.9055 -0.7399  1.2702
 7422SOL     OW33727   0.833   4.346   0.477  0.0281 -0.3931  0.5389
 7422SOL    HW133728   0.908   4.333   0.420 -1.2759 -4.3215 -0.3223
 7422SOL    HW233729   0.813   4.253   0.489  0.0153 -0.5582 -0.8271
 7423SOL     OW33730   1.411   4.530   7.616  0.4899  0.4421 -0.4810
 7423SOL    HW133731   1.496   4.570   7.634  0.8646 -1.1820  1.4142
 7423SOL    HW233732   1.431   4.497   7.528  0.5248 -0.6991 -0.0515
 7424SOL     OW33733   4.289   4.351   5.064 -0.1706 -0.6479  0.4790
 7424SOL    HW133734   4.262   4.406   4.991  1.0995 -1.2634 -0.4623
 7424SOL    HW233735   4.368   4.398   5.088 -1.4615  0.4840  2.5325
 7425SOL     OW33736   3.343   1.349   4.486  0.4174  0.4450 -0.2147
 7425SOL    HW133737   3.308   1.260   4.489  1.7316 -0.0776 -0.2206
 7425SOL    HW233738   3.375   1.348   4.576 -1.8919  0.3893  0.6008
 7426SOL     OW33739   3.884   4.465   8.972  0.1008 -0.2339 -0.2438
 7426SOL    HW133740   3.829   4.534   8.934 -0.1091 -0.7418 -0.8752
 7426SOL    HW233741   3.821   4.432   9.036  0.7826 -1.3555 -0.1570
 7427SOL     OW33742   1.048   3.767   0.468  0.4670 -0.4525 -0.2912
 7427SOL    HW133743   1.052   3.850   0.421  0.8628  0.4271  1.3271
 7427SOL    HW233744   1.078   3.705   0.401 -0.0847  0.6860 -1.5875
 7428SOL     OW33745   4.512   1.236   3.060 -0.3139  0.0878 -0.7657
 7428SOL    HW133746   4.482   1.146   3.073  1.9622 -0.5215  0.2209
 7428SOL    HW233747   4.433   1.286   3.083 -0.5648 -1.0508  0.8709
 7429SOL     OW33748   0.967   1.326  10.388  0.6516  0.5720 -0.3243
 7429SOL    HW133749   0.946   1.331  10.481  0.3610  0.8476 -0.4033
 7429SOL    HW233750   0.930   1.241  10.366 -0.9765  0.9765  0.8998
 7430SOL     OW33751   2.717   3.023   9.695 -0.2492 -0.4321 -0.7412
 7430SOL    HW133752   2.710   2.943   9.747  0.9628 -1.3626 -2.0358
 7430SOL    HW233753   2.652   3.008   9.627 -0.4933 -0.1365 -0.5737
 7431SOL     OW33754   3.245   4.598   2.589 -0.2602  0.0659  0.2049
 7431SOL    HW133755   3.266   4.509   2.618 -0.9977  0.2886  1.3984
 7431SOL    HW233756   3.254   4.646   2.671  1.8512 -0.1614  0.1140
 7432SOL     OW33757   0.079   1.433  11.058 -0.0712 -0.5306  0.4945
 7432SOL    HW133758   0.069   1.518  11.102  0.1345 -1.2972  2.0496
 7432SOL    HW233759   4.715   1.429  11.024 -0.6887  1.3365  1.8401
 7433SOL     OW33760   2.640   1.032   5.238  0.0071  0.6897 -0.1339
 7433SOL    HW133761   2.682   1.107   5.281  1.9038  0.0065 -0.7584
 7433SOL    HW233762   2.553   1.030   5.276 -0.0331  0.8762 -0.2160
 7434SOL     OW33763   1.407   0.919   3.143 -0.8216  0.8432 -0.0112
 7434SOL    HW133764   1.393   1.013   3.148 -0.3673  0.8481  1.2292
 7434SOL    HW233765   1.412   0.892   3.235 -0.4552  3.4315  0.7267
 7435SOL     OW33766   0.683   0.910   2.730  0.6955 -0.3148  0.0781
 7435SOL    HW133767   0.601   0.877   2.767 -0.1979  1.2818 -0.5120
 7435SOL    HW233768   0.749   0.891   2.797  0.3462 -3.0965 -0.3598
 7436SOL     OW33769   2.861   3.449   6.047 -0.2460 -0.8735  0.0208
 7436SOL    HW133770   2.906   3.380   5.999  1.5360  0.3913 -0.1150
 7436SOL    HW233771   2.777   3.413   6.078  0.2812 -0.7669  1.5873
 7437SOL     OW33772   1.251   2.702  14.589 -0.5414 -0.4026  0.4573
 7437SOL    HW133773   1.217   2.618  14.558  0.4889 -1.6611  2.7238
 7437SOL    HW233774   1.182   2.761  14.557  1.0385  1.0157 -0.3470
 7438SOL     OW33775   4.437   3.524  16.559  0.2332  0.1332 -0.3039
 7438SOL    HW133776   4.498   3.450  16.563 -0.5158 -0.4725 -0.0189
 7438SOL    HW233777   4.372   3.482  16.503  0.2471 -0.3634  0.0462
 7439SOL     OW33778   2.677   0.061   3.318  0.0379 -0.2252 -0.2119
 7439SOL    HW133779   2.637   4.704   3.346 -0.5534 -0.7996 -2.7481
 7439SOL    HW233780   2.615   0.095   3.253  2.0554  1.5552 -1.2140
 7440SOL     OW33781   4.610   1.448  12.884  0.7069 -0.3449 -0.6155
 7440SOL    HW133782   4.542   1.497  12.837  0.0850 -2.1101 -1.5323
 7440SOL    HW233783   4.559   1.402  12.951  1.9619 -0.5549  0.2044
 7441SOL     OW33784   0.521   1.003   1.011 -0.0938  0.5820  0.0463
 7441SOL    HW133785   0.504   1.075   1.072 -0.7388  0.6159 -0.1738
 7441SOL    HW233786   0.447   1.012   0.951 -1.1286 -1.7466  0.9724
 7442SOL     OW33787   4.485   3.962   2.156  0.5941 -0.3750  0.5275
 7442SOL    HW133788   4.413   4.008   2.112  0.6798 -0.9953 -0.2567
 7442SOL    HW233789   4.531   3.921   2.082 -0.3795  0.5403 -0.5918
 7443SOL     OW33790   0.732   2.384   8.656 -0.2627 -0.5224  0.1138
 7443SOL    HW133791   0.695   2.314   8.601  0.0095  1.3860 -2.4842
 7443SOL    HW233792   0.718   2.352   8.745  0.3164  0.8864  0.7040
 7444SOL     OW33793   1.323   2.704   2.089 -0.1180  0.4599  0.2344
 7444SOL    HW133794   1.296   2.656   2.011 -1.1725  0.7132  0.4559
 7444SOL    HW233795   1.239   2.747   2.102  0.0113  1.3710 -2.0101
 7445SOL     OW33796   0.598   2.689   9.203 -0.1776 -0.1523 -0.0766
 7445SOL    HW133797   0.572   2.737   9.124 -0.3867  1.3708  0.9175
 7445SOL    HW233798   0.676   2.638   9.178 -0.4319 -0.1335 -0.8984
 7446SOL     OW33799   0.195   4.667   0.107  0.1128  1.0443 -0.3779
 7446SOL    HW133800   0.285   4.699   0.102  0.1604  0.9305 -0.2352
 7446SOL    HW233801   0.150   0.025   0.090 -2.3056 -0.3776 -0.8316
 7447SOL     OW33802   1.170   1.171   5.157 -1.1272 -0.2318 -0.0196
 7447SOL    HW133803   1.170   1.101   5.092  0.7085  0.2935 -0.5927
 7447SOL    HW233804   1.265   1.182   5.167 -1.0109  0.3087 -1.7793
 7448SOL     OW33805   3.366   0.703   7.505 -0.2191 -0.2283  0.3162
 7448SOL    HW133806   3.391   0.785   7.462  1.1178 -0.6913  0.2037
 7448SOL    HW233807   3.389   0.634   7.444 -0.8666 -1.1125  1.0659
 7449SOL     OW33808   4.355   4.438  17.404  0.3069 -0.4849  0.6854
 7449SOL    HW133809   4.433   4.492  17.394  0.8686 -1.4125  0.0279
 7449SOL    HW233810   4.391   4.349  17.400 -0.2879 -0.8608  3.1973
 7450SOL     OW33811   3.527   1.544   2.651  0.1373 -0.2003  0.3482
 7450SOL    HW133812   3.539   1.547   2.556 -0.5018 -0.0158  0.2661
 7450SOL    HW233813   3.619   1.553   2.676 -0.1828 -1.6617  2.0743
 7451SOL     OW33814   4.082   0.971   0.812  0.1316 -0.4074  0.1362
 7451SOL    HW133815   4.010   0.916   0.844 -1.2840  0.1404 -2.1161
 7451SOL    HW233816   4.157   0.920   0.844 -0.4208 -1.8105 -0.8032
 7452SOL     OW33817   3.386   2.803   8.255 -0.5153 -0.0327  0.5592
 7452SOL    HW133818   3.480   2.812   8.242 -0.4839 -1.1090  0.0182
 7452SOL    HW233819   3.373   2.848   8.339 -1.4488  3.7957 -1.6375
 7453SOL     OW33820   0.842   0.430   6.812 -0.2162 -0.1253 -0.4456
 7453SOL    HW133821   0.918   0.486   6.829 -0.3412 -0.5456  1.4856
 7453SOL    HW233822   0.849   0.369   6.885 -0.6281  0.8129  0.3645
 7454SOL     OW33823   1.213   1.588   8.221  0.2369  0.2046  0.9279
 7454SOL    HW133824   1.218   1.654   8.152 -1.3867  0.5765  1.1884
 7454SOL    HW233825   1.142   1.533   8.190  2.3522 -2.9021  1.6333
 7455SOL     OW33826   2.036   2.488  13.216 -0.2230  0.0559 -0.0932
 7455SOL    HW133827   1.943   2.472  13.200 -0.4185  1.1987 -0.1019
 7455SOL    HW233828   2.062   2.421  13.279  0.4271  1.2057  0.8634
 7456SOL     OW33829   0.688   1.625   4.775 -0.0830 -0.2104 -0.1915
 7456SOL    HW133830   0.597   1.597   4.782 -0.6198  0.9597 -2.4173
 7456SOL    HW233831   0.732   1.544   4.800  0.3535  0.3605  0.9190
 7457SOL     OW33832   2.570   3.775   1.582 -0.2888 -0.0457  0.2809
 7457SOL    HW133833   2.655   3.803   1.616  0.2648 -1.3308 -0.0425
 7457SOL    HW233834   2.560   3.843   1.516  0.4421  0.1137  0.3369
 7458SOL     OW33835   0.436   0.641   2.004 -0.1726  0.1521 -0.1117
 7458SOL    HW133836   0.517   0.646   1.953  0.1940  1.8325  0.6109
 7458SOL    HW233837   0.379   0.609   1.934 -2.0198  1.5447  0.7544
 7459SOL     OW33838   4.122   1.557   2.754 -0.0881 -0.7573 -0.0788
 7459SOL    HW133839   4.066   1.479   2.755 -0.7494 -0.3318 -2.7528
 7459SOL    HW233840   4.062   1.621   2.792 -1.6643 -1.2060 -1.7670
 7460SOL     OW33841   1.122   1.093  13.058 -0.1809 -0.3096  0.7293
 7460SOL    HW133842   1.213   1.086  13.028  0.1159 -3.2863  2.3354
 7460SOL    HW233843   1.068   1.113  12.981  0.6079 -0.2869  0.1755
 7461SOL     OW33844   1.526   4.212   2.776 -0.5118  0.0628 -0.3936
 7461SOL    HW133845   1.526   4.129   2.824  1.6144  0.4814  0.3638
 7461SOL    HW233846   1.506   4.172   2.691 -0.8528 -1.0216  0.1920
 7462SOL     OW33847   0.273   3.821   1.207  0.1152  0.3996  0.1760
 7462SOL    HW133848   0.357   3.845   1.167 -0.8735 -0.0115 -2.1212
 7462SOL    HW233849   0.242   3.777   1.129  0.6170  0.7314 -0.2144
 7463SOL     OW33850   3.676   2.216   3.301 -0.5669 -0.0888  0.1030
 7463SOL    HW133851   3.759   2.207   3.348 -1.4857 -1.7566  1.4318
 7463SOL    HW233852   3.630   2.146   3.347 -0.9137 -1.1335 -1.8605
 7464SOL     OW33853   0.431   1.674  12.487 -0.3315 -0.1511  0.9598
 7464SOL    HW133854   0.526   1.674  12.494 -0.1825 -0.7768 -1.2041
 7464SOL    HW233855   0.420   1.623  12.407 -0.1036  1.6486 -0.2116
 7465SOL     OW33856   2.429   0.452  12.629  0.4735  0.0535 -0.4013
 7465SOL    HW133857   2.451   0.460  12.722 -1.2290 -0.6305  0.0572
 7465SOL    HW233858   2.341   0.416  12.638  0.0793  0.9427 -0.6790
 7466SOL     OW33859   3.564   0.753   0.357 -0.0478 -0.7501  0.5651
 7466SOL    HW133860   3.612   0.721   0.434 -0.9044 -1.4498  0.8025
 7466SOL    HW233861   3.485   0.700   0.354 -0.8149  0.3607  1.4383
 7467SOL     OW33862   2.331   1.036  16.877 -0.1377  0.1882 -0.0225
 7467SOL    HW133863   2.312   1.096  16.805  0.5176 -0.2251 -0.5397
 7467SOL    HW233864   2.423   1.018  16.857  0.0654 -0.0979  1.1537
 7468SOL     OW33865   0.454   3.642   6.308  0.0861  0.0575 -0.6101
 7468SOL    HW133866   0.466   3.706   6.378  0.6550  0.6377 -1.2406
 7468SOL    HW233867   0.494   3.562   6.342 -1.1113  0.4734  1.7697
 7469SOL     OW33868   2.582   3.476   3.955  0.9093  0.1373  0.5296
 7469SOL    HW133869   2.565   3.428   3.874  1.9709 -2.4923  1.8480
 7469SOL    HW233870   2.544   3.562   3.939 -0.2853 -0.7248 -1.3138
 7470SOL     OW33871   2.862   0.730   2.330 -0.2079  0.4030  0.2893
 7470SOL    HW133872   2.847   0.653   2.386  0.1491  0.4205  0.4105
 7470SOL    HW233873   2.918   0.688   2.265  0.5930  0.5062  0.9191
 7471SOL     OW33874   2.103   0.233   4.407  0.1694 -0.1717 -0.3344
 7471SOL    HW133875   2.122   0.186   4.489  1.1784 -1.4731 -1.3162
 7471SOL    HW233876   2.030   0.291   4.430  1.6430  1.7294 -0.4589
 7472SOL     OW33877   1.970   3.393   8.946 -0.3189 -0.1759 -0.1204
 7472SOL    HW133878   1.930   3.348   9.021  0.0860  1.0411  0.8171
 7472SOL    HW233879   1.930   3.334   8.882  2.1771 -1.3465 -0.5738
 7473SOL     OW33880   0.945   1.440   4.565  0.1189 -0.4221  0.6625
 7473SOL    HW133881   0.887   1.380   4.613  1.3942 -1.6233  0.6816
 7473SOL    HW233882   0.901   1.457   4.482  0.2104 -1.4457  0.4121
 7474SOL     OW33883   0.352   0.098  14.487  0.6584 -0.6290 -0.1860
 7474SOL    HW133884   0.330   0.187  14.514 -0.9110 -1.2310  0.5290
 7474SOL    HW233885   0.410   0.115  14.413  1.7081 -2.0649  0.3136
 7475SOL     OW33886   4.361   4.493  10.160 -0.7020  0.2060 -0.1961
 7475SOL    HW133887   4.325   4.492  10.071 -3.8565 -1.0112  1.0655
 7475SOL    HW233888   4.317   4.572  10.191 -1.3659 -0.2266 -0.0249
 7476SOL     OW33889   1.478   2.411   8.589 -0.3813  0.1622 -0.5021
 7476SOL    HW133890   1.530   2.442   8.663 -0.7938 -1.2965  0.3820
 7476SOL    HW233891   1.451   2.323   8.615 -0.4526 -0.2575 -1.9628
 7477SOL     OW33892   3.730   2.464   2.640  0.6083 -0.3301 -0.3309
 7477SOL    HW133893   3.644   2.498   2.666 -0.2932 -0.7395 -2.7910
 7477SOL    HW233894   3.735   2.473   2.545  1.5257  0.9369 -0.1679
 7478SOL     OW33895   4.462   4.411  14.877 -0.4533 -0.4301 -0.1850
 7478SOL    HW133896   4.524   4.368  14.819 -1.3559 -1.3507 -0.4737
 7478SOL    HW233897   4.407   4.335  14.895 -0.1984 -0.8899 -1.3372
 7479SOL     OW33898   1.053   4.622  12.646  0.2793  0.1160  0.6299
 7479SOL    HW133899   1.086   4.712  12.647  1.4548 -0.2889 -0.8903
 7479SOL    HW233900   1.116   4.589  12.582  0.9965  2.8262 -0.0594
 7480SOL     OW33901   2.831   2.002  11.175 -0.2280 -0.0067 -0.1111
 7480SOL    HW133902   2.828   2.029  11.267 -3.4531 -0.5358 -0.0518
 7480SOL    HW233903   2.764   1.933  11.178  0.0237 -0.3202 -1.9491
 7481SOL     OW33904   0.076   3.778   4.348  0.2488  0.0972 -0.6027
 7481SOL    HW133905   0.105   3.792   4.258 -0.5308  0.8245 -0.7402
 7481SOL    HW233906   0.064   3.867   4.382  0.5409 -0.3263  0.6286
 7482SOL     OW33907   0.588   2.106   5.812 -0.2453 -0.0085 -0.2090
 7482SOL    HW133908   0.503   2.067   5.793 -0.0954  0.9866 -2.9240
 7482SOL    HW233909   0.631   2.092   5.728  1.1828  0.6870  0.3894
 7483SOL     OW33910   4.484   0.535   5.656 -0.8054 -0.5734 -0.0690
 7483SOL    HW133911   4.460   0.442   5.654 -2.4764 -0.1200 -0.4092
 7483SOL    HW233912   4.418   0.570   5.597 -1.3066 -0.7617  0.3793
 7484SOL     OW33913   3.249   1.381   7.309  1.0162 -0.5753  0.5839
 7484SOL    HW133914   3.192   1.316   7.269 -0.3402  0.7057  0.4197
 7484SOL    HW233915   3.186   1.414   7.373 -1.2013 -0.9475 -1.4253
 7485SOL     OW33916   2.539   4.049   7.575  0.3456 -0.5436  0.0307
 7485SOL    HW133917   2.455   4.052   7.528  0.8339 -4.7011 -1.1351
 7485SOL    HW233918   2.514   4.108   7.646 -0.8601  1.3021 -1.9229
 7486SOL     OW33919   4.111   1.758   3.008 -0.6938 -0.2133 -0.4284
 7486SOL    HW133920   4.204   1.757   2.986 -1.1256 -1.0515 -2.2343
 7486SOL    HW233921   4.080   1.821   2.943  2.9585  0.9456 -1.0572
 7487SOL     OW33922   3.897   3.057   1.772  0.7821 -0.2549  0.0188
 7487SOL    HW133923   3.969   3.113   1.800 -0.5641  1.4033  0.2211
 7487SOL    HW233924   3.912   2.981   1.829 -1.1179 -0.1047  0.7467
 7488SOL     OW33925   1.841   3.435  15.123  0.0000  0.7469  0.3339
 7488SOL    HW133926   1.860   3.350  15.082 -0.9836  0.7626 -0.1788
 7488SOL    HW233927   1.844   3.407  15.214 -0.6679  0.2663  0.2139
 7489SOL     OW33928   4.659   3.762  16.527 -0.3680 -0.3402  0.5389
 7489SOL    HW133929   4.585   3.702  16.532 -0.2658 -0.8422 -3.2250
 7489SOL    HW233930   4.645   3.797  16.438 -0.4329 -0.9790  0.2965
 7490SOL     OW33931   0.756   3.215   9.537  0.3701  0.0231  0.1076
 7490SOL    HW133932   0.677   3.268   9.548 -0.2873 -1.2548  1.4210
 7490SOL    HW233933   0.784   3.195   9.626  0.2199  4.4354  1.1614
 7491SOL     OW33934   0.753   1.114  11.964 -0.4180  0.0545 -0.1198
 7491SOL    HW133935   0.775   1.198  11.925 -0.6149  0.6217  0.9864
 7491SOL    HW233936   0.840   1.074  11.971  0.2240  1.5231  0.3279
 7492SOL     OW33937   3.931   2.424   6.712  0.2352  0.0614  0.1759
 7492SOL    HW133938   4.018   2.388   6.727 -0.1016 -2.2734 -3.4386
 7492SOL    HW233939   3.910   2.460   6.799 -1.9761  1.3149 -0.8674
 7493SOL     OW33940   3.591   3.101  15.497 -0.2131 -0.3845 -0.1815
 7493SOL    HW133941   3.599   3.086  15.591 -2.4788  1.1445  0.2550
 7493SOL    HW233942   3.606   3.016  15.455 -0.8549  0.5533 -2.3195
 7494SOL     OW33943   3.730   0.258   7.330 -0.3169  0.1912 -0.2334
 7494SOL    HW133944   3.806   0.285   7.383 -1.3033  2.4165  0.0456
 7494SOL    HW233945   3.755   0.303   7.249  0.2447  0.7637  0.2523
 7495SOL     OW33946   4.381   4.469   7.317  0.3951 -0.3292  0.0893
 7495SOL    HW133947   4.453   4.442   7.375  0.4465 -1.6127 -0.5696
 7495SOL    HW233948   4.307   4.415   7.346 -1.3688  2.8917  1.6321
 7496SOL     OW33949   0.824   3.212   0.893 -0.7975 -0.6187 -0.0824
 7496SOL    HW133950   0.907   3.170   0.913 -0.2815  0.4962  0.1120
 7496SOL    HW233951   0.779   3.131   0.866 -1.6872 -0.5880  1.3173
 7497SOL     OW33952   0.879   0.229   8.932 -0.4197 -0.4157 -0.1841
 7497SOL    HW133953   0.799   0.279   8.915  0.6053  1.2375 -0.1393
 7497SOL    HW233954   0.854   0.147   8.890  1.0789  1.0595 -3.9715
 7498SOL     OW33955   0.517   3.345   3.645  0.0866  0.1678 -0.5745
 7498SOL    HW133956   0.538   3.421   3.700 -1.0988  0.3092 -0.3182
 7498SOL    HW233957   0.455   3.383   3.583 -2.2756  1.6005  2.6671
 7499SOL     OW33958   3.048   2.287   3.387 -0.6308 -0.9402  0.4312
 7499SOL    HW133959   3.002   2.348   3.445 -0.1012 -2.4090  2.4147
 7499SOL    HW233960   3.126   2.273   3.441 -0.3208 -0.6962  0.0526
 7500SOL     OW33961   2.399   1.354  15.151 -0.7464 -0.3580 -0.4519
 7500SOL    HW133962   2.414   1.418  15.082 -3.6478  1.4742  0.5816
 7500SOL    HW233963   2.442   1.279  15.111  2.3687  0.2620  1.7004
 7501SOL     OW33964   0.042   1.320  11.323  0.0595 -0.0767  0.4051
 7501SOL    HW133965   4.673   1.303  11.315  0.1074  0.4766 -1.3097
 7501SOL    HW233966   0.064   1.341  11.232 -0.0690 -2.2015 -0.1178
 7502SOL     OW33967   4.047   2.499  16.488  0.1269 -0.3717 -0.5807
 7502SOL    HW133968   3.969   2.513  16.435 -0.3019 -0.8384 -0.0834
 7502SOL    HW233969   4.003   2.454  16.561  0.2069 -0.8213 -0.8056
 7503SOL     OW33970   4.621   0.929   3.499  0.3546 -0.1348  0.3078
 7503SOL    HW133971   4.696   0.988   3.493  1.8175 -1.8907  1.2635
 7503SOL    HW233972   4.676   0.857   3.531 -0.6366 -1.4318 -0.9307
 7504SOL     OW33973   0.341   2.016   2.519 -0.3535  0.2582 -0.0870
 7504SOL    HW133974   0.366   2.054   2.435 -1.7743  2.0201  0.2799
 7504SOL    HW233975   0.397   2.065   2.578 -0.5911  2.5746 -1.8175
 7505SOL     OW33976   4.523   4.417  11.914 -0.3035  0.0737  0.1883
 7505SOL    HW133977   4.607   4.384  11.946  0.2190  0.8170 -0.3922
 7505SOL    HW233978   4.460   4.395  11.982  0.7745  0.0763  1.1882
 7506SOL     OW33979   1.430   0.408  13.514  0.3261  0.6218  0.1904
 7506SOL    HW133980   1.351   0.358  13.533 -0.1239  0.8635 -1.0552
 7506SOL    HW233981   1.395   0.478  13.459  3.0498  3.1135  1.6013
 7507SOL     OW33982   2.669   1.342  15.719 -0.7083 -0.8517 -0.2092
 7507SOL    HW133983   2.718   1.407  15.669 -2.3868 -0.5141 -1.4041
 7507SOL    HW233984   2.657   1.277  15.650 -1.1794 -0.8480 -0.1300
 7508SOL     OW33985   2.128   2.304   5.943  0.6249 -0.5051  0.0133
 7508SOL    HW133986   2.127   2.281   5.850  0.1801 -0.5899  0.0373
 7508SOL    HW233987   2.221   2.322   5.953  0.7981  0.0119 -2.6834
 7509SOL     OW33988   3.332   0.743  11.310  0.5112  0.2675  0.2972
 7509SOL    HW133989   3.275   0.820  11.307 -0.4483 -0.3545  1.9778
 7509SOL    HW233990   3.402   0.788  11.356 -1.2593  2.2078  1.0712
 7510SOL     OW33991   3.953   1.694  17.664 -0.0576  0.2460 -0.0436
 7510SOL    HW133992   3.877   1.670  17.610  0.5392 -0.2176 -0.6849
 7510SOL    HW233993   3.986   1.604  17.668 -3.2216 -0.9506 -0.3973
 7511SOL     OW33994   1.243   1.128   4.082 -0.0058  0.4199 -0.7520
 7511SOL    HW133995   1.284   1.072   4.016 -2.0459  0.7592 -2.2977
 7511SOL    HW233996   1.293   1.208   4.067 -1.2205  0.9428 -1.9613
 7512SOL     OW33997   2.227   2.122   4.437 -0.2862 -0.3995 -0.5548
 7512SOL    HW133998   2.280   2.175   4.497 -0.2981  1.3710 -2.1185
 7512SOL    HW233999   2.280   2.123   4.358 -2.3909 -0.1838 -1.9585
 7513SOL     OW34000   4.361   3.630  17.084  0.7488  0.2489  0.0091
 7513SOL    HW134001   4.385   3.621  16.991 -0.4514 -1.6961 -0.1094
 7513SOL    HW234002   4.423   3.698  17.111  2.0451 -1.2943  0.9161
 7514SOL     OW34003   4.401   3.432   1.768 -0.3947  0.3876  0.4115
 7514SOL    HW134004   4.451   3.421   1.687 -0.1498  1.3404  0.4410
 7514SOL    HW234005   4.411   3.344   1.805  0.0211 -0.3494 -1.4615
 7515SOL     OW34006   4.093   1.597   8.792 -0.3606  0.0500 -0.1775
 7515SOL    HW134007   4.006   1.587   8.753 -0.0208  2.9562 -1.7574
 7515SOL    HW234008   4.085   1.692   8.798  0.0417  0.0641  0.1271
 7516SOL     OW34009   4.196   0.416  14.773  0.0652 -0.4997  0.2384
 7516SOL    HW134010   4.146   0.349  14.820 -2.1154  0.1116 -1.2034
 7516SOL    HW234011   4.225   0.479  14.839  0.5299  1.1711 -1.5461
 7517SOL     OW34012   1.989   1.332   9.613 -0.5888  0.5280 -0.3641
 7517SOL    HW134013   1.983   1.266   9.682 -2.0929  0.0480 -0.9709
 7517SOL    HW234014   1.896   1.339   9.593 -0.9956 -1.3513  0.8185
 7518SOL     OW34015   3.799   2.609   3.434 -0.5315  0.1484  0.6318
 7518SOL    HW134016   3.889   2.585   3.414 -1.5928  0.2499 -4.4097
 7518SOL    HW234017   3.812   2.684   3.492  1.3985  1.5389 -1.6043
 7519SOL     OW34018   0.598   0.329  12.979 -0.9145  0.3216 -0.2760
 7519SOL    HW134019   0.564   0.383  13.050  0.1118  0.6696 -0.0600
 7519SOL    HW234020   0.650   0.269  13.032 -1.4018  0.1681  0.0274
 7520SOL     OW34021   2.353   3.676   1.746  0.0176 -0.0064  0.2258
 7520SOL    HW134022   2.318   3.745   1.803 -0.4871 -2.8757  3.3648
 7520SOL    HW234023   2.439   3.713   1.727  0.3483 -0.4638  0.8314
 7521SOL     OW34024   4.067   0.942   3.752 -0.4909  0.6075 -0.3147
 7521SOL    HW134025   4.062   0.894   3.669  1.3183  0.6819 -0.4554
 7521SOL    HW234026   4.035   0.874   3.812  2.7521 -0.2046  0.4738
 7522SOL     OW34027   0.579   1.762   7.926 -0.1422 -0.1644  0.1182
 7522SOL    HW134028   0.504   1.715   7.963 -1.2378  1.0204 -0.5653
 7522SOL    HW234029   0.577   1.840   7.982  0.2670  0.2431 -0.4349
 7523SOL     OW34030   1.135   0.635   4.224 -0.4947  0.3192 -0.0700
 7523SOL    HW134031   1.169   0.581   4.152 -0.1426 -2.6165  2.3368
 7523SOL    HW234032   1.113   0.565   4.285 -0.1515  3.0895  3.2402
 7524SOL     OW34033   4.272   3.960   5.846  0.3546 -0.0419  0.0596
 7524SOL    HW134034   4.236   3.907   5.916  1.7072 -0.7573  0.2225
 7524SOL    HW234035   4.339   3.903   5.808 -0.3368 -0.5382 -0.3948
 7525SOL     OW34036   3.226   2.483   2.316  0.1519  0.2217  0.2447
 7525SOL    HW134037   3.195   2.434   2.239  1.9212 -1.6645  0.7477
 7525SOL    HW234038   3.156   2.453   2.373 -1.4447 -1.0199 -2.3602
 7526SOL     OW34039   0.219   1.102   1.922  0.1432 -0.5194  0.0927
 7526SOL    HW134040   0.279   1.057   1.981  1.6962 -0.6078 -1.5606
 7526SOL    HW234041   0.134   1.071   1.953 -0.6189 -0.2614 -1.7376
 7527SOL     OW34042   0.699   0.227   7.665 -0.0195 -0.2560 -0.2964
 7527SOL    HW134043   0.794   0.239   7.664 -0.1662  0.7888 -1.4593
 7527SOL    HW234044   0.696   0.144   7.713 -0.2458 -1.4217 -2.3122
 7528SOL     OW34045   3.451   4.682   5.088  0.1787 -0.0832  0.3765
 7528SOL    HW134046   3.457   4.653   4.997  2.1314 -2.0466  1.1318
 7528SOL    HW234047   3.505   4.611   5.122 -1.0237 -0.3278  1.7866
 7529SOL     OW34048   1.388   1.975   0.367 -0.3364  0.9070 -0.1325
 7529SOL    HW134049   1.379   2.026   0.447  0.5502  0.3193  0.3385
 7529SOL    HW234050   1.302   1.983   0.324  0.0785  1.4604 -0.8512
 7530SOL     OW34051   2.603   0.413   4.019  0.4037 -0.4248 -0.0023
 7530SOL    HW134052   2.511   0.391   4.003  0.5423 -1.7453  1.0571
 7530SOL    HW234053   2.591   0.428   4.112 -1.4209  2.2908 -0.6578
 7531SOL     OW34054   0.434   2.931   4.688 -0.4105 -0.4271  0.2215
 7531SOL    HW134055   0.497   2.905   4.620  0.6205  0.2684  0.9085
 7531SOL    HW234056   0.392   3.000   4.638  0.6602  1.5208  2.0282
 7532SOL     OW34057   3.736   4.118   8.147  0.2087  0.0074  0.8217
 7532SOL    HW134058   3.779   4.193   8.187  1.7805 -0.6144  0.3332
 7532SOL    HW234059   3.703   4.083   8.230 -0.2303  0.9849  1.0511
 7533SOL     OW34060   4.569   0.046   7.776 -0.7634 -0.0468 -0.3526
 7533SOL    HW134061   4.565   0.070   7.684 -0.8689  0.2850 -0.2587
 7533SOL    HW234062   4.512   0.109   7.819  0.5369  0.0591  1.2341
 7534SOL     OW34063   1.542   4.189   9.230  0.1748 -0.9751  0.4042
 7534SOL    HW134064   1.492   4.172   9.310  0.8772  1.1162  1.2962
 7534SOL    HW234065   1.581   4.275   9.245  0.6362 -1.0868 -0.1383
 7535SOL     OW34066   2.959   3.046   7.093  0.1219  0.0951  0.8609
 7535SOL    HW134067   3.042   3.093   7.087  2.1654 -3.4976  0.8094
 7535SOL    HW234068   2.905   3.100   7.035  0.9033  0.1006  0.1361
 7536SOL     OW34069   3.596   0.496  13.793  0.1773 -0.6716  0.2553
 7536SOL    HW134070   3.555   0.433  13.734 -1.6116  0.3302  0.4274
 7536SOL    HW234071   3.617   0.455  13.877 -3.0323 -4.2252 -0.6553
 7537SOL     OW34072   0.808   1.024   1.127  0.3372 -0.3468  0.9110
 7537SOL    HW134073   0.720   1.017   1.089  1.0871 -0.1122 -0.8603
 7537SOL    HW234074   0.783   1.081   1.200  0.5843  2.3620 -1.1247
 7538SOL     OW34075   4.033   1.276   6.086  0.0678  0.1889 -0.1968
 7538SOL    HW134076   3.981   1.345   6.127 -3.5156 -1.6263 -1.6111
 7538SOL    HW234077   3.976   1.260   6.010 -1.2636 -0.4252  0.9327
 7539SOL     OW34078   1.817   3.261   6.943  0.3002  0.0288  0.0807
 7539SOL    HW134079   1.854   3.197   7.004  1.8125  0.2034 -0.6314
 7539SOL    HW234080   1.727   3.278   6.968  0.1473  1.2632 -1.3152
 7540SOL     OW34081   0.335   3.204  16.389 -0.2057 -0.0094  0.1556
 7540SOL    HW134082   0.265   3.245  16.440 -1.8549 -0.9177 -1.3366
 7540SOL    HW234083   0.402   3.193  16.455  2.1178  0.4469 -2.1286
 7541SOL     OW34084   3.602   2.542   8.259  0.2547 -0.0858 -0.1047
 7541SOL    HW134085   3.616   2.624   8.212 -1.3239 -0.3876 -1.0937
 7541SOL    HW234086   3.587   2.576   8.347 -0.9560 -2.1564  0.5058
 7542SOL     OW34087   3.623   2.116   2.512  0.3564  0.1760 -0.8977
 7542SOL    HW134088   3.552   2.160   2.466 -1.8779 -2.2363  0.2487
 7542SOL    HW234089   3.697   2.169   2.481 -0.3006  2.3815  1.2869
 7543SOL     OW34090   3.965   1.775  12.016 -0.0284  0.4089 -0.1342
 7543SOL    HW134091   3.938   1.841  11.952 -3.0014  0.3834  1.0927
 7543SOL    HW234092   4.044   1.744  11.971  0.8710  2.2042  0.2430
 7544SOL     OW34093   4.481   4.624  15.054 -0.3828 -0.2343 -0.2462
 7544SOL    HW134094   4.575   4.629  15.040 -0.1508  2.3996  2.3295
 7544SOL    HW234095   4.462   4.544  15.004  0.3078  0.2392 -1.2513
 7545SOL     OW34096   1.992   4.680   7.811 -0.6531 -0.1100  0.4068
 7545SOL    HW134097   1.944   4.701   7.891  0.7242  0.5797  1.0565
 7545SOL    HW234098   2.069   0.010   7.825 -0.7447  0.2201 -0.3910
 7546SOL     OW34099   1.188   0.367  12.870 -0.0410  1.3314 -0.2836
 7546SOL    HW134100   1.174   0.460  12.852 -0.2417  1.9393  3.0498
 7546SOL    HW234101   1.206   0.373  12.964 -2.4411  2.0051  0.1278
 7547SOL     OW34102   3.896   0.568   7.729  0.5485  0.3041  0.3090
 7547SOL    HW134103   3.968   0.631   7.734 -1.2565  2.1842  2.4874
 7547SOL    HW234104   3.851   0.600   7.651  2.2836 -0.2769 -0.9240
 7548SOL     OW34105   0.159   2.346   2.890  0.2244  0.3596 -0.0354
 7548SOL    HW134106   0.089   2.307   2.838  0.0629  0.4152  0.1362
 7548SOL    HW234107   0.175   2.414   2.825 -0.3131 -0.3352 -0.8911
 7549SOL     OW34108   0.869   0.261   7.025  0.2867 -0.4002 -0.2484
 7549SOL    HW134109   0.963   0.267   7.040  0.2369  0.5314 -0.3171
 7549SOL    HW234110   0.834   0.289   7.110  2.0538  2.2348 -0.3772
 7550SOL     OW34111   0.862   3.392  12.105 -0.1976 -0.2314  0.4201
 7550SOL    HW134112   0.835   3.343  12.183 -0.0035 -0.9781  0.0178
 7550SOL    HW234113   0.777   3.386  12.061 -1.0725  1.6682  1.8619
 7551SOL     OW34114   0.168   3.418   6.017 -0.0268  0.3949 -0.2864
 7551SOL    HW134115   0.260   3.423   6.044  0.0514  1.5354 -0.7737
 7551SOL    HW234116   0.125   3.476   6.080  0.2665  0.9205 -0.5626
 7552SOL     OW34117   1.232   4.082   1.704 -0.5392 -0.3441 -0.1868
 7552SOL    HW134118   1.269   4.012   1.651 -0.2397 -1.4924  1.5482
 7552SOL    HW234119   1.152   4.106   1.657 -1.0953  0.0793  0.9702
 7553SOL     OW34120   3.425   4.042   8.602 -0.1466 -0.0304 -0.2018
 7553SOL    HW134121   3.447   3.950   8.621 -0.5308 -0.1380 -0.2840
 7553SOL    HW234122   3.379   4.032   8.519 -0.3984  1.8685 -0.2721
 7554SOL     OW34123   3.451   0.944  15.450  0.8816  0.3835  0.0210
 7554SOL    HW134124   3.452   0.959  15.545  0.6931 -1.1806  0.2549
 7554SOL    HW234125   3.511   0.871  15.438  0.1985  0.2693 -2.6798
 7555SOL     OW34126   3.950   3.982  14.645 -0.3966 -0.2272  0.0205
 7555SOL    HW134127   3.965   3.926  14.721 -1.4393  1.0549  1.1633
 7555SOL    HW234128   3.907   4.054  14.692 -2.6708 -0.7968 -1.1831
 7556SOL     OW34129   1.655   4.646  10.663 -0.2681  0.3709 -0.6765
 7556SOL    HW134130   1.659   4.569  10.605  2.2654  0.3800 -0.5268
 7556SOL    HW234131   1.715   4.704  10.616  1.0553 -0.2932  0.1786
 7557SOL     OW34132   1.698   2.479   8.430 -0.4515  0.5672 -0.3591
 7557SOL    HW134133   1.618   2.459   8.479  0.3630  0.5876  0.9728
 7557SOL    HW234134   1.703   2.574   8.420  4.3914  0.3581 -0.0684
 7558SOL     OW34135   1.268   3.714  11.785  0.4215 -0.2779  0.3734
 7558SOL    HW134136   1.329   3.652  11.825  1.1328 -0.3727 -0.8741
 7558SOL    HW234137   1.190   3.658  11.790  0.3921 -0.4277 -1.9836
 7559SOL     OW34138   2.014   3.358  10.433 -0.1753  0.7220  0.0584
 7559SOL    HW134139   2.037   3.291  10.369  1.7601  0.7888  0.6610
 7559SOL    HW234140   1.963   3.311  10.499 -0.7469 -1.7254 -2.1175
 7560SOL     OW34141   0.483   3.560   4.432 -0.2373 -0.3725 -0.0255
 7560SOL    HW134142   0.393   3.553   4.463 -0.2353  2.4757  0.5831
 7560SOL    HW234143   0.481   3.637   4.375 -1.7463 -0.3295  0.0784
 7561SOL     OW34144   0.012   3.697  13.977 -0.0138 -0.1705  1.1125
 7561SOL    HW134145   0.050   3.609  13.975  0.4911  0.1114 -1.1086
 7561SOL    HW234146   0.080   3.747  14.020 -0.6624 -0.3069  2.3050
 7562SOL     OW34147   1.605   3.876   4.035 -0.1796  0.5195 -0.6017
 7562SOL    HW134148   1.600   3.933   4.111 -0.4446  0.8718 -0.8833
 7562SOL    HW234149   1.570   3.790   4.059 -1.1818  0.6552 -1.5654
 7563SOL     OW34150   1.705   4.693   5.380 -0.2927 -0.2092 -0.1934
 7563SOL    HW134151   1.706   0.044   5.438  0.8285  0.2572 -0.8288
 7563SOL    HW234152   1.610   4.681   5.379 -0.1691 -1.1031 -0.8781
 7564SOL     OW34153   0.784   2.782   4.280 -0.6402  0.2187 -0.0703
 7564SOL    HW134154   0.827   2.843   4.220  0.5638 -0.0378  0.5305
 7564SOL    HW234155   0.850   2.773   4.348 -0.5421  1.6013  0.0187
 7565SOL     OW34156   0.479   4.296  12.415 -0.3389  0.4235  0.2273
 7565SOL    HW134157   0.483   4.372  12.356  3.1116 -1.2156 -1.5861
 7565SOL    HW234158   0.514   4.344  12.490  1.6506 -0.5567 -0.0775
 7566SOL     OW34159   2.852   2.793   7.084 -0.1082  0.1012  0.0723
 7566SOL    HW134160   2.873   2.801   6.991 -1.2192 -1.5148 -0.3327
 7566SOL    HW234161   2.895   2.869   7.121 -2.4343  1.6103 -0.3126
 7567SOL     OW34162   2.014   0.423   5.453  0.1132 -0.3473 -0.5705
 7567SOL    HW134163   2.007   0.459   5.542  2.2798 -1.1976 -0.0687
 7567SOL    HW234164   2.108   0.408   5.445  0.0755 -0.2469 -1.1879
 7568SOL     OW34165   1.279   4.437   5.177 -0.0872 -0.3860  0.4944
 7568SOL    HW134166   1.185   4.424   5.188 -0.1298 -0.1217  0.4162
 7568SOL    HW234167   1.283   4.423   5.083 -1.0006 -0.9253  0.5382
 7569SOL     OW34168   0.858   0.976   6.537 -0.3991  0.0252 -0.7693
 7569SOL    HW134169   0.915   1.052   6.531  0.0512 -0.2120  0.5147
 7569SOL    HW234170   0.789   1.013   6.481 -2.0171 -0.2902  0.9839
 7570SOL     OW34171   0.260   0.257   5.757 -0.3287 -0.4676  0.3173
 7570SOL    HW134172   0.269   0.280   5.664  0.9086 -0.7437  0.3679
 7570SOL    HW234173   0.352   0.256   5.783  0.0677  2.3351 -0.9452
 7571SOL     OW34174   3.311   1.344   9.076 -0.2275 -0.7089  0.0949
 7571SOL    HW134175   3.284   1.305   9.159 -3.7285  0.0226 -0.7003
 7571SOL    HW234176   3.276   1.289   9.006 -0.0285 -0.3221 -0.3152
 7572SOL     OW34177   2.489   1.233   0.798  0.2582  0.3279 -0.0549
 7572SOL    HW134178   2.456   1.269   0.715 -0.1433 -1.1484 -0.5334
 7572SOL    HW234179   2.572   1.192   0.773  0.6429  0.1203  1.6131
 7573SOL     OW34180   2.269   3.021  14.848  0.0436  0.0464 -0.2152
 7573SOL    HW134181   2.175   3.034  14.864  0.3900  1.4494  0.5806
 7573SOL    HW234182   2.265   2.949  14.784  2.7789  0.8348 -1.2773
 7574SOL     OW34183   0.742   4.501  16.496 -0.0018  0.7189  0.4465
 7574SOL    HW134184   0.826   4.512  16.451  0.2298 -1.8897  0.2253
 7574SOL    HW234185   0.710   4.591  16.493 -0.2281  0.6543  0.8776
 7575SOL     OW34186   0.489   3.785   9.264  0.0167 -0.0113  0.6936
 7575SOL    HW134187   0.423   3.716   9.259  0.7162 -0.6244 -0.2065
 7575SOL    HW234188   0.566   3.742   9.302 -0.1204 -1.9224 -1.1735
 7576SOL     OW34189   2.318   2.998   6.906  0.5426  0.1423  0.6426
 7576SOL    HW134190   2.287   3.022   6.818  0.7929  1.1940  0.8397
 7576SOL    HW234191   2.352   2.911   6.890 -0.7852  0.1240 -2.1216
 7577SOL     OW34192   3.380   2.838  15.870 -0.2190  0.3441  0.2932
 7577SOL    HW134193   3.335   2.908  15.822 -3.2061 -0.1837  2.3863
 7577SOL    HW234194   3.353   2.760  15.823 -2.8975  1.6396 -0.3133
 7578SOL     OW34195   4.233   0.257   7.409 -0.7662  0.2368 -0.3958
 7578SOL    HW134196   4.325   0.233   7.415 -0.4418  1.5927 -0.0309
 7578SOL    HW234197   4.186   0.174   7.406  0.9892 -0.6993 -1.7901
 7579SOL     OW34198   2.744   4.550   2.997 -0.0090 -0.4111  0.2469
 7579SOL    HW134199   2.825   4.542   3.048 -0.3293  1.4188  1.0554
 7579SOL    HW234200   2.727   4.460   2.971 -1.2855 -0.3275  0.7698
 7580SOL     OW34201   4.009   3.889   4.953  0.5897  0.0221 -0.1382
 7580SOL    HW134202   4.007   3.807   4.903 -1.7769 -0.8863  1.4859
 7580SOL    HW234203   3.973   3.951   4.890  0.5537  0.9692  0.8070
 7581SOL     OW34204   3.702   2.964   1.295 -0.1602  0.7789 -0.1305
 7581SOL    HW134205   3.655   3.009   1.224  0.0436  0.1911 -0.6260
 7581SOL    HW234206   3.636   2.899   1.320  1.2591 -0.3307  0.7305
 7582SOL     OW34207   1.995   2.047  10.349  0.4609  0.0712  0.3856
 7582SOL    HW134208   1.946   2.072  10.428 -0.6442 -0.6860 -0.0623
 7582SOL    HW234209   1.939   1.978  10.315  1.4953 -0.5085 -0.1205
 7583SOL     OW34210   1.345   0.386   3.017  0.3322  0.0575 -0.0177
 7583SOL    HW134211   1.403   0.454   3.050  0.5522 -0.5695  0.8945
 7583SOL    HW234212   1.380   0.376   2.929  1.5398  0.2030  0.4516
 7584SOL     OW34213   2.764   4.090   5.572  0.1371  0.5512  0.2340
 7584SOL    HW134214   2.707   4.023   5.610 -1.9345  0.6785 -2.6089
 7584SOL    HW234215   2.833   4.104   5.636 -0.3412  2.2328  0.4044
 7585SOL     OW34216   3.658   2.919   1.702  0.2710 -0.2265 -0.1350
 7585SOL    HW134217   3.735   2.974   1.694 -0.0488 -0.1264 -2.4353
 7585SOL    HW234218   3.605   2.967   1.765  0.4239 -0.9256  0.5316
 7586SOL     OW34219   1.501   2.603   5.855 -0.2677  0.0708 -0.0043
 7586SOL    HW134220   1.476   2.515   5.884  1.3428 -0.3781 -0.0145
 7586SOL    HW234221   1.454   2.650   5.925  0.9816  0.4348  0.5812
 7587SOL     OW34222   1.242   2.670   2.795 -0.0262 -0.5949  0.4100
 7587SOL    HW134223   1.288   2.586   2.793  0.5059 -0.2894 -0.0973
 7587SOL    HW234224   1.283   2.727   2.860 -2.8642 -1.3558  2.9312
 7588SOL     OW34225   1.017   2.842  10.403 -0.1324  0.6342 -0.1126
 7588SOL    HW134226   0.964   2.881  10.472  1.4041 -0.7444  1.8509
 7588SOL    HW234227   1.027   2.752  10.433  2.5633  0.6324 -1.0021
 7589SOL     OW34228   2.108   1.521   0.875  0.8694 -0.0167  0.1580
 7589SOL    HW134229   2.155   1.461   0.933  0.1665 -0.2331  0.5047
 7589SOL    HW234230   2.178   1.569   0.831  0.7749  0.5716  0.6467
 7590SOL     OW34231   2.754   0.562  11.941 -0.4907  0.0411  0.8056
 7590SOL    HW134232   2.833   0.514  11.918 -1.4094 -1.4429  0.7087
 7590SOL    HW234233   2.754   0.649  11.901  0.8451 -0.7761 -0.9640
 7591SOL     OW34234   3.786   2.793   4.586 -0.1005 -0.1882 -0.2348
 7591SOL    HW134235   3.737   2.730   4.534 -1.4876  2.6516 -2.4059
 7591SOL    HW234236   3.880   2.791   4.566  0.0706  2.2779  0.2755
 7592SOL     OW34237   1.617   0.839  15.999  0.3051  0.3182 -0.2312
 7592SOL    HW134238   1.619   0.783  16.076 -1.1447 -1.4047 -1.4411
 7592SOL    HW234239   1.623   0.929  16.030  3.9945 -0.2004  0.4932
 7593SOL     OW34240   0.737   3.645   5.276  0.4715  0.0570  0.0602
 7593SOL    HW134241   0.824   3.607   5.288 -0.8844 -2.4938  2.0972
 7593SOL    HW234242   0.761   3.703   5.205  1.3967 -1.5795 -0.9636
 7594SOL     OW34243   0.782   2.820   5.914 -0.8034  0.3430  0.3001
 7594SOL    HW134244   0.774   2.781   6.000  1.1271  0.6996  0.6448
 7594SOL    HW234245   0.872   2.791   5.900 -0.7505  0.9732 -0.6999
 7595SOL     OW34246   3.840   0.749   4.930 -0.3059  0.8355  0.1801
 7595SOL    HW134247   3.803   0.836   4.943 -0.5309  0.6957  0.4814
 7595SOL    HW234248   3.920   0.748   4.982  0.2572 -1.0478 -0.6774
 7596SOL     OW34249   4.711   3.224   3.383  0.5605 -0.4751  0.1367
 7596SOL    HW134250   4.674   3.154   3.437  1.4636 -3.1180 -2.6501
 7596SOL    HW234251   0.080   3.211   3.397  0.7789  2.8111  1.4874
 7597SOL     OW34252   4.675   4.562   9.830  0.8787  0.0531 -0.3462
 7597SOL    HW134253   4.653   4.617   9.755 -0.8509  0.6976  0.6337
 7597SOL    HW234254   0.007   4.501   9.783  1.3675 -0.5841  1.0699
 7598SOL     OW34255   1.524   1.729   4.647 -0.2083 -0.5087 -0.0663
 7598SOL    HW134256   1.538   1.824   4.654 -0.1434 -0.5468  0.3043
 7598SOL    HW234257   1.555   1.698   4.732 -1.7373 -0.4617  0.5079
 7599SOL     OW34258   4.228   0.554   2.672  0.1771  0.0731 -0.5028
 7599SOL    HW134259   4.193   0.479   2.720 -0.0004  0.2090 -0.4207
 7599SOL    HW234260   4.151   0.609   2.658 -0.4487 -0.7740 -0.3841
 7600SOL     OW34261   3.284   0.924   6.414  0.4470  0.0283 -0.4271
 7600SOL    HW134262   3.279   0.917   6.319  0.0585 -1.1577 -0.3231
 7600SOL    HW234263   3.223   0.995   6.434  0.6938 -0.2363  1.3328
 7601SOL     OW34264   0.473   0.008  10.187 -0.1577  0.1673 -0.5865
 7601SOL    HW134265   0.405   4.714  10.123 -0.6033 -0.7441  0.1677
 7601SOL    HW234266   0.543   0.027  10.125 -0.1081 -1.1040 -0.9072
 7602SOL     OW34267   3.705   0.454  14.058  0.0815 -0.0160  0.5723
 7602SOL    HW134268   3.790   0.430  14.020 -0.7046  0.2052 -1.3430
 7602SOL    HW234269   3.698   0.384  14.124 -0.1027 -1.0400 -0.5217
 7603SOL     OW34270   0.335   3.275  15.657 -1.1246 -0.0195 -0.5662
 7603SOL    HW134271   0.364   3.361  15.627 -1.2844  0.4589  0.6466
 7603SOL    HW234272   0.328   3.226  15.575  1.4430 -1.1934 -0.0657
 7604SOL     OW34273   2.755   3.041   5.696  0.8144  0.1289  0.6414
 7604SOL    HW134274   2.682   3.062   5.754 -0.8580  1.9538 -2.1882
 7604SOL    HW234275   2.825   3.039   5.762  1.4090  1.3065  0.0426
 7605SOL     OW34276   0.326   3.858   8.880 -0.6677  0.2783 -0.0292
 7605SOL    HW134277   0.268   3.866   8.956 -0.3282 -1.7943  0.4597
 7605SOL    HW234278   0.382   3.934   8.896  0.5706 -0.5875 -0.2299
 7606SOL     OW34279   2.821   3.199   5.391 -0.2310  0.1461 -0.7642
 7606SOL    HW134280   2.728   3.200   5.412 -0.7341 -1.0751 -2.9730
 7606SOL    HW234281   2.851   3.259   5.459 -2.0849  0.0740  0.1097
 7607SOL     OW34282   4.379   1.066   3.473 -0.4254 -0.0159  0.4514
 7607SOL    HW134283   4.459   1.015   3.486 -1.1649 -1.8654 -2.3588
 7607SOL    HW234284   4.369   1.116   3.555  1.1404  2.0119 -0.6024
 7608SOL     OW34285   1.182   2.749   3.434  0.3842  0.2760  0.1671
 7608SOL    HW134286   1.194   2.656   3.455 -1.1752  0.4228  1.7221
 7608SOL    HW234287   1.170   2.759   3.339 -0.3304  1.7410  0.4168
 7609SOL     OW34288   0.708   4.709  13.987  0.0327 -0.4636 -0.2205
 7609SOL    HW134289   0.657   0.065  13.990 -1.3030 -1.3343  1.2581
 7609SOL    HW234290   0.658   4.648  13.932 -0.8672  1.1123 -1.1468
 7610SOL     OW34291   2.335   4.435   6.481  0.3773 -0.0225 -0.0503
 7610SOL    HW134292   2.324   4.342   6.498 -0.2131  0.4165  2.0617
 7610SOL    HW234293   2.395   4.437   6.407 -1.9978  0.8178 -1.9193
 7611SOL     OW34294   3.201   2.974   6.163 -0.0625  0.5018  0.8972
 7611SOL    HW134295   3.194   3.065   6.192 -5.0104  0.4226 -0.1856
 7611SOL    HW234296   3.267   2.981   6.094  0.6052 -0.2101  1.4502
 7612SOL     OW34297   3.257   1.287   8.223  0.2180  0.5428  0.1624
 7612SOL    HW134298   3.314   1.211   8.239  0.1932  0.4906 -0.0016
 7612SOL    HW234299   3.171   1.247   8.209  0.8471 -0.5749 -0.4570
 7613SOL     OW34300   0.495   0.130   6.910  0.3765  0.1306  0.0252
 7613SOL    HW134301   0.448   0.054   6.875 -0.3213  1.3617 -1.6987
 7613SOL    HW234302   0.505   0.179   6.829  1.3755 -1.3781 -0.7661
 7614SOL     OW34303   0.441   3.258  16.861 -0.6245 -0.2838  0.0047
 7614SOL    HW134304   0.535   3.266  16.850 -0.5011 -0.9148  0.5578
 7614SOL    HW234305   0.412   3.346  16.840 -3.0532 -1.1819 -0.4893
 7615SOL     OW34306   2.650   0.484  17.216 -0.0879  0.0804 -0.4073
 7615SOL    HW134307   2.586   0.476  17.287  0.4173 -1.1132 -0.0740
 7615SOL    HW234308   2.711   0.528  17.274  0.9114  1.5225 -2.5428
 7616SOL     OW34309   4.159   0.165  14.250 -0.4151  0.1576  0.5694
 7616SOL    HW134310   4.186   0.246  14.292 -2.1266  0.5910  0.8393
 7616SOL    HW234311   4.064   0.177  14.254 -0.5728 -1.0215  0.3522
 7617SOL     OW34312   2.260   1.261   8.624 -0.0463 -0.2350 -0.7894
 7617SOL    HW134313   2.299   1.206   8.555  3.7119 -0.2443  1.3396
 7617SOL    HW234314   2.253   1.331   8.558 -1.9853 -1.4145 -1.8205
 7618SOL     OW34315   2.056   2.355   6.215  0.1026 -0.1682  0.2611
 7618SOL    HW134316   2.105   2.328   6.137  0.7859  3.1496 -0.4261
 7618SOL    HW234317   2.048   2.266   6.251 -1.7627  0.4236  1.2680
 7619SOL     OW34318   3.152   3.785   2.055  0.3086 -0.6386  0.2199
 7619SOL    HW134319   3.072   3.734   2.071  0.9653 -1.8199 -0.3144
 7619SOL    HW234320   3.186   3.740   1.978  1.6291 -0.9878  1.0092
 7620SOL     OW34321   1.581   3.439   5.019 -0.3666 -0.2710  0.4892
 7620SOL    HW134322   1.497   3.429   4.974 -0.5794  0.1798  0.7857
 7620SOL    HW234323   1.573   3.513   5.080 -1.3516 -0.6769  0.8476
 7621SOL     OW34324   4.430   4.101   3.024  0.2096  0.0367  0.2919
 7621SOL    HW134325   4.519   4.108   3.059  0.4029 -1.9829  0.2175
 7621SOL    HW234326   4.414   4.188   2.989  0.3844  0.0140  0.1537
 7622SOL     OW34327   0.518   3.067   6.245 -0.1316 -0.6029 -0.8098
 7622SOL    HW134328   0.587   3.008   6.214  0.0139 -0.4569 -0.7594
 7622SOL    HW234329   0.504   3.015   6.324 -0.6812 -1.9557 -1.8004
 7623SOL     OW34330   3.679   3.975   6.660 -0.0927  0.1187 -0.4508
 7623SOL    HW134331   3.718   4.028   6.730 -0.8229 -3.0689  2.3782
 7623SOL    HW234332   3.662   3.891   6.702 -0.3932  0.0964 -0.6175
 7624SOL     OW34333   4.303   0.631   6.960  0.1157  0.2763  0.1534
 7624SOL    HW134334   4.338   0.578   7.031  4.4562 -0.5684 -2.5725
 7624SOL    HW234335   4.268   0.567   6.898  3.2308 -1.6461  0.3891
 7625SOL     OW34336   2.291   4.528  17.302 -0.0096  0.1267  0.2433
 7625SOL    HW134337   2.235   4.593  17.259  0.3934  0.9401  0.9333
 7625SOL    HW234338   2.223   4.462  17.298 -0.6557  0.6974  1.7257
 7626SOL     OW34339   0.436   2.428   8.642 -0.5766  0.3536  0.1219
 7626SOL    HW134340   0.440   2.462   8.553  1.3056 -0.8871 -0.2610
 7626SOL    HW234341   0.412   2.506   8.692 -1.7866 -1.8805  3.0385
 7627SOL     OW34342   3.806   3.221  15.346 -0.0364 -0.3970 -0.4742
 7627SOL    HW134343   3.857   3.262  15.416 -0.6372  0.9886 -0.8551
 7627SOL    HW234344   3.731   3.199  15.402 -0.5126  0.9883 -0.5614
 7628SOL     OW34345   1.476   4.442   7.360  0.0908  0.3571  0.1950
 7628SOL    HW134346   1.475   4.500   7.283 -0.3533 -0.3125 -0.3037
 7628SOL    HW234347   1.455   4.357   7.321 -0.3715  0.6823 -0.2672
 7629SOL     OW34348   1.428   4.636   0.495  0.2802  0.6904 -0.0672
 7629SOL    HW134349   1.398   4.684   0.572  3.0888  2.0202  0.2081
 7629SOL    HW234350   1.437   4.545   0.523 -2.8025  0.1324 -0.9295
 7630SOL     OW34351   1.181   0.291   7.827  0.0311  0.1292  0.0314
 7630SOL    HW134352   1.204   0.302   7.920 -0.2870  1.4810 -0.0570
 7630SOL    HW234353   1.267   0.297   7.785  0.6525  0.9638  1.4225
 7631SOL     OW34354   0.949   1.388   3.562  0.4091  0.3645 -0.1053
 7631SOL    HW134355   0.896   1.440   3.623  1.3559  1.8669 -0.5729
 7631SOL    HW234356   0.942   1.445   3.485  0.0785  1.7445  0.9673
 7632SOL     OW34357   0.071   0.591   6.596  0.2519  0.0485  0.4388
 7632SOL    HW134358   4.716   0.541   6.582  0.8498 -0.9360  0.5466
 7632SOL    HW234359   0.110   0.566   6.513  1.2261  2.9050  0.0500
 7633SOL     OW34360   3.196   3.226   3.787 -0.5554  0.0223  0.2329
 7633SOL    HW134361   3.227   3.298   3.842  1.4227  0.0295 -0.8858
 7633SOL    HW234362   3.134   3.280   3.737 -0.1578  0.7615  0.5346
 7634SOL     OW34363   0.205   1.220   0.043 -0.6471  1.0770  0.1016
 7634SOL    HW134364   0.224   1.269  17.665  0.9919 -0.0127 -0.1860
 7634SOL    HW234365   0.237   1.263   0.122 -1.6382  2.0907 -0.0499
 7635SOL     OW34366   3.863   3.221   6.054  0.2166  0.3615 -0.1099
 7635SOL    HW134367   3.800   3.232   6.124  1.2576 -0.6407  0.9886
 7635SOL    HW234368   3.945   3.209   6.101  0.6332  1.1323 -0.6363
 7636SOL     OW34369   4.088   3.056   6.513  0.1651 -0.0339  0.6446
 7636SOL    HW134370   4.076   3.004   6.433  1.4025  0.4289  0.1563
 7636SOL    HW234371   4.149   3.121   6.476  0.4461  0.8218  2.6375
 7637SOL     OW34372   1.165   3.602   7.259  0.1267  0.3226  0.1463
 7637SOL    HW134373   1.211   3.532   7.307 -2.8788 -1.8077 -0.0181
 7637SOL    HW234374   1.093   3.622   7.319 -0.1003 -2.3922  0.7963
 7638SOL     OW34375   3.691   1.080   5.414  0.3318 -0.5124 -0.7317
 7638SOL    HW134376   3.698   0.999   5.464  0.2631  0.0708  0.2319
 7638SOL    HW234377   3.660   1.049   5.329 -0.0484 -2.1626 -0.0074
 7639SOL     OW34378   0.591   4.038   8.764 -0.1901 -0.2714  0.2765
 7639SOL    HW134379   0.554   4.074   8.684 -0.0478  0.1335  0.3948
 7639SOL    HW234380   0.534   4.079   8.829  0.8635  0.9931  0.3804
 7640SOL     OW34381   1.595   0.603  14.177  1.0666 -0.7183  0.1678
 7640SOL    HW134382   1.661   0.647  14.231  1.5022 -1.4571  0.2363
 7640SOL    HW234383   1.521   0.619  14.235 -1.3193 -1.7078 -2.6079
 7641SOL     OW34384   1.500   3.395   2.454 -0.0562  0.6080 -0.0161
 7641SOL    HW134385   1.499   3.359   2.365  0.3454 -0.0622  0.2480
 7641SOL    HW234386   1.540   3.482   2.447 -0.7518  0.8704 -0.6342
 7642SOL     OW34387   1.415   4.708  10.455 -0.3201 -0.1514 -0.1171
 7642SOL    HW134388   1.395   4.622  10.492 -0.9347 -0.3840 -0.9822
 7642SOL    HW234389   1.458   0.017  10.533 -0.6103 -0.7482  0.3012
 7643SOL     OW34390   0.172   3.237  10.591 -0.7509  0.0347  0.5111
 7643SOL    HW134391   0.187   3.330  10.608  0.9424 -0.0309 -0.6884
 7643SOL    HW234392   0.080   3.240  10.564 -0.1418 -0.3863 -1.5767
 7644SOL     OW34393   3.016   1.969   5.112 -0.2980  0.4703  0.6124
 7644SOL    HW134394   2.997   1.897   5.053  0.2211 -0.5391  1.6698
 7644SOL    HW234395   2.982   1.937   5.196 -0.9288  0.3064  0.2910
 7645SOL     OW34396   0.563   3.948   0.203 -0.7992  0.2829  0.7925
 7645SOL    HW134397   0.556   3.859   0.239  2.1572  0.4216  1.7259
 7645SOL    HW234398   0.639   3.924   0.149 -0.1336 -0.9892  2.2824
 7646SOL     OW34399   3.033   1.159  13.120 -0.4946  0.5233 -0.2254
 7646SOL    HW134400   2.960   1.120  13.071 -0.8246 -0.1190  0.7857
 7646SOL    HW234401   3.006   1.150  13.211  2.6410  1.7746  0.8399
 7647SOL     OW34402   2.452   0.613   5.362  0.4638  0.0044 -0.3831
 7647SOL    HW134403   2.504   0.594   5.284  0.0289  0.2552 -0.7379
 7647SOL    HW234404   2.390   0.540   5.360  2.2968 -1.5444 -0.4169
 7648SOL     OW34405   2.659   1.170  12.069 -0.3804 -0.5322 -0.4775
 7648SOL    HW134406   2.577   1.187  12.022 -0.9993 -1.1056  0.3838
 7648SOL    HW234407   2.723   1.220  12.018 -1.0315  1.9016  1.1136
 7649SOL     OW34408   3.431   3.046   0.269  0.1414  0.0527 -0.2427
 7649SOL    HW134409   3.365   2.983   0.238 -0.3375  0.2909  0.3088
 7649SOL    HW234410   3.496   2.997   0.320 -1.6886 -0.9746  1.1204
 7650SOL     OW34411   2.173   4.713  10.626 -0.2390  0.3725 -0.5358
 7650SOL    HW134412   2.255   4.665  10.616 -0.8287 -0.6195 -0.6381
 7650SOL    HW234413   2.109   4.663  10.575 -0.5082  1.5504 -1.3516
 7651SOL     OW34414   2.814   4.697   8.182 -0.0564 -0.1170 -0.2572
 7651SOL    HW134415   2.876   4.709   8.254 -0.0526 -0.2273 -0.2421
 7651SOL    HW234416   2.746   4.644   8.224  1.1105 -2.5037 -1.3514
 7652SOL     OW34417   0.300   3.583   9.279 -0.9728 -0.7362  0.6949
 7652SOL    HW134418   0.243   3.532   9.223  1.3976 -1.1873 -1.3083
 7652SOL    HW234419   0.278   3.551   9.367 -0.7918 -1.6088  0.4221
 7653SOL     OW34420   2.083   0.434   2.520  0.1815  0.3277  0.4314
 7653SOL    HW134421   2.115   0.356   2.566  0.6408  0.0499 -0.3602
 7653SOL    HW234422   1.995   0.446   2.557  0.0261 -0.0265  0.1764
 7654SOL     OW34423   2.659   2.979  16.297 -0.8723  0.0332 -0.5267
 7654SOL    HW134424   2.614   3.039  16.237 -0.1500  2.0038  0.9248
 7654SOL    HW234425   2.595   2.907  16.300 -1.3942  0.5756  1.0076
 7655SOL     OW34426   0.945   0.809   9.865 -0.3936  0.0981 -0.1365
 7655SOL    HW134427   1.002   0.833   9.792  0.6291 -0.0496  0.6153
 7655SOL    HW234428   1.020   0.775   9.914 -0.9383 -2.1007 -0.8250
 7656SOL     OW34429   3.521   1.921   5.146 -0.2890  0.2048 -0.4857
 7656SOL    HW134430   3.456   1.937   5.078 -1.4208  1.9591  1.0158
 7656SOL    HW234431   3.540   1.827   5.139  1.4655  0.6787 -2.1099
 7657SOL     OW34432   0.228   0.402   3.749 -0.5683  0.2527 -0.0753
 7657SOL    HW134433   0.163   0.453   3.798  1.5779  0.2525  2.7875
 7657SOL    HW234434   0.192   0.404   3.661 -0.5519 -2.5208 -0.1417
 7658SOL     OW34435   0.232   2.070   4.426 -0.0773  0.6843  0.0045
 7658SOL    HW134436   0.240   1.995   4.367 -1.1021  0.3045  0.3437
 7658SOL    HW234437   0.145   2.051   4.461  1.7945 -3.3736  2.4486
 7659SOL     OW34438   0.380   4.424   5.793 -0.9093  0.4743  0.2059
 7659SOL    HW134439   0.360   4.453   5.882 -2.5285 -0.9212  0.2961
 7659SOL    HW234440   0.398   4.331   5.805  0.0175  0.8767  1.9008
 7660SOL     OW34441   1.182   1.400   8.694  0.5087  0.3088  0.0327
 7660SOL    HW134442   1.213   1.335   8.757  2.3010  0.1099 -1.0295
 7660SOL    HW234443   1.162   1.476   8.747 -0.0124  0.7870 -0.8543
 7661SOL     OW34444   0.270   1.654   2.070  0.2994  0.2035 -0.7057
 7661SOL    HW134445   0.362   1.664   2.046  0.4141  2.8473  0.8509
 7661SOL    HW234446   0.240   1.671   1.981  1.4059 -2.5649 -1.6041
 7662SOL     OW34447   1.692   1.248   2.538 -0.5290  0.3683 -0.0414
 7662SOL    HW134448   1.726   1.264   2.626  0.3421 -0.3456 -0.2389
 7662SOL    HW234449   1.618   1.196   2.570  1.8025 -1.8036  1.8483
 7663SOL     OW34450   2.753   1.522   1.613  0.6684 -0.0288 -0.2508
 7663SOL    HW134451   2.689   1.452   1.621  1.1262 -0.1321  2.3278
 7663SOL    HW234452   2.813   1.488   1.679  2.8356  2.9931 -0.6473
 7664SOL     OW34453   1.775   1.230   3.766  0.3602 -0.4484  0.3301
 7664SOL    HW134454   1.790   1.233   3.860 -0.3832  2.4904  0.3630
 7664SOL    HW234455   1.807   1.142   3.744 -0.8730 -0.2126 -2.5344
 7665SOL     OW34456   2.059   2.522  13.900 -0.2006  0.5633 -0.3692
 7665SOL    HW134457   1.970   2.517  13.934 -0.2677 -0.3718 -0.6990
 7665SOL    HW234458   2.065   2.608  13.858 -0.7103  0.9060  0.2609
 7666SOL     OW34459   2.115   3.758   3.882  0.7034 -0.2445  0.1230
 7666SOL    HW134460   2.024   3.753   3.912  1.0593  1.3707  1.4489
 7666SOL    HW234461   2.126   3.852   3.874  1.0619 -0.3041 -0.0892
 7667SOL     OW34462   4.698   4.299  16.659 -0.2331  0.5055 -0.1446
 7667SOL    HW134463   0.045   4.323  16.601  0.7612 -1.5143  0.2483
 7667SOL    HW234464   4.628   4.295  16.593 -2.4177  1.1456  2.1654
 7668SOL     OW34465   0.358   3.314   6.838 -0.2317  0.5435  0.2175
 7668SOL    HW134466   0.301   3.369   6.891 -1.1768  1.2785 -1.5823
 7668SOL    HW234467   0.440   3.364   6.845  0.6063 -0.7852  0.0179
 7669SOL     OW34468   2.002   0.746  15.320  0.6888 -0.0571  0.2163
 7669SOL    HW134469   2.074   0.691  15.289  0.7195  0.7844 -1.2200
 7669SOL    HW234470   1.966   0.697  15.393 -0.3493  0.1711 -0.1391
 7670SOL     OW34471   1.588   2.073  14.802  0.2089 -0.2951  0.2915
 7670SOL    HW134472   1.670   2.027  14.785 -0.0404 -1.1236  1.3182
 7670SOL    HW234473   1.554   2.024  14.877 -0.2279 -0.5513 -0.0747
 7671SOL     OW34474   2.901   0.460   6.781 -0.5325 -0.3978 -0.5522
 7671SOL    HW134475   2.951   0.403   6.723  0.1264  0.4679 -0.8503
 7671SOL    HW234476   2.971   0.522   6.803  0.1709 -1.1371 -0.7264
 7672SOL     OW34477   0.410   3.691   6.045 -0.1536 -0.0067 -0.6553
 7672SOL    HW134478   0.429   3.606   6.005 -0.4314 -0.6794  0.6234
 7672SOL    HW234479   0.398   3.672   6.138 -3.2529  1.6303 -0.7078
 7673SOL     OW34480   2.847   2.149  11.891  0.0904 -0.2100  0.0138
 7673SOL    HW134481   2.933   2.113  11.911  1.6362  3.1726 -0.4607
 7673SOL    HW234482   2.871   2.186  11.806 -0.3884 -0.4282 -0.2132
 7674SOL     OW34483   3.223   1.311  15.766  0.1907  0.8068 -0.6802
 7674SOL    HW134484   3.219   1.220  15.735  1.5833  0.2852  0.6861
 7674SOL    HW234485   3.154   1.308  15.831 -1.5543  0.2213 -2.5351
 7675SOL     OW34486   3.434   2.360   7.485  0.3056  0.6744 -0.3531
 7675SOL    HW134487   3.479   2.443   7.497 -0.4919  1.0588 -0.0266
 7675SOL    HW234488   3.498   2.294   7.512 -0.9426 -1.0108 -1.4567
 7676SOL     OW34489   0.917   1.840   6.970 -0.2255  0.0524 -0.1257
 7676SOL    HW134490   0.940   1.924   7.009 -0.5638 -1.1888  2.6922
 7676SOL    HW234491   0.953   1.844   6.881 -0.6059 -0.9348 -0.3211
 7677SOL     OW34492   2.169   2.955   0.722  0.1037 -0.4298  0.1007
 7677SOL    HW134493   2.208   3.039   0.747 -2.8459  1.1049 -0.5089
 7677SOL    HW234494   2.250   2.910   0.748  0.6276  0.1066 -0.5751
 7678SOL     OW34495   3.006   2.397   8.429 -0.2516  1.0584  0.0878
 7678SOL    HW134496   3.008   2.355   8.515 -0.6464 -0.4360 -0.6259
 7678SOL    HW234497   3.083   2.454   8.430  0.7982 -0.3433 -0.9625
 7679SOL     OW34498   0.592   4.663   7.236 -0.2999  0.4199 -0.4712
 7679SOL    HW134499   0.649   4.677   7.311  0.5819 -0.0282 -1.0525
 7679SOL    HW234500   0.660   4.634   7.175  2.4919  0.0838  2.8772
 7680SOL     OW34501   4.236   2.284   9.544 -0.0811 -0.6978  0.0120
 7680SOL    HW134502   4.176   2.325   9.482  2.0296  2.7572  0.2561
 7680SOL    HW234503   4.167   2.237   9.590 -0.2532 -1.2706 -0.8260
 7681SOL     OW34504   0.393   4.539   3.382  0.4175 -0.1605 -0.4124
 7681SOL    HW134505   0.408   4.511   3.472  0.5885  0.7426 -0.1560
 7681SOL    HW234506   0.303   4.572   3.388 -0.6225 -2.4874 -3.2660
 7682SOL     OW34507   1.413   4.496   4.650  0.2227 -0.0668  0.1343
 7682SOL    HW134508   1.392   4.589   4.642  0.4531 -0.1377 -1.3837
 7682SOL    HW234509   1.389   4.461   4.564 -1.8786 -0.3832  0.8562
 7683SOL     OW34510   3.216   4.712   4.702  0.1377  0.3145  0.6869
 7683SOL    HW134511   3.165   4.676   4.629  0.3422  2.3986 -0.4673
 7683SOL    HW234512   3.219   4.627   4.747  1.3513  0.6433  1.2133
 7684SOL     OW34513   0.519   0.499   1.027 -0.4453 -0.7034  0.2438
 7684SOL    HW134514   0.521   0.583   1.073  0.9587  0.6907 -2.3681
 7684SOL    HW234515   0.440   0.466   1.071  0.0357 -0.8361  1.0231
 7685SOL     OW34516   1.544   0.503   8.490 -0.0816  0.2752  0.1673
 7685SOL    HW134517   1.524   0.528   8.399 -3.2195  0.4065  0.9100
 7685SOL    HW234518   1.637   0.524   8.496  0.5485 -2.2965 -0.4834
 7686SOL     OW34519   2.363   1.176  11.965 -0.0030  0.7074 -0.2963
 7686SOL    HW134520   2.280   1.131  11.948  0.3220  0.4735 -1.2339
 7686SOL    HW234521   2.371   1.227  11.885  2.1769 -1.1973 -1.2793
 7687SOL     OW34522   0.929   3.823   9.851 -0.5662 -0.2824  0.2571
 7687SOL    HW134523   0.952   3.793   9.940  2.7158 -0.0871 -0.5191
 7687SOL    HW234524   0.905   3.913   9.873 -0.9205 -0.4802  0.6905
 7688SOL     OW34525   3.711   0.591   3.814  0.4897  0.0360 -0.0839
 7688SOL    HW134526   3.735   0.653   3.744 -0.8022  0.9776  0.3159
 7688SOL    HW234527   3.641   0.537   3.778 -0.4883  1.0264  0.3594
 7689SOL     OW34528   0.637   2.924   0.189  0.3625  0.2930 -0.2646
 7689SOL    HW134529   0.606   2.835   0.170 -0.7748  1.0333 -1.8441
 7689SOL    HW234530   0.547   2.953   0.199  0.7210  1.1933  0.3440
 7690SOL     OW34531   1.689   0.385  13.031 -0.1483  0.2473  0.6979
 7690SOL    HW134532   1.674   0.473  12.994  0.1138 -0.2350 -0.5657
 7690SOL    HW234533   1.645   0.389  13.115  1.0635  0.1579  1.3444
 7691SOL     OW34534   2.575   2.816   8.643  0.4662  0.4648 -0.3770
 7691SOL    HW134535   2.660   2.786   8.612  1.5094  3.5911 -0.4714
 7691SOL    HW234536   2.515   2.797   8.571  2.1395 -0.3058 -1.5685
 7692SOL     OW34537   3.902   3.220   7.921 -0.3823 -0.0966  0.6614
 7692SOL    HW134538   3.834   3.272   7.879  0.1161 -0.6144 -0.7987
 7692SOL    HW234539   3.944   3.287   7.973  0.9907 -0.6208  0.2134
 7693SOL     OW34540   3.538   3.572  14.484 -0.4654 -0.5216  0.4197
 7693SOL    HW134541   3.463   3.622  14.517 -1.9573 -2.1771 -0.4252
 7693SOL    HW234542   3.607   3.610  14.539  0.1752  1.1284 -1.5470
 7694SOL     OW34543   2.520   3.401   4.435 -0.5129 -0.3473  0.4540
 7694SOL    HW134544   2.456   3.468   4.458  0.3799  0.5265  0.4500
 7694SOL    HW234545   2.465   3.324   4.423 -1.8734  1.1306 -2.8912
 7695SOL     OW34546   3.571   3.023  15.754 -0.0173 -0.0918  0.2921
 7695SOL    HW134547   3.505   2.957  15.775 -0.0458  0.0544  0.6641
 7695SOL    HW234548   3.577   3.066  15.840 -0.2240  1.8863 -0.6832
 7696SOL     OW34549   3.091   2.244   2.631  0.0566  0.2618  0.3160
 7696SOL    HW134550   3.114   2.172   2.690  0.9511 -0.6742 -1.1869
 7696SOL    HW234551   3.122   2.207   2.549  0.1286  0.3193  0.3177
 7697SOL     OW34552   1.093   3.587   6.663  0.1389  0.2527 -0.1941
 7697SOL    HW134553   1.055   3.659   6.612 -1.5436 -0.6470 -0.2324
 7697SOL    HW234554   1.123   3.633   6.741  0.3009 -0.3424  0.0963
 7698SOL     OW34555   0.162   4.685   5.824 -0.2319 -0.0397 -0.3405
 7698SOL    HW134556   0.151   0.050   5.793 -1.0998 -0.4339 -1.1720
 7698SOL    HW234557   0.222   4.645   5.762 -3.0556 -1.1433 -2.3507
 7699SOL     OW34558   1.179   4.218  10.616 -0.1436 -0.2989  0.7632
 7699SOL    HW134559   1.242   4.272  10.665  1.2643  0.6996 -2.1341
 7699SOL    HW234560   1.137   4.156  10.675 -1.9906  0.7532  0.5459
 7700SOL     OW34561   2.330   3.158  12.304  0.3985 -0.6121  0.0090
 7700SOL    HW134562   2.354   3.104  12.379  2.3322  1.7506  1.1023
 7700SOL    HW234563   2.271   3.094  12.266 -1.3596 -0.5070  2.5135
 7701SOL     OW34564   0.276   3.074   4.023 -0.1903 -0.3380  0.2022
 7701SOL    HW134565   0.365   3.104   4.009 -0.3573 -1.7300 -3.8038
 7701SOL    HW234566   0.279   3.040   4.112  1.4313  1.1913  0.7253
 7702SOL     OW34567   1.381   0.498  17.551  0.3159 -0.1055  0.0584
 7702SOL    HW134568   1.301   0.535  17.588  0.4180 -0.4619  0.6390
 7702SOL    HW234569   1.370   0.515  17.457 -2.7404  0.2804  0.5016
 7703SOL     OW34570   1.961   3.570   3.530 -0.4930 -0.1533 -0.3195
 7703SOL    HW134571   1.944   3.490   3.481  1.9819  0.7605 -2.6958
 7703SOL    HW234572   2.013   3.531   3.600  0.4893  0.3983 -0.7335
 7704SOL     OW34573   1.561   3.507  15.930  0.9484 -0.0946  0.1543
 7704SOL    HW134574   1.526   3.469  15.850 -1.0512  1.7021  0.1839
 7704SOL    HW234575   1.546   3.601  15.931  0.3719 -0.1931  0.4883
 7705SOL     OW34576   1.828   3.162   3.172 -0.4495  0.0868 -0.3065
 7705SOL    HW134577   1.739   3.131   3.187 -1.0543  2.3024  0.6616
 7705SOL    HW234578   1.888   3.088   3.164 -0.1315  0.1471  1.4840
 7706SOL     OW34579   0.844   1.306   8.988 -0.3164 -0.4225 -0.5377
 7706SOL    HW134580   0.858   1.399   8.977  1.8473 -0.9041 -1.7082
 7706SOL    HW234581   0.757   1.299   8.948 -1.2281 -1.9023  1.6799
 7707SOL     OW34582   3.172   4.219   9.282  0.0043  0.2276  0.0252
 7707SOL    HW134583   3.148   4.273   9.206 -2.2808 -0.4410  0.2610
 7707SOL    HW234584   3.086   4.219   9.323 -0.1375 -1.1531 -0.2759
 7708SOL     OW34585   0.288   1.836  16.418 -0.3414  0.0776 -0.7593
 7708SOL    HW134586   0.317   1.772  16.483  0.4759  0.2639 -0.9478
 7708SOL    HW234587   0.325   1.812  16.334 -0.8950  2.6341 -1.7429
 7709SOL     OW34588   3.652   1.918   6.992 -0.0207 -0.2366  0.2518
 7709SOL    HW134589   3.570   1.897   6.948 -0.8180  0.0807  1.5937
 7709SOL    HW234590   3.704   1.915   6.911 -1.8702 -0.6762 -0.9160
 7710SOL     OW34591   3.053   0.413  14.047 -0.5099 -0.1446  0.2371
 7710SOL    HW134592   3.139   0.452  14.063 -0.9630  0.8274  0.2925
 7710SOL    HW234593   3.045   0.337  14.104  0.1539 -1.4359 -1.3786
 7711SOL     OW34594   0.953   2.395   7.852 -0.4072  0.6586 -0.2815
 7711SOL    HW134595   1.035   2.443   7.865 -0.3302  0.2133  0.8882
 7711SOL    HW234596   0.943   2.382   7.758 -0.6725  0.7426 -0.2661
 7712SOL     OW34597   2.437   2.649   9.529  0.7588  0.5590  0.4860
 7712SOL    HW134598   2.518   2.604   9.507 -0.6006 -0.4541 -2.3291
 7712SOL    HW234599   2.459   2.740   9.508 -1.1747  1.1266  0.8877
 7713SOL     OW34600   0.339   4.705   6.724 -0.5117  0.0163 -0.2903
 7713SOL    HW134601   0.307   4.622   6.760  2.6225 -1.1917 -0.3072
 7713SOL    HW234602   0.361   4.681   6.634 -0.8925 -0.1004 -0.3551
 7714SOL     OW34603   0.362   0.417   5.561 -0.1678 -0.5986 -0.0811
 7714SOL    HW134604   0.457   0.420   5.571 -0.0798 -1.4316 -0.6777
 7714SOL    HW234605   0.337   0.510   5.557  1.0497 -0.2901 -0.6788
 7715SOL     OW34606   3.333   0.760   8.804 -0.6072  0.0799 -0.0207
 7715SOL    HW134607   3.374   0.838   8.765  0.4416  0.0188  0.9311
 7715SOL    HW234608   3.403   0.720   8.856 -2.7506 -0.1017  2.7511
 7716SOL     OW34609   0.823   0.395  12.095 -0.2872  0.2282  0.6072
 7716SOL    HW134610   0.792   0.335  12.164  2.0827 -1.5660  0.1168
 7716SOL    HW234611   0.745   0.450  12.092  1.1314  2.1036 -1.2462
 7717SOL     OW34612   1.150   1.333   6.038 -0.2876  0.1314  1.0745
 7717SOL    HW134613   1.083   1.393   6.006 -0.3478  0.2092  1.3462
 7717SOL    HW234614   1.214   1.391   6.078 -0.4913  2.2650 -1.7413
 7718SOL     OW34615   4.112   3.114   4.376 -0.3128 -0.1381 -0.2568
 7718SOL    HW134616   4.136   3.206   4.375  0.2375 -0.2738  0.3395
 7718SOL    HW234617   4.063   3.117   4.459  1.5623  1.0879  0.8005
 7719SOL     OW34618   4.502   3.080  12.181 -0.1456 -0.0368  0.3150
 7719SOL    HW134619   4.569   3.099  12.115 -1.3482 -1.3171 -1.2816
 7719SOL    HW234620   4.430   3.131  12.142  0.3314  0.5952  0.2500
 7720SOL     OW34621   3.144   3.985   6.710 -0.2843 -0.1499  0.3308
 7720SOL    HW134622   3.051   3.963   6.708 -0.4292  0.5235 -0.0244
 7720SOL    HW234623   3.146   4.032   6.627 -1.4906 -2.1733 -0.8480
 7721SOL     OW34624   3.335   2.415  17.529  0.3690 -0.0605 -0.1441
 7721SOL    HW134625   3.424   2.433  17.501 -0.0717 -0.2687 -1.6721
 7721SOL    HW234626   3.347   2.455  17.615  0.1253  1.0450 -0.6333
 7722SOL     OW34627   4.144   2.393   3.038 -0.3713 -0.0354  0.2514
 7722SOL    HW134628   4.091   2.465   3.004  1.6309 -0.3198 -3.5390
 7722SOL    HW234629   4.089   2.316   3.024  0.1277 -0.6812  1.8141
 7723SOL     OW34630   1.514   2.991   7.404  0.2385  0.5632 -0.3168
 7723SOL    HW134631   1.475   2.903   7.405  0.9928  0.2409  0.5957
 7723SOL    HW234632   1.598   2.955   7.432 -0.3094 -1.0699 -0.7178
 7724SOL     OW34633   3.478   0.768   5.048 -0.6160  0.0267  0.1222
 7724SOL    HW134634   3.519   0.690   5.011  1.6604  2.0693 -1.6819
 7724SOL    HW234635   3.405   0.768   4.987 -2.1298  1.7340  1.9439
 7725SOL     OW34636   1.120   1.308   3.198 -0.6435 -0.1216  0.2108
 7725SOL    HW134637   1.076   1.239   3.148 -0.4980  0.2887 -0.4773
 7725SOL    HW234638   1.163   1.364   3.133 -0.8158  0.5774  0.7108
 7726SOL     OW34639   1.532   0.265   2.110 -0.1163  0.0263 -0.5395
 7726SOL    HW134640   1.627   0.261   2.097  0.0500 -0.1654  0.6730
 7726SOL    HW234641   1.505   0.187   2.062  1.9172 -0.0558 -1.5409
 7727SOL     OW34642   1.504   2.257   6.529  0.2150 -0.7807 -0.3783
 7727SOL    HW134643   1.545   2.199   6.593  3.8730 -1.0964 -3.0519
 7727SOL    HW234644   1.574   2.317   6.504  0.2436 -0.4782  0.4323
 7728SOL     OW34645   3.361   3.432   2.077 -0.6185 -0.3399  0.2103
 7728SOL    HW134646   3.453   3.452   2.096  0.0486 -1.2908 -1.9226
 7728SOL    HW234647   3.333   3.505   2.022  1.1162  0.9051  0.9815
 7729SOL     OW34648   0.063   0.714  15.701  0.1935 -0.0171  0.2040
 7729SOL    HW134649   4.694   0.726  15.713  0.0915 -0.1888 -0.4692
 7729SOL    HW234650   0.086   0.805  15.681 -2.6142  0.5403 -0.5273
 7730SOL     OW34651   0.265   4.337  11.303 -0.2769 -0.4216  0.6897
 7730SOL    HW134652   0.212   4.284  11.244 -0.0160 -0.3767  0.4146
 7730SOL    HW234653   0.351   4.302  11.280 -0.6889  0.7301 -2.5560
 7731SOL     OW34654   3.776   4.652   1.429 -0.3841 -0.5599  0.2063
 7731SOL    HW134655   3.743   4.567   1.398  0.4323 -0.5898 -0.5776
 7731SOL    HW234656   3.774   4.696   1.344  0.9695  1.3573  1.1940
 7732SOL     OW34657   3.121   0.026   2.343  0.0836  0.3017 -0.2857
 7732SOL    HW134658   3.067   4.676   2.317  0.9474  0.1320 -1.6496
 7732SOL    HW234659   3.153   4.715   2.425  1.0127 -1.2679 -1.3272
 7733SOL     OW34660   1.875   3.996  16.118  0.0868 -0.3129 -0.3576
 7733SOL    HW134661   1.855   4.037  16.034 -1.1601 -0.7433 -0.2648
 7733SOL    HW234662   1.796   3.942  16.124 -0.3158  0.2175 -0.8904
 7734SOL     OW34663   3.937   0.810   2.330  0.0367  0.2274 -0.1535
 7734SOL    HW134664   3.998   0.738   2.319  0.4423 -0.0346  3.8062
 7734SOL    HW234665   3.916   0.810   2.423 -0.6598 -2.1491 -0.3046
 7735SOL     OW34666   2.046   2.422   4.492  0.3195 -0.4139 -0.1671
 7735SOL    HW134667   2.110   2.456   4.429  0.8097 -1.0565 -0.0148
 7735SOL    HW234668   2.079   2.474   4.565 -1.9378  1.0960 -0.2108
 7736SOL     OW34669   0.186   1.956   3.560  0.3661  0.2991 -0.2284
 7736SOL    HW134670   0.234   1.974   3.641  1.0123  0.7594 -0.7079
 7736SOL    HW234671   0.137   1.878   3.585 -0.1581  0.6004 -0.3305
 7737SOL     OW34672   0.219   3.618   5.199 -0.4826  0.2223 -0.2519
 7737SOL    HW134673   0.228   3.600   5.293  1.4497  0.2143 -0.4413
 7737SOL    HW234674   0.309   3.610   5.169  0.9782 -0.2699  4.2522
 7738SOL     OW34675   2.881   2.353   5.743  0.0396 -0.6348 -0.0596
 7738SOL    HW134676   2.806   2.402   5.775 -0.9309 -0.0277 -3.2182
 7738SOL    HW234677   2.935   2.419   5.701  1.8480 -2.4361 -0.5973
 7739SOL     OW34678   1.685   3.278   4.096  0.1940  0.6422 -0.5166
 7739SOL    HW134679   1.738   3.290   4.017  0.4133  0.0755 -0.4623
 7739SOL    HW234680   1.753   3.251   4.159  0.2725 -3.0957 -2.2141
 7740SOL     OW34681   2.824   1.401  17.313  0.3140 -0.4770  0.3762
 7740SOL    HW134682   2.828   1.490  17.347  1.2451 -2.4323  5.3245
 7740SOL    HW234683   2.835   1.416  17.219 -2.1926  0.8178  0.2822
 7741SOL     OW34684   3.908   0.292  17.423 -0.1609  0.1434 -0.7057
 7741SOL    HW134685   3.993   0.311  17.381  0.5657 -0.3703  0.5293
 7741SOL    HW234686   3.888   0.203  17.395 -0.4053  0.9945 -3.2812
 7742SOL     OW34687   0.190   2.431   3.150  0.2508 -0.4397 -0.0162
 7742SOL    HW134688   0.175   2.415   3.057 -0.6595 -1.5173  0.3161
 7742SOL    HW234689   0.133   2.506   3.163 -0.7725 -1.0413 -1.0170
 7743SOL     OW34690   2.890   2.506   8.205 -0.7235  0.2606  0.1924
 7743SOL    HW134691   2.944   2.475   8.278 -1.9479  0.4014  1.1658
 7743SOL    HW234692   2.911   2.598   8.192  0.3247  0.0738  0.5740
 7744SOL     OW34693   0.054   2.394  17.639  0.4937  0.1656 -0.0944
 7744SOL    HW134694   0.103   2.339  17.700 -0.7835 -1.9967 -1.0174
 7744SOL    HW234695   0.083   2.479  17.672  1.1426 -0.4424  0.8885
 7745SOL     OW34696   0.477   2.380   5.591  0.4107  0.4133 -0.0515
 7745SOL    HW134697   0.475   2.434   5.670  0.1169  0.7833 -0.3156
 7745SOL    HW234698   0.569   2.370   5.566 -0.2785 -0.0597 -2.3638
 7746SOL     OW34699   0.509   0.962   4.931  0.4833  0.6323  0.4075
 7746SOL    HW134700   0.469   0.998   5.010 -0.6870  1.3518 -0.5175
 7746SOL    HW234701   0.588   0.920   4.964  0.5337  1.1178  0.9004
 7747SOL     OW34702   1.429   4.477   0.221 -0.0631 -0.8045 -0.2156
 7747SOL    HW134703   1.451   4.566   0.248  2.0607 -1.9693  1.8556
 7747SOL    HW234704   1.349   4.463   0.272 -0.1247  2.2892  0.5046
 7748SOL     OW34705   1.849   2.595   4.727 -0.1260 -0.2598  0.4561
 7748SOL    HW134706   1.854   2.509   4.684  0.1251 -0.0600  0.0816
 7748SOL    HW234707   1.768   2.599   4.777  0.2794 -3.0672  1.3421
 7749SOL     OW34708   0.825   2.823   7.718  0.4439  0.6274  0.3344
 7749SOL    HW134709   0.754   2.876   7.755 -1.0902 -0.0414 -1.6729
 7749SOL    HW234710   0.809   2.837   7.624 -0.0093 -0.1428  0.2994
 7750SOL     OW34711   3.732   2.140  11.001 -0.3667  0.3313 -0.3648
 7750SOL    HW134712   3.648   2.163  11.040  0.0135 -0.5672  0.9901
 7750SOL    HW234713   3.731   2.045  10.991  0.7583  0.1429  1.2941
 7751SOL     OW34714   2.188   3.616   7.915 -0.4393  0.0077  0.1306
 7751SOL    HW134715   2.182   3.673   7.838 -3.5641 -0.3936  0.1030
 7751SOL    HW234716   2.269   3.646   7.957 -0.0582  0.1038 -0.6533
 7752SOL     OW34717   4.610   3.845   8.226 -0.0846 -0.1793  0.0907
 7752SOL    HW134718   4.539   3.826   8.287  0.3577  0.3795  0.7640
 7752SOL    HW234719   4.636   3.931   8.258  2.1095 -1.4334  1.6949
 7753SOL     OW34720   2.939   1.012   1.238 -0.1022  0.3135  0.4365
 7753SOL    HW134721   2.863   1.043   1.287 -0.1620  0.5449  0.1968
 7753SOL    HW234722   3.016   1.034   1.289 -1.1941 -3.0664  3.5432
 7754SOL     OW34723   4.586   0.979   5.923 -0.3294 -0.0929  0.2191
 7754SOL    HW134724   4.611   0.910   5.985 -0.5997  0.5053  0.9983
 7754SOL    HW234725   4.493   0.987   5.946 -0.7691  0.6198 -1.8758
 7755SOL     OW34726   4.056   2.171  17.048  0.3721 -0.4909 -0.3851
 7755SOL    HW134727   4.020   2.250  17.089  0.9324  0.7323 -2.2535
 7755SOL    HW234728   4.006   2.102  17.091 -0.6008 -0.8740 -2.1114
 7756SOL     OW34729   3.356   3.722   1.400 -0.7222 -0.3193  0.0796
 7756SOL    HW134730   3.281   3.776   1.423 -2.0462 -2.3949  0.5451
 7756SOL    HW234731   3.428   3.775   1.435  0.6593 -0.8294 -2.0035
 7757SOL     OW34732   3.803   2.784   9.185  0.7501 -0.0033  0.2505
 7757SOL    HW134733   3.800   2.741   9.271 -1.7285 -0.9338 -0.2762
 7757SOL    HW234734   3.871   2.737   9.137  1.6204  1.0432  0.4656
 7758SOL     OW34735   2.543   3.178   1.489  0.1372  0.2326 -0.0330
 7758SOL    HW134736   2.468   3.168   1.430  0.8770 -1.5006 -0.6745
 7758SOL    HW234737   2.500   3.230   1.556 -1.6491  0.8888 -1.6875
 7759SOL     OW34738   2.822   0.024   2.474 -0.1640 -0.4187  0.0751
 7759SOL    HW134739   2.869   4.690   2.533  1.8232  0.6176 -0.4970
 7759SOL    HW234740   2.734   0.025   2.513  0.0719 -2.4185  0.6428
 7760SOL     OW34741   3.898   0.321   0.113  0.2515  0.2638  0.1627
 7760SOL    HW134742   3.994   0.325   0.114  0.2946 -0.6986 -0.5927
 7760SOL    HW234743   3.873   0.231   0.093 -0.1388  0.4169 -0.0337
 7761SOL     OW34744   0.591   2.933   4.902 -0.4114  0.2465  0.3713
 7761SOL    HW134745   0.537   2.904   4.828  0.2206  0.6980 -0.2693
 7761SOL    HW234746   0.563   3.021   4.929  1.4107  1.1362 -0.5868
 7762SOL     OW34747   0.346   0.933  16.934  0.6357 -0.1754 -0.1663
 7762SOL    HW134748   0.390   0.869  16.990 -1.6749 -0.6685  1.1056
 7762SOL    HW234749   0.319   0.871  16.866 -1.8369  1.4643 -0.6724
 7763SOL     OW34750   4.298   1.536   4.740 -0.5454  0.0636 -0.4313
 7763SOL    HW134751   4.227   1.547   4.676 -1.2415 -2.9427 -0.1997
 7763SOL    HW234752   4.272   1.602   4.804 -1.7477 -1.8940  1.1100
 7764SOL     OW34753   2.843   4.301  10.352  0.0499 -0.0512 -0.1494
 7764SOL    HW134754   2.865   4.391  10.328  0.0220 -0.5823 -2.2021
 7764SOL    HW234755   2.897   4.306  10.431  1.3898 -2.4309 -0.9012
 7765SOL     OW34756   2.421   4.148   4.601 -0.1247 -0.0319 -0.5537
 7765SOL    HW134757   2.492   4.085   4.589  2.3047  2.3800  1.1314
 7765SOL    HW234758   2.356   4.086   4.633  1.3575 -1.5933 -0.5993
 7766SOL     OW34759   2.119   0.333   4.881 -0.4439  0.5446  0.0533
 7766SOL    HW134760   2.144   0.287   4.801 -1.3145 -1.6436  1.0657
 7766SOL    HW234761   2.042   0.378   4.846 -0.1071  3.2595  2.7980
 7767SOL     OW34762   4.247   4.537  17.658 -0.1168  0.4370 -0.4860
 7767SOL    HW134763   4.338   4.522  17.682 -0.4228  0.3050  0.6067
 7767SOL    HW234764   4.225   4.465  17.598  0.1023 -0.8329  0.9422
 7768SOL     OW34765   4.184   4.178   7.691 -0.5626  0.6175  0.0473
 7768SOL    HW134766   4.096   4.203   7.717 -1.6985 -2.3049 -0.9529
 7768SOL    HW234767   4.194   4.085   7.712  2.7652  0.8023 -0.6461
 7769SOL     OW34768   0.328   3.458   8.327  0.1049 -0.1236  0.3028
 7769SOL    HW134769   0.422   3.475   8.314  0.3943 -2.9168 -1.1503
 7769SOL    HW234770   0.292   3.544   8.306  0.7277  0.2303  0.6778
 7770SOL     OW34771   2.125   3.181   7.289  0.2008  0.0904  0.8894
 7770SOL    HW134772   2.139   3.174   7.384 -0.2043  0.5139  0.9812
 7770SOL    HW234773   2.034   3.150   7.282  0.3203  0.3590 -1.5532
 7771SOL     OW34774   2.228   0.039   6.714 -0.1022 -0.2952 -0.5022
 7771SOL    HW134775   2.160   0.104   6.695  1.2808  1.7001  1.4024
 7771SOL    HW234776   2.253   0.070   6.801  0.5182  0.3523 -0.9136
 7772SOL     OW34777   1.325   3.439   4.052 -0.0438 -0.4032 -0.0780
 7772SOL    HW134778   1.236   3.439   4.016 -1.3256 -0.0818  3.0208
 7772SOL    HW234779   1.347   3.348   4.031 -0.8913 -0.9388  1.3083
 7773SOL     OW34780   3.228   4.492   6.808  0.0993  0.0300 -0.6067
 7773SOL    HW134781   3.149   4.540   6.832  0.2300 -0.2820  0.4533
 7773SOL    HW234782   3.275   4.487   6.891 -0.2654  0.1216 -0.3999
 7774SOL     OW34783   4.264   4.625   0.880 -0.3685  0.4775 -0.4356
 7774SOL    HW134784   4.263   4.584   0.967 -2.1832  2.4686  0.4613
 7774SOL    HW234785   4.208   4.699   0.901  0.9466  1.3189  0.1086
 7775SOL     OW34786   3.832   4.062  17.649 -0.8019  0.0895  0.4067
 7775SOL    HW134787   3.921   4.093  17.636 -1.0282  0.5680  0.0123
 7775SOL    HW234788   3.838   3.986  17.591  1.7712 -0.3427  1.2362
 7776SOL     OW34789   1.017   2.491   3.991  0.7091  0.6125 -0.2539
 7776SOL    HW134790   1.026   2.418   3.931 -1.1713 -1.2588  1.7138
 7776SOL    HW234791   0.982   2.449   4.070  2.0733 -0.2326 -0.1047
 7777SOL     OW34792   1.567   2.035   4.747  0.6017  0.2135 -0.0179
 7777SOL    HW134793   1.570   2.050   4.841  0.0829 -0.9371  0.1845
 7777SOL    HW234794   1.662   2.049   4.737  0.9358 -1.0209  1.5439
 7778SOL     OW34795   4.459   3.474  13.035  0.2222  0.0601 -0.4437
 7778SOL    HW134796   4.404   3.524  12.975  1.8525  2.0338 -0.3125
 7778SOL    HW234797   4.498   3.411  12.974  0.5496  0.3475 -0.5323
 7779SOL     OW34798   2.809   3.975   4.078 -0.1767 -0.4917  0.2743
 7779SOL    HW134799   2.725   3.975   4.125  0.1595  1.6050  0.8343
 7779SOL    HW234800   2.790   4.042   4.013  0.3607  0.8426  1.4942
 7780SOL     OW34801   4.551   1.040   6.260  0.0044 -0.2683  0.1244
 7780SOL    HW134802   4.626   1.047   6.319 -1.0655  1.4416  1.2838
 7780SOL    HW234803   4.520   0.961   6.304 -0.3585 -0.0065  0.3437
 7781SOL     OW34804   0.957   0.209   2.645 -0.0402  0.8268  0.1413
 7781SOL    HW134805   0.934   0.198   2.737 -1.2732  1.0011 -0.1409
 7781SOL    HW234806   0.909   0.139   2.599 -0.2661  0.7510  0.4963
 7782SOL     OW34807   4.295   2.005   5.314 -0.0000  0.5299  0.3238
 7782SOL    HW134808   4.294   2.093   5.276  0.4725 -0.9468 -3.0586
 7782SOL    HW234809   4.204   1.981   5.303  0.5946 -0.4047 -2.4551
 7783SOL     OW34810   0.769   0.189   2.082 -0.8498 -0.0511  0.3377
 7783SOL    HW134811   0.695   0.248   2.098 -1.8399 -1.5452  1.3500
 7783SOL    HW234812   0.808   0.187   2.169 -3.4818 -2.3538  1.4718
 7784SOL     OW34813   3.444   3.655   3.723  0.4951  0.8659 -0.0827
 7784SOL    HW134814   3.521   3.711   3.722  0.7109  0.5541 -1.9513
 7784SOL    HW234815   3.410   3.696   3.643 -1.6234  0.9902  0.8925
 7785SOL     OW34816   4.580   3.070   1.664 -0.0051 -0.3421  0.0191
 7785SOL    HW134817   4.643   3.139   1.682 -0.6672  0.7744 -1.9639
 7785SOL    HW234818   4.515   3.101   1.728 -2.5469 -1.1574 -2.1719
 7786SOL     OW34819   0.422   1.767  17.526  0.5187 -0.0515 -0.3646
 7786SOL    HW134820   0.355   1.746  17.591  0.7021 -3.3144 -1.2528
 7786SOL    HW234821   0.478   1.820  17.583  0.3229 -0.6345  0.3578
 7787SOL     OW34822   2.853   3.949   1.222  0.2402  0.1447 -0.0817
 7787SOL    HW134823   2.889   4.016   1.280  0.1377  0.4334 -0.3516
 7787SOL    HW234824   2.919   3.956   1.154 -0.1300 -0.0636 -0.4632
 7788SOL     OW34825   2.503   2.934  16.036  0.2677 -0.1651  0.0269
 7788SOL    HW134826   2.448   2.861  16.008 -0.5017  0.0597  0.9582
 7788SOL    HW234827   2.448   3.007  16.066  1.6144 -0.0008  2.0819
 7789SOL     OW34828   3.829   3.528  13.234  0.7776 -0.5663  0.7806
 7789SOL    HW134829   3.790   3.592  13.294  1.3791 -1.5220  2.1790
 7789SOL    HW234830   3.920   3.536  13.260  0.9434 -0.3769  0.1358
 7790SOL     OW34831   0.721   2.564   7.806 -0.9089  0.2971 -0.0344
 7790SOL    HW134832   0.789   2.512   7.765 -0.1913  1.3614 -0.1856
 7790SOL    HW234833   0.761   2.651   7.804  5.4380 -2.5796  3.1850
 7791SOL     OW34834   1.051   2.211  11.917  0.3482 -0.0966  0.1872
 7791SOL    HW134835   1.033   2.304  11.902 -1.4600 -0.3732  0.5904
 7791SOL    HW234836   1.140   2.199  11.884  0.8681  3.5735  0.2947
 7792SOL     OW34837   2.365   2.363   1.529  0.3809  0.3335 -0.0810
 7792SOL    HW134838   2.374   2.290   1.590  0.1465  0.8026  0.5097
 7792SOL    HW234839   2.334   2.440   1.576  1.6295  0.2729  0.8125
 7793SOL     OW34840   4.182   1.288   7.772  0.1618 -0.4246  0.1547
 7793SOL    HW134841   4.170   1.374   7.732  0.0720 -0.0486  0.9943
 7793SOL    HW234842   4.118   1.303   7.841 -1.6094 -0.9215 -1.3629
 7794SOL     OW34843   2.361   0.348   3.981 -0.2252 -0.6193  0.2668
 7794SOL    HW134844   2.307   0.424   3.960  1.5189  0.2481 -1.0748
 7794SOL    HW234845   2.294   0.280   3.985 -0.1363 -0.6911  0.5462
 7795SOL     OW34846   3.818   1.627   4.306  0.0959  0.2344 -0.4239
 7795SOL    HW134847   3.910   1.651   4.290 -0.0195  0.8084 -0.2436
 7795SOL    HW234848   3.814   1.548   4.254 -3.2980 -0.5198  1.0277
 7796SOL     OW34849   3.563   2.603   8.516 -0.0340 -0.4817  0.2155
 7796SOL    HW134850   3.586   2.513   8.539  0.9240 -0.5691 -1.0847
 7796SOL    HW234851   3.524   2.636   8.597 -0.5227  0.0139 -0.2191
 7797SOL     OW34852   4.673   4.673   3.305  0.3381 -0.5327 -0.4716
 7797SOL    HW134853   4.676   0.039   3.274  2.2373 -0.1891  0.7559
 7797SOL    HW234854   4.656   4.631   3.221  0.4509  0.2962 -0.9110
 7798SOL     OW34855   3.276   4.448   4.829 -0.0893  0.3260 -0.0262
 7798SOL    HW134856   3.224   4.446   4.909  1.5896  2.1186  1.1304
 7798SOL    HW234857   3.309   4.358   4.828  1.3394  0.8769 -2.2833
 7799SOL     OW34858   0.533   1.079   3.871 -0.2093 -0.0175  0.3581
 7799SOL    HW134859   0.609   1.136   3.864 -0.4072  0.0912 -0.8638
 7799SOL    HW234860   0.555   1.026   3.948  1.0158 -0.6892 -0.4546
 7800SOL     OW34861   2.708   4.041   8.248 -0.1987 -0.3359  0.0114
 7800SOL    HW134862   2.709   3.973   8.316  2.0944  1.0304  1.3312
 7800SOL    HW234863   2.798   4.029   8.216 -0.2894  0.8224 -0.6650
 7801SOL     OW34864   1.118   2.735   4.066  0.2976  0.6999 -0.1112
 7801SOL    HW134865   1.072   2.656   4.038  0.6739  0.2350  0.6103
 7801SOL    HW234866   1.171   2.696   4.136  0.3965  0.7371 -0.1656
 7802SOL     OW34867   3.833   1.309   7.799  0.2510 -0.5494 -0.3957
 7802SOL    HW134868   3.789   1.285   7.718 -0.1794 -1.6314  0.1665
 7802SOL    HW234869   3.781   1.268   7.868 -1.1768  1.1920 -0.4362
 7803SOL     OW34870   0.708   3.741   3.261 -0.3725 -0.6853 -0.4645
 7803SOL    HW134871   0.703   3.691   3.342 -1.1797 -0.1774 -0.1999
 7803SOL    HW234872   0.746   3.674   3.204  0.8364 -2.1130  2.0346
 7804SOL     OW34873   0.968   3.898   6.172  0.1167  0.3066  0.0918
 7804SOL    HW134874   0.879   3.865   6.189 -0.7103  2.2107 -0.5269
 7804SOL    HW234875   0.971   3.896   6.076  4.2546  1.7325  0.2024
 7805SOL     OW34876   2.672   2.759   9.284 -0.1291  0.2230  0.2944
 7805SOL    HW134877   2.622   2.824   9.333 -0.1786  2.0341 -2.1409
 7805SOL    HW234878   2.744   2.746   9.346  0.2965 -2.7439 -0.8180
 7806SOL     OW34879   1.905   3.640  10.490 -0.4838  0.3022 -0.1718
 7806SOL    HW134880   1.919   3.555  10.532  1.9780  0.0840 -1.4347
 7806SOL    HW234881   1.885   3.614  10.401  0.1594 -1.2907  0.1446
 7807SOL     OW34882   4.050   2.298   3.500  0.1316 -0.1726  0.3276
 7807SOL    HW134883   4.137   2.295   3.539  0.1562 -1.5666  0.1820
 7807SOL    HW234884   4.052   2.391   3.478 -0.6475 -0.0312  0.8375
 7808SOL     OW34885   1.681   2.438   9.528 -0.7065 -0.6837 -0.5811
 7808SOL    HW134886   1.732   2.360   9.553 -0.1763 -0.7971 -2.0034
 7808SOL    HW234887   1.731   2.505   9.575 -1.9938  0.6176 -1.0937
 7809SOL     OW34888   0.659   4.514  13.448  0.4511  0.8892  0.2717
 7809SOL    HW134889   0.568   4.525  13.422  0.5665  0.4025 -0.3268
 7809SOL    HW234890   0.691   4.505  13.358  0.2781  1.7571  0.1219
 7810SOL     OW34891   4.455   1.551   1.272  0.0069 -0.9391  0.2383
 7810SOL    HW134892   4.379   1.497   1.296 -0.8967  0.2993  0.1514
 7810SOL    HW234893   4.453   1.620   1.338 -0.5400  1.6526 -2.5012
 7811SOL     OW34894   4.295   3.431  13.479  0.1018  0.2362 -0.1376
 7811SOL    HW134895   4.326   3.480  13.555 -0.8787  1.9961 -0.8744
 7811SOL    HW234896   4.309   3.341  13.509 -1.9467  0.1625  0.6055
 7812SOL     OW34897   0.185   1.193   4.451  0.2837  0.0691  0.2750
 7812SOL    HW134898   0.279   1.193   4.472  0.8292 -2.8520 -2.1944
 7812SOL    HW234899   0.151   1.132   4.516 -1.6238  1.4561  0.5655
 7813SOL     OW34900   1.866   1.111  15.759  0.2718 -0.1507  0.4445
 7813SOL    HW134901   1.802   1.180  15.741  0.9211  0.1513 -0.7209
 7813SOL    HW234902   1.876   1.121  15.854 -0.7873 -1.3204  0.6855
 7814SOL     OW34903   3.838   4.566   2.927 -0.3585  0.2357 -0.4331
 7814SOL    HW134904   3.887   4.488   2.902 -0.3316 -0.4464  1.7238
 7814SOL    HW234905   3.910   4.629   2.939  0.9446 -0.9983 -1.8940
 7815SOL     OW34906   0.289   2.700  14.889  0.6200 -0.6538 -0.4128
 7815SOL    HW134907   0.378   2.683  14.919 -0.4333 -2.2120  1.8095
 7815SOL    HW234908   0.276   2.639  14.816  2.7356 -2.1667  0.4737
 7816SOL     OW34909   0.607   0.875   1.621 -0.3398  0.3600  0.0560
 7816SOL    HW134910   0.629   0.968   1.618 -0.0917  0.2919 -0.2268
 7816SOL    HW234911   0.512   0.876   1.622 -0.3570 -0.4594 -0.1203
 7817SOL     OW34912   0.263   4.662   5.254  0.0656 -0.0716  0.3014
 7817SOL    HW134913   0.183   4.609   5.262 -0.0406  0.1209  0.5386
 7817SOL    HW234914   0.225   0.024   5.268  0.1257 -0.1493  0.9481
 7818SOL     OW34915   0.252   2.678   9.615  0.4207  0.0197  0.3482
 7818SOL    HW134916   0.176   2.630   9.582  1.1856 -1.6187  1.0042
 7818SOL    HW234917   0.313   2.689   9.543  1.3777 -1.3638  0.9678
 7819SOL     OW34918   4.562   2.385   4.332  0.1096  0.3621  0.2506
 7819SOL    HW134919   4.588   2.297   4.303 -1.3430 -0.5195  1.5718
 7819SOL    HW234920   4.632   2.440   4.297  1.4533 -1.3062  0.2759
 7820SOL     OW34921   4.058   4.363   8.003 -0.1346 -0.7193 -0.3834
 7820SOL    HW134922   4.075   4.443   8.052  2.9015 -2.4840  1.4224
 7820SOL    HW234923   3.985   4.393   7.948  0.2062  0.1128 -0.3676
 7821SOL     OW34924   2.309   3.181   0.785  0.0467  0.6617  0.3701
 7821SOL    HW134925   2.387   3.207   0.735 -1.5467  0.5717 -2.1824
 7821SOL    HW234926   2.351   3.204   0.868 -1.4761  0.3825  1.2180
 7822SOL     OW34927   3.677   3.870   8.026 -0.4371  0.2409  0.1014
 7822SOL    HW134928   3.757   3.828   8.057 -0.1143  0.2588 -0.7025
 7822SOL    HW234929   3.696   3.961   8.045  0.8298 -0.6753  3.1718
 7823SOL     OW34930   2.599   2.749   3.345 -0.3886 -0.0296  0.0624
 7823SOL    HW134931   2.582   2.836   3.382  0.7153  0.6753 -1.0795
 7823SOL    HW234932   2.649   2.772   3.266 -0.1742  0.6125  0.3881
 7824SOL     OW34933   4.301   0.707   1.929 -0.6571 -0.9795 -0.2543
 7824SOL    HW134934   4.326   0.722   2.020 -0.9254  2.6600 -0.7452
 7824SOL    HW234935   4.264   0.795   1.918  0.9582 -0.0494  1.7892
 7825SOL     OW34936   0.890   1.599   4.105  0.2279  0.2283 -0.1423
 7825SOL    HW134937   0.941   1.678   4.119  0.7966 -0.5165  1.9610
 7825SOL    HW234938   0.958   1.551   4.058  1.4257  0.7192  1.0880
 7826SOL     OW34939   0.127   4.506   8.261  0.1332 -0.1613 -0.0084
 7826SOL    HW134940   0.089   4.420   8.275 -0.1586  0.0471  0.4917
 7826SOL    HW234941   0.217   4.493   8.290  0.5100 -0.4610 -1.3023
 7827SOL     OW34942   1.152   1.365   7.298  0.7092  0.8836 -0.1395
 7827SOL    HW134943   1.224   1.397   7.243 -0.9154  1.9516 -1.6345
 7827SOL    HW234944   1.194   1.389   7.381  1.4932 -2.1042  0.3208
 7828SOL     OW34945   2.558   3.679   9.120  0.2848  0.0080 -0.2992
 7828SOL    HW134946   2.535   3.591   9.150 -1.1024  0.3795 -0.2786
 7828SOL    HW234947   2.647   3.696   9.151  0.6976 -0.7674 -1.0554
 7829SOL     OW34948   1.659   4.459   4.776  0.1701 -0.0319  0.3351
 7829SOL    HW134949   1.576   4.490   4.740 -0.5158 -0.7799  1.2858
 7829SOL    HW234950   1.641   4.464   4.869  1.5411 -1.1006  0.6557
 7830SOL     OW34951   1.311   2.948   4.642  0.2305 -0.3839 -0.4600
 7830SOL    HW134952   1.383   2.975   4.585  0.2440 -0.1720 -0.3410
 7830SOL    HW234953   1.254   3.020   4.617  1.3189  1.4978  2.4766
 7831SOL     OW34954   1.361   4.044   6.152 -0.1707 -0.7870  0.0182
 7831SOL    HW134955   1.353   3.967   6.096  0.4714 -0.9025  0.0898
 7831SOL    HW234956   1.390   4.016   6.239 -1.4533  0.1708  0.7751
 7832SOL     OW34957   1.022   1.088   4.244 -0.4742  0.1012 -0.2755
 7832SOL    HW134958   1.064   1.066   4.162 -0.9426 -0.1077 -0.4579
 7832SOL    HW234959   1.010   1.182   4.228 -4.7941 -0.7141 -1.9714
 7833SOL     OW34960   0.607   0.299   6.698 -0.4749  0.2906 -0.2787
 7833SOL    HW134961   0.566   0.383   6.680  0.6797  0.5394 -1.7466
 7833SOL    HW234962   0.698   0.326   6.712 -0.8446  1.8580 -0.9246
 7834SOL     OW34963   3.650   2.305   6.140  0.0110 -0.0148 -0.1780
 7834SOL    HW134964   3.598   2.336   6.214  1.2253 -0.2604  0.7812
 7834SOL    HW234965   3.697   2.384   6.112 -0.0180 -0.5560 -1.7268
 7835SOL     OW34966   2.479   3.217   1.886 -0.3592  0.2761  0.5138
 7835SOL    HW134967   2.412   3.158   1.852  0.8214 -1.1211  0.6327
 7835SOL    HW234968   2.546   3.151   1.903 -0.2937 -0.0908 -1.1354
 7836SOL     OW34969   2.753   1.305   8.243  0.1995  0.4588  0.0443
 7836SOL    HW134970   2.791   1.278   8.160  1.0935  0.5914  0.4113
 7836SOL    HW234971   2.662   1.281   8.228 -0.2030  0.6392  2.1221
 7837SOL     OW34972   4.468   2.602   2.802  0.0747  0.2059 -0.0019
 7837SOL    HW134973   4.421   2.685   2.791 -0.7775  0.0236  2.4215
 7837SOL    HW234974   4.508   2.621   2.887  1.7359 -2.3586 -0.2102
 7838SOL     OW34975   1.476   1.978  15.034  0.5472 -0.2606  0.6676
 7838SOL    HW134976   1.519   1.907  15.082  0.7382  0.0467  0.9470
 7838SOL    HW234977   1.388   1.943  15.021  0.7700 -0.9428  0.9882
 7839SOL     OW34978   3.735   2.987  12.090  0.4535 -0.1624 -0.2092
 7839SOL    HW134979   3.640   2.993  12.086  0.3529 -1.7170 -0.1035
 7839SOL    HW234980   3.748   2.917  12.155 -0.2563  0.2278  0.3419
 7840SOL     OW34981   1.172   3.847   3.542 -0.3522 -0.2222 -0.1770
 7840SOL    HW134982   1.082   3.861   3.512 -0.8574  0.3764  1.6133
 7840SOL    HW234983   1.194   3.770   3.489  1.7458 -0.5487  1.1777
 7841SOL     OW34984   3.440   4.233   7.111 -0.0248  0.3730 -0.2683
 7841SOL    HW134985   3.403   4.153   7.148  0.9322  0.6677  1.2832
 7841SOL    HW234986   3.516   4.246   7.167 -1.6308 -1.0564  2.2451
 7842SOL     OW34987   0.355   1.867  12.634 -0.3596  0.4854  0.1575
 7842SOL    HW134988   0.443   1.869  12.673  0.0245  1.5159 -0.7435
 7842SOL    HW234989   0.379   1.806  12.564 -1.9303  0.0040  0.0420
 7843SOL     OW34990   1.884   0.445   5.201  0.2130 -0.1192  0.5553
 7843SOL    HW134991   1.898   0.454   5.295  0.2137  3.0744  0.2485
 7843SOL    HW234992   1.892   0.351   5.187 -2.5759 -0.2422 -0.2002
 7844SOL     OW34993   4.634   1.856   8.803 -0.5704 -0.6763 -0.6725
 7844SOL    HW134994   4.679   1.806   8.871  0.3690 -0.9280 -1.4809
 7844SOL    HW234995   4.545   1.820   8.805 -1.6698  2.0337 -1.3093
 7845SOL     OW34996   0.884   2.959   9.673 -0.8799  0.3389 -0.2559
 7845SOL    HW134997   0.856   3.037   9.722  0.2574  0.2746  0.5027
 7845SOL    HW234998   0.874   2.897   9.745  1.1593 -1.2248 -1.3518
 7846SOL     OW34999   4.049   1.236   0.239  0.2568  0.3784 -0.3308
 7846SOL    HW135000   4.049   1.141   0.252  0.0360  0.4710  0.3870
 7846SOL    HW235001   3.964   1.251   0.282  0.1514  1.5798 -0.9516
 7847SOL     OW35002   0.155   0.816   1.605 -0.2445  0.0094 -0.6152
 7847SOL    HW135003   0.084   0.879   1.613 -0.7891 -0.3977 -2.3831
 7847SOL    HW235004   0.233   0.869   1.622 -0.4947 -0.2271  1.2984
 7848SOL     OW35005   3.169   3.630   0.142  0.1414  0.9268 -0.6818
 7848SOL    HW135006   3.185   3.686   0.066 -0.0420  1.7775 -0.0818
 7848SOL    HW235007   3.195   3.689   0.212  0.1142  0.2485 -0.0960
 7849SOL     OW35008   0.189   4.706   7.074  0.1950 -0.8705 -0.8406
 7849SOL    HW135009   0.181   4.624   7.123 -0.5286 -0.1737  0.1972
 7849SOL    HW235010   0.184   0.042   7.147  1.9447 -1.3044 -0.3480
 7850SOL     OW35011   0.922   1.295   4.049  0.3081 -0.4519  0.3667
 7850SOL    HW135012   0.875   1.261   3.973  0.0728 -0.4918  0.5275
 7850SOL    HW235013   0.989   1.351   4.009  0.0474 -1.0459 -0.9027
 7851SOL     OW35014   3.922   0.140  16.964 -0.1376 -0.0704  0.0693
 7851SOL    HW135015   3.940   0.167  16.874 -1.1813 -0.1851 -0.1750
 7851SOL    HW235016   4.008   0.120  17.000 -1.3210 -2.3124  1.5997
 7852SOL     OW35017   2.495   1.620  10.561  0.0988 -0.1134 -0.3911
 7852SOL    HW135018   2.540   1.536  10.555  0.5197  0.0812  0.0624
 7852SOL    HW235019   2.437   1.609  10.486  0.0406 -0.9680 -0.2229
 7853SOL     OW35020   1.834   3.340   4.755 -0.2849 -0.3291 -0.4739
 7853SOL    HW135021   1.820   3.429   4.787  0.9290 -0.2811 -0.0973
 7853SOL    HW235022   1.829   3.349   4.659  0.7613 -0.3762 -0.5308
 7854SOL     OW35023   2.086   2.642   8.622  0.2822 -0.3771 -0.4865
 7854SOL    HW135024   2.026   2.706   8.583 -0.1451  0.0022  0.7873
 7854SOL    HW235025   2.057   2.563   8.576  1.0937 -1.5727  1.0472
 7855SOL     OW35026   0.758   3.973  16.871 -0.0026  0.1760  0.1234
 7855SOL    HW135027   0.728   3.883  16.876 -1.5669  0.8178  1.8622
 7855SOL    HW235028   0.688   4.017  16.918  0.6582  0.5599  0.7392
 7856SOL     OW35029   1.797   3.375  12.702 -0.4127  0.5024  0.2965
 7856SOL    HW135030   1.790   3.412  12.790  0.2132 -0.8448  0.9003
 7856SOL    HW235031   1.707   3.349  12.687 -0.1838 -1.4060  2.3627
 7857SOL     OW35032   3.412   0.164   5.256  0.0408 -0.0892  0.4709
 7857SOL    HW135033   3.426   0.237   5.195  0.1185  1.0655  1.8678
 7857SOL    HW235034   3.382   0.091   5.202  2.1508 -1.0248  0.5568
 7858SOL     OW35035   3.881   1.355  11.739 -0.3054 -0.1541  0.2717
 7858SOL    HW135036   3.824   1.430  11.754 -1.8722 -0.7419 -2.6333
 7858SOL    HW235037   3.833   1.283  11.779  2.0046 -1.7448  0.1674
 7859SOL     OW35038   0.145   0.128   6.836  0.3843 -0.1783  0.6843
 7859SOL    HW135039   0.231   0.125   6.794  0.9402  1.5956  1.6689
 7859SOL    HW235040   0.154   0.087   6.922  1.1518  1.4594  1.3896
 7860SOL     OW35041   2.097   0.544   7.898  0.2548  0.1424  0.2758
 7860SOL    HW135042   2.131   0.502   7.819  0.2145 -0.8247  0.7679
 7860SOL    HW235043   2.107   0.477   7.966 -0.7663 -0.2768  0.0201
 7861SOL     OW35044   3.828   2.387  11.371 -0.1350  0.3298  0.1873
 7861SOL    HW135045   3.828   2.415  11.280  0.4614 -1.0437 -0.2403
 7861SOL    HW235046   3.921   2.383  11.396 -0.3626 -2.9932  0.5259
 7862SOL     OW35047   3.808   1.316   3.729 -0.2650 -0.0813  0.1557
 7862SOL    HW135048   3.771   1.229   3.715  0.0014  0.1061 -1.6050
 7862SOL    HW235049   3.900   1.294   3.714 -0.0644  0.4949  0.5493
 7863SOL     OW35050   4.057   2.567  14.354  0.8337 -0.3662 -0.0956
 7863SOL    HW135051   4.059   2.649  14.304  2.0050 -1.2380 -1.4792
 7863SOL    HW235052   4.007   2.510  14.295  1.1463  0.7759 -1.4671
 7864SOL     OW35053   3.640   1.174  11.771  0.0283  0.1182  0.4393
 7864SOL    HW135054   3.549   1.177  11.742  0.1461 -1.9649 -0.1547
 7864SOL    HW235055   3.658   1.088  11.809  1.1723  0.4701  0.7127
 7865SOL     OW35056   0.599   2.704   5.149  0.2985  0.3016  0.1311
 7865SOL    HW135057   0.605   2.799   5.147  2.7243  0.1321 -0.9470
 7865SOL    HW235058   0.610   2.680   5.057 -1.6964 -2.4971  0.6019
 7866SOL     OW35059   0.010   2.403   4.980  0.0091  0.8834  0.0673
 7866SOL    HW135060   4.652   2.385   5.023  0.9065 -0.7036  1.1540
 7866SOL    HW235061   0.081   2.369   5.034 -2.1654 -3.0131  0.4074
 7867SOL     OW35062   4.333   2.191   2.346 -0.2992  0.1368 -0.2592
 7867SOL    HW135063   4.373   2.264   2.394  0.8490 -0.3641 -0.4538
 7867SOL    HW235064   4.414   2.164   2.302 -0.9743  0.9078 -1.9947
 7868SOL     OW35065   0.679   1.412  11.661  0.1409 -0.0085 -0.2500
 7868SOL    HW135066   0.733   1.397  11.738  0.0144  0.7831 -0.0083
 7868SOL    HW235067   0.719   1.489  11.619  1.0267  0.3638  1.3070
 7869SOL     OW35068   4.623   2.579   2.599  0.3817 -0.2938 -0.3640
 7869SOL    HW135069   4.566   2.605   2.672  0.7181 -0.4882 -0.0315
 7869SOL    HW235070   4.604   2.653   2.542  1.1108 -0.0274 -0.2571
 7870SOL     OW35071   2.486   4.198   1.288  0.2785  0.0938  0.2423
 7870SOL    HW135072   2.398   4.162   1.275  0.9800 -1.3725 -0.4734
 7870SOL    HW235073   2.519   4.125   1.342  0.6591 -0.1172 -0.2752
 7871SOL     OW35074   2.822   0.727   7.995  0.4913 -0.2161  0.7849
 7871SOL    HW135075   2.746   0.763   8.040 -0.1293 -0.2299 -0.2461
 7871SOL    HW235076   2.855   0.809   7.957 -0.7701  0.1061  0.3685
 7872SOL     OW35077   0.515   4.542  12.867 -0.1521  0.5203 -0.4476
 7872SOL    HW135078   0.471   4.610  12.815 -1.4702  0.6705  0.8519
 7872SOL    HW235079   0.442   4.523  12.926  0.6428 -3.0035 -0.5945
 7873SOL     OW35080   3.758   1.268   5.105 -0.1116  0.0617  0.0428
 7873SOL    HW135081   3.794   1.254   5.018  1.4469  4.2398  0.0079
 7873SOL    HW235082   3.842   1.283   5.147  0.1164 -0.9767 -0.0518
 7874SOL     OW35083   1.038   1.596   5.116 -0.1433 -0.0212  0.3504
 7874SOL    HW135084   1.105   1.528   5.117 -3.2397 -3.0998 -0.7654
 7874SOL    HW235085   1.049   1.640   5.032 -1.7355 -2.0933 -0.9520
 7875SOL     OW35086   1.235   2.058   3.098  0.3131 -0.5742 -0.9485
 7875SOL    HW135087   1.148   2.021   3.082 -0.4303  0.0425  1.6388
 7875SOL    HW235088   1.215   2.149   3.119 -0.0007 -1.5183  2.8376
 7876SOL     OW35089   2.018   0.974   7.071 -0.0932 -0.0394 -0.1644
 7876SOL    HW135090   2.100   0.930   7.048  0.4347 -0.3968  2.3075
 7876SOL    HW235091   2.034   1.057   7.027  0.6016  0.4908  1.0640
 7877SOL     OW35092   2.653   2.523   3.555  0.0346  0.2102 -0.2163
 7877SOL    HW135093   2.635   2.550   3.465  0.2704  0.4768 -0.1828
 7877SOL    HW235094   2.637   2.604   3.602 -0.8327  0.8201 -1.5745
 7878SOL     OW35095   4.438   4.313   2.872  0.4196 -0.1119 -0.1814
 7878SOL    HW135096   4.503   4.311   2.802  0.2707  0.9017 -0.3544
 7878SOL    HW235097   4.404   4.402   2.863  2.1294  0.5923  0.3294
 7879SOL     OW35098   0.473   0.260   4.266 -0.1089 -0.2003 -0.4162
 7879SOL    HW135099   0.457   0.330   4.202 -1.9245 -0.4295 -0.2056
 7879SOL    HW235100   0.532   0.309   4.324  0.0797 -0.2058 -0.6056
 7880SOL     OW35101   2.890   3.354  15.409 -0.4612  0.2301 -0.2518
 7880SOL    HW135102   2.832   3.423  15.441  1.4103  2.5204 -1.7493
 7880SOL    HW235103   2.934   3.404  15.340 -0.6012 -1.8715 -1.8655
 7881SOL     OW35104   3.251   4.584   6.033  0.3274  0.3777 -0.6086
 7881SOL    HW135105   3.250   4.619   5.944  0.7250 -0.2079 -0.8491
 7881SOL    HW235106   3.308   4.508   6.021 -2.2941 -1.8079  0.7209
 7882SOL     OW35107   1.340   2.518   2.405 -0.0517  0.6394 -0.0680
 7882SOL    HW135108   1.287   2.592   2.374 -0.5388 -0.8140 -2.6539
 7882SOL    HW235109   1.422   2.566   2.419  0.1160  0.9311 -2.1117
 7883SOL     OW35110   3.817   1.141   2.029  0.1865 -0.6693  0.5167
 7883SOL    HW135111   3.830   1.229   1.992 -0.8183 -0.0381  1.6955
 7883SOL    HW235112   3.799   1.103   1.943  0.5805  0.8551 -0.2557
 7884SOL     OW35113   3.422   4.630   1.019 -0.3925 -0.4437 -0.0499
 7884SOL    HW135114   3.349   4.688   0.999 -0.8644 -0.6020  1.1924
 7884SOL    HW235115   3.480   4.671   0.954  0.6826 -2.5380 -0.3953
 7885SOL     OW35116   2.869   0.338   3.650  0.0149  0.5005 -0.4732
 7885SOL    HW135117   2.947   0.354   3.597 -0.4398  2.4022 -0.5757
 7885SOL    HW235118   2.794   0.327   3.592 -1.7688  0.2914  1.8916
 7886SOL     OW35119   1.135   2.646   6.224  0.9593  0.3212 -0.2032
 7886SOL    HW135120   1.117   2.577   6.288  0.5433 -1.2382 -1.9988
 7886SOL    HW235121   1.113   2.720   6.280 -0.1508  1.1726 -1.7533
 7887SOL     OW35122   0.017   2.433   5.519 -0.1302  0.1800  0.3366
 7887SOL    HW135123   4.689   2.415   5.442 -0.8908  1.7727  0.4907
 7887SOL    HW235124   0.099   2.463   5.479 -0.3782 -0.0069 -0.2991
 7888SOL     OW35125   2.597   3.380   4.930 -0.2769 -0.3133 -0.1290
 7888SOL    HW135126   2.531   3.431   4.977 -1.6225 -1.0456 -1.2389
 7888SOL    HW235127   2.542   3.352   4.857 -1.4220  2.0442 -0.1713
 7889SOL     OW35128   0.110   1.654   4.649  0.7492  0.2196  0.0204
 7889SOL    HW135129   0.030   1.602   4.633  1.1818 -0.6827  0.7841
 7889SOL    HW235130   0.080   1.719   4.712 -1.2703  0.7058 -1.4054
 7890SOL     OW35131   1.321   0.904   6.752 -0.4565  0.0118 -0.4679
 7890SOL    HW135132   1.410   0.918   6.784 -0.7985 -1.6726  1.2222
 7890SOL    HW235133   1.272   0.890   6.833  0.9239 -0.5500  0.2571
 7891SOL     OW35134   2.364   1.478  16.064 -0.6333 -0.4202  0.0902
 7891SOL    HW135135   2.455   1.490  16.091 -0.9176  0.4986  0.6271
 7891SOL    HW235136   2.383   1.485  15.970  1.7634  0.1643  0.6229
 7892SOL     OW35137   3.409   2.216   9.849  0.2015  0.0105 -0.0548
 7892SOL    HW135138   3.369   2.160   9.783 -1.1677 -0.4169  1.1151
 7892SOL    HW235139   3.365   2.187   9.929  0.2205  0.1933  0.0229
 7893SOL     OW35140   4.704   0.283   8.324  0.4490 -0.5146  0.6207
 7893SOL    HW135141   4.679   0.193   8.345 -0.2459 -0.2438  0.9224
 7893SOL    HW235142   4.721   0.294   8.230  1.3749 -0.9462  0.7394
 7894SOL     OW35143   4.416   2.739   4.792 -0.2514  0.2009 -0.0641
 7894SOL    HW135144   4.473   2.676   4.748  0.1096 -1.1297  2.2806
 7894SOL    HW235145   4.444   2.820   4.750  1.3665 -0.4038 -0.1484
 7895SOL     OW35146   1.283   2.509   9.011 -0.0932  0.0725  0.2309
 7895SOL    HW135147   1.285   2.604   9.026  0.3234 -0.2272  2.0488
 7895SOL    HW235148   1.376   2.497   9.031 -0.0323 -0.5192 -0.4214
 7896SOL     OW35149   3.943   2.498  14.118 -0.0544 -0.6174 -0.3557
 7896SOL    HW135150   3.895   2.483  14.037 -0.5298 -1.7670  0.1394
 7896SOL    HW235151   4.033   2.508  14.088 -0.1486 -0.7303 -0.6722
 7897SOL     OW35152   4.712   0.192   3.701  0.0112  1.1999 -0.4115
 7897SOL    HW135153   0.052   0.192   3.630  1.5712  1.5796  1.0116
 7897SOL    HW235154   0.022   0.111   3.740 -0.7386  0.8282 -0.5111
 7898SOL     OW35155   1.947   2.383   6.598 -0.5384  0.0077 -0.6447
 7898SOL    HW135156   1.861   2.368   6.558  0.0689 -5.3256  0.0702
 7898SOL    HW235157   1.935   2.391   6.692 -0.7552 -1.1674 -0.5728
 7899SOL     OW35158   1.511   3.179  14.062 -0.3276  0.2967 -0.5054
 7899SOL    HW135159   1.521   3.200  13.969  0.4094  2.1402 -0.0168
 7899SOL    HW235160   1.601   3.180  14.095 -0.4832  0.4926 -0.0807
 7900SOL     OW35161   0.425   1.667   8.148 -0.0409 -0.1620 -0.4102
 7900SOL    HW135162   0.330   1.665   8.133  0.4081  0.8646 -3.2582
 7900SOL    HW235163   0.442   1.574   8.140  0.3841  0.0201 -1.5569
 7901SOL     OW35164   2.778   2.637   8.586 -0.1906 -0.2820 -0.0912
 7901SOL    HW135165   2.835   2.563   8.564  1.9280  0.1288  3.9014
 7901SOL    HW235166   2.707   2.584   8.622 -1.1872 -0.0895 -1.7950
 7902SOL     OW35167   1.726   1.604   5.566 -0.2105  0.5695  0.6763
 7902SOL    HW135168   1.777   1.526   5.542 -0.1089  1.2403 -1.3317
 7902SOL    HW235169   1.739   1.615   5.660  2.5472 -0.9679  0.4717
 7903SOL     OW35170   3.800   2.491  15.784  0.5101  0.2793  0.2467
 7903SOL    HW135171   3.779   2.442  15.705  1.2653 -1.5000  1.1635
 7903SOL    HW235172   3.882   2.540  15.773  0.7072 -0.0852  0.0978
 7904SOL     OW35173   1.888   4.365  16.440  0.4628  0.4035  0.3163
 7904SOL    HW135174   1.945   4.312  16.384 -0.2372 -0.0593  0.0435
 7904SOL    HW235175   1.886   4.310  16.518  2.5755  0.6364  0.5451
 7905SOL     OW35176   1.684   2.383   3.390 -0.6904  0.4004 -0.5736
 7905SOL    HW135177   1.770   2.420   3.373  0.0980 -0.8728  0.6891
 7905SOL    HW235178   1.668   2.436   3.468  1.9585 -0.1218  0.3119
 7906SOL     OW35179   4.567   3.667   6.122  0.5809  0.3564 -0.0327
 7906SOL    HW135180   4.509   3.690   6.195 -0.6232  0.6928 -1.1006
 7906SOL    HW235181   4.633   3.736   6.122  0.0746  0.8292 -1.0513
 7907SOL     OW35182   4.345   3.850   7.805  0.2369  0.0657  0.4045
 7907SOL    HW135183   4.275   3.889   7.753  2.7298  2.6797 -0.9726
 7907SOL    HW235184   4.315   3.759   7.807 -0.8179  0.4155  0.7854
 7908SOL     OW35185   2.098   2.460  12.725  0.1393 -0.0320  0.0100
 7908SOL    HW135186   2.149   2.540  12.730 -0.4456  0.3557 -0.1592
 7908SOL    HW235187   2.085   2.457  12.630 -2.1796 -1.7718  0.3615
 7909SOL     OW35188   4.545   0.329   7.136 -0.3390  0.1453  0.4716
 7909SOL    HW135189   4.623   0.376   7.106  1.0656 -1.7053  1.2119
 7909SOL    HW235190   4.495   0.408   7.159  0.3605  0.9643 -0.7970
 7910SOL     OW35191   4.564   4.094   3.471 -0.2862  0.8488  0.2914
 7910SOL    HW135192   4.635   4.113   3.532 -1.0809 -2.0399  2.0944
 7910SOL    HW235193   4.506   4.047   3.531 -2.5190  0.4893 -2.1575
 7911SOL     OW35194   0.780   3.263   9.215  0.5582  0.0501 -0.0220
 7911SOL    HW135195   0.733   3.179   9.210 -0.7413  0.6615  2.1584
 7911SOL    HW235196   0.766   3.298   9.127  0.1811  0.7776  0.3286
 7912SOL     OW35197   2.718   2.138   4.335  0.2063 -0.0203 -0.1058
 7912SOL    HW135198   2.780   2.211   4.341 -3.6486  3.0765  2.2045
 7912SOL    HW235199   2.660   2.148   4.411  0.6551  0.3494  0.1828
 7913SOL     OW35200   1.612   1.013   6.807  0.0340 -0.3340 -0.2270
 7913SOL    HW135201   1.583   1.078   6.871  2.8979 -1.7974  2.5322
 7913SOL    HW235202   1.682   0.964   6.850 -1.5061  0.7817  3.5547
 7914SOL     OW35203   0.290   0.431  12.039 -0.1535 -0.0248  0.0495
 7914SOL    HW135204   0.200   0.438  12.008 -0.1131 -0.3127 -0.1319
 7914SOL    HW235205   0.285   0.377  12.118 -0.3186  0.5830  0.4592
 7915SOL     OW35206   2.592   3.206   2.455  0.2804 -0.0205 -0.6450
 7915SOL    HW135207   2.682   3.192   2.486 -0.4897 -0.1319  1.5366
 7915SOL    HW235208   2.560   3.119   2.432 -2.4131  0.8290 -0.0917
 7916SOL     OW35209   1.336   2.199   8.337  0.2249 -0.2752  0.0281
 7916SOL    HW135210   1.314   2.179   8.428 -0.2113 -0.0108 -0.0175
 7916SOL    HW235211   1.392   2.277   8.343 -0.6176  0.2836  0.7946
 7917SOL     OW35212   3.721   4.493   8.247  0.2139  0.1375  0.1956
 7917SOL    HW135213   3.764   4.517   8.329 -0.6463 -0.9262  0.9524
 7917SOL    HW235214   3.781   4.420   8.235  0.6166  0.4207  0.5012
 7918SOL     OW35215   1.290   2.705  16.102 -0.6608 -0.5383  0.1023
 7918SOL    HW135216   1.242   2.641  16.050 -2.5419 -0.4179  1.7317
 7918SOL    HW235217   1.216   2.750  16.141 -1.6198  0.0219 -2.3305
 7919SOL     OW35218   4.005   3.175   4.633 -0.2625 -0.8353  0.0215
 7919SOL    HW135219   3.951   3.202   4.707 -1.0139 -2.0195 -0.1062
 7919SOL    HW235220   4.071   3.119   4.674  0.1151  1.3573  2.4235
 7920SOL     OW35221   2.634   2.952   5.031  0.5962  0.2516 -0.2750
 7920SOL    HW135222   2.672   2.891   4.968 -0.3173 -0.5295 -0.0719
 7920SOL    HW235223   2.703   2.943   5.097 -1.2677 -3.4475  1.1578
 7921SOL     OW35224   1.807   4.286   2.362  0.1369  0.0753 -0.2036
 7921SOL    HW135225   1.759   4.211   2.399  0.6541  0.3572  1.0424
 7921SOL    HW235226   1.886   4.239   2.335 -0.0305 -1.2038  1.4428
 7922SOL     OW35227   2.816   1.349  11.937 -0.2305 -0.0017 -0.1145
 7922SOL    HW135228   2.910   1.360  11.924  0.3192 -3.6526  0.7671
 7922SOL    HW235229   2.784   1.434  11.907 -0.2434 -0.9092 -2.7193
 7923SOL     OW35230   0.555   0.994   4.439  0.2117 -0.1021  0.1078
 7923SOL    HW135231   0.630   1.052   4.456  0.5410 -0.6902  0.6721
 7923SOL    HW235232   0.515   1.001   4.526  0.3562  1.2196  0.0673
 7924SOL     OW35233   2.276   2.031   9.177  0.3445  0.0380 -0.1868
 7924SOL    HW135234   2.238   2.058   9.094  1.3640 -2.1722 -1.3619
 7924SOL    HW235235   2.252   1.939   9.186 -2.7364  0.8968  0.2965
 7925SOL     OW35236   0.569   0.929  12.110  0.0822 -0.4525  0.0244
 7925SOL    HW135237   0.574   0.869  12.035  1.9968 -0.2606  0.0054
 7925SOL    HW235238   0.624   1.002  12.082 -2.3259  2.0687  1.8424
 7926SOL     OW35239   3.925   0.640   9.597 -0.2649  0.6390  0.4330
 7926SOL    HW135240   3.972   0.628   9.515  0.6893  0.3132  1.0271
 7926SOL    HW235241   3.962   0.571   9.652 -1.7480  0.9134  1.7546
 7927SOL     OW35242   1.427   1.337   7.751 -0.1774  0.0847 -0.0467
 7927SOL    HW135243   1.374   1.257   7.760 -0.6030  0.3836  0.1184
 7927SOL    HW235244   1.414   1.371   7.839  0.8391  2.4248 -0.8179
 7928SOL     OW35245   1.044   0.497   5.114  0.4775 -0.4711 -0.0146
 7928SOL    HW135246   1.123   0.471   5.067  0.2122 -1.1779 -0.0684
 7928SOL    HW235247   1.006   0.543   5.039 -1.9809  1.5850  2.4895
 7929SOL     OW35248   1.057   3.844   0.027 -0.1223 -0.3144  0.0316
 7929SOL    HW135249   1.097   3.928   0.007 -2.7328  0.6332 -1.1463
 7929SOL    HW235250   1.034   3.811  17.643 -0.4820  0.7547 -0.2750
 7930SOL     OW35251   3.896   3.761   9.013  0.6998 -0.1756  0.0134
 7930SOL    HW135252   3.820   3.708   8.994  1.0599 -0.4759 -0.5985
 7930SOL    HW235253   3.855   3.847   9.025 -0.4031 -0.3954 -2.1580
 7931SOL     OW35254   2.763   0.967   8.497  0.2279 -0.3156 -0.3469
 7931SOL    HW135255   2.802   0.914   8.567 -3.2692 -0.1504  1.7139
 7931SOL    HW235256   2.812   1.049   8.500 -1.5706  0.7021  0.9346
 7932SOL     OW35257   1.035   3.970  13.005  0.2383 -0.0984 -0.2394
 7932SOL    HW135258   0.992   3.935  13.083 -2.9413  0.6753 -1.6509
 7932SOL    HW235259   1.000   3.918  12.933 -1.5073  0.7652 -0.0052
 7933SOL     OW35260   2.746   1.552   7.167 -0.0879 -0.5861  0.2406
 7933SOL    HW135261   2.685   1.478   7.165 -0.2768 -0.4805  2.1713
 7933SOL    HW235262   2.801   1.540   7.090  0.8608  1.5223  0.5990
 7934SOL     OW35263   3.233   0.477   5.359  0.1906  0.4648 -0.4825
 7934SOL    HW135264   3.191   0.527   5.289 -0.0804  3.3271  1.7811
 7934SOL    HW235265   3.164   0.481   5.425  1.5387 -0.8403  1.0131
 7935SOL     OW35266   1.076   2.299   3.219  0.2604 -0.4886 -0.0321
 7935SOL    HW135267   1.027   2.346   3.287 -0.0553 -0.4165 -0.3075
 7935SOL    HW235268   1.021   2.321   3.144 -1.7227 -0.4595  1.4435
 7936SOL     OW35269   3.949   3.592  12.485  0.0185 -0.2961 -0.2632
 7936SOL    HW135270   4.034   3.582  12.529  0.5049  2.1092 -0.6155
 7936SOL    HW235271   3.979   3.658  12.422  4.5011 -1.4994  0.5920
 7937SOL     OW35272   3.425   3.698  17.651  0.1118  0.3935  0.1714
 7937SOL    HW135273   3.449   3.789  17.667 -2.2377  1.0645 -0.0486
 7937SOL    HW235274   3.337   3.712  17.616  0.3518 -0.9377 -0.9696
 7938SOL     OW35275   0.924   4.570  10.856 -0.2976  0.1346  0.3701
 7938SOL    HW135276   0.848   4.623  10.882 -0.2503 -0.1978  1.1513
 7938SOL    HW235277   0.901   4.559  10.763  0.6158  0.8321  0.0521
 7939SOL     OW35278   3.231   4.110   2.254  0.8612  0.0811  0.3323
 7939SOL    HW135279   3.165   4.130   2.188 -0.0325  0.8540  1.4537
 7939SOL    HW235280   3.275   4.035   2.215  0.2959 -0.3404  0.4972
 7940SOL     OW35281   1.580   2.144   9.462  0.6695 -0.2480 -0.9210
 7940SOL    HW135282   1.617   2.166   9.377 -2.1712  3.3521 -1.2421
 7940SOL    HW235283   1.599   2.052   9.479  2.9507  0.4194  0.1501
 7941SOL     OW35284   3.108   1.168   5.810  0.4595  0.0092 -0.0901
 7941SOL    HW135285   3.138   1.256   5.786  0.4126  0.8750  2.9656
 7941SOL    HW235286   3.021   1.187   5.846  0.1194  0.2201 -1.0365
 7942SOL     OW35287   3.519   1.284  12.558  0.0487  1.0770 -0.1534
 7942SOL    HW135288   3.559   1.336  12.628  0.6513  1.5308 -0.8279
 7942SOL    HW235289   3.563   1.200  12.569  0.4529  1.2816 -0.1857
 7943SOL     OW35290   3.803   3.346   3.951 -0.1412  0.2186 -0.0374
 7943SOL    HW135291   3.807   3.407   4.025  0.2611 -1.5516  1.3805
 7943SOL    HW235292   3.817   3.264   3.998  0.7786  2.2858  3.3289
 7944SOL     OW35293   4.129   3.014   8.395  0.0021  0.1721  0.5918
 7944SOL    HW135294   4.123   2.952   8.468 -1.2248 -0.1567  0.2173
 7944SOL    HW235295   4.037   3.037   8.381 -0.1067  0.9198  2.4406
 7945SOL     OW35296   0.951   3.102   8.271  0.5347 -0.6454 -0.3785
 7945SOL    HW135297   1.017   3.111   8.339 -0.4734 -2.3133  0.8130
 7945SOL    HW235298   0.863   3.101   8.309  0.7858 -1.1818  0.1742
 7946SOL     OW35299   0.341   2.350   6.901  0.5612 -0.6574  0.3235
 7946SOL    HW135300   0.403   2.398   6.956  1.4725 -0.2071 -1.1063
 7946SOL    HW235301   0.267   2.331   6.959  0.1668  0.1408  0.0847
 7947SOL     OW35302   0.037   1.845  14.128 -0.0180 -0.4755 -0.2531
 7947SOL    HW135303   0.005   1.859  14.039  1.7992  1.4505 -0.6000
 7947SOL    HW235304   0.084   1.762  14.131 -0.3279 -0.6636 -0.6989
 7948SOL     OW35305   4.385   1.694  11.019  0.3780  0.0171  0.1709
 7948SOL    HW135306   4.412   1.664  11.106 -2.8908 -3.1755  0.0756
 7948SOL    HW235307   4.318   1.758  11.040 -0.1906 -0.2996 -0.7011
 7949SOL     OW35308   2.693   0.648   5.548  0.3101  0.9329  0.4269
 7949SOL    HW135309   2.666   0.558   5.563  0.3136  0.3114 -3.4849
 7949SOL    HW235310   2.664   0.663   5.458  0.4825  1.4778  0.4606
 7950SOL     OW35311   4.661   3.759  15.142 -0.3440 -0.3298 -0.1713
 7950SOL    HW135312   4.706   3.813  15.207  0.4211 -0.4618 -0.5926
 7950SOL    HW235313   4.584   3.728  15.189 -1.1204  1.0059 -0.5613
 7951SOL     OW35314   1.576   3.967   3.203 -0.0055  0.0332  0.0345
 7951SOL    HW135315   1.482   3.983   3.191 -0.1705  0.3452  1.8505
 7951SOL    HW235316   1.573   3.880   3.240 -0.1867  0.1579  0.3093
 7952SOL     OW35317   3.891   3.237  11.561  0.8390  0.2192  0.1691
 7952SOL    HW135318   3.884   3.247  11.466  3.1295 -2.8473 -0.3408
 7952SOL    HW235319   3.979   3.200  11.575 -0.6312 -3.0735  0.6689
 7953SOL     OW35320   0.435   3.059  16.681 -0.2226  0.1473 -0.2560
 7953SOL    HW135321   0.425   3.122  16.753  0.8783  0.2474 -0.1906
 7953SOL    HW235322   0.517   3.090  16.644 -0.4811 -0.7975 -1.6103
 7954SOL     OW35323   0.214   0.749   7.051 -0.5775  0.0169  0.2660
 7954SOL    HW135324   0.244   0.796   6.973  0.0178 -0.4757  0.1943
 7954SOL    HW235325   0.192   0.822   7.109  2.8582 -0.5083  2.2598
 7955SOL     OW35326   0.129   1.070   3.559 -0.3981  0.2989  0.0936
 7955SOL    HW135327   0.213   1.028   3.578 -1.2854 -0.8481  1.4514
 7955SOL    HW235328   0.119   1.134   3.629  1.3774  0.3228  0.3202
 7956SOL     OW35329   3.866   1.631   6.439 -0.0375  0.2477  0.1160
 7956SOL    HW135330   3.779   1.656   6.471 -0.1875  0.5076 -0.4994
 7956SOL    HW235331   3.917   1.711   6.426  0.4014 -0.0864 -0.2110
 7957SOL     OW35332   1.257   2.784   9.598 -0.3281  0.0875  0.1109
 7957SOL    HW135333   1.264   2.827   9.684 -1.6915  0.0089  0.2654
 7957SOL    HW235334   1.214   2.851   9.545  0.9814 -1.1436 -2.4664
 7958SOL     OW35335   3.505   1.908  10.247  0.0566 -0.1124  0.5108
 7958SOL    HW135336   3.529   1.817  10.260 -0.3123 -0.1437  0.9920
 7958SOL    HW235337   3.579   1.944  10.199 -0.4239  1.1384  0.6869
 7959SOL     OW35338   3.953   1.669   3.836  0.4271 -0.0930  0.4418
 7959SOL    HW135339   4.017   1.604   3.809 -0.6444 -0.1906 -1.8666
 7959SOL    HW235340   4.014   1.721   3.888  1.1940  0.0167 -0.5912
 7960SOL     OW35341   2.399   0.825   1.772  0.3812 -0.0637 -0.1176
 7960SOL    HW135342   2.405   0.803   1.679  0.4310  0.5959 -0.2705
 7960SOL    HW235343   2.392   0.737   1.809 -1.0839 -0.1134 -0.4930
 7961SOL     OW35344   3.658   4.200   4.979 -0.2417  0.4189 -0.9876
 7961SOL    HW135345   3.648   4.207   5.074 -1.1511 -0.3107 -1.0345
 7961SOL    HW235346   3.729   4.265   4.980 -0.8411  1.0838 -1.2464
 7962SOL     OW35347   0.577   4.511   5.610  0.2278 -0.2882 -0.2367
 7962SOL    HW135348   0.661   4.508   5.655 -0.1187  1.9543  0.5912
 7962SOL    HW235349   0.520   4.480   5.680  0.6017 -1.6454 -0.5451
 7963SOL     OW35350   0.355   1.088   7.366  0.3535 -0.2733 -0.1236
 7963SOL    HW135351   0.426   1.126   7.315 -0.4469  0.3570 -0.7848
 7963SOL    HW235352   0.399   1.019   7.414  2.4011  0.3238 -1.1457
 7964SOL     OW35353   0.522   4.346  12.675  0.2288 -0.4260 -0.3880
 7964SOL    HW135354   0.601   4.292  12.676  0.6793  0.2534  0.5952
 7964SOL    HW235355   0.548   4.410  12.741  0.9355 -0.0416 -1.0383
 7965SOL     OW35356   0.100   2.703   4.540  0.2733 -0.2854 -0.3418
 7965SOL    HW135357   0.063   2.751   4.615  0.3422  0.2107 -0.6277
 7965SOL    HW235358   0.097   2.616   4.580  0.2958  0.6164  1.6401
 7966SOL     OW35359   0.493   1.545   7.686 -0.2694  0.2367  0.0058
 7966SOL    HW135360   0.487   1.455   7.718 -0.0729  0.2605  0.1136
 7966SOL    HW235361   0.518   1.528   7.595 -1.5144  1.7811 -0.6181
 7967SOL     OW35362   3.198   0.754   2.859  0.4698 -0.1229 -0.5999
 7967SOL    HW135363   3.189   0.667   2.820  1.5163 -0.3853 -0.2591
 7967SOL    HW235364   3.108   0.781   2.878  0.4920 -0.1260 -0.4856
 7968SOL     OW35365   2.194   4.131   4.923  0.6583 -0.2390  0.4776
 7968SOL    HW135366   2.132   4.121   4.995  0.7799  2.6153  0.9804
 7968SOL    HW235367   2.262   4.191   4.953  0.6965  0.9249 -1.9541
 7969SOL     OW35368   3.046   3.465   4.567 -0.1534 -0.7623  0.2601
 7969SOL    HW135369   2.964   3.495   4.607 -0.6483  1.4963 -2.4523
 7969SOL    HW235370   3.006   3.403   4.506  1.1845  0.0148 -1.3908
 7970SOL     OW35371   4.288   2.008   2.657  0.3906 -0.2229 -0.0539
 7970SOL    HW135372   4.380   2.034   2.648  0.4502 -0.4422 -0.0804
 7970SOL    HW235373   4.303   1.918   2.687  0.6830  0.2381  1.1574
 7971SOL     OW35374   1.478   1.280   6.693  0.5224 -0.5908  0.1623
 7971SOL    HW135375   1.426   1.330   6.756 -0.0752  0.4359 -1.1305
 7971SOL    HW235376   1.567   1.293   6.724  0.5347 -2.3099  0.8440
 7972SOL     OW35377   1.034   3.981   4.427  0.0496 -0.0947 -0.4911
 7972SOL    HW135378   1.046   3.948   4.339  2.1751 -1.2936  0.2573
 7972SOL    HW235379   0.962   4.041   4.410  0.6588  0.5847 -0.6857
 7973SOL     OW35380   2.282   1.813   1.271  0.2394  0.0598  0.0521
 7973SOL    HW135381   2.325   1.830   1.186  1.3198 -1.1217  0.3616
 7973SOL    HW235382   2.281   1.903   1.304  2.5809  0.0558  0.1689
 7974SOL     OW35383   4.701   3.688   1.776 -0.6282  0.4360  0.0010
 7974SOL    HW135384   0.026   3.660   1.853  0.7621 -0.0218 -1.0676
 7974SOL    HW235385   0.020   3.638   1.708 -0.2873 -0.1841  0.6751
 7975SOL     OW35386   0.678   3.360   2.195 -0.0770 -0.1695  0.3459
 7975SOL    HW135387   0.668   3.265   2.203 -2.7267  0.3021  2.5678
 7975SOL    HW235388   0.597   3.402   2.221 -0.1607 -0.2218  0.1680
 7976SOL     OW35389   3.780   0.674  14.559 -0.0210 -0.0975  0.2710
 7976SOL    HW135390   3.736   0.596  14.525 -0.8419  2.0969 -3.6567
 7976SOL    HW235391   3.811   0.706  14.474  0.2877  0.4580  0.5922
 7977SOL     OW35392   2.274   0.416   5.317  0.5562  0.1359  0.1731
 7977SOL    HW135393   2.316   0.340   5.356  3.1832  2.0477  1.1029
 7977SOL    HW235394   2.219   0.373   5.253  0.4854  0.0499  0.2924
 7978SOL     OW35395   2.968   1.752   4.063 -0.2248 -0.1918 -0.0910
 7978SOL    HW135396   3.056   1.790   4.054  0.1609 -1.2581 -0.9062
 7978SOL    HW235397   2.921   1.829   4.095 -0.6772 -1.1596  1.5471
 7979SOL     OW35398   2.603   4.555   5.288  0.2253  0.6549 -0.1310
 7979SOL    HW135399   2.624   4.648   5.293 -1.1714  1.0685 -2.0009
 7979SOL    HW235400   2.641   4.530   5.204  0.1130  0.5106 -0.1387
 7980SOL     OW35401   4.529   0.777   6.387  0.1575 -0.1306  0.1889
 7980SOL    HW135402   4.476   0.700   6.365 -0.2113  0.1223  0.1876
 7980SOL    HW235403   4.520   0.773   6.482  2.6677 -0.4919  0.3918
 7981SOL     OW35404   4.052   0.493   8.329 -0.9768  0.6336  0.0871
 7981SOL    HW135405   3.976   0.504   8.385 -1.7483  1.1593 -1.0571
 7981SOL    HW235406   4.031   0.559   8.263  0.4829 -1.2603 -2.3340
 7982SOL     OW35407   1.380   1.185   3.248 -0.0714  0.3705  0.2589
 7982SOL    HW135408   1.426   1.251   3.300  1.8338 -1.3893  0.8138
 7982SOL    HW235409   1.290   1.218   3.251 -0.5478 -1.0407  1.7983
 7983SOL     OW35410   1.835   1.140  10.203 -0.4361 -0.5949  0.4591
 7983SOL    HW135411   1.930   1.127  10.198 -0.2041  1.5270 -0.8645
 7983SOL    HW235412   1.793   1.085  10.137 -0.0384  0.1386 -0.4120
 7984SOL     OW35413   3.785   2.375  10.072  0.2027  0.7653 -0.3647
 7984SOL    HW135414   3.821   2.446  10.125 -2.2611  1.7962 -0.1064
 7984SOL    HW235415   3.701   2.367  10.116  0.0315 -3.6183 -1.4210
 7985SOL     OW35416   3.442   1.358   4.739 -0.5344 -0.1964  0.0034
 7985SOL    HW135417   3.434   1.325   4.829 -0.4370 -1.3606 -0.4246
 7985SOL    HW235418   3.538   1.356   4.733 -0.5102  3.3152 -0.9826
 7986SOL     OW35419   3.152   1.004   7.445  0.2061 -0.4511 -0.7907
 7986SOL    HW135420   3.089   0.947   7.489 -2.5034  2.0291 -1.4504
 7986SOL    HW235421   3.101   1.082   7.425 -0.7263 -0.5909  1.0425
 7987SOL     OW35422   0.440   0.681   2.266  0.4720 -0.3446 -0.1593
 7987SOL    HW135423   0.402   0.660   2.181 -0.7073 -0.7377  0.4745
 7987SOL    HW235424   0.517   0.726   2.231 -0.0695 -0.8525 -2.0071
 7988SOL     OW35425   0.792   0.571   6.097 -0.2593  0.1392 -0.0354
 7988SOL    HW135426   0.788   0.487   6.051 -0.9412  1.0181 -1.5512
 7988SOL    HW235427   0.843   0.627   6.039 -2.1714 -0.1931 -2.0199
 7989SOL     OW35428   1.466   1.613  16.703 -0.2325  0.5811 -0.7915
 7989SOL    HW135429   1.450   1.680  16.637  1.8289  0.9168 -0.9578
 7989SOL    HW235430   1.446   1.668  16.779 -2.6975  1.8590 -2.3501
 7990SOL     OW35431   3.034   2.477   1.911 -0.1255 -0.2043 -0.0466
 7990SOL    HW135432   3.075   2.434   1.986 -0.7406  1.1210  1.0500
 7990SOL    HW235433   3.069   2.415   1.847 -2.1992 -1.2150 -0.2130
 7991SOL     OW35434   4.479   0.331  16.039  0.2001 -0.3803  0.0527
 7991SOL    HW135435   4.503   0.377  16.120  0.9498 -0.3245 -0.2065
 7991SOL    HW235436   4.399   0.284  16.064  0.1778  0.2093  1.1155
 7992SOL     OW35437   0.081   3.651   8.210 -0.4317 -0.5705  0.0125
 7992SOL    HW135438   0.075   3.658   8.305 -0.1442  3.0482 -0.2555
 7992SOL    HW235439   0.019   3.721   8.190 -0.8076 -0.6839  0.7637
 7993SOL     OW35440   0.607   2.164  11.015 -0.0050 -0.0066 -0.1109
 7993SOL    HW135441   0.697   2.149  10.984  0.3856 -1.6154  1.7572
 7993SOL    HW235442   0.618   2.138  11.107 -1.9844 -0.3642  0.0235
 7994SOL     OW35443   0.734   1.265   7.547  0.3820  0.9012 -0.5418
 7994SOL    HW135444   0.798   1.266   7.475 -1.4806 -1.0775 -2.2224
 7994SOL    HW235445   0.666   1.324   7.513  1.2335  1.0467 -1.9846
 7995SOL     OW35446   4.190   0.738   7.760  0.2503 -0.1806  0.2757
 7995SOL    HW135447   4.168   0.795   7.687  0.9997  1.0064  0.9762
 7995SOL    HW235448   4.254   0.677   7.724  0.0548  0.2968 -0.8666
 7996SOL     OW35449   3.354   4.327   4.479  0.0433  0.1072  0.2152
 7996SOL    HW135450   3.422   4.305   4.542 -1.5925 -1.4328  1.4438
 7996SOL    HW235451   3.343   4.241   4.438 -0.2882 -1.1733  3.0059
 7997SOL     OW35452   4.665   3.648  14.899  0.3222 -0.0093  0.0721
 7997SOL    HW135453   4.687   3.678  14.987 -2.8064 -0.3915  1.0003
 7997SOL    HW235454   4.687   3.727  14.850  2.3500 -0.5370  0.1395
 7998SOL     OW35455   2.875   3.320  14.978  0.4383 -0.8017  0.0391
 7998SOL    HW135456   2.854   3.235  15.018 -1.0286 -0.4886 -0.0856
 7998SOL    HW235457   2.954   3.353  15.021  0.2433  2.8935 -2.4367
 7999SOL     OW35458   3.129   0.349   9.563  0.2616  0.0842 -0.0973
 7999SOL    HW135459   3.205   0.320   9.613  0.2197  0.7322  0.3366
 7999SOL    HW235460   3.057   0.303   9.605 -0.3773 -0.5090 -1.8154
 8000SOL     OW35461   4.431   4.399   7.023 -0.6112  0.0544  0.0516
 8000SOL    HW135462   4.447   4.306   7.010  0.2323 -0.2865  3.5549
 8000SOL    HW235463   4.385   4.397   7.107  0.1567 -0.8451  0.4462
 8001SOL     OW35464   2.607   1.934   6.606 -0.8144  0.0669  0.2945
 8001SOL    HW135465   2.578   1.892   6.525  1.9020 -1.8283  0.3153
 8001SOL    HW235466   2.701   1.916   6.599 -0.3411  2.2670  0.7589
 8002SOL     OW35467   3.784   4.587   4.583 -0.4380 -0.7034 -0.2057
 8002SOL    HW135468   3.827   4.618   4.503  3.3447 -0.0694  2.0671
 8002SOL    HW235469   3.698   4.628   4.584 -0.2432 -0.2988  0.2338
 8003SOL     OW35470   2.892   3.492   2.481 -0.6404 -0.6857 -0.4097
 8003SOL    HW135471   2.935   3.472   2.397 -0.2059  0.4969 -0.4670
 8003SOL    HW235472   2.806   3.460   2.456 -2.0799  1.3685  2.0422
 8004SOL     OW35473   3.419   2.943   8.763 -0.5544  0.4178  0.0125
 8004SOL    HW135474   3.411   2.966   8.856 -0.4352  0.6535 -0.0352
 8004SOL    HW235475   3.336   2.976   8.730  0.1157  2.0981  0.0316
 8005SOL     OW35476   2.291   4.680   0.313 -0.6419 -0.3781  0.5885
 8005SOL    HW135477   2.231   4.683   0.387  2.3641  1.0893  2.9623
 8005SOL    HW235478   2.328   0.042   0.330  0.8233 -1.0696  0.9276
 8006SOL     OW35479   0.970   0.417   1.915 -0.0847 -0.1128 -0.0979
 8006SOL    HW135480   0.976   0.474   1.839  1.7529  0.0363  0.1463
 8006SOL    HW235481   0.886   0.372   1.914 -0.0831 -0.0801 -1.2719
 8007SOL     OW35482   3.147   0.931   3.811  0.6366 -0.6103 -0.0615
 8007SOL    HW135483   3.114   0.956   3.725  1.1352 -0.1275 -0.1103
 8007SOL    HW235484   3.239   0.951   3.794  0.4413  0.5624  0.2717
 8008SOL     OW35485   4.257   3.493  13.977 -0.2333  0.2417  0.6134
 8008SOL    HW135486   4.348   3.473  13.955 -1.0372 -1.9769 -0.7623
 8008SOL    HW235487   4.264   3.557  14.048 -0.1283 -1.0526  1.7747
 8009SOL     OW35488   2.559   2.086   4.570 -0.2939  0.1731 -0.2971
 8009SOL    HW135489   2.489   2.146   4.597 -1.0624  0.0850 -2.1148
 8009SOL    HW235490   2.563   2.027   4.645  2.2143  0.6942 -0.0327
 8010SOL     OW35491   0.815   3.381   0.001  0.3118 -0.0877  0.2534
 8010SOL    HW135492   0.727   3.387   0.038 -0.4087 -1.8427 -1.1258
 8010SOL    HW235493   0.816   3.285  17.699  0.2363  0.0069 -1.9348
 8011SOL     OW35494   0.351   0.198   4.563  0.3259  0.6960  0.4728
 8011SOL    HW135495   0.287   0.127   4.565  1.6736 -0.5603 -1.3592
 8011SOL    HW235496   0.335   0.227   4.473  2.2744  0.0554 -0.0974
 8012SOL     OW35497   0.428   3.933   5.359 -0.2058  0.3910  0.3956
 8012SOL    HW135498   0.398   3.859   5.306 -1.7876  2.2372 -1.2572
 8012SOL    HW235499   0.368   4.000   5.328 -0.8844  0.3662  1.6764
 8013SOL     OW35500   3.459   4.359  14.719 -0.0175  0.2213  0.0838
 8013SOL    HW135501   3.546   4.386  14.750  0.2835 -1.1702  0.4833
 8013SOL    HW235502   3.436   4.410  14.642 -0.9765  0.9215  0.8359
 8014SOL     OW35503   1.690   4.690   3.027 -0.5454 -0.0539 -0.3359
 8014SOL    HW135504   1.774   0.007   3.046 -0.8125 -0.9810  2.8477
 8014SOL    HW235505   1.662   4.671   3.117 -0.5390 -1.7194 -0.6829
 8015SOL     OW35506   3.704   1.204   5.687  0.1419 -0.1433  0.0629
 8015SOL    HW135507   3.634   1.254   5.644 -0.3154 -1.2636 -0.5083
 8015SOL    HW235508   3.766   1.221   5.616 -1.2716 -0.4756 -1.2588
 8016SOL     OW35509   3.455   0.795   5.336  0.7836 -0.4169  0.1525
 8016SOL    HW135510   3.428   0.885   5.356  1.2621 -0.2835  0.2024
 8016SOL    HW235511   3.464   0.797   5.241  0.1525 -2.2951  0.0513
 8017SOL     OW35512   2.508   4.610  16.317  0.2274 -0.5703  0.2589
 8017SOL    HW135513   2.491   4.699  16.284  0.7980  0.5315  2.9244
 8017SOL    HW235514   2.444   4.597  16.387 -0.5115 -1.2222 -0.5443
 8018SOL     OW35515   1.368   0.837   5.324  0.0566  0.3277  0.3862
 8018SOL    HW135516   1.311   0.905   5.362 -0.3522 -0.7620  1.7142
 8018SOL    HW235517   1.329   0.758   5.361 -0.4843  0.9148  1.0628
 8019SOL     OW35518   0.403   3.329  11.500 -0.1488 -0.8962 -0.1183
 8019SOL    HW135519   0.317   3.300  11.469 -0.6835  0.2067  0.3077
 8019SOL    HW235520   0.410   3.294  11.589 -0.5730 -0.0708  0.2468
 8020SOL     OW35521   2.059   0.119   5.801 -0.2837  0.2566  0.3777
 8020SOL    HW135522   2.012   0.146   5.880 -0.9126  2.4048 -0.6967
 8020SOL    HW235523   2.145   0.098   5.836 -0.2393 -0.2987 -0.0610
 8021SOL     OW35524   4.423   4.144   7.112 -0.4410 -0.2310  0.0031
 8021SOL    HW135525   4.425   4.128   7.207 -0.8387  1.0988  0.2261
 8021SOL    HW235526   4.346   4.095   7.083 -2.9077  0.9650  4.6540
 8022SOL     OW35527   2.518   2.458   1.983  0.2408  0.4169 -0.1030
 8022SOL    HW135528   2.590   2.464   2.045 -0.0197  1.7532  0.0877
 8022SOL    HW235529   2.550   2.388   1.926  0.0401  0.1917  0.0636
 8023SOL     OW35530   2.051   3.899  13.422 -0.1424  0.4920  0.3849
 8023SOL    HW135531   2.127   3.957  13.420  0.1941 -0.0240 -2.9155
 8023SOL    HW235532   2.063   3.850  13.340 -0.7038  1.9575 -0.5757
 8024SOL     OW35533   0.095   2.978  16.937  0.5856 -0.3917  0.1963
 8024SOL    HW135534   0.089   2.959  17.031  0.2078 -0.1476  0.2220
 8024SOL    HW235535   0.017   2.938  16.898 -0.3227  0.0781  1.5026
 8025SOL     OW35536   4.704   4.725   8.428  0.6694  0.4839 -0.1845
 8025SOL    HW135537   0.062   4.711   8.473 -0.1439 -2.4837  0.3985
 8025SOL    HW235538   0.006   4.692   8.342  1.0518 -0.5884  0.3507
 8026SOL     OW35539   0.629   0.821  11.490  0.5438  0.1299  0.2655
 8026SOL    HW135540   0.605   0.749  11.431  1.9171  0.8019 -1.1038
 8026SOL    HW235541   0.716   0.787  11.509  0.2499 -0.6086  0.2711
 8027SOL     OW35542   2.968   4.096   7.775 -0.5901  0.1359  0.3337
 8027SOL    HW135543   3.019   4.023   7.811  1.0696  1.4312  0.6373
 8027SOL    HW235544   2.882   4.079   7.813 -0.3088  0.9874  1.3405
 8028SOL     OW35545   0.690   3.552   3.490  0.2159 -0.1500  0.5408
 8028SOL    HW135546   0.613   3.601   3.520 -0.6917 -0.7179 -0.8710
 8028SOL    HW235547   0.747   3.567   3.566  0.3485  0.0415  0.4030
 8029SOL     OW35548   4.356   0.704   8.777 -0.3875 -0.1881 -0.1889
 8029SOL    HW135549   4.367   0.647   8.701  0.7084 -1.2909  0.7953
 8029SOL    HW235550   4.445   0.737   8.787 -0.6162  0.1984  0.6134
 8030SOL     OW35551   3.201   4.628   7.431 -0.0127 -0.0976 -0.1390
 8030SOL    HW135552   3.110   4.600   7.418 -0.5463  1.1230  0.8762
 8030SOL    HW235553   3.228   4.603   7.520 -0.3540 -0.5415 -0.1579
 8031SOL     OW35554   3.732   4.681   1.706  0.1512 -0.1558  0.1529
 8031SOL    HW135555   3.760   4.691   1.616 -1.6770 -1.0728 -0.5267
 8031SOL    HW235556   3.694   0.040   1.729  0.3593 -0.3670  1.2849
 8032SOL     OW35557   1.468   0.112   9.513  0.1165 -0.4260 -0.2198
 8032SOL    HW135558   1.401   0.180   9.518 -0.0629 -0.5653 -0.7568
 8032SOL    HW235559   1.423   0.038   9.554  0.7303 -0.8759 -0.3557
 8033SOL     OW35560   4.252   0.023  17.497  0.2291 -0.5702 -0.1274
 8033SOL    HW135561   4.159   0.019  17.476  0.7971 -0.5960 -2.6627
 8033SOL    HW235562   4.257   4.672  17.554 -0.7573 -1.0794 -0.7205
 8034SOL     OW35563   1.487   1.348  15.151 -0.2101 -0.9191  0.3501
 8034SOL    HW135564   1.562   1.335  15.208  0.5979  0.7708 -0.3218
 8034SOL    HW235565   1.521   1.313  15.069 -0.0007  0.5149 -0.1758
 8035SOL     OW35566   3.206   3.923   0.755 -0.5867 -0.1961 -0.0610
 8035SOL    HW135567   3.234   3.835   0.733 -0.5912 -0.4441  0.9461
 8035SOL    HW235568   3.279   3.965   0.710 -0.2104 -1.5841 -0.7401
 8036SOL     OW35569   1.660   4.724   2.550  0.7231  0.3943  0.0260
 8036SOL    HW135570   1.716   4.672   2.493 -0.6032  0.4111 -1.2886
 8036SOL    HW235571   1.621   4.668   2.617  0.2005 -0.9460 -1.4179
 8037SOL     OW35572   2.671   3.732   6.411  0.7234 -0.1420  0.5748
 8037SOL    HW135573   2.669   3.636   6.414 -1.1585 -0.1289 -0.2160
 8037SOL    HW235574   2.619   3.741   6.331  0.2510 -1.4549  0.7250
 8038SOL     OW35575   0.562   2.805  10.234 -0.0155 -0.5466 -0.5505
 8038SOL    HW135576   0.529   2.883  10.279  1.5505 -1.5150  2.2551
 8038SOL    HW235577   0.518   2.730  10.274 -0.6662  0.8739  1.4271
 8039SOL     OW35578   4.507   0.429   8.065 -0.5272  0.3180 -0.7018
 8039SOL    HW135579   4.532   0.465   8.150 -0.6900 -1.0245 -0.0979
 8039SOL    HW235580   4.525   0.497   8.000  1.3976  0.4793 -0.0003
 8040SOL     OW35581   0.085   2.927  13.357 -0.1878 -0.0258  0.0811
 8040SOL    HW135582   0.045   2.896  13.438 -1.8070  1.9181  0.0195
 8040SOL    HW235583   0.116   2.847  13.313 -1.4822 -1.9036  2.5478
 8041SOL     OW35584   3.253   3.349  12.714  0.4293  0.4590  0.2472
 8041SOL    HW135585   3.321   3.289  12.683 -1.4753 -2.0140  0.8491
 8041SOL    HW235586   3.316   3.421  12.717 -0.8109  1.5065  0.7971
 8042SOL     OW35587   3.211   2.576   6.930 -0.0762  0.5157 -0.2306
 8042SOL    HW135588   3.277   2.507   6.929  1.9984  2.4975  2.9896
 8042SOL    HW235589   3.131   2.522   6.929  0.5558 -0.4818  2.0760
 8043SOL     OW35590   0.479   2.320   2.076 -0.1374 -0.0915 -0.2123
 8043SOL    HW135591   0.531   2.396   2.053 -2.3749  0.6435 -2.8903
 8043SOL    HW235592   0.388   2.348   2.064 -1.3689 -1.9480  5.0089
 8044SOL     OW35593   1.583   0.290   3.859  0.0794  0.1740 -0.2550
 8044SOL    HW135594   1.663   0.289   3.806 -0.2165  1.7178 -0.7101
 8044SOL    HW235595   1.520   0.290   3.788  1.0943  3.7779 -1.1566
 8045SOL     OW35596   1.087   0.446   0.600 -0.3056 -0.4907 -0.1632
 8045SOL    HW135597   1.087   0.542   0.604  1.5749 -0.4275 -2.0237
 8045SOL    HW235598   1.032   0.435   0.522 -0.5249  0.6407 -0.1744
 8046SOL     OW35599   0.311   1.559  10.329  0.3263 -0.1966 -0.5600
 8046SOL    HW135600   0.354   1.546  10.412  0.1917 -0.2981 -0.5061
 8046SOL    HW235601   0.387   1.579  10.275 -0.0944 -1.6684 -1.7018
 8047SOL     OW35602   1.251   4.305   1.410  0.6110  0.0377  0.1194
 8047SOL    HW135603   1.170   4.356   1.407  0.2696 -0.4024  1.8767
 8047SOL    HW235604   1.274   4.295   1.318  1.7887 -2.0130  0.6525
 8048SOL     OW35605   4.094   2.847   8.604 -0.4274 -0.3954 -0.3327
 8048SOL    HW135606   4.001   2.835   8.623 -1.1986 -0.7015 -4.2349
 8048SOL    HW235607   4.145   2.795   8.666 -0.9828  0.4763  0.8568
 8049SOL     OW35608   3.748   1.897   6.711  0.1525 -0.1523  0.7338
 8049SOL    HW135609   3.686   1.850   6.656  0.8809 -1.8859  1.3916
 8049SOL    HW235610   3.823   1.838   6.706  1.0682  1.1820 -1.1083
 8050SOL     OW35611   3.981   1.713   7.302 -0.0527 -0.1679  0.0731
 8050SOL    HW135612   3.895   1.753   7.318  1.7829  2.6496  2.6758
 8050SOL    HW235613   4.036   1.768   7.357  1.3041 -0.4535 -0.9980
 8051SOL     OW35614   3.977   4.617   6.509 -0.4555  0.0691 -0.2506
 8051SOL    HW135615   4.061   4.589   6.474 -1.0441 -2.0162  0.0056
 8051SOL    HW235616   3.958   4.540   6.564  2.9653  0.7960  1.9642
 8052SOL     OW35617   2.997   1.774  16.829 -0.1569 -0.7376  0.0904
 8052SOL    HW135618   2.963   1.805  16.913  0.8267  1.7405 -0.4140
 8052SOL    HW235619   3.089   1.751  16.847  0.2538  1.0098  0.2602
 8053SOL     OW35620   0.606   2.697   1.804  0.3034 -0.3162  0.4895
 8053SOL    HW135621   0.678   2.642   1.834  1.7985  1.2350 -0.2005
 8053SOL    HW235622   0.568   2.645   1.733 -1.2249  0.1499  0.9564
 8054SOL     OW35623   3.073   0.614  14.820 -0.3358  0.3365 -0.0047
 8054SOL    HW135624   3.132   0.539  14.826  0.1539  0.9533  2.9265
 8054SOL    HW235625   3.038   0.618  14.909 -0.5017 -0.2178 -0.0458
 8055SOL     OW35626   2.675   3.997   4.659  0.9587 -0.6712  0.2555
 8055SOL    HW135627   2.702   3.926   4.717  2.4405  0.7037  1.2391
 8055SOL    HW235628   2.686   3.954   4.574 -1.8933  0.5346 -0.7517
 8056SOL     OW35629   4.513   3.564   2.249  0.0973 -0.2362  0.2039
 8056SOL    HW135630   4.477   3.578   2.162  0.0442 -0.5224  0.1802
 8056SOL    HW235631   4.601   3.539   2.221  1.3727  1.9812  2.2608
 8057SOL     OW35632   3.332   1.708  12.426 -0.1722 -0.3434  0.5227
 8057SOL    HW135633   3.391   1.744  12.359  0.2935  1.0653  1.6829
 8057SOL    HW235634   3.353   1.614  12.426  1.6527  0.0571  0.2420
 8058SOL     OW35635   4.693   2.368   3.793 -0.0530 -0.2649 -0.3503
 8058SOL    HW135636   4.725   2.278   3.790 -1.8526 -0.8486 -2.3961
 8058SOL    HW235637   4.600   2.349   3.776  0.0560 -0.4286 -0.7634
 8059SOL     OW35638   1.809   4.625  16.102  0.5718  1.2637  0.0718
 8059SOL    HW135639   1.863   4.589  16.031  0.5842 -1.9613  1.7217
 8059SOL    HW235640   1.746   4.667  16.043 -0.3831 -2.0416 -1.3014
 8060SOL     OW35641   2.294   3.288   4.132 -0.3706  0.3794  0.6488
 8060SOL    HW135642   2.384   3.258   4.143  0.0114  1.3047  0.0330
 8060SOL    HW235643   2.312   3.354   4.065  0.2065 -0.8633 -0.4358
 8061SOL     OW35644   4.426   1.936   4.091  0.1459  0.0109  0.8764
 8061SOL    HW135645   4.491   1.900   4.032  0.8445  2.4964  0.1115
 8061SOL    HW235646   4.341   1.903   4.062  0.0763  1.1936 -0.2740
 8062SOL     OW35647   2.795   4.399   8.750  0.0963 -0.1221 -0.0256
 8062SOL    HW135648   2.814   4.306   8.737  2.8326  0.1404  1.8894
 8062SOL    HW235649   2.736   4.393   8.826 -2.1359 -0.7749 -1.8278
 8063SOL     OW35650   3.238   1.877   6.542  0.7610 -0.4499 -0.3847
 8063SOL    HW135651   3.204   1.914   6.624 -0.1164 -1.5491 -0.2610
 8063SOL    HW235652   3.322   1.920   6.527  1.6881 -2.2631 -0.2797
 8064SOL     OW35653   1.520   4.725   0.146 -0.0088 -0.1663 -0.1234
 8064SOL    HW135654   1.612   4.700   0.139  0.1475  0.3948 -0.0307
 8064SOL    HW235655   1.524   0.085   0.190  0.5019 -0.3881  0.2551
 8065SOL     OW35656   0.459   1.581  10.558 -0.2747  0.3158  0.0071
 8065SOL    HW135657   0.478   1.659  10.610 -0.1382  0.9503 -0.9972
 8065SOL    HW235658   0.455   1.508  10.620  2.6003  1.9497  2.1462
 8066SOL     OW35659   0.096   4.650   7.699  0.0181 -0.1632  0.3304
 8066SOL    HW135660   0.026   4.670   7.760  0.4863 -2.1943  1.5406
 8066SOL    HW235661   0.110   0.011   7.660  0.3985 -0.9986 -1.4244
 8067SOL     OW35662   2.670   4.290   8.185  0.1018 -0.2838 -0.1583
 8067SOL    HW135663   2.751   4.324   8.224  0.2375  0.0505 -0.7259
 8067SOL    HW235664   2.682   4.195   8.182 -0.3111 -0.3177 -0.6867
 8068SOL     OW35665   3.605   4.607   7.744 -0.4380 -0.0243 -0.4658
 8068SOL    HW135666   3.547   4.627   7.671 -2.3276 -3.4038  0.1196
 8068SOL    HW235667   3.663   4.683   7.752 -1.4012  0.5239  1.3492
 8069SOL     OW35668   2.975   0.622   7.435  0.3428  0.2391 -0.3264
 8069SOL    HW135669   2.883   0.627   7.409  0.1644 -0.6275  0.1596
 8069SOL    HW235670   3.009   0.566   7.365 -0.0326 -1.6850  1.0655
 8070SOL     OW35671   4.304   4.220   8.337 -0.1557  0.1935  0.0058
 8070SOL    HW135672   4.290   4.221   8.243 -0.4076  2.1126  0.0590
 8070SOL    HW235673   4.330   4.129   8.342 -2.8023 -0.4652  2.1841
 8071SOL     OW35674   0.729   2.896   6.249 -0.0742  0.2961 -0.4841
 8071SOL    HW135675   0.708   2.877   6.341  0.4847 -0.3728 -0.4975
 8071SOL    HW235676   0.776   2.815   6.230  0.9611  0.6993  0.3627
 8072SOL     OW35677   1.701   2.777   3.204  0.0426 -0.6957 -0.7794
 8072SOL    HW135678   1.760   2.719   3.155 -0.4419 -1.5510 -0.3460
 8072SOL    HW235679   1.759   2.852   3.215  0.5897 -1.4416  1.4308
 8073SOL     OW35680   2.202   2.079   1.304  0.9384  0.4016 -0.1498
 8073SOL    HW135681   2.256   2.102   1.379  2.2213 -0.3167 -0.8580
 8073SOL    HW235682   2.139   2.146   1.330  0.1311 -0.1799 -0.6044
 8074SOL     OW35683   0.745   3.710   9.687 -0.6294  0.3589  0.0796
 8074SOL    HW135684   0.806   3.760   9.742 -0.9521  0.0444  0.7196
 8074SOL    HW235685   0.660   3.742   9.717 -0.5590 -1.2184  1.9418
 8075SOL     OW35686   1.337   1.256  10.713  0.6228 -0.5262  0.2477
 8075SOL    HW135687   1.291   1.315  10.772 -1.4386 -2.2246  0.3155
 8075SOL    HW235688   1.288   1.241  10.633  1.3413 -0.0321 -0.2879
 8076SOL     OW35689   4.547   1.981   3.552 -0.8655 -0.2101 -0.0280
 8076SOL    HW135690   4.580   1.891   3.550 -0.2960  0.0005 -0.1433
 8076SOL    HW235691   4.533   1.998   3.458  0.7674  1.5687  0.0562
 8077SOL     OW35692   2.106   2.666   3.222  0.2558  0.4891  0.3093
 8077SOL    HW135693   2.132   2.674   3.130 -2.1434  2.6935 -0.1605
 8077SOL    HW235694   2.190   2.693   3.260  0.0524 -0.5635  1.5444
 8078SOL     OW35695   2.973   0.396   8.304 -0.3110 -0.1759  0.4564
 8078SOL    HW135696   2.938   0.342   8.375  1.3364  0.4946  1.7770
 8078SOL    HW235697   2.926   0.361   8.228  0.3277 -1.8338  0.8244
 8079SOL     OW35698   2.875   0.239   0.901 -0.3844  0.0910 -0.0957
 8079SOL    HW135699   2.797   0.293   0.907 -2.7056 -3.2532 -0.5676
 8079SOL    HW235700   2.832   0.158   0.876 -3.8846  2.1714 -0.7919
 8080SOL     OW35701   2.695   3.587   0.107  0.2911  0.6381 -0.0705
 8080SOL    HW135702   2.765   3.625   0.159  0.2347  0.1470  0.3630
 8080SOL    HW235703   2.715   3.624   0.021  0.2251  3.0323  0.9516
 8081SOL     OW35704   0.999   0.337   3.842 -0.5123  0.0006 -0.2054
 8081SOL    HW135705   1.071   0.354   3.781 -1.2725  0.4434 -0.9826
 8081SOL    HW235706   0.968   0.424   3.867  1.1227  0.8820 -1.2527
 8082SOL     OW35707   0.959   0.584   5.690  0.2883 -0.1558  0.2598
 8082SOL    HW135708   0.973   0.659   5.632 -0.4481  0.6232  1.0765
 8082SOL    HW235709   1.036   0.536   5.659 -1.7923 -1.7057 -2.5067
 8083SOL     OW35710   1.420   0.481   1.884  0.3063 -0.1873 -0.0309
 8083SOL    HW135711   1.351   0.416   1.871 -0.4966  0.5686  0.4612
 8083SOL    HW235712   1.497   0.432   1.912  2.2667  2.4822 -0.7489
 8084SOL     OW35713   2.191   1.470   4.032 -0.0395  0.2955 -0.1018
 8084SOL    HW135714   2.254   1.522   3.982  1.1782 -0.2181  0.9231
 8084SOL    HW235715   2.105   1.485   3.991  0.0359 -2.4329 -1.2690
 8085SOL     OW35716   2.352   0.611   6.416 -0.1591 -0.6903 -0.1390
 8085SOL    HW135717   2.432   0.566   6.387  0.4971  1.0464 -1.0250
 8085SOL    HW235718   2.295   0.535   6.424 -1.7109  1.0348  4.9290
 8086SOL     OW35719   0.247   3.459  14.626 -0.4461  0.5305  0.1556
 8086SOL    HW135720   0.155   3.452  14.652  0.1173 -1.5053  1.5666
 8086SOL    HW235721   0.264   3.368  14.604 -1.2015  0.3998  0.0973
 8087SOL     OW35722   3.209   1.408   3.225  0.3284  0.3831 -0.7108
 8087SOL    HW135723   3.130   1.358   3.245  0.3364 -0.0681 -1.7694
 8087SOL    HW235724   3.248   1.370   3.146 -1.2317 -1.2197 -0.7210
 8088SOL     OW35725   1.545   2.760   3.474  0.1066 -0.0637  0.6834
 8088SOL    HW135726   1.613   2.753   3.408 -0.1626  1.1604  0.2802
 8088SOL    HW235727   1.567   2.684   3.529 -0.1066  0.2471  1.2041
 8089SOL     OW35728   0.833   3.771   1.822  0.3923  0.2447 -0.4807
 8089SOL    HW135729   0.751   3.774   1.772  0.7906  0.2214 -1.1294
 8089SOL    HW235730   0.812   3.728   1.905 -1.0007  0.5791 -0.6609
 8090SOL     OW35731   3.786   4.049   7.856 -0.2102  0.5485 -0.3359
 8090SOL    HW135732   3.775   4.074   7.947 -0.7943  0.3063 -0.3363
 8090SOL    HW235733   3.693   4.039   7.832 -0.3169 -0.8462  0.6895
 8091SOL     OW35734   2.533   4.479   4.322 -0.2481  0.1692  0.7167
 8091SOL    HW135735   2.513   4.519   4.237 -0.3911  0.6221  0.9624
 8091SOL    HW235736   2.623   4.454   4.304 -0.4445  0.3204 -0.4505
 8092SOL     OW35737   2.601   3.264  12.101  0.7049 -0.1097  0.2502
 8092SOL    HW135738   2.630   3.299  12.017  2.2891 -3.7144 -0.6883
 8092SOL    HW235739   2.687   3.247  12.141 -0.4901  1.5590  3.4622
 8093SOL     OW35740   3.041   2.582   7.745  0.3759  0.0496  0.1510
 8093SOL    HW135741   2.974   2.649   7.729 -0.8754 -1.0806  0.6924
 8093SOL    HW235742   2.997   2.498   7.737 -1.7042  1.3640 -2.5859
 8094SOL     OW35743   3.889   0.508  16.245 -0.4071 -0.2618  0.7714
 8094SOL    HW135744   3.984   0.496  16.249 -0.2285  1.5160  1.6830
 8094SOL    HW235745   3.884   0.599  16.217 -0.8697 -0.5005  0.0735
 8095SOL     OW35746   1.090   2.503   5.664 -0.1955 -0.7792  0.5621
 8095SOL    HW135747   1.024   2.573   5.659  0.6306 -0.0719 -0.2916
 8095SOL    HW235748   1.142   2.518   5.585 -1.7574  1.9540  0.0508
 8096SOL     OW35749   2.794   0.172   4.955  0.6811 -0.0734 -0.1246
 8096SOL    HW135750   2.779   0.266   4.965  1.3338 -0.0690  0.8099
 8096SOL    HW235751   2.889   0.168   4.946  0.4909 -1.1591 -1.6046
 8097SOL     OW35752   4.599   3.160   4.462  0.7685  0.7367 -0.2332
 8097SOL    HW135753   4.554   3.093   4.411 -0.6279  2.0925 -0.7649
 8097SOL    HW235754   4.528   3.193   4.517  2.2979  0.3184  1.9778
 8098SOL     OW35755   3.307   2.853  13.517 -0.0446  0.2088 -0.2334
 8098SOL    HW135756   3.271   2.940  13.536  0.9393  0.7025 -0.6035
 8098SOL    HW235757   3.386   2.871  13.467 -0.6367  1.5776 -0.6883
 8099SOL     OW35758   2.022   3.436   6.874  0.1127 -1.4654 -0.1334
 8099SOL    HW135759   1.989   3.457   6.787  0.4773  1.8843  0.5176
 8099SOL    HW235760   1.953   3.376   6.900 -0.1895 -1.3526 -0.6810
 8100SOL     OW35761   3.400   2.719   4.885  0.7084 -0.6720 -0.1626
 8100SOL    HW135762   3.483   2.758   4.857 -0.0575  0.3607 -1.0223
 8100SOL    HW235763   3.352   2.730   4.802  0.9192 -0.9346 -0.3202
 8101SOL     OW35764   2.438   4.221  12.385  0.2449 -0.2817 -0.3459
 8101SOL    HW135765   2.486   4.170  12.319 -1.4566 -0.0708 -1.7745
 8101SOL    HW235766   2.384   4.277  12.329  0.6002  0.4161  0.0202
 8102SOL     OW35767   3.315   3.536   2.344  0.7342  0.5375  0.4145
 8102SOL    HW135768   3.273   3.451   2.356  0.1054  0.5921 -1.3935
 8102SOL    HW235769   3.350   3.535   2.254 -1.6681  0.1486 -0.5212
 8103SOL     OW35770   0.428   4.378   1.974  0.0151 -0.2677 -0.3317
 8103SOL    HW135771   0.424   4.318   2.048 -0.7815 -1.3052 -1.2031
 8103SOL    HW235772   0.389   4.455   2.014 -0.5771 -0.6673 -0.1446
 8104SOL     OW35773   4.178   3.920  13.127  0.7564  0.3267  0.0982
 8104SOL    HW135774   4.238   3.854  13.162 -0.5049 -1.0240 -0.3000
 8104SOL    HW235775   4.229   3.945  13.051 -2.2086  0.3907 -1.8652
 8105SOL     OW35776   2.940   4.449  11.472  0.4813 -0.7840 -0.5417
 8105SOL    HW135777   2.908   4.420  11.386 -4.5340 -2.1576  1.7827
 8105SOL    HW235778   2.945   4.362  11.513  1.4039  0.1403  1.2705
 8106SOL     OW35779   1.139   1.596  15.682 -0.0332  0.7584 -0.3841
 8106SOL    HW135780   1.103   1.584  15.770  0.4306 -1.7491 -0.5410
 8106SOL    HW235781   1.058   1.593  15.631 -0.5490 -1.2094  0.5494
 8107SOL     OW35782   0.077   3.074   6.034 -0.0166 -0.5507  0.4805
 8107SOL    HW135783   0.061   2.982   6.013 -3.8503  0.5035 -1.2065
 8107SOL    HW235784   0.172   3.068   6.047 -0.0150 -1.2454  0.1588
 8108SOL     OW35785   4.385   4.520   5.289 -0.6831  0.5656 -0.5467
 8108SOL    HW135786   4.341   4.540   5.372  0.8410  0.4362  0.2928
 8108SOL    HW235787   4.477   4.506   5.312 -1.2483  0.1221  1.4271
 8109SOL     OW35788   3.203   0.741  10.310  0.1229 -0.0461  0.5441
 8109SOL    HW135789   3.211   0.750  10.215  1.1376 -0.1832  0.6198
 8109SOL    HW235790   3.138   0.810  10.322 -0.1199 -0.3434  0.9424
 8110SOL     OW35791   0.702   4.514   8.917 -0.1370 -0.3158  0.4288
 8110SOL    HW135792   0.702   4.491   8.824 -3.9582 -0.1363  0.3940
 8110SOL    HW235793   0.764   4.587   8.920  0.9785 -1.3390  2.3648
 8111SOL     OW35794   2.105   4.258   7.022 -0.2579  0.9480 -0.4395
 8111SOL    HW135795   2.120   4.341   7.066  0.1678 -0.4137  2.0199
 8111SOL    HW235796   2.011   4.271   7.011 -0.4940 -0.3043  0.1364
 8112SOL     OW35797   1.266   0.858  16.488 -0.6777  0.9200 -0.5177
 8112SOL    HW135798   1.177   0.856  16.452 -0.6448 -0.6841 -0.5086
 8112SOL    HW235799   1.271   0.772  16.530  0.4851  1.4559  0.4250
 8113SOL     OW35800   0.481   0.190  14.268 -0.4928 -0.2228 -0.0356
 8113SOL    HW135801   0.565   0.221  14.304 -0.8534 -0.0780  0.6913
 8113SOL    HW235802   0.497   0.200  14.174 -0.3926  0.7921  0.0843
 8114SOL     OW35803   0.476   2.788   5.949 -0.3641  0.4398 -0.3095
 8114SOL    HW135804   0.465   2.704   5.992  0.8054 -1.2775 -3.3659
 8114SOL    HW235805   0.563   2.779   5.910  0.4942 -1.2893  2.0291
 8115SOL     OW35806   2.739   4.683  11.811 -0.1405  0.0362  0.1966
 8115SOL    HW135807   2.764   0.050  11.802 -1.3957  0.3480 -0.0533
 8115SOL    HW235808   2.718   4.663  11.720  0.7692  0.8705 -0.1998
 8116SOL     OW35809   4.238   1.844   2.398 -0.0343  0.1397  0.5808
 8116SOL    HW135810   4.319   1.797   2.418  0.2669  0.9060  1.1537
 8116SOL    HW235811   4.190   1.770   2.359  1.1621 -0.2122 -0.2453
 8117SOL     OW35812   3.330   3.621   5.270 -0.2383 -0.0011  0.3166
 8117SOL    HW135813   3.341   3.716   5.274  0.6709 -0.1184  0.7595
 8117SOL    HW235814   3.274   3.597   5.344  0.0381  1.5243  1.0096
 8118SOL     OW35815   3.398   1.060   8.231  0.2322  0.1144  0.1088
 8118SOL    HW135816   3.424   1.035   8.142 -1.8121 -1.6633 -0.0080
 8118SOL    HW235817   3.484   1.061   8.271  0.9910 -0.3184 -1.4925
 8119SOL     OW35818   1.962   1.839   4.814  0.2912 -0.4870  0.4429
 8119SOL    HW135819   1.911   1.772   4.860  0.7785 -0.7141  0.6540
 8119SOL    HW235820   2.046   1.795   4.801  1.0242  2.2743 -4.3728
 8120SOL     OW35821   0.877   2.938   4.055 -0.2934 -0.3745 -0.8409
 8120SOL    HW135822   0.938   3.009   4.078 -0.9031  0.4440 -1.7196
 8120SOL    HW235823   0.940   2.871   4.030 -1.1211 -1.8527  1.0842
 8121SOL     OW35824   4.497   3.548   5.888 -0.2786  0.2285 -0.3051
 8121SOL    HW135825   4.559   3.477   5.872  0.0679  0.7420 -1.1797
 8121SOL    HW235826   4.525   3.573   5.976 -0.7330 -1.9627  0.4716
 8122SOL     OW35827   3.289   1.505  16.614 -0.0420 -0.1322 -0.8570
 8122SOL    HW135828   3.245   1.523  16.697 -0.1794  1.1865 -1.2174
 8122SOL    HW235829   3.359   1.442  16.631 -0.3075  0.5367  2.7500
 8123SOL     OW35830   4.425   2.689   7.166  0.5368  0.1541 -0.5482
 8123SOL    HW135831   4.488   2.643   7.221  0.7444 -0.1974 -1.0797
 8123SOL    HW235832   4.420   2.772   7.212  0.5889  0.1750 -0.5807
 8124SOL     OW35833   2.578   3.413   6.431  0.4310 -0.3539  0.4506
 8124SOL    HW135834   2.583   3.417   6.336 -1.5165 -0.5175  0.3242
 8124SOL    HW235835   2.496   3.363   6.440 -0.4745  0.6182 -2.4213
 8125SOL     OW35836   2.312   0.446   7.143  0.0703  0.0568 -0.0079
 8125SOL    HW135837   2.235   0.502   7.155  0.1731  0.0616  0.6365
 8125SOL    HW235838   2.287   0.402   7.062  0.4428  1.5582 -0.9357
 8126SOL     OW35839   2.008   0.702   5.646 -0.0992  0.2115 -1.0530
 8126SOL    HW135840   1.944   0.748   5.701  1.8324  1.3401  0.2419
 8126SOL    HW235841   2.070   0.660   5.706  1.2306  3.3357 -0.2464
 8127SOL     OW35842   0.256   1.529   2.359 -0.5401  0.7861  0.2515
 8127SOL    HW135843   0.186   1.477   2.399 -0.0982 -1.0997 -1.4083
 8127SOL    HW235844   0.269   1.594   2.428  3.6937  0.6619 -0.4007
 8128SOL     OW35845   0.072   0.290   2.562 -0.1852 -0.7982 -0.1977
 8128SOL    HW135846   0.086   0.306   2.655  0.6010 -2.9549  0.0568
 8128SOL    HW235847   4.713   0.244   2.551 -0.0850 -0.6391 -1.5851
 8129SOL     OW35848   1.890   2.393  12.887 -0.5365  0.3171  0.2027
 8129SOL    HW135849   1.972   2.389  12.838 -0.6541 -2.1698  0.2089
 8129SOL    HW235850   1.876   2.487  12.895 -0.9097  0.3045 -0.3373
 8130SOL     OW35851   1.547   2.149   5.000  0.3225 -0.4780 -0.3800
 8130SOL    HW135852   1.458   2.183   5.005  0.4809 -0.0897 -0.1917
 8130SOL    HW235853   1.587   2.216   5.055  1.8337  0.4755 -2.6634
 8131SOL     OW35854   2.216   1.708  13.918  0.3721  0.7702  0.2358
 8131SOL    HW135855   2.293   1.725  13.973  0.0377 -3.7219  2.0717
 8131SOL    HW235856   2.222   1.612  13.921  0.0002  0.7799  1.1697
 8132SOL     OW35857   1.613   4.532  11.041 -0.7721 -0.4779  0.0144
 8132SOL    HW135858   1.603   4.440  11.015 -0.1947 -0.2507 -0.9905
 8132SOL    HW235859   1.538   4.570  10.995  0.0445  1.2700  0.1742
 8133SOL     OW35860   3.123   0.473  10.296 -0.0024  0.2804  0.2973
 8133SOL    HW135861   3.028   0.470  10.291 -0.0118  1.5044 -0.2511
 8133SOL    HW235862   3.135   0.566  10.278  0.7466  0.3480  1.1743
 8134SOL     OW35863   1.273   4.575   2.468 -0.3584 -0.4993 -0.1240
 8134SOL    HW135864   1.309   4.603   2.553  1.0609 -0.0107 -0.8992
 8134SOL    HW235865   1.326   4.500   2.442 -0.4122 -1.0367  1.3065
 8135SOL     OW35866   1.244   2.537   7.808 -0.6384  0.6598  0.5270
 8135SOL    HW135867   1.166   2.593   7.811 -1.1411  0.0472 -1.1298
 8135SOL    HW235868   1.295   2.604   7.854  2.2843  0.4867 -2.4604
 8136SOL     OW35869   1.314   2.437   3.165  0.0862  0.4301  0.3877
 8136SOL    HW135870   1.247   2.383   3.208 -1.4844  0.4147 -2.0702
 8136SOL    HW235871   1.393   2.439   3.219 -0.7859  0.0708  1.6637
 8137SOL     OW35872   4.699   3.597   9.102  0.0885  0.3229 -0.0257
 8137SOL    HW135873   4.643   3.548   9.042 -0.0882 -0.1082  0.4953
 8137SOL    HW235874   0.054   3.545   9.092  1.0255  1.8259 -0.3116
 8138SOL     OW35875   1.287   3.385   8.990 -0.6149 -0.1237  0.1560
 8138SOL    HW135876   1.375   3.392   9.026  0.2943 -0.8224 -1.9333
 8138SOL    HW235877   1.309   3.361   8.900 -2.6309 -0.8861 -0.1355
 8139SOL     OW35878   2.033   2.854  14.642  0.5277  0.4662 -0.3612
 8139SOL    HW135879   1.974   2.854  14.567  1.3121 -0.0031 -0.9901
 8139SOL    HW235880   2.118   2.868  14.600  0.1472  2.1441 -0.5793
 8140SOL     OW35881   3.829   3.512   6.530  0.3902 -0.0808 -0.0646
 8140SOL    HW135882   3.849   3.418   6.538 -3.7919 -0.8724  1.1715
 8140SOL    HW235883   3.812   3.523   6.436 -0.7559  0.2553  0.1809
 8141SOL     OW35884   1.947   1.366   5.485 -0.0639  0.5208 -0.6419
 8141SOL    HW135885   1.987   1.283   5.460  0.1875 -0.0054  1.4588
 8141SOL    HW235886   1.892   1.383   5.409 -1.2363 -0.1923  0.0319
 8142SOL     OW35887   0.972   4.019   1.870 -0.2182 -0.0239 -0.3279
 8142SOL    HW135888   0.988   3.997   1.779 -0.8214 -0.1892 -0.3905
 8142SOL    HW235889   0.883   3.985   1.872 -0.3215  0.2884  0.5839
 8143SOL     OW35890   0.682   4.518   1.281 -0.0729 -0.3995  0.0204
 8143SOL    HW135891   0.743   4.446   1.301 -1.0372 -1.0268  0.7201
 8143SOL    HW235892   0.728   4.598   1.307 -1.1904 -0.6512  2.7457
 8144SOL     OW35893   3.482   3.712  14.251  0.3425  0.0102  0.1209
 8144SOL    HW135894   3.543   3.669  14.310  0.5967  0.7933  0.4377
 8144SOL    HW235895   3.476   3.800  14.289 -1.4961 -0.4360  0.8603
 8145SOL     OW35896   3.504   3.059   5.805 -0.1947 -0.0337  0.0578
 8145SOL    HW135897   3.541   3.097   5.724 -2.6841  1.5792 -0.3117
 8145SOL    HW235898   3.436   3.004   5.766 -0.3075 -0.1346  0.3973
 8146SOL     OW35899   2.267   2.026   1.966 -0.0543  0.3137  0.3240
 8146SOL    HW135900   2.309   2.014   2.051  0.2910  1.9628  0.3810
 8146SOL    HW235901   2.248   1.937   1.935  2.5168  0.8929 -2.9158
 8147SOL     OW35902   4.565   2.119   2.248  0.3762 -0.1712 -0.8891
 8147SOL    HW135903   4.561   2.108   2.153 -1.1943  1.1568 -0.9955
 8147SOL    HW235904   4.629   2.053   2.271 -0.4865 -0.4101  0.7989
 8148SOL     OW35905   2.510   2.251  13.437 -0.0570  0.0225  0.3220
 8148SOL    HW135906   2.458   2.285  13.509  0.3965 -0.9838  1.1305
 8148SOL    HW235907   2.501   2.313  13.365  3.6797 -0.2246 -0.3412
 8149SOL     OW35908   0.424   4.240   4.595  0.7247 -0.4280 -0.7948
 8149SOL    HW135909   0.448   4.153   4.564 -1.4533 -1.8094  1.4356
 8149SOL    HW235910   0.339   4.246   4.551  1.6083  0.3143 -2.3968
 8150SOL     OW35911   1.442   4.001   9.041  0.0893  0.1490 -0.1805
 8150SOL    HW135912   1.442   4.084   9.089 -3.3123  1.3798 -2.2656
 8150SOL    HW235913   1.507   4.009   8.971  0.0594 -0.2087 -0.2500
 8151SOL     OW35914   2.552   3.424   5.635  0.0129  0.5061 -0.2245
 8151SOL    HW135915   2.483   3.475   5.677  0.1556  2.0793 -1.8758
 8151SOL    HW235916   2.510   3.403   5.551  0.3769 -1.1207  0.0005
 8152SOL     OW35917   4.383   3.222   4.201 -0.0832  0.0255  0.1822
 8152SOL    HW135918   4.315   3.257   4.258 -2.3087 -0.6766 -2.0872
 8152SOL    HW235919   4.353   3.133   4.184  3.7023 -0.7217 -2.6032
 8153SOL     OW35920   0.923   2.424  15.628  0.0352 -0.4278 -0.2769
 8153SOL    HW135921   1.000   2.379  15.664  0.4997  0.0864 -0.6274
 8153SOL    HW235922   0.914   2.377  15.546 -1.4180 -0.7106  0.0510
 8154SOL     OW35923   0.844   2.111  14.277 -0.0951  0.0378 -0.1191
 8154SOL    HW135924   0.786   2.163  14.221 -0.0111  0.6414  0.3564
 8154SOL    HW235925   0.896   2.074  14.206  0.7062 -0.3577  0.6683
 8155SOL     OW35926   0.883   0.144   2.894  0.1058  0.1311 -0.7895
 8155SOL    HW135927   0.803   0.142   2.947  0.4946 -1.7732 -0.2455
 8155SOL    HW235928   0.960   0.106   2.937  0.4602  2.5552  0.6920
 8156SOL     OW35929   0.995   1.597   7.188 -0.2784 -0.9335  0.3208
 8156SOL    HW135930   1.011   1.603   7.094 -1.6555 -1.4687  0.0501
 8156SOL    HW235931   0.988   1.503   7.207 -1.3430 -0.8190  0.5255
 8157SOL     OW35932   1.690   3.915  12.419 -0.3164  0.1666  0.2937
 8157SOL    HW135933   1.694   3.998  12.372  0.5661  0.1023  0.2449
 8157SOL    HW235934   1.780   3.883  12.409 -0.5877 -0.7688  0.7890
 8158SOL     OW35935   4.583   3.841   3.884 -0.7833  0.5966 -0.2716
 8158SOL    HW135936   4.499   3.809   3.917 -0.8275 -0.1034 -1.0625
 8158SOL    HW235937   4.560   3.908   3.820 -2.7479 -0.2987 -0.5096
 8159SOL     OW35938   2.307   4.165   2.867 -0.1933 -0.1985  0.3812
 8159SOL    HW135939   2.313   4.237   2.804 -2.9145 -1.2156 -1.0591
 8159SOL    HW235940   2.226   4.177   2.916  0.0069  0.7912  0.4754
 8160SOL     OW35941   4.250   0.139  16.747  0.2444 -0.6934  0.2009
 8160SOL    HW135942   4.224   0.048  16.735 -3.3000  0.3328  0.0348
 8160SOL    HW235943   4.166   0.175  16.777  0.3721 -0.0322 -0.2220
 8161SOL     OW35944   4.616   4.340   4.013  0.1771  0.1349 -0.5810
 8161SOL    HW135945   4.565   4.421   4.024 -0.8213 -0.2597 -2.2336
 8161SOL    HW235946   4.682   4.342   4.082 -0.1180  0.9616 -0.3176
 8162SOL     OW35947   2.208   1.034   3.724  0.0519 -0.2069  0.5198
 8162SOL    HW135948   2.116   1.038   3.698  0.1532  2.6892  0.6411
 8162SOL    HW235949   2.231   0.942   3.713  0.1267 -0.1078 -0.2030
 8163SOL     OW35950   1.899   4.552   7.276  0.1783  0.0965  0.3210
 8163SOL    HW135951   1.897   4.579   7.368  2.1189 -0.4913  0.5294
 8163SOL    HW235952   1.864   4.466   7.298 -1.6552  0.3285 -1.6784
 8164SOL     OW35953   1.810   1.016   4.500  0.0623 -1.1683  0.1749
 8164SOL    HW135954   1.838   1.012   4.591 -1.7052  2.8453  0.8741
 8164SOL    HW235955   1.786   0.924   4.487 -4.0602  0.1966 -1.7937
 8165SOL     OW35956   2.305   4.086   7.426  0.1914 -0.5946  0.0011
 8165SOL    HW135957   2.309   3.997   7.391  1.4022  0.1911 -1.8102
 8165SOL    HW235958   2.210   4.095   7.433  0.2788  0.7200 -0.6124
 8166SOL     OW35959   4.429   0.215   7.911 -0.5633 -0.1205 -0.1610
 8166SOL    HW135960   4.463   0.290   7.960 -0.0951 -0.8209  0.5747
 8166SOL    HW235961   4.363   0.202   7.979 -0.8308 -0.5932 -0.5126
 8167SOL     OW35962   4.117   2.929   7.421  0.4687  0.3012  0.1588
 8167SOL    HW135963   4.024   2.906   7.428  0.4657 -0.3965 -1.8843
 8167SOL    HW235964   4.150   2.863   7.359  2.3498  0.8967  0.5607
 8168SOL     OW35965   1.848   1.590  15.476  0.1439 -0.1476 -1.0834
 8168SOL    HW135966   1.893   1.666  15.439 -1.2560  2.1558  2.0382
 8168SOL    HW235967   1.926   1.552  15.517 -1.0603  0.1381  1.4714
 8169SOL     OW35968   1.517   2.873   2.841 -0.7680 -0.0946  0.3523
 8169SOL    HW135969   1.574   2.950   2.849 -0.1687 -0.0428 -4.6540
 8169SOL    HW235970   1.445   2.904   2.787 -0.7357  0.0054  0.3671
 8170SOL     OW35971   3.628   3.055   6.976 -0.4285  0.1343 -0.3876
 8170SOL    HW135972   3.696   3.074   7.040  0.6118  0.8558 -1.6979
 8170SOL    HW235973   3.656   2.968   6.948 -1.2025 -0.1214 -0.3511
 8171SOL     OW35974   0.501   2.474   7.070 -0.6356  0.5006  0.6533
 8171SOL    HW135975   0.525   2.563   7.044 -1.4267  0.3807 -0.4695
 8171SOL    HW235976   0.574   2.440   7.122  0.4389 -0.4956 -1.5037
 8172SOL     OW35977   0.431   0.454   2.389  0.0800  0.2341  0.6151
 8172SOL    HW135978   0.441   0.540   2.347 -0.5311 -0.4306 -0.8679
 8172SOL    HW235979   0.489   0.474   2.463  0.7233 -1.3088  0.5243
 8173SOL     OW35980   0.108   0.999  15.660 -0.1554  0.2693  0.0330
 8173SOL    HW135981   0.191   1.045  15.653  0.3003 -0.6056 -0.3086
 8173SOL    HW235982   0.053   1.050  15.600 -3.8465 -1.5682  1.7997
 8174SOL     OW35983   2.983   2.805   9.618  0.0243 -0.1938  0.4852
 8174SOL    HW135984   2.935   2.845   9.546 -0.0473 -0.3506  0.4454
 8174SOL    HW235985   2.977   2.880   9.677 -0.3883 -0.9896  1.4509
 8175SOL     OW35986   3.839   0.381   8.129 -0.3485  0.0316  0.0330
 8175SOL    HW135987   3.930   0.410   8.124 -0.1655 -0.4074  0.6787
 8175SOL    HW235988   3.824   0.339   8.045 -0.4193 -0.5899  0.3540
 8176SOL     OW35989   0.600   2.989   8.619 -0.1803  0.3559  0.0044
 8176SOL    HW135990   0.613   2.981   8.714  0.9251 -3.0371 -0.4261
 8176SOL    HW235991   0.577   2.900   8.592 -2.0831 -0.1607  3.3508
 8177SOL     OW35992   2.882   3.162   0.641  0.6564  0.1027  0.0974
 8177SOL    HW135993   2.962   3.110   0.648 -0.7195 -2.2083 -1.6311
 8177SOL    HW235994   2.870   3.205   0.726  0.8925 -0.2768  0.3223
 8178SOL     OW35995   1.937   4.631  16.430 -0.5713 -0.3579 -0.8275
 8178SOL    HW135996   1.909   4.540  16.423 -0.7050 -0.3343 -0.5944
 8178SOL    HW235997   1.966   4.636  16.521 -3.2395  1.4384 -0.0888
 8179SOL     OW35998   1.296   3.918   4.037  0.3379  0.3693 -0.0468
 8179SOL    HW135999   1.328   3.873   3.958  1.6213 -2.0651  1.8583
 8179SOL    HW236000   1.333   4.005   4.023 -2.0772  1.5467  0.9453
 8180SOL     OW36001   4.182   3.887   7.580  0.2720  0.5159 -0.4689
 8180SOL    HW136002   4.097   3.930   7.568 -0.6401 -0.8339  1.1216
 8180SOL    HW236003   4.164   3.806   7.532  1.5738  0.1287 -0.3004
 8181SOL     OW36004   0.085   1.821   6.241  0.3500  0.1412  0.1648
 8181SOL    HW136005   0.004   1.787   6.203  0.6905  0.3404 -0.7260
 8181SOL    HW236006   0.096   1.756   6.311  1.0588  1.4931  1.3030
 8182SOL     OW36007   3.110   1.179   7.940 -0.0799 -0.0770 -0.4761
 8182SOL    HW136008   3.135   1.114   8.005 -0.2719  0.5552  0.2317
 8182SOL    HW236009   3.136   1.137   7.858 -0.1936 -1.2465  0.0899
 8183SOL     OW36010   0.294   0.904   6.783  0.1223 -0.0472  0.4914
 8183SOL    HW136011   0.373   0.928   6.832 -1.0564  1.8979  1.4625
 8183SOL    HW236012   0.298   0.988   6.736  1.8286 -0.1790  0.3881
 8184SOL     OW36013   1.531   2.832   0.997  0.5029  0.8297  0.1281
 8184SOL    HW136014   1.447   2.850   0.955  0.0217 -0.7710  0.4153
 8184SOL    HW236015   1.522   2.740   1.019 -1.5397  1.8282  3.5699
 8185SOL     OW36016   1.049   3.879   4.160  0.5997  0.1674 -0.6711
 8185SOL    HW136017   1.133   3.898   4.118  2.2560  0.3603  2.6582
 8185SOL    HW236018   1.057   3.786   4.140 -0.9453 -0.3445  1.0356
 8186SOL     OW36019   2.222   4.049   6.906 -0.0805 -0.6063  0.1645
 8186SOL    HW136020   2.171   4.124   6.939 -1.4071 -0.8428 -1.3352
 8186SOL    HW236021   2.196   3.997   6.982 -0.5034 -0.4452  0.1302
 8187SOL     OW36022   3.627   2.536  12.567  0.5560 -0.2988 -0.0492
 8187SOL    HW136023   3.551   2.479  12.556 -0.3498  0.7181  1.0278
 8187SOL    HW236024   3.694   2.469  12.583  0.9117  0.0235 -0.1770
 8188SOL     OW36025   3.981   4.669   5.732  0.1037 -0.1907  0.2577
 8188SOL    HW136026   4.006   4.668   5.824  0.2809 -1.9105  0.1976
 8188SOL    HW236027   4.014   4.584   5.702 -0.9229 -0.4794 -0.0311
 8189SOL     OW36028   1.061   0.329   9.986 -0.6531  0.5037  0.0922
 8189SOL    HW136029   1.128   0.268   9.955 -2.2559 -0.7473 -0.9265
 8189SOL    HW236030   1.104   0.369  10.061 -1.0406  1.8516 -0.4138
 8190SOL     OW36031   0.330   4.171  12.754 -0.0009  0.3956  0.2313
 8190SOL    HW136032   0.296   4.161  12.665  0.1750 -0.5247  0.2670
 8190SOL    HW236033   0.400   4.233  12.736 -1.2976  1.4000 -1.3558
 8191SOL     OW36034   2.998   1.794   5.455 -0.3007 -0.3464 -0.3960
 8191SOL    HW136035   3.082   1.785   5.499  0.2721 -1.2803 -1.6852
 8191SOL    HW236036   2.996   1.717   5.399 -0.4157 -1.3585  1.0068
 8192SOL     OW36037   3.172   1.134   6.582  0.8967  0.0154 -0.0088
 8192SOL    HW136038   3.231   1.209   6.591 -0.3913  1.0162  0.0263
 8192SOL    HW236039   3.142   1.130   6.673  0.1655  1.5406 -0.1917
 8193SOL     OW36040   4.482   3.556  12.577 -0.2424  0.3598 -0.4703
 8193SOL    HW136041   4.559   3.552  12.635 -0.2191  1.7594 -0.4249
 8193SOL    HW236042   4.530   3.537  12.496  0.8912  1.7232 -0.1138
 8194SOL     OW36043   4.175   3.500   8.828 -0.0783  0.9733  0.6664
 8194SOL    HW136044   4.212   3.561   8.892  1.7635 -0.3195  0.8119
 8194SOL    HW236045   4.242   3.433   8.820 -1.6424 -0.4099 -0.8310
 8195SOL     OW36046   2.183   0.620   0.693  0.1538 -0.0232 -0.8665
 8195SOL    HW136047   2.216   0.675   0.764 -0.2037 -1.2959  0.2801
 8195SOL    HW236048   2.090   0.635   0.712  0.7215  0.9100  1.2276
 8196SOL     OW36049   3.495   0.390   8.127  1.3353  0.0164 -0.0886
 8196SOL    HW136050   3.409   0.426   8.104  1.1651 -0.9257 -0.9195
 8196SOL    HW236051   3.551   0.467   8.117  1.4290  0.0267  0.5483
 8197SOL     OW36052   1.181   0.080  14.857  0.0972 -0.6023  0.2402
 8197SOL    HW136053   1.244   0.030  14.805  2.1415 -0.1201  2.2879
 8197SOL    HW236054   1.125   0.011  14.892 -2.3226  0.9780 -0.4438
 8198SOL     OW36055   4.216   1.587   2.508  0.5796 -0.0171  0.3210
 8198SOL    HW136056   4.165   1.521   2.462  0.0001  0.3331  0.4609
 8198SOL    HW236057   4.174   1.590   2.594  0.5842  0.3818  0.3116
 8199SOL     OW36058   2.836   3.696   9.190  0.6269 -0.3234 -0.1866
 8199SOL    HW136059   2.866   3.769   9.135  0.3574  0.5275  0.7861
 8199SOL    HW236060   2.918   3.648   9.186  0.7360 -0.2106  0.6105
 8200SOL     OW36061   1.539   3.607   4.067 -0.8224  0.1044 -0.4836
 8200SOL    HW136062   1.570   3.578   4.153  3.1807 -1.5233 -2.5192
 8200SOL    HW236063   1.458   3.557   4.055 -1.0061  0.2161  0.2602
 8201SOL     OW36064   3.552   0.312   8.729  0.1065  0.3667 -0.2792
 8201SOL    HW136065   3.462   0.330   8.755  0.4483 -0.4059  1.4182
 8201SOL    HW236066   3.578   0.236   8.781 -1.3413  0.6735  0.8598
 8202SOL     OW36067   4.588   1.405   7.250  0.2371 -0.0054  0.0009
 8202SOL    HW136068   4.652   1.341   7.282  2.3829  1.9456 -0.4064
 8202SOL    HW236069   4.519   1.401   7.317 -1.9509 -0.7406 -2.3214
 8203SOL     OW36070   1.091   3.600   9.444 -0.2571  0.0031 -0.0587
 8203SOL    HW136071   1.013   3.544   9.447 -2.7066  3.5143  2.5886
 8203SOL    HW236072   1.137   3.565   9.368  0.2533 -1.0585  0.7467
 8204SOL     OW36073   2.741   0.552  16.350 -0.0662  0.7079 -0.5166
 8204SOL    HW136074   2.764   0.542  16.442 -0.6409 -0.8049 -0.5418
 8204SOL    HW236075   2.705   0.469  16.319 -0.8194  0.6434  0.5406
 8205SOL     OW36076   1.000   1.261   0.152  1.4466  0.4380 -0.1264
 8205SOL    HW136077   1.021   1.316   0.077 -0.9299  0.1337 -1.0178
 8205SOL    HW236078   0.935   1.321   0.190  0.7166 -1.0116  0.9148
 8206SOL     OW36079   0.753   3.812   8.799 -1.0772  0.0449  0.2227
 8206SOL    HW136080   0.685   3.869   8.761 -0.9832 -0.8114 -1.2154
 8206SOL    HW236081   0.743   3.848   8.887 -0.6724 -0.4098  0.4471
 8207SOL     OW36082   1.439   2.899   4.122 -0.0374  0.1736  0.2377
 8207SOL    HW136083   1.497   2.834   4.162 -0.1006  0.0645  0.1516
 8207SOL    HW236084   1.402   2.860   4.043 -0.6609 -0.7418  0.9783
 8208SOL     OW36085   3.322   0.360  12.923  0.4979  0.3257 -0.4140
 8208SOL    HW136086   3.279   0.371  12.838  1.1838  0.5901 -0.7200
 8208SOL    HW236087   3.311   0.265  12.935 -0.6148  0.6761  1.3365
 8209SOL     OW36088   1.704   2.882  13.233  0.0760  0.0618 -0.0454
 8209SOL    HW136089   1.669   2.856  13.147 -0.1916 -1.4282  0.5136
 8209SOL    HW236090   1.717   2.795  13.272  0.1789 -0.5476 -1.4333
 8210SOL     OW36091   4.275   0.444  16.491  1.3159  0.0527 -0.1064
 8210SOL    HW136092   4.322   0.360  16.498  1.6973  0.4658  2.5859
 8210SOL    HW236093   4.249   0.454  16.583 -0.2912 -1.0159 -0.4447
 8211SOL     OW36094   1.607   3.138   2.912  0.4108  0.3428 -0.6230
 8211SOL    HW136095   1.545   3.144   2.984 -2.7565  3.0555 -3.5916
 8211SOL    HW236096   1.660   3.218   2.918 -0.3429  0.8673 -0.9803
 8212SOL     OW36097   2.393   3.120   7.566  0.8346 -0.2347  0.0683
 8212SOL    HW136098   2.391   3.114   7.661  0.9403  1.3614  0.1698
 8212SOL    HW236099   2.461   3.186   7.555  2.1408 -1.4803  0.6064
 8213SOL     OW36100   0.580   0.388  16.391  0.4348  0.1448  0.4739
 8213SOL    HW136101   0.559   0.478  16.367  1.5798  0.5900  1.1678
 8213SOL    HW236102   0.673   0.394  16.410  0.6978 -2.3423  0.0857
 8214SOL     OW36103   1.373   3.290   3.147 -0.3681  0.0562  0.5292
 8214SOL    HW136104   1.364   3.301   3.052 -0.5758 -0.9288  0.4339
 8214SOL    HW236105   1.281   3.273   3.167  0.5573 -1.8883  3.0870
 8215SOL     OW36106   3.817   2.920   4.960 -0.0012  0.6629 -0.4815
 8215SOL    HW136107   3.820   2.985   5.031  1.2026  1.3553 -1.1682
 8215SOL    HW236108   3.903   2.881   4.971  0.1384  0.8789 -0.7804
 8216SOL     OW36109   2.474   4.107   8.440  0.0647 -0.0378  0.7025
 8216SOL    HW136110   2.537   4.101   8.368  1.2340 -1.4414  1.8592
 8216SOL    HW236111   2.422   4.031   8.415  0.4646  0.5912 -2.0339
 8217SOL     OW36112   0.724   3.464   2.786 -0.1873  0.1292  0.1469
 8217SOL    HW136113   0.737   3.504   2.700  1.1503  0.2225  0.3872
 8217SOL    HW236114   0.753   3.374   2.770  1.6481  1.3072 -3.0550
 8218SOL     OW36115   3.266   3.902   5.300  0.2405  0.3005 -0.0114
 8218SOL    HW136116   3.210   3.920   5.375  0.4115  0.2272  0.1337
 8218SOL    HW236117   3.205   3.891   5.228  0.4402  2.4428 -0.4928
 8219SOL     OW36118   4.064   2.011   4.313 -0.0944  0.4490  0.0915
 8219SOL    HW136119   4.069   1.916   4.303  0.0586  0.6581 -1.9691
 8219SOL    HW236120   4.138   2.045   4.262  1.3376 -1.8174  0.6458
 8220SOL     OW36121   0.595   2.212   8.896 -0.0703  0.5473 -0.2699
 8220SOL    HW136122   0.558   2.157   8.965 -0.6528  2.2508  0.7562
 8220SOL    HW236123   0.532   2.195   8.826  1.0942 -0.7170 -1.0218
 8221SOL     OW36124   1.982   3.691  14.549 -0.1846  0.6421 -0.7554
 8221SOL    HW136125   1.985   3.771  14.495 -0.5382  1.8444  1.0283
 8221SOL    HW236126   1.999   3.730  14.634  0.2952  2.6638 -1.7675
 8222SOL     OW36127   0.004   3.543  14.295 -0.3732  0.1158  0.1514
 8222SOL    HW136128   4.720   3.477  14.226 -1.9947  1.3463 -0.8020
 8222SOL    HW236129   4.696   3.623  14.255 -0.2384  0.1505  0.1114
 8223SOL     OW36130   1.756   2.970   6.969  0.3325 -0.3265 -0.0440
 8223SOL    HW136131   1.673   2.984   6.923  0.8912 -0.1498 -1.0182
 8223SOL    HW236132   1.757   2.875   6.966  2.3281 -0.3884  2.4903
 8224SOL     OW36133   3.286   1.408   3.990  0.4673 -0.6474  0.3333
 8224SOL    HW136134   3.326   1.489   3.957  0.1077 -0.9152 -0.7587
 8224SOL    HW236135   3.358   1.347   3.979  0.9382  0.0582 -0.5000
 8225SOL     OW36136   1.798   3.201  13.193 -0.2197 -0.2132  0.2457
 8225SOL    HW136137   1.883   3.239  13.169 -1.0322  0.5753 -1.3524
 8225SOL    HW236138   1.751   3.223  13.113 -0.2790 -0.8862  0.0977
 8226SOL     OW36139   0.713   1.935   5.426 -0.3262 -0.0722 -0.2036
 8226SOL    HW136140   0.668   1.893   5.352  0.5886  0.6388 -1.1540
 8226SOL    HW236141   0.736   2.022   5.393 -0.9647  0.0571 -0.2993
 8227SOL     OW36142   4.652   1.030   1.996 -0.4338 -0.2307 -0.4778
 8227SOL    HW136143   4.595   1.086   1.944  0.3123 -0.6544 -1.7594
 8227SOL    HW236144   4.607   1.037   2.080 -0.1956  0.7081 -0.4310
 8228SOL     OW36145   1.309   1.113   3.664  0.0176 -0.7034  0.7804
 8228SOL    HW136146   1.364   1.060   3.722  0.2631  0.0287  1.2141
 8228SOL    HW236147   1.347   1.110   3.577 -0.0138  1.9341  0.6727
 8229SOL     OW36148   0.935   1.579  10.741  0.0260  0.6495  0.3987
 8229SOL    HW136149   0.842   1.602  10.743  0.0249  0.7268 -0.5463
 8229SOL    HW236150   0.932   1.488  10.712  0.3119  0.7415  0.0930
 8230SOL     OW36151   4.220   0.639   3.429  0.4142  0.2905 -0.2639
 8230SOL    HW136152   4.222   0.648   3.334 -0.1274  0.9371 -0.2184
 8230SOL    HW236153   4.180   0.552   3.426  0.9557  0.0238  0.4596
 8231SOL     OW36154   2.051   3.373   3.993 -0.2747  0.3977  0.5611
 8231SOL    HW136155   1.969   3.346   3.954  1.3863 -1.9025 -1.3216
 8231SOL    HW236156   2.025   3.389   4.084 -2.5113  0.1282 -0.0475
 8232SOL     OW36157   1.741   1.406  16.579  0.1075  0.3792 -0.2969
 8232SOL    HW136158   1.753   1.498  16.555  2.5531  0.2147  0.3471
 8232SOL    HW236159   1.786   1.398  16.663  2.0580 -0.5630 -1.4586
 8233SOL     OW36160   0.916   1.308  10.670  0.7925 -0.1836  0.0029
 8233SOL    HW136161   0.867   1.234  10.705 -0.0926  0.2700 -0.2895
 8233SOL    HW236162   1.004   1.273  10.687  0.4538 -0.0396  2.0579
 8234SOL     OW36163   2.183   2.259   8.074 -0.7141  0.4604 -0.3553
 8234SOL    HW136164   2.187   2.241   7.980 -0.6826 -1.6462  0.0574
 8234SOL    HW236165   2.273   2.291   8.077 -0.5458 -0.0918  0.3818
 8235SOL     OW36166   0.611   0.194   2.924  0.5934 -0.4855 -0.3820
 8235SOL    HW136167   0.549   0.185   2.851 -0.4714  2.5822  0.1472
 8235SOL    HW236168   0.656   0.277   2.913  0.9898 -0.7076 -0.4263
 8236SOL     OW36169   2.404   1.421   9.794  0.2340  0.5372 -0.1750
 8236SOL    HW136170   2.471   1.488   9.805  1.0530  0.0400 -2.0448
 8236SOL    HW236171   2.323   1.473   9.789 -0.7947 -1.1423 -1.1384
 8237SOL     OW36172   2.665   0.024   3.835  0.6622  0.1380  0.3747
 8237SOL    HW136173   2.693   0.112   3.860 -1.3489  0.7537  0.4541
 8237SOL    HW236174   2.585   0.026   3.782  1.4003  2.1635 -0.6485
 8238SOL     OW36175   1.462   2.297   2.302 -0.7269  0.4930 -0.2318
 8238SOL    HW136176   1.405   2.374   2.299 -2.4253 -0.7400 -0.0706
 8238SOL    HW236177   1.479   2.283   2.209 -0.2794  0.3366 -0.1222
 8239SOL     OW36178   4.350   0.378   8.842  0.6198 -0.3972 -0.2697
 8239SOL    HW136179   4.292   0.449   8.869 -1.2817 -2.6196  1.5019
 8239SOL    HW236180   4.287   0.311   8.818 -0.9610  0.5928  1.1362
 8240SOL     OW36181   2.726   2.792  12.761  0.1150 -0.1543 -0.2625
 8240SOL    HW136182   2.653   2.730  12.749 -0.2783 -0.7431  5.1860
 8240SOL    HW236183   2.779   2.750  12.828 -0.3974 -0.1510  0.1438
 8241SOL     OW36184   1.126   0.489  10.532 -0.2206  0.4674  0.0362
 8241SOL    HW136185   1.035   0.514  10.547  0.5964  2.1435  2.1569
 8241SOL    HW236186   1.143   0.413  10.586  0.9001 -0.0237 -0.9951
 8242SOL     OW36187   4.224   4.143   8.986 -0.0418 -0.1324  0.2170
 8242SOL    HW136188   4.318   4.134   8.994  0.0586  1.1665  0.4915
 8242SOL    HW236189   4.208   4.235   9.006 -0.1806  0.5263 -2.8887
 8243SOL     OW36190   1.665   2.655   2.385 -0.2375 -0.1818 -0.0660
 8243SOL    HW136191   1.635   2.650   2.295 -0.0986  2.0470 -0.2444
 8243SOL    HW236192   1.693   2.564   2.391  0.8245  0.0493 -1.5586
 8244SOL     OW36193   2.935   2.529   6.643 -0.3381 -0.0204  0.0714
 8244SOL    HW136194   2.982   2.492   6.718  0.2950  0.1374 -0.2456
 8244SOL    HW236195   2.992   2.603   6.624  0.0621  0.0600  1.6116
 8245SOL     OW36196   0.233   1.406  16.685  0.2440 -0.6103 -0.0652
 8245SOL    HW136197   0.137   1.410  16.684  0.2542 -0.7405 -1.2712
 8245SOL    HW236198   0.251   1.358  16.605  0.2824  1.0023 -1.0239
 8246SOL     OW36199   2.412   3.632   7.425  0.8444  0.2310  0.4423
 8246SOL    HW136200   2.483   3.602   7.481 -0.4731 -0.4932  1.7217
 8246SOL    HW236201   2.399   3.547   7.383  2.2395  1.0821 -1.7398
 8247SOL     OW36202   2.509   2.536  10.820 -0.3403 -0.1269 -0.2972
 8247SOL    HW136203   2.472   2.525  10.907 -0.4151  1.4393 -0.1275
 8247SOL    HW236204   2.466   2.462  10.776 -1.8978  0.8890 -0.4988
 8248SOL     OW36205   3.772   3.507   9.973 -0.1364 -0.2146 -0.1436
 8248SOL    HW136206   3.749   3.600   9.973 -1.1154 -0.4584  0.3750
 8248SOL    HW236207   3.705   3.489   9.907  0.2547 -0.2364 -0.5450
 8249SOL     OW36208   3.083   3.612   8.019 -0.3166 -0.3554 -0.5739
 8249SOL    HW136209   3.178   3.627   8.013 -0.3239 -0.7854 -1.6801
 8249SOL    HW236210   3.052   3.590   7.931 -0.4583  2.0678 -1.1378
 8250SOL     OW36211   3.680   2.179   3.691 -0.3020  0.2706 -0.7907
 8250SOL    HW136212   3.767   2.187   3.650 -0.2970  1.0096 -0.6273
 8250SOL    HW236213   3.671   2.273   3.702 -0.3501  0.2436 -0.6043
 8251SOL     OW36214   0.186   4.653   3.060 -0.0638  0.4072  0.0994
 8251SOL    HW136215   0.228   4.633   2.976  0.0718  0.0418  0.2561
 8251SOL    HW236216   0.105   4.693   3.028  0.3766 -0.0341 -1.5929
 8252SOL     OW36217   0.873   4.352   8.092 -0.3214  0.6961  0.0731
 8252SOL    HW136218   0.964   4.374   8.113  0.8174 -4.0616  0.0818
 8252SOL    HW236219   0.844   4.431   8.045 -0.1195 -0.5615 -2.1882
 8253SOL     OW36220   0.213   3.470   0.681 -0.6255  0.2271  0.1263
 8253SOL    HW136221   0.271   3.535   0.641  0.7955 -1.6249 -0.7826
 8253SOL    HW236222   0.240   3.447   0.770 -0.7579 -2.9021 -0.6529
 8254SOL     OW36223   4.007   1.206   2.939  0.3039 -1.1737 -0.1139
 8254SOL    HW136224   4.102   1.196   2.931  0.4925 -0.5335  1.3767
 8254SOL    HW236225   4.008   1.214   3.034  0.3257 -2.2349 -0.0167
 8255SOL     OW36226   1.688   4.537   8.245  0.2799  0.0832  0.5123
 8255SOL    HW136227   1.658   4.467   8.188 -2.3986  1.3015  0.4587
 8255SOL    HW236228   1.660   4.509   8.333  0.5120 -0.1852  0.5008
 8256SOL     OW36229   1.384   0.237  17.438 -0.9735  0.0761 -0.0480
 8256SOL    HW136230   1.344   0.231  17.351  3.5416 -0.2958 -2.1161
 8256SOL    HW236231   1.344   0.320  17.463 -3.4779 -1.1881  0.2050
 8257SOL     OW36232   4.261   1.207   5.141  0.4550 -0.2060 -0.4928
 8257SOL    HW136233   4.221   1.274   5.086  0.3520  0.7812  0.7936
 8257SOL    HW236234   4.318   1.157   5.082  2.3141 -0.8128  1.8320
 8258SOL     OW36235   1.891   4.063   3.429  0.4002 -0.4956  0.9065
 8258SOL    HW136236   1.862   3.972   3.433  0.3345 -0.5429 -0.5458
 8258SOL    HW236237   1.806   4.101   3.404  0.7094  0.7299  1.7231
 8259SOL     OW36238   1.420   3.019  11.770 -0.3368  0.1523 -0.0353
 8259SOL    HW136239   1.430   3.111  11.747  0.8402  0.5286  1.8956
 8259SOL    HW236240   1.330   3.028  11.801  0.1205  1.3022  0.9729
 8260SOL     OW36241   4.338   0.571   3.791  0.3902 -0.0985  0.4243
 8260SOL    HW136242   4.364   0.628   3.718  1.6481 -2.2821 -0.8368
 8260SOL    HW236243   4.411   0.509   3.784  0.9672  0.7416 -1.0619
 8261SOL     OW36244   3.098   3.934   9.312  0.1464 -0.4875  0.3837
 8261SOL    HW136245   3.138   3.902   9.393 -1.9692 -1.8307  0.8769
 8261SOL    HW236246   3.112   4.029   9.316  0.9181 -0.6118  0.8305
 8262SOL     OW36247   1.198   3.599   2.790  0.2191 -0.3994  0.3345
 8262SOL    HW136248   1.289   3.627   2.797  0.4930 -1.4248  0.8463
 8262SOL    HW236249   1.202   3.509   2.822 -2.5371 -0.4559  0.5334
 8263SOL     OW36250   2.569   2.246  10.423  0.2980 -0.0188  0.6076
 8263SOL    HW136251   2.483   2.213  10.401 -0.4384  1.0154  1.9125
 8263SOL    HW236252   2.561   2.222  10.515  2.2273 -0.3772  0.6928
 8264SOL     OW36253   0.580   4.452   6.938 -0.2523  0.0289  0.0808
 8264SOL    HW136254   0.635   4.493   7.005 -0.5234 -0.8748  0.8558
 8264SOL    HW236255   0.550   4.379   6.992  1.4255 -1.2030 -0.6322
 8265SOL     OW36256   2.679   3.664   8.001  0.1781  0.0771 -0.1874
 8265SOL    HW136257   2.769   3.677   8.032  1.2168 -1.1504 -2.6711
 8265SOL    HW236258   2.688   3.676   7.907  1.6560 -0.1019 -0.0686
 8266SOL     OW36259   2.887   2.402   3.569  0.5593  0.5177 -0.0298
 8266SOL    HW136260   2.801   2.439   3.551  0.0026 -0.7990 -0.1037
 8266SOL    HW236261   2.862   2.333   3.629 -2.0281 -1.7884 -3.7555
 8267SOL     OW36262   0.404   3.477   2.197 -0.1056 -0.3265 -0.1223
 8267SOL    HW136263   0.424   3.476   2.103  0.5946 -1.7491  0.0455
 8267SOL    HW236264   0.347   3.400   2.205  1.9319 -2.1831 -3.5074
 8268SOL     OW36265   3.768   0.321   7.029 -0.8127  0.2957  0.9328
 8268SOL    HW136266   3.702   0.274   6.978 -1.0627  2.8953 -1.1476
 8268SOL    HW236267   3.827   0.349   6.959 -1.3917 -0.1404  0.2629
 8269SOL     OW36268   1.206   3.238   4.649 -0.2065 -0.6093 -0.0564
 8269SOL    HW136269   1.172   3.191   4.725 -1.3596  0.8798  0.3625
 8269SOL    HW236270   1.285   3.281   4.681 -0.0004 -1.0294 -0.0033
 8270SOL     OW36271   1.789   0.980  14.968  0.2547  0.1817 -0.4442
 8270SOL    HW136272   1.867   0.941  14.928  1.6407  1.8032  0.6781
 8270SOL    HW236273   1.737   0.906  14.999 -0.7020  2.3097  3.1272
 8271SOL     OW36274   1.092   3.144   9.207 -0.3620  0.2048  0.4126
 8271SOL    HW136275   1.040   3.084   9.261 -0.0320 -0.5369 -0.0779
 8271SOL    HW236276   1.072   3.230   9.243 -1.9021  0.0695 -0.1018
 8272SOL     OW36277   0.646   0.474   2.813  0.0273  0.0602 -0.3685
 8272SOL    HW136278   0.567   0.501   2.767 -1.2554  0.4007  2.0317
 8272SOL    HW236279   0.697   0.464   2.733 -1.0664 -2.0457 -0.7957
 8273SOL     OW36280   0.978   4.365   2.249 -0.4146 -0.0208 -0.1636
 8273SOL    HW136281   1.018   4.279   2.241 -1.3959 -0.5692  0.7023
 8273SOL    HW236282   1.058   4.416   2.242  1.0319 -2.1273  1.0145
 8274SOL     OW36283   0.116   2.724   6.586 -0.3342 -0.3221 -0.0982
 8274SOL    HW136284   0.146   2.645   6.540  0.9908 -0.3585  0.8177
 8274SOL    HW236285   0.025   2.704   6.608 -0.6740  0.4435 -0.8359
 8275SOL     OW36286   3.542   3.302   4.579 -0.1368 -0.0093  0.1841
 8275SOL    HW136287   3.470   3.282   4.519 -1.3284 -2.0463  2.2805
 8275SOL    HW236288   3.610   3.243   4.546  0.9608  2.1391 -1.4428
 8276SOL     OW36289   3.461   4.218   5.651  0.1947 -0.3029 -0.3017
 8276SOL    HW136290   3.484   4.240   5.560  0.4443 -2.7818 -0.8447
 8276SOL    HW236291   3.543   4.236   5.696 -0.2329  2.2768 -0.5589
 8277SOL     OW36292   4.091   0.004   4.587  0.2174  0.2414 -0.0920
 8277SOL    HW136293   4.124   0.039   4.504  0.6512  2.0129  0.8297
 8277SOL    HW236294   4.100   4.634   4.582 -1.1208  0.1271 -0.1487
 8278SOL     OW36295   2.207   3.613  12.545 -0.5432  0.1088  0.1279
 8278SOL    HW136296   2.244   3.529  12.519  0.0279 -0.0048  1.3312
 8278SOL    HW236297   2.261   3.634  12.621 -2.9613 -3.3803  2.7580
 8279SOL     OW36298   4.476   2.000   9.220 -0.3923 -0.1553  0.0196
 8279SOL    HW136299   4.570   2.022   9.223 -0.1963 -1.2878  2.4718
 8279SOL    HW236300   4.473   1.927   9.158 -1.8796 -0.1353  0.0730
 8280SOL     OW36301   3.577   3.979   3.483  0.2544  0.0626  0.0134
 8280SOL    HW136302   3.515   4.042   3.521  0.2303 -1.0078  1.7258
 8280SOL    HW236303   3.517   3.908   3.461 -0.2221  0.2277  0.7426
 8281SOL     OW36304   0.429   4.231   8.277  0.1137 -0.0666  0.0354
 8281SOL    HW136305   0.522   4.254   8.274 -0.5527  2.4604 -1.0207
 8281SOL    HW236306   0.402   4.288   8.205 -0.9893  1.1043  1.3600
 8282SOL     OW36307   1.779   1.419  12.119  0.3098 -0.3815 -0.5221
 8282SOL    HW136308   1.784   1.338  12.067 -0.9892 -1.0185  0.3385
 8282SOL    HW236309   1.868   1.455  12.114  0.4879 -1.0790 -2.4309
 8283SOL     OW36310   1.329   2.232  11.893 -0.1131  0.0777  0.4893
 8283SOL    HW136311   1.392   2.297  11.863  0.2699 -0.8871 -0.7764
 8283SOL    HW236312   1.336   2.249  11.987 -1.9491  0.7135  0.5022
 8284SOL     OW36313   3.744   0.612   8.431 -0.1251  0.5703 -0.4023
 8284SOL    HW136314   3.652   0.635   8.445 -0.1652  0.2251 -0.0901
 8284SOL    HW236315   3.759   0.676   8.363 -0.3180  0.6917 -0.3317
 8285SOL     OW36316   1.328   0.821  11.427 -0.2261 -0.2764  0.0087
 8285SOL    HW136317   1.321   0.825  11.331  0.3171  0.6386  0.0186
 8285SOL    HW236318   1.383   0.746  11.452 -0.5231 -0.6640 -0.4841
 8286SOL     OW36319   2.128   0.096  12.779 -0.1505  0.4328 -0.1069
 8286SOL    HW136320   2.210   0.097  12.827 -0.0801 -1.4752 -0.1848
 8286SOL    HW236321   2.131   0.001  12.775  2.9432  0.5773 -0.8865
 8287SOL     OW36322   4.419   2.485  13.586  0.7733  0.2008  0.1200
 8287SOL    HW136323   4.339   2.455  13.542  0.6504  2.9916 -1.5451
 8287SOL    HW236324   4.479   2.509  13.516 -0.4503 -1.8018 -1.6147
 8288SOL     OW36325   1.326   0.058   4.688 -0.3280 -0.0061 -0.6265
 8288SOL    HW136326   1.344   0.008   4.768 -0.1036  3.3980  1.4364
 8288SOL    HW236327   1.260   0.117   4.723 -2.3708 -2.5935 -0.1172
 8289SOL     OW36328   1.005   2.200   4.608 -0.1262 -0.2291  0.4333
 8289SOL    HW136329   1.046   2.208   4.522  0.1286 -1.8683  0.4007
 8289SOL    HW236330   1.070   2.230   4.671  0.5450  1.2404 -0.9669
 8290SOL     OW36331   1.072   4.468   2.609 -0.1173 -0.1432 -0.2289
 8290SOL    HW136332   1.081   4.532   2.679 -1.7402 -0.7654  0.5584
 8290SOL    HW236333   1.126   4.512   2.544 -0.1485  1.1702  0.6453
 8291SOL     OW36334   1.877   1.164  16.029  0.3337 -0.1367 -0.0453
 8291SOL    HW136335   1.923   1.176  16.112 -0.8813 -2.3279  0.9388
 8291SOL    HW236336   1.787   1.178  16.057  0.5053 -0.9099  0.8886
 8292SOL     OW36337   0.085   1.411   3.040 -0.7538 -0.2733 -0.2809
 8292SOL    HW136338   4.719   1.383   3.047 -1.0862  0.4447 -1.7854
 8292SOL    HW236339   0.080   1.489   2.984  0.9653  0.9812  1.3078
 8293SOL     OW36340   3.697   4.340   9.144  0.3274  0.3263 -0.3884
 8293SOL    HW136341   3.623   4.281   9.130  1.3425 -0.6009 -1.8844
 8293SOL    HW236342   3.761   4.290   9.196  1.6903  1.4538 -0.9857
 8294SOL     OW36343   2.801   3.216   6.922 -0.0285 -0.2331 -0.0024
 8294SOL    HW136344   2.807   3.293   6.866  0.7927  0.1646  0.6274
 8294SOL    HW236345   2.717   3.228   6.965 -1.0788 -0.6150 -1.9765
 8295SOL     OW36346   2.557   4.007   6.579 -0.0347 -0.0454  0.7146
 8295SOL    HW136347   2.467   4.036   6.561  1.2004  1.5699 -2.8029
 8295SOL    HW236348   2.560   3.946   6.506  2.3463  1.8873 -0.8044
 8296SOL     OW36349   1.672   3.728   6.613  0.3050  0.3659 -0.0680
 8296SOL    HW136350   1.733   3.656   6.594  0.7430  0.9216 -0.7778
 8296SOL    HW236351   1.595   3.677   6.636 -1.0167  2.2018 -0.4052
 8297SOL     OW36352   0.440   4.133   8.979 -0.0147 -0.2730  0.1675
 8297SOL    HW136353   0.345   4.143   8.983  0.1580  0.5930  1.6839
 8297SOL    HW236354   0.470   4.180   9.056  0.3945 -1.1252  0.5305
 8298SOL     OW36355   0.600   0.452   3.144  0.0565  0.0556  0.0221
 8298SOL    HW136356   0.610   0.526   3.204  0.0011  0.5217 -0.5506
 8298SOL    HW236357   0.643   0.373   3.180 -0.0333 -0.4321 -0.9504
 8299SOL     OW36358   3.237   0.523   8.269 -0.2497 -0.5152 -0.2000
 8299SOL    HW136359   3.292   0.459   8.313 -1.2666 -0.9785  0.4192
 8299SOL    HW236360   3.153   0.491   8.304  0.0175  0.5179  1.4125
 8300SOL     OW36361   1.531   3.427   4.302  0.1247  0.0250  0.0656
 8300SOL    HW136362   1.521   3.355   4.365  5.9581  0.1085  1.1405
 8300SOL    HW236363   1.560   3.368   4.232 -0.7154 -0.3621  0.0430
 8301SOL     OW36364   3.201   2.115   2.360 -0.2112 -0.4981 -0.3751
 8301SOL    HW136365   3.275   2.175   2.359 -1.7505  1.3663 -1.3949
 8301SOL    HW236366   3.240   2.048   2.304 -1.2893 -1.3832 -0.0675
 8302SOL     OW36367   3.679   3.170   0.221  0.1889 -0.5897  0.3509
 8302SOL    HW136368   3.759   3.215   0.194 -0.9055  1.5931  0.6955
 8302SOL    HW236369   3.714   3.112   0.289  0.7286  1.0160  1.4627
 8303SOL     OW36370   2.951   3.271   5.894 -0.3994  0.6275 -0.2426
 8303SOL    HW136371   2.913   3.270   5.806 -0.9120 -1.4484  0.0050
 8303SOL    HW236372   3.041   3.246   5.872 -0.7371 -0.0483 -0.8284
 8304SOL     OW36373   3.639   1.776   9.131 -0.1222 -0.6139  0.3662
 8304SOL    HW136374   3.562   1.730   9.100 -0.1875 -0.3254  0.1041
 8304SOL    HW236375   3.692   1.767   9.051 -1.1369 -0.9307 -0.2675
 8305SOL     OW36376   3.613   2.647   3.830  0.4676  0.0291 -0.1684
 8305SOL    HW136377   3.585   2.694   3.751  1.9993 -0.1827 -0.8322
 8305SOL    HW236378   3.545   2.673   3.892 -1.7749  0.4476 -2.8242
 8306SOL     OW36379   2.502   2.480   0.729  0.3619  0.4073 -0.5493
 8306SOL    HW136380   2.577   2.522   0.686  1.6704 -1.3287  0.0666
 8306SOL    HW236381   2.427   2.508   0.676  0.2368 -1.5999 -1.4034
 8307SOL     OW36382   1.796   0.106  10.491  0.0559  0.6491 -0.4678
 8307SOL    HW136383   1.860   0.046  10.455 -2.3090 -1.5440 -1.0024
 8307SOL    HW236384   1.848   0.187  10.494 -1.2144  1.4816 -0.8197
 8308SOL     OW36385   4.610   2.172  15.257  0.2645  0.2223  0.3404
 8308SOL    HW136386   4.589   2.259  15.223 -0.1010  0.3887  0.9974
 8308SOL    HW236387   4.547   2.134  15.195 -2.1630  1.0622  2.3034
 8309SOL     OW36388   0.589   2.886   8.210 -0.0026 -0.0057  0.5517
 8309SOL    HW136389   0.639   2.811   8.244  0.7031  0.3856  0.3615
 8309SOL    HW236390   0.638   2.899   8.129 -0.9982 -1.6872 -0.3093
 8310SOL     OW36391   3.551   0.316   7.531 -0.5324 -0.0126 -0.3366
 8310SOL    HW136392   3.593   0.374   7.594  0.0974 -0.9517  0.1212
 8310SOL    HW236393   3.617   0.317   7.462 -1.6185  1.3115 -1.3401
 8311SOL     OW36394   0.306   0.969   2.146  0.5266  0.6906  0.2034
 8311SOL    HW136395   0.246   1.003   2.212  0.4725  1.8877 -0.4596
 8311SOL    HW236396   0.270   0.880   2.142 -0.1822  0.8924  1.9339
 8312SOL     OW36397   1.216   4.597   3.917 -0.2802 -0.3192  0.2657
 8312SOL    HW136398   1.276   4.619   3.845 -1.7536  1.2095 -0.5060
 8312SOL    HW236399   1.142   4.565   3.866 -1.7049  0.0902  2.0883
 8313SOL     OW36400   1.952   4.116   4.041  0.3547 -1.1775 -0.1144
 8313SOL    HW136401   1.941   4.140   4.133  0.5791 -2.3574  0.2151
 8313SOL    HW236402   1.863   4.109   4.008  0.1319  0.9736  0.0465
 8314SOL     OW36403   1.842   1.836   2.920 -0.1279 -0.0711 -0.0342
 8314SOL    HW136404   1.898   1.912   2.905  0.3120 -0.2421  0.7415
 8314SOL    HW236405   1.756   1.877   2.920 -0.3225 -0.4643 -0.7367
 8315SOL     OW36406   1.216   2.073   6.589  0.1994  0.1477 -0.0643
 8315SOL    HW136407   1.282   2.108   6.529 -0.8346  1.1273 -0.6210
 8315SOL    HW236408   1.228   1.978   6.583  2.1910  0.2393  2.3144
 8316SOL     OW36409   4.636   3.230   5.083 -0.7778  0.3691  0.0324
 8316SOL    HW136410   4.684   3.208   5.003 -2.3356 -0.5639 -0.6582
 8316SOL    HW236411   4.641   3.325   5.085 -0.2155  0.3516 -0.7529
 8317SOL     OW36412   0.514   0.142   8.317  0.0624  0.0365 -0.1092
 8317SOL    HW136413   0.430   0.138   8.363 -0.1447 -0.5442 -0.5296
 8317SOL    HW236414   0.536   0.235   8.316 -1.5646  0.4345  0.5768
 8318SOL     OW36415   3.848   3.284   5.791 -0.6177 -0.4059  0.2612
 8318SOL    HW136416   3.931   3.320   5.759 -0.7034  0.0868  0.5814
 8318SOL    HW236417   3.870   3.271   5.883 -0.2632  1.5073  0.4528
 8319SOL     OW36418   1.225   4.352   7.161 -0.2972 -0.0501  0.4991
 8319SOL    HW136419   1.305   4.334   7.111  0.8768  0.2499  2.2880
 8319SOL    HW236420   1.186   4.265   7.172  1.5659 -1.0359 -0.7941
 8320SOL     OW36421   1.015   1.054   7.895 -0.1168  0.1648  0.6480
 8320SOL    HW136422   0.927   1.024   7.919  0.5055 -1.3867  0.9197
 8320SOL    HW236423   1.072   0.998   7.947  1.8225  0.9619 -0.6367
 8321SOL     OW36424   1.507   0.124   5.911  0.4468 -0.3336  0.4366
 8321SOL    HW136425   1.553   0.154   5.832 -0.1922 -2.1088 -0.6177
 8321SOL    HW236426   1.489   0.201   5.964  1.0563 -0.8804  1.4374
 8322SOL     OW36427   0.967   3.054   6.419 -0.7921  0.1485  0.0384
 8322SOL    HW136428   0.932   3.058   6.330  1.5693  3.6110 -0.7135
 8322SOL    HW236429   1.004   2.967   6.434  0.1005  0.6320  0.6718
 8323SOL     OW36430   2.741   0.571   6.596  0.2843  0.2285 -0.2445
 8323SOL    HW136431   2.797   0.532   6.663 -0.9997 -0.2903  0.5243
 8323SOL    HW236432   2.779   0.526   6.521 -0.3877 -0.3527 -0.2393
 8324SOL     OW36433   2.354   1.915   8.249 -0.5885  0.5736  0.1663
 8324SOL    HW136434   2.404   1.936   8.170  0.8078  0.8597  1.1389
 8324SOL    HW236435   2.420   1.929   8.317  0.9267 -1.6264 -0.8166
 8325SOL     OW36436   3.172   2.286  15.463  0.2139  0.1627  0.2055
 8325SOL    HW136437   3.098   2.283  15.524  0.1355  1.3321  0.1661
 8325SOL    HW236438   3.248   2.264  15.516  1.0840  1.9335 -0.2935
 8326SOL     OW36439   1.887   4.580   1.595  0.7414  0.1108 -0.1929
 8326SOL    HW136440   1.924   4.545   1.514 -0.7548 -2.0511  0.0687
 8326SOL    HW236441   1.842   4.503   1.629 -3.3559  3.4234  1.8866
 8327SOL     OW36442   0.869   3.436   7.717 -0.9707 -0.4636  0.7159
 8327SOL    HW136443   0.863   3.415   7.810  0.0513  2.5722  1.4820
 8327SOL    HW236444   0.956   3.475   7.725 -2.3353  2.5868  0.4033
 8328SOL     OW36445   1.839   1.625   6.133 -0.1280 -0.1898 -0.3802
 8328SOL    HW136446   1.751   1.637   6.097 -0.5507  1.5053  1.2261
 8328SOL    HW236447   1.840   1.536   6.168  1.9925 -0.5906 -1.4931
 8329SOL     OW36448   4.560   3.467  13.268 -0.2750 -0.8072  0.5914
 8329SOL    HW136449   4.568   3.444  13.176 -1.0199 -1.8649  0.7919
 8329SOL    HW236450   4.645   3.440  13.304 -0.6915 -1.0603  1.3895
 8330SOL     OW36451   3.671   1.249   6.007 -0.4198 -0.5677 -0.1525
 8330SOL    HW136452   3.696   1.205   5.926  0.5503 -0.1269 -0.1016
 8330SOL    HW236453   3.708   1.179   6.060  1.3080  0.2760 -0.2363
 8331SOL     OW36454   4.098   1.077   3.339 -0.0513  0.2911  0.3818
 8331SOL    HW136455   4.060   0.993   3.316  0.3843  0.3738 -0.6660
 8331SOL    HW236456   4.186   1.046   3.358 -0.8908 -3.3305 -1.6402
 8332SOL     OW36457   3.402   0.914   0.182  0.5337  0.7781 -0.1560
 8332SOL    HW136458   3.391   0.864   0.102  0.4160 -0.4528  0.6265
 8332SOL    HW236459   3.486   0.883   0.217 -0.1016  0.0169  0.6788
 8333SOL     OW36460   3.818   3.943   2.290 -0.2679 -0.2355 -0.2279
 8333SOL    HW136461   3.877   3.987   2.228  0.0319 -0.6874 -0.2559
 8333SOL    HW236462   3.736   3.955   2.241 -0.6444  1.5380  0.8009
 8334SOL     OW36463   0.879   4.232   1.296 -0.1776  0.0602  0.3402
 8334SOL    HW136464   0.944   4.174   1.256  0.1162  1.1444 -0.7698
 8334SOL    HW236465   0.940   4.285   1.346  0.1984  1.4768 -1.6061
 8335SOL     OW36466   3.521   1.489   5.542 -0.2929  0.3170 -0.5436
 8335SOL    HW136467   3.441   1.438   5.544  0.7873 -1.3312  0.3950
 8335SOL    HW236468   3.558   1.470   5.455  0.6964 -2.8578  0.5699
 8336SOL     OW36469   3.409   1.018   6.868 -0.5967 -0.0289  0.2635
 8336SOL    HW136470   3.358   0.966   6.806  1.9430  1.2442 -2.9310
 8336SOL    HW236471   3.495   0.993   6.834  1.1199  2.1784  2.9840
 8337SOL     OW36472   0.047   0.061   2.167 -0.6346 -0.2885 -0.2436
 8337SOL    HW136473   4.679   0.041   2.154 -0.7148  0.0939 -0.2557
 8337SOL    HW236474   0.046   0.053   2.262 -0.6762 -1.0258 -0.3070
 8338SOL     OW36475   0.255   0.351   7.168  0.4523 -0.0411 -0.2997
 8338SOL    HW136476   0.310   0.402   7.109 -1.3032  2.0313 -0.1479
 8338SOL    HW236477   0.312   0.278   7.192 -0.8838 -1.7471 -2.2500
 8339SOL     OW36478   4.066   3.461   7.999 -0.5491 -0.3133 -0.0255
 8339SOL    HW136479   4.145   3.452   8.054  0.0852 -1.1165 -1.0615
 8339SOL    HW236480   4.094   3.520   7.929  0.2261  0.7626  1.1759
 8340SOL     OW36481   3.878   1.103  10.573 -0.0053  0.3223 -0.1959
 8340SOL    HW136482   3.784   1.110  10.586  0.1672  0.2458  1.0809
 8340SOL    HW236483   3.907   1.177  10.626  1.1346 -0.8977  0.8876
 8341SOL     OW36484   0.467   2.260   6.018  0.7333 -1.1171  0.8843
 8341SOL    HW136485   0.437   2.177   6.055 -1.3553 -0.5252  0.4858
 8341SOL    HW236486   0.520   2.231   5.943 -1.9613 -0.9581 -1.0964
 8342SOL     OW36487   0.086   1.836   5.253 -0.5046 -0.4369  0.0477
 8342SOL    HW136488   0.082   1.744   5.278 -0.2536 -0.3697  0.3443
 8342SOL    HW236489   0.010   1.870   5.300 -1.1297 -1.9264  0.1135
 8343SOL     OW36490   3.882   0.800   3.031  0.4069 -0.4568 -0.7146
 8343SOL    HW136491   3.862   0.883   2.988 -1.8554 -0.9763 -0.6784
 8343SOL    HW236492   3.819   0.739   2.993 -0.2554 -0.3279  0.1711
 8344SOL     OW36493   3.956   2.278   7.865  0.0495 -0.7542  0.4952
 8344SOL    HW136494   3.933   2.218   7.795  1.3815  1.8456 -2.1612
 8344SOL    HW236495   3.958   2.214   7.937  1.4871 -1.2521  0.0071
 8345SOL     OW36496   0.431   4.715   8.716 -0.1357  0.7148 -0.5661
 8345SOL    HW136497   0.469   4.705   8.803  2.6734 -0.1714 -1.8626
 8345SOL    HW236498   0.510   4.701   8.663  1.6131  0.1678  2.1878
 8346SOL     OW36499   3.187   4.638   8.488  0.2225  0.2341  1.3132
 8346SOL    HW136500   3.230   4.583   8.552  0.6213  0.3483  1.1450
 8346SOL    HW236501   3.254   4.659   8.423  0.6752  0.6570  1.9219
 8347SOL     OW36502   1.478   1.048   4.193  0.0792 -0.5785 -0.4500
 8347SOL    HW136503   1.519   1.133   4.212 -0.1960 -0.0336 -2.2409
 8347SOL    HW236504   1.389   1.073   4.166  0.7531  1.7799 -0.4824
 8348SOL     OW36505   3.968   4.019   1.607 -0.4454 -0.0143  1.0104
 8348SOL    HW136506   4.034   3.985   1.546 -0.6049 -0.0956  0.8844
 8348SOL    HW236507   3.947   3.942   1.661 -1.5500 -0.6199 -0.2822
 8349SOL     OW36508   3.234   0.124   3.488  0.0272 -0.4322 -0.1927
 8349SOL    HW136509   3.159   0.095   3.435 -0.8979  0.2104  0.7506
 8349SOL    HW236510   3.193   0.156   3.568 -0.8789  0.6004 -1.0525
 8350SOL     OW36511   2.897   4.500  12.666  0.0452  0.5174  0.3397
 8350SOL    HW136512   2.932   4.529  12.582  0.1621  1.7998  0.8257
 8350SOL    HW236513   2.955   4.424  12.672 -2.0377 -0.9728  1.5571
 8351SOL     OW36514   1.257   0.941   7.525 -0.2769 -0.4137 -0.4240
 8351SOL    HW136515   1.211   0.935   7.441 -0.5979 -1.4000 -0.1773
 8351SOL    HW236516   1.213   0.881   7.586 -2.5160  0.3655 -1.2585
 8352SOL     OW36517   2.106   4.400  17.573  0.0121 -0.2208  0.9907
 8352SOL    HW136518   2.011   4.405  17.569  0.0502 -0.1528  0.0709
 8352SOL    HW236519   2.126   4.343  17.498 -1.2438  0.0918  0.4147
 8353SOL     OW36520   4.342   3.597   5.680  0.3013  0.2718  0.1762
 8353SOL    HW136521   4.374   3.583   5.769 -0.3511 -3.2673 -0.1555
 8353SOL    HW236522   4.379   3.520   5.636  1.2918  0.4962  0.5971
 8354SOL     OW36523   4.241   3.641   6.652  0.1761 -0.8534 -0.2841
 8354SOL    HW136524   4.146   3.648   6.647  0.0609  0.1019  3.3321
 8354SOL    HW236525   4.250   3.627   6.746  0.0918  1.5577  0.0849
 8355SOL     OW36526   0.879   0.663  13.147 -0.1350 -0.0884  0.4318
 8355SOL    HW136527   0.830   0.597  13.098  2.7682 -3.2031  1.6593
 8355SOL    HW236528   0.844   0.666  13.236  0.7670  0.4177  0.7697
 8356SOL     OW36529   3.001   1.159  15.202 -0.0591  0.1799 -0.3653
 8356SOL    HW136530   3.062   1.231  15.188 -0.9695  0.8753 -0.7936
 8356SOL    HW236531   2.995   1.148  15.297  0.3280 -1.9163 -0.5822
 8357SOL     OW36532   0.935   3.608  14.825 -0.2339 -0.0536 -0.0824
 8357SOL    HW136533   0.910   3.664  14.752 -0.8232  0.9975  0.9254
 8357SOL    HW236534   0.852   3.575  14.859  0.2762 -0.5731  0.6606
 8358SOL     OW36535   1.096   2.318   5.241 -0.2763 -0.0048  0.1212
 8358SOL    HW136536   1.012   2.346   5.277  0.7369 -0.0096  2.4917
 8358SOL    HW236537   1.063   2.243   5.192 -1.4914 -0.2838  1.3881
 8359SOL     OW36538   2.655   0.953   8.060  0.0399  0.3475  0.2570
 8359SOL    HW136539   2.569   0.970   8.098 -0.3065  0.5875 -0.6296
 8359SOL    HW236540   2.648   0.967   7.965 -0.8628  2.0491  0.5638
 8360SOL     OW36541   0.505   3.022   6.894  0.2809  0.0557 -0.3592
 8360SOL    HW136542   0.505   3.078   6.816  1.4224  1.8571  0.9444
 8360SOL    HW236543   0.455   3.068   6.961 -0.3216 -1.7603  0.4261
 8361SOL     OW36544   3.600   1.724   6.529 -0.1437  0.6818 -0.3131
 8361SOL    HW136545   3.556   1.709   6.445 -0.3167  3.0825 -0.6528
 8361SOL    HW236546   3.533   1.692   6.589  1.0743  0.2624  0.8227
 8362SOL     OW36547   3.775   0.513   1.410  0.3621 -0.0966  0.1094
 8362SOL    HW136548   3.684   0.485   1.406 -0.3164  1.8788  2.0002
 8362SOL    HW236549   3.800   0.507   1.317  0.0792 -2.6959  0.1949
 8363SOL     OW36550   2.871   3.972  12.842 -0.5916 -0.5684 -0.2181
 8363SOL    HW136551   2.800   3.949  12.783 -0.8704  0.3102 -0.2296
 8363SOL    HW236552   2.954   3.960  12.795  0.3834  0.4855  1.2045
 8364SOL     OW36553   2.265   0.294   7.398  0.6679 -0.7841  0.0118
 8364SOL    HW136554   2.323   0.218   7.408 -0.5210 -1.7960 -0.8920
 8364SOL    HW236555   2.286   0.317   7.307  0.8396 -1.6085 -0.1570
 8365SOL     OW36556   0.928   4.251   3.203 -0.3744  0.4311 -0.2296
 8365SOL    HW136557   0.893   4.203   3.128 -1.4418  1.2202 -0.2280
 8365SOL    HW236558   0.903   4.340   3.180 -0.9503 -0.3797 -2.6963
 8366SOL     OW36559   4.234   1.980   6.970 -0.0034 -0.5605 -0.3811
 8366SOL    HW136560   4.141   1.965   6.986 -0.4494  2.2113 -0.3653
 8366SOL    HW236561   4.264   1.893   6.999  2.7302  0.9550  1.3044
 8367SOL     OW36562   2.344   1.052   4.391  0.3319 -0.3981  0.2070
 8367SOL    HW136563   2.433   1.024   4.369  1.4702  1.3656  2.5561
 8367SOL    HW236564   2.347   1.143   4.361  1.8349 -0.3272  0.5706
 8368SOL     OW36565   1.761   2.670   8.821 -0.1713  0.0325 -0.1474
 8368SOL    HW136566   1.829   2.648   8.885  0.5486  0.4537 -0.7745
 8368SOL    HW236567   1.813   2.689   8.743 -0.8968  1.8093 -0.1952
 8369SOL     OW36568   3.560   0.870   1.188 -0.0181 -0.1728  0.2756
 8369SOL    HW136569   3.565   0.791   1.135  1.1602 -1.2194  1.9652
 8369SOL    HW236570   3.551   0.835   1.276  2.5635 -1.6094 -0.0327
 8370SOL     OW36571   0.950   3.216  17.315  0.3182  0.2970 -0.1946
 8370SOL    HW136572   0.923   3.134  17.274  1.1940 -1.3662  2.6056
 8370SOL    HW236573   0.880   3.277  17.290 -1.9687 -1.4755  1.9397
 8371SOL     OW36574   3.703   3.087   8.129 -0.2615  0.4816 -0.1752
 8371SOL    HW136575   3.702   3.180   8.150  0.8217 -0.1319  2.5886
 8371SOL    HW236576   3.725   3.085   8.036  1.5328 -4.3670  0.3740
 8372SOL     OW36577   2.902   0.873   3.969  0.2891 -0.0914  0.0049
 8372SOL    HW136578   2.959   0.864   3.892  1.0485  0.8834  0.4511
 8372SOL    HW236579   2.913   0.967   3.984  3.1538 -0.2079 -1.3459
 8373SOL     OW36580   2.633   1.551  12.945 -0.0066  0.5086 -0.0905
 8373SOL    HW136581   2.708   1.521  12.894  0.6641 -0.0372  1.2224
 8373SOL    HW236582   2.665   1.588  13.027 -1.3433  1.1249  0.1469
 8374SOL     OW36583   1.824   4.586  15.500  0.4916  0.1843  0.7193
 8374SOL    HW136584   1.772   4.511  15.529  2.3599 -1.8262 -1.1567
 8374SOL    HW236585   1.892   4.585  15.567  2.0428  1.0391 -0.8640
 8375SOL     OW36586   0.982   1.474  17.651 -0.7460 -0.2837 -0.2738
 8375SOL    HW136587   0.933   1.556  17.662 -2.7181 -1.8693  2.5119
 8375SOL    HW236588   1.073   1.505  17.661 -0.5687 -0.6053 -0.8571
 8376SOL     OW36589   2.613   1.864   4.267  0.5236 -0.5577 -0.4730
 8376SOL    HW136590   2.658   1.948   4.276  0.0142 -0.3550  0.1359
 8376SOL    HW236591   2.683   1.798   4.264  1.3259  0.3047 -0.7803
 8377SOL     OW36592   1.355   3.984   2.670 -0.1420  0.0133  0.1366
 8377SOL    HW136593   1.310   3.912   2.626  1.7585 -1.1028 -0.0137
 8377SOL    HW236594   1.337   4.059   2.614  3.5046 -0.5006 -1.7272
 8378SOL     OW36595   1.514   1.437   6.280 -0.3231 -0.2351 -0.1577
 8378SOL    HW136596   1.461   1.360   6.303 -2.3363  1.2339  0.1441
 8378SOL    HW236597   1.548   1.403   6.197  1.3367  2.0155 -0.3983
 8379SOL     OW36598   3.444   2.973   8.485  0.1754 -0.8680 -0.3970
 8379SOL    HW136599   3.516   2.918   8.516  1.0687  1.1969  1.1792
 8379SOL    HW236600   3.371   2.965   8.546  3.1201 -1.5287  3.0005
 8380SOL     OW36601   3.523   0.766   8.351 -0.4857 -0.0110 -0.0197
 8380SOL    HW136602   3.470   0.748   8.429  1.5624  0.8088  1.5542
 8380SOL    HW236603   3.456   0.739   8.288 -0.8244  0.6380  0.0566
 8381SOL     OW36604   2.911   1.487   4.842  0.0829 -0.0160  0.3363
 8381SOL    HW136605   2.828   1.455   4.876  0.6893 -0.6928  1.1916
 8381SOL    HW236606   2.961   1.406   4.846 -0.5831 -0.5129 -1.2376
 8382SOL     OW36607   0.174   1.831   9.769 -0.1332  0.1387  0.2145
 8382SOL    HW136608   0.198   1.893   9.838  1.0407 -0.6288  0.4956
 8382SOL    HW236609   0.086   1.862   9.749 -0.0049  0.2896 -0.1096
 8383SOL     OW36610   2.963   2.473   2.436 -0.4464 -0.2992  0.3167
 8383SOL    HW136611   2.880   2.430   2.456  0.1567 -0.9125  1.5391
 8383SOL    HW236612   2.997   2.506   2.519  1.6368 -0.8775 -0.3057
 8384SOL     OW36613   3.373   3.209   1.349  0.2171  0.0138 -0.2214
 8384SOL    HW136614   3.287   3.218   1.308  0.0852 -3.6354 -0.6929
 8384SOL    HW236615   3.410   3.296   1.361  0.5854 -0.5762  3.1297
 8385SOL     OW36616   2.770   3.359   4.552 -0.1366 -0.1605 -0.1399
 8385SOL    HW136617   2.683   3.364   4.512 -1.0443 -0.4141  1.7916
 8385SOL    HW236618   2.767   3.440   4.605  1.4324 -0.8100  0.9424
 8386SOL     OW36619   2.356   1.746   6.058 -0.2713 -0.5999 -0.3410
 8386SOL    HW136620   2.361   1.837   6.030  1.4958 -0.6399 -0.0981
 8386SOL    HW236621   2.261   1.731   6.064 -0.5824  1.4915 -0.2303
 8387SOL     OW36622   0.505   3.426   3.110  0.5824 -0.2273 -0.0790
 8387SOL    HW136623   0.559   3.350   3.131  0.2019 -1.0492 -2.0990
 8387SOL    HW236624   0.531   3.457   3.023 -0.1408  0.4792 -0.0455
 8388SOL     OW36625   0.574   3.685  14.803 -0.2185  0.1953  0.5346
 8388SOL    HW136626   0.639   3.691  14.733 -0.6595  0.0103  0.1013
 8388SOL    HW236627   0.604   3.753  14.863 -2.8254  0.7514  1.2259
 8389SOL     OW36628   4.022   1.380   2.368  0.0462 -0.3338  0.6552
 8389SOL    HW136629   3.938   1.424   2.358  0.5883  1.0191  2.0002
 8389SOL    HW236630   4.012   1.293   2.329  2.1409 -1.0169  1.6589
 8390SOL     OW36631   0.388   0.393   7.469  0.2370 -0.8951  0.4426
 8390SOL    HW136632   0.477   0.382   7.436 -0.2968 -0.7278 -1.0777
 8390SOL    HW236633   0.379   0.318   7.528 -0.4338  0.5891  2.2371
 8391SOL     OW36634   2.200   3.894   5.755 -0.2575  0.0416  0.0189
 8391SOL    HW136635   2.115   3.853   5.741  0.2180 -0.5002 -1.2841
 8391SOL    HW236636   2.205   3.937   5.669  0.5954  0.2970  0.1969
 8392SOL     OW36637   2.086   3.293   4.992  0.0926 -0.0299  0.7395
 8392SOL    HW136638   2.103   3.347   4.915 -1.3957 -1.0136 -0.2863
 8392SOL    HW236639   2.011   3.338   5.030 -0.3949  1.1278 -1.6202
 8393SOL     OW36640   2.795   1.474   8.831  0.5402 -0.0843 -0.1710
 8393SOL    HW136641   2.884   1.478   8.866  0.6660 -0.9733 -0.3746
 8393SOL    HW236642   2.790   1.530   8.754  2.1198 -2.0464 -1.6705
 8394SOL     OW36643   0.625   3.333   0.770 -0.5285 -0.3902 -0.7077
 8394SOL    HW136644   0.682   3.399   0.731 -0.6961  1.2939  1.8887
 8394SOL    HW236645   0.690   3.297   0.831 -0.6792 -1.9303 -1.4650
 8395SOL     OW36646   1.779   3.946   5.322  0.5472 -0.2406  0.4056
 8395SOL    HW136647   1.815   3.932   5.410  0.4437  0.8131  0.6178
 8395SOL    HW236648   1.722   3.871   5.305  0.2441  0.9325 -3.7500
 8396SOL     OW36649   0.319   4.352   4.026  0.3471  0.4014 -0.1320
 8396SOL    HW136650   0.384   4.313   4.084 -1.8754 -1.4390  1.1528
 8396SOL    HW236651   0.344   4.443   4.015  1.1324 -0.1056 -2.5987
 8397SOL     OW36652   0.343   2.617  11.946  0.1387  0.1340 -0.6223
 8397SOL    HW136653   0.421   2.649  11.900  0.2933 -0.1197 -0.5372
 8397SOL    HW236654   0.339   2.685  12.013  1.2082 -1.7557  1.3369
 8398SOL     OW36655   2.533   1.886   6.862 -0.0380  0.5301  0.0717
 8398SOL    HW136656   2.548   1.936   6.782  0.4163  0.3691  0.0559
 8398SOL    HW236657   2.603   1.821   6.855  1.0304  1.4855  1.6015
 8399SOL     OW36658   0.948   3.884   7.836  0.4923 -0.2563 -0.7822
 8399SOL    HW136659   0.863   3.858   7.801 -1.0166  1.9028  1.2991
 8399SOL    HW236660   0.935   3.878   7.930 -1.3711  0.0863 -1.0273
 8400SOL     OW36661   2.493   0.967   5.001 -0.2085 -0.1340  0.1054
 8400SOL    HW136662   2.534   1.040   5.047  0.0520 -1.3085  1.7143
 8400SOL    HW236663   2.547   0.971   4.922  0.3613 -0.0096  0.5009
 8401SOL     OW36664   0.901   3.299   8.628 -0.1335 -0.2780 -0.1205
 8401SOL    HW136665   0.980   3.273   8.581  0.0286  1.1015 -0.6415
 8401SOL    HW236666   0.934   3.358   8.696  0.4432  0.3427 -0.9425
 8402SOL     OW36667   1.116   3.311   6.804  0.2823  0.0691  0.2777
 8402SOL    HW136668   1.156   3.311   6.890  0.5290 -0.9846  0.1649
 8402SOL    HW236669   1.104   3.403   6.781  1.9704  0.2463  0.0992
 8403SOL     OW36670   1.998   2.776  13.305 -0.1284  0.3281  0.4122
 8403SOL    HW136671   1.965   2.749  13.391 -0.6566 -0.3276  0.0076
 8403SOL    HW236672   2.037   2.694  13.276 -2.3280  0.5636 -3.2130
 8404SOL     OW36673   4.514   3.259   3.195  0.6660  0.3189 -0.6044
 8404SOL    HW136674   4.550   3.176   3.163 -0.0623 -1.4343  3.2312
 8404SOL    HW236675   4.584   3.277   3.258  0.7522 -0.1032 -0.5804
 8405SOL     OW36676   2.474   2.114   9.350  0.3057  0.1588  0.5273
 8405SOL    HW136677   2.533   2.058   9.300  2.3897  0.0581  3.1230
 8405SOL    HW236678   2.397   2.100   9.294  0.6099  0.2968  0.0724
 8406SOL     OW36679   1.170   0.322   7.034  0.0999 -0.7861 -0.0075
 8406SOL    HW136680   1.187   0.396   6.975  2.7756 -1.4117  0.0048
 8406SOL    HW236681   1.115   0.354   7.105 -1.5119  1.2936 -2.1803
 8407SOL     OW36682   4.331   4.279   5.893  0.1275 -0.1145 -0.0258
 8407SOL    HW136683   4.359   4.188   5.887  0.1569 -0.2208  1.5775
 8407SOL    HW236684   4.330   4.314   5.804 -1.3726 -1.3118 -0.4693
 8408SOL     OW36685   0.119   2.239   7.065 -0.6123 -0.3702  0.9077
 8408SOL    HW136686   0.048   2.185   7.101 -0.3064 -0.2548  1.6898
 8408SOL    HW236687   0.059   2.297   7.018  0.8054  0.2150 -0.1756
 8409SOL     OW36688   2.273   2.601   8.068  0.5413  0.3640  0.5078
 8409SOL    HW136689   2.291   2.525   8.124  2.2049  1.5783  1.6340
 8409SOL    HW236690   2.179   2.616   8.080  0.5607  0.7965  0.0787
 8410SOL     OW36691   4.147   0.505  16.249 -0.0010 -0.3037  0.2789
 8410SOL    HW136692   4.171   0.423  16.207  1.6584  0.3133  0.0046
 8410SOL    HW236693   4.188   0.502  16.336 -0.0315  0.7097  0.3349
 8411SOL     OW36694   3.437   3.534   7.274 -0.0590 -0.3085 -0.6348
 8411SOL    HW136695   3.426   3.498   7.186 -0.4936 -1.3726 -0.1486
 8411SOL    HW236696   3.402   3.459   7.323 -0.2622  0.1668 -0.0449
 8412SOL     OW36697   1.115   2.115   5.733  0.2774  0.0060 -0.4008
 8412SOL    HW136698   1.037   2.062   5.750 -0.7461  2.0817  1.2971
 8412SOL    HW236699   1.138   2.083   5.646  3.2651 -0.4438  0.5309
 8413SOL     OW36700   3.623   1.896  10.977 -0.0478  0.3022 -0.2510
 8413SOL    HW136701   3.539   1.941  10.985  0.0122 -0.1075  2.8706
 8413SOL    HW236702   3.611   1.848  11.060  0.1257  1.8505  0.6590
 8414SOL     OW36703   1.848   2.139   3.556 -0.3657 -0.1349  0.3629
 8414SOL    HW136704   1.796   2.149   3.636  0.3126 -0.9240  0.9146
 8414SOL    HW236705   1.834   2.051   3.521 -0.0949  0.5541 -1.4461
 8415SOL     OW36706   1.495   3.403   7.789  0.2442 -0.4554  0.4527
 8415SOL    HW136707   1.425   3.439   7.735 -2.6791 -2.6117  2.8316
 8415SOL    HW236708   1.563   3.467   7.770 -0.5549  0.6936  1.5050
 8416SOL     OW36709   3.478   1.916  16.978 -0.5456  0.0184 -0.0761
 8416SOL    HW136710   3.464   1.944  17.068 -0.5434  2.1524 -0.7493
 8416SOL    HW236711   3.401   1.961  16.943  0.0305  1.6968  0.8431
 8417SOL     OW36712   0.620   4.086  15.185 -0.2968 -0.1320  0.5538
 8417SOL    HW136713   0.712   4.079  15.161 -0.4590  0.0194 -0.1028
 8417SOL    HW236714   0.615   4.151  15.255  2.6095  2.3706 -1.5822
 8418SOL     OW36715   1.077   3.710   8.890  0.0953 -0.2459 -0.6247
 8418SOL    HW136716   1.056   3.757   8.809 -1.4104  0.8614  0.4075
 8418SOL    HW236717   1.164   3.745   8.912 -0.6358  2.1298 -1.4805
 8419SOL     OW36718   2.311   4.437   3.450 -0.1018 -0.1001  0.4150
 8419SOL    HW136719   2.336   4.421   3.541  3.2766 -2.3664 -0.9072
 8419SOL    HW236720   2.220   4.462   3.465  0.7326  1.3220  3.0301
 8420SOL     OW36721   4.658   4.216   7.482 -0.5861 -0.3930 -0.2219
 8420SOL    HW136722   4.591   4.283   7.468 -0.7834 -0.9014 -1.7431
 8420SOL    HW236723   4.648   4.188   7.573  1.3331  0.1445  0.1589
 8421SOL     OW36724   1.442   3.619   4.473  0.1852  0.2839 -1.0133
 8421SOL    HW136725   1.460   3.540   4.421  1.0440 -0.0544 -0.2111
 8421SOL    HW236726   1.389   3.665   4.408 -0.0924  1.9138  0.3564
 8422SOL     OW36727   0.956   3.507   8.387 -0.0289  0.3306 -0.5014
 8422SOL    HW136728   0.908   3.456   8.452  0.3110  0.6550  0.0067
 8422SOL    HW236729   0.908   3.589   8.390 -0.4535  0.0566  0.1830
 8423SOL     OW36730   1.694   0.447   7.761  0.1011  0.2832  0.3785
 8423SOL    HW136731   1.676   0.530   7.805 -0.9320  0.5918 -0.6491
 8423SOL    HW236732   1.759   0.478   7.698 -1.9917  0.7020 -1.5621
 8424SOL     OW36733   3.682   1.911   8.456 -0.2050 -0.4315  0.1887
 8424SOL    HW136734   3.593   1.935   8.482  0.2588  1.8151 -0.2716
 8424SOL    HW236735   3.731   1.969   8.515  0.5227  2.4822 -3.2388
 8425SOL     OW36736   1.180   3.256   7.706  0.6001  0.3945 -0.0936
 8425SOL    HW136737   1.181   3.352   7.709 -0.0092  0.4370 -1.6229
 8425SOL    HW236738   1.261   3.233   7.661 -0.5564 -0.0269 -1.9408
 8426SOL     OW36739   0.541   1.877   3.875 -0.1958  0.0888 -0.4546
 8426SOL    HW136740   0.576   1.879   3.786 -0.0473  1.6985 -0.3449
 8426SOL    HW236741   0.505   1.965   3.875 -0.0108  0.1600  0.0724
 8427SOL     OW36742   0.395   1.789  13.199  0.4945  0.1528  0.1774
 8427SOL    HW136743   0.429   1.814  13.113 -1.2411  0.2886 -0.4554
 8427SOL    HW236744   0.332   1.857  13.221 -1.3818 -1.0300 -1.5786
 8428SOL     OW36745   2.927   3.157  10.043  0.0021  0.2269  0.3449
 8428SOL    HW136746   2.920   3.247  10.011  0.6254  0.8590  1.9347
 8428SOL    HW236747   2.919   3.108   9.962 -2.1419 -1.5019  1.5831
 8429SOL     OW36748   3.808   0.676   0.534  0.4624  0.2695 -0.6864
 8429SOL    HW136749   3.902   0.684   0.516  0.5426  1.1379  0.1442
 8429SOL    HW236750   3.794   0.763   0.570 -0.4777  0.8107 -2.3680
 8430SOL     OW36751   2.082   2.600   6.928 -0.1322  0.1674  0.3079
 8430SOL    HW136752   2.115   2.676   6.977  0.8216 -0.2254  0.2889
 8430SOL    HW236753   2.149   2.588   6.860  0.1783 -1.0690  0.8320
 8431SOL     OW36754   3.378   2.006   1.029  0.6937  0.5092  0.3699
 8431SOL    HW136755   3.385   1.945   1.103  1.0422  1.3240  0.9988
 8431SOL    HW236756   3.380   2.095   1.062 -0.5438  0.6533  0.0480
 8432SOL     OW36757   3.965   4.362   8.652  0.6544  0.2596 -0.0132
 8432SOL    HW136758   3.959   4.426   8.581 -3.0099  0.6444  0.6640
 8432SOL    HW236759   3.931   4.408   8.730 -2.0604 -2.8178  0.6183
 8433SOL     OW36760   3.468   3.323   9.278 -0.0154  0.2483  0.4963
 8433SOL    HW136761   3.447   3.384   9.349 -0.5287  3.1323 -2.1390
 8433SOL    HW236762   3.558   3.301   9.304  0.4476  1.0284 -0.4253
 8434SOL     OW36763   0.710   1.819   8.549  0.8198  1.0107 -1.0269
 8434SOL    HW136764   0.629   1.859   8.582  1.4635  2.1567 -0.8446
 8434SOL    HW236765   0.678   1.748   8.494 -0.3459 -1.3096  2.6024
 8435SOL     OW36766   3.406   3.497  10.534 -0.1664 -0.0267 -0.6958
 8435SOL    HW136767   3.318   3.494  10.497 -0.1995 -1.9385 -0.4306
 8435SOL    HW236768   3.412   3.589  10.563 -0.6433  0.0072 -0.7158
 8436SOL     OW36769   2.151   0.144   4.698 -0.3486 -0.1958  0.0948
 8436SOL    HW136770   2.207   0.072   4.669 -0.0957 -0.0721  0.2756
 8436SOL    HW236771   2.098   0.094   4.759  0.2035 -0.3431  0.4455
 8437SOL     OW36772   3.259   3.129   2.903 -0.0234  0.4820 -0.4088
 8437SOL    HW136773   3.233   3.105   2.992 -0.1816  0.5429 -0.4390
 8437SOL    HW236774   3.353   3.109   2.902 -0.1901 -0.3710  0.4247
 8438SOL     OW36775   4.494   0.337  11.436  0.4278 -0.5195  0.2459
 8438SOL    HW136776   4.564   0.357  11.498 -0.3993  1.9622  0.3764
 8438SOL    HW236777   4.443   0.416  11.453  1.0483  0.1111 -0.8145
 8439SOL     OW36778   1.728   1.223   7.584 -0.2167 -0.6243 -0.0290
 8439SOL    HW136779   1.732   1.174   7.666  2.8923  1.0413  0.8021
 8439SOL    HW236780   1.671   1.172   7.526  0.6027 -2.4493  0.7684
 8440SOL     OW36781   0.292   3.768   3.020  0.3502  0.4018 -0.0330
 8440SOL    HW136782   0.270   3.676   3.005 -0.5717  0.6873 -0.4049
 8440SOL    HW236783   0.227   3.796   2.956 -0.8670 -1.1434  0.5290
 8441SOL     OW36784   4.380   0.634   2.901  0.4639 -0.2753  0.2298
 8441SOL    HW136785   4.338   0.630   2.815  0.3019  1.2976  0.2289
 8441SOL    HW236786   4.430   0.553   2.898  0.6820 -0.0806 -1.1500
 8442SOL     OW36787   1.211   3.904   0.621 -0.1108 -0.0330  0.4478
 8442SOL    HW136788   1.140   3.866   0.569  0.5932 -1.2224  0.3586
 8442SOL    HW236789   1.278   3.839   0.597  0.1613  0.9793 -1.5740
 8443SOL     OW36790   1.003   4.256  14.860 -0.3154 -0.5560 -0.1052
 8443SOL    HW136791   1.027   4.306  14.938  0.3787 -0.9743 -0.0533
 8443SOL    HW236792   1.056   4.178  14.876  0.7449  0.3850  0.9021
 8444SOL     OW36793   4.001   0.889   5.971  0.0507  0.0038 -0.0462
 8444SOL    HW136794   3.930   0.826   5.977  1.8487 -2.0659 -0.3654
 8444SOL    HW236795   4.071   0.825   5.961 -0.2324  0.0321 -2.3505
 8445SOL     OW36796   1.767   1.945   6.498  0.6631 -0.3922 -0.3034
 8445SOL    HW136797   1.844   1.985   6.538  0.2310  1.1231 -1.0065
 8445SOL    HW236798   1.770   1.977   6.408 -0.0928  3.7487  1.1430
 8446SOL     OW36799   4.025   0.889   2.705 -0.4489  0.0472  0.0951
 8446SOL    HW136800   3.947   0.939   2.680 -0.6818  0.8318  2.3230
 8446SOL    HW236801   3.992   0.808   2.745  0.7044 -0.1625  0.6203
 8447SOL     OW36802   3.012   3.136  16.981 -0.1434 -0.0378 -0.1898
 8447SOL    HW136803   3.018   3.222  17.021 -0.1903  0.5051 -1.3703
 8447SOL    HW236804   2.983   3.099  17.065 -0.8950  0.6364 -0.1647
 8448SOL     OW36805   3.519   3.974   3.018  0.5367 -0.2441  0.1374
 8448SOL    HW136806   3.589   3.978   3.083  2.0398  0.8038 -1.5353
 8448SOL    HW236807   3.541   3.892   2.973 -2.7484 -1.4849  0.7546
 8449SOL     OW36808   3.380   3.444   7.004  0.4454  0.7122 -0.1572
 8449SOL    HW136809   3.383   3.354   6.972  0.2803  1.3167 -1.8717
 8449SOL    HW236810   3.332   3.489   6.935 -2.0142 -0.0790  1.0431
 8450SOL     OW36811   2.807   1.905  11.735 -0.1128  0.1606  0.4240
 8450SOL    HW136812   2.850   1.978  11.780 -1.6965  0.1968  1.8428
 8450SOL    HW236813   2.875   1.838  11.742  0.0097  0.5736  2.8935
 8451SOL     OW36814   2.336   1.195   6.875  0.3227 -0.2630 -0.1971
 8451SOL    HW136815   2.318   1.111   6.834  2.7440 -0.0118 -1.7776
 8451SOL    HW236816   2.400   1.174   6.943  1.5708 -2.3114 -2.0145
 8452SOL     OW36817   2.036   2.449   4.911  0.6030 -0.3056  0.5800
 8452SOL    HW136818   2.052   2.443   5.005  1.3462  1.1736  0.5538
 8452SOL    HW236819   2.007   2.539   4.895  0.4608 -0.4020  0.2955
 8453SOL     OW36820   0.849   4.516   3.170 -0.0196 -0.4015 -0.3383
 8453SOL    HW136821   0.822   4.601   3.136  0.2680 -0.9773 -2.0147
 8453SOL    HW236822   0.759   4.482   3.166  0.1105 -0.7564 -0.2649
 8454SOL     OW36823   0.540   3.083   0.958  0.7846 -0.1257 -0.3160
 8454SOL    HW136824   0.587   3.094   1.041  1.2421  1.3362 -0.7699
 8454SOL    HW236825   0.616   3.049   0.912  0.1604 -0.3542 -1.1763
 8455SOL     OW36826   2.160   2.811  12.536  0.5442  0.9404 -0.4023
 8455SOL    HW136827   2.229   2.769  12.587  0.2556 -0.4901 -1.1827
 8455SOL    HW236828   2.203   2.826  12.452  1.2279  0.3635 -0.1533
 8456SOL     OW36829   3.575   1.771   7.700 -0.3778  0.1257 -0.0052
 8456SOL    HW136830   3.547   1.679   7.697 -0.4957  0.1212  1.1352
 8456SOL    HW236831   3.506   1.803   7.758  0.8949  0.4115  1.3346
 8457SOL     OW36832   0.188   3.586  13.045  0.4636  0.5513  0.1745
 8457SOL    HW136833   0.161   3.603  13.135  0.4242 -0.9292  0.4500
 8457SOL    HW236834   0.210   3.493  13.052 -0.8095  0.3171  1.1113
 8458SOL     OW36835   0.074   2.081   6.414 -0.2161 -0.2008  0.8080
 8458SOL    HW136836   0.034   2.104   6.498  1.3245  0.4982  1.3548
 8458SOL    HW236837   0.032   1.996   6.399  1.1033 -0.6288 -0.5227
 8459SOL     OW36838   2.406   3.247   1.048  0.1969  0.2734  0.3538
 8459SOL    HW136839   2.478   3.306   1.026  0.0813  0.3516  0.1809
 8459SOL    HW236840   2.378   3.276   1.135  0.6239 -2.4138  1.4033
 8460SOL     OW36841   1.027   1.945   0.812  0.0500  0.2058  0.2230
 8460SOL    HW136842   1.056   1.864   0.853  2.6557  1.5748  1.0541
 8460SOL    HW236843   0.932   1.939   0.820  0.1424 -0.5049  0.8305
 8461SOL     OW36844   4.498   1.452   7.533  0.6172 -0.4736 -0.2504
 8461SOL    HW136845   4.486   1.543   7.508  0.0285 -0.7691 -1.0600
 8461SOL    HW236846   4.588   1.457   7.565  0.6524 -3.0381  0.0603
 8462SOL     OW36847   3.134   1.204  12.469  0.6224  0.4221 -0.4774
 8462SOL    HW136848   3.159   1.153  12.546 -2.0777 -0.8457 -0.4418
 8462SOL    HW236849   3.043   1.176  12.460  0.1293  1.2100  1.8862
 8463SOL     OW36850   3.274   3.488   3.228 -0.0721  0.2151  0.3485
 8463SOL    HW136851   3.222   3.459   3.152  0.6370  0.7126 -0.3250
 8463SOL    HW236852   3.323   3.556   3.182 -0.3388 -1.6395 -2.7005
 8464SOL     OW36853   3.175   0.417   5.028 -0.1017  0.2950  0.4291
 8464SOL    HW136854   3.199   0.441   4.939 -1.1572 -0.8267 -0.1636
 8464SOL    HW236855   3.257   0.383   5.063 -1.8112 -1.7474  2.5148
 8465SOL     OW36856   3.398   4.281  11.092 -0.0137  0.0289 -0.1471
 8465SOL    HW136857   3.364   4.314  11.009 -1.0201  2.7506  1.3597
 8465SOL    HW236858   3.476   4.336  11.103  0.7074 -1.1668  0.7941
 8466SOL     OW36859   2.177   3.810   6.710  0.1194 -0.5251 -0.4316
 8466SOL    HW136860   2.195   3.890   6.760  3.1491 -1.9413  0.7971
 8466SOL    HW236861   2.086   3.812   6.683  0.0024 -0.5075 -0.0445
 8467SOL     OW36862   0.518   0.991   6.924 -0.2812 -1.1245  0.2635
 8467SOL    HW136863   0.591   1.046   6.895 -2.9946  1.7825 -1.1856
 8467SOL    HW236864   0.557   0.933   6.989  0.1111  0.8957  1.8555
 8468SOL     OW36865   0.639   3.723  16.851  0.0740 -0.0796 -0.7223
 8468SOL    HW136866   0.634   3.628  16.854  0.3624 -0.1020 -0.9664
 8468SOL    HW236867   0.554   3.765  16.864  0.8649  0.9658  0.9694
 8469SOL     OW36868   3.319   2.937   7.688 -0.2659  0.4606 -0.0636
 8469SOL    HW136869   3.392   2.926   7.627 -0.1452 -0.9987  0.3455
 8469SOL    HW236870   3.271   2.855   7.680 -0.8987  0.7967  0.2650
 8470SOL     OW36871   2.582   4.657  13.707  0.4913 -0.0944  0.4351
 8470SOL    HW136872   2.667   4.638  13.668  0.5202 -0.8217  0.8581
 8470SOL    HW236873   2.601   4.685  13.796 -1.7197 -1.9613  1.4964
 8471SOL     OW36874   0.403   1.247   7.730  0.5683  0.3292  0.3303
 8471SOL    HW136875   0.443   1.162   7.709 -2.6794 -1.2963  0.5922
 8471SOL    HW236876   0.396   1.247   7.825  0.0099  1.4563  0.2841
 8472SOL     OW36877   3.701   0.328   2.176 -0.8858 -0.5750 -0.0924
 8472SOL    HW136878   3.694   0.322   2.081 -2.6398  1.8001 -0.1107
 8472SOL    HW236879   3.719   0.240   2.211 -0.6478 -0.0131  1.1829
 8473SOL     OW36880   4.477   1.586   8.061  0.1475 -0.2572  0.0700
 8473SOL    HW136881   4.529   1.509   8.041 -0.1087 -0.5347  0.4629
 8473SOL    HW236882   4.459   1.631   7.978  2.3751  1.3765  0.4635
 8474SOL     OW36883   1.125   4.596   7.091  0.1854 -0.0908 -0.5540
 8474SOL    HW136884   1.172   4.632   7.166  0.4941  0.3888 -0.9835
 8474SOL    HW236885   1.141   4.502   7.103  0.3918  0.0342  0.1658
 8475SOL     OW36886   3.083   0.995  14.451  0.2497 -0.5014 -0.4358
 8475SOL    HW136887   3.055   0.910  14.486 -1.0364  0.2141  0.2681
 8475SOL    HW236888   3.082   0.978  14.357  2.7503 -0.6235 -0.4545
 8476SOL     OW36889   1.179   0.791  10.612 -0.2416  0.2770  0.0136
 8476SOL    HW136890   1.178   0.698  10.587 -0.0365  0.6076 -1.2397
 8476SOL    HW236891   1.231   0.795  10.692 -0.2673 -1.8043  0.1457
 8477SOL     OW36892   2.893   3.825  17.020 -0.4635  0.4364 -0.2166
 8477SOL    HW136893   2.833   3.760  16.984  0.8420 -0.8171 -0.1167
 8477SOL    HW236894   2.975   3.807  16.974 -1.1864 -0.5265 -1.1239
 8478SOL     OW36895   3.113   2.551  12.851  0.4239  0.2613 -0.4689
 8478SOL    HW136896   3.104   2.646  12.848 -0.0718  0.2666  1.0376
 8478SOL    HW236897   3.040   2.521  12.905 -1.0043  1.2854 -1.8321
 8479SOL     OW36898   1.176   0.982   9.792  0.8367  0.6002  0.0821
 8479SOL    HW136899   1.116   1.047   9.754 -0.2403  0.3376  1.3066
 8479SOL    HW236900   1.187   1.027   9.876 -1.1558 -0.3122  0.8313
 8480SOL     OW36901   1.395   2.203   2.563  0.4220  0.1948  0.1411
 8480SOL    HW136902   1.475   2.214   2.614  2.1206 -0.0398 -2.4416
 8480SOL    HW236903   1.411   2.242   2.477 -0.4250 -1.9932 -1.0040
 8481SOL     OW36904   1.355   3.003  12.384 -0.1257 -0.2136 -0.3273
 8481SOL    HW136905   1.404   2.929  12.348 -0.6499 -1.5405  1.6743
 8481SOL    HW236906   1.349   3.058  12.306  1.4840 -2.2250 -1.8828
 8482SOL     OW36907   2.013   2.301   5.647  0.5353  0.4489 -0.4467
 8482SOL    HW136908   2.076   2.245   5.693 -2.8179 -2.1493  0.9968
 8482SOL    HW236909   2.023   2.278   5.555  3.7966  0.4783 -0.0822
 8483SOL     OW36910   1.783   0.272   3.670 -0.4650 -0.2552 -0.4461
 8483SOL    HW136911   1.819   0.184   3.666  1.3646  0.5050 -0.5608
 8483SOL    HW236912   1.848   0.324   3.717 -1.0444  0.8864 -0.9023
 8484SOL     OW36913   0.403   3.802   4.290 -0.0810 -0.4811  0.0506
 8484SOL    HW136914   0.401   3.840   4.377  0.2739  0.7677 -0.4857
 8484SOL    HW236915   0.324   3.845   4.257  0.1071 -0.9796 -1.0549
 8485SOL     OW36916   1.026   3.616   4.105 -0.0679  0.2697  0.0329
 8485SOL    HW136917   1.025   3.616   4.009  0.0748 -1.2197  0.0304
 8485SOL    HW236918   0.962   3.547   4.119 -0.0237  0.5089  1.4244
 8486SOL     OW36919   1.109   3.122  16.066  0.1908 -0.1311  0.1540
 8486SOL    HW136920   1.187   3.177  16.071  0.1172  0.1062 -1.3585
 8486SOL    HW236921   1.112   3.124  15.971  1.5616  3.6868  0.2832
 8487SOL     OW36922   3.289   3.940   6.922 -0.1579 -0.0595 -0.5747
 8487SOL    HW136923   3.325   4.028   6.915 -1.2159  0.5642  1.9454
 8487SOL    HW236924   3.245   3.934   6.837 -1.3604 -1.9992  0.1695
 8488SOL     OW36925   1.338   1.028  17.184 -0.0172 -0.3830 -0.0318
 8488SOL    HW136926   1.327   1.074  17.101  0.8835  0.5250  0.3536
 8488SOL    HW236927   1.409   1.079  17.223 -0.3495  0.8420 -1.0192
 8489SOL     OW36928   4.138   1.806   8.405  0.0348 -0.0954  0.2351
 8489SOL    HW136929   4.151   1.877   8.342  0.8639 -2.4428 -2.2694
 8489SOL    HW236930   4.085   1.740   8.361  0.4729 -1.2528  1.4576
 8490SOL     OW36931   3.027   3.139   4.910  0.1431  0.0123 -0.1122
 8490SOL    HW136932   2.991   3.096   4.832 -0.0491 -0.0884  0.0332
 8490SOL    HW236933   2.955   3.151   4.971  1.2891 -1.3011  1.4957
 8491SOL     OW36934   3.659   4.047  12.846 -0.3957  0.3519 -0.1671
 8491SOL    HW136935   3.697   4.132  12.827 -1.0723  0.7632  0.3162
 8491SOL    HW236936   3.724   4.031  12.914  0.1857  0.8927 -0.6039
 8492SOL     OW36937   3.198   3.694   5.965 -0.0230  0.0149  0.4401
 8492SOL    HW136938   3.155   3.714   5.882  0.6566  1.0777  0.3413
 8492SOL    HW236939   3.131   3.718   6.030 -0.5341 -0.0896 -0.0502
 8493SOL     OW36940   3.311   3.565   0.439 -0.6880 -0.3105  0.1769
 8493SOL    HW136941   3.246   3.540   0.505 -1.6610 -1.1169 -1.0867
 8493SOL    HW236942   3.297   3.660   0.444 -1.3008 -0.3749 -0.3268
 8494SOL     OW36943   2.695   3.094   4.617  0.0649 -0.2328  0.1147
 8494SOL    HW136944   2.751   3.143   4.557  0.2685  0.7018  1.0562
 8494SOL    HW236945   2.746   3.101   4.698  0.9728  0.2402 -0.4960
 8495SOL     OW36946   1.990   3.176   3.693 -0.5994  0.0688  0.2412
 8495SOL    HW136947   1.965   3.114   3.761  2.9071 -0.0971  1.3843
 8495SOL    HW236948   1.908   3.157   3.647 -0.9975  1.1850  0.4867
 8496SOL     OW36949   3.545   1.649   2.376 -0.5280 -0.4454 -0.9078
 8496SOL    HW136950   3.475   1.663   2.313  0.6269 -2.7297 -2.7466
 8496SOL    HW236951   3.552   1.733   2.420  3.3648 -0.1849 -2.0222
 8497SOL     OW36952   2.390   0.907   8.833  0.4905  0.8910  0.5322
 8497SOL    HW136953   2.396   1.003   8.833  0.1656  0.9121 -0.2305
 8497SOL    HW236954   2.413   0.874   8.746 -2.3427  1.1887 -0.3311
 8498SOL     OW36955   4.473   0.056  15.739  0.4916 -0.2273 -0.4709
 8498SOL    HW136956   4.466   4.717  15.669 -2.6982  1.7746 -1.9704
 8498SOL    HW236957   4.505   0.002  15.812  1.5075  0.1540 -0.6361
 8499SOL     OW36958   3.916   3.783   8.097  0.2898  0.0371 -0.1404
 8499SOL    HW136959   3.889   3.815   8.184  0.1293 -1.6222  0.4274
 8499SOL    HW236960   3.979   3.715   8.120 -2.5447 -2.7138 -0.4537
 8500SOL     OW36961   0.845   3.312   4.838  0.3114 -0.3781  0.0652
 8500SOL    HW136962   0.898   3.239   4.805  0.1174 -1.4262  2.0691
 8500SOL    HW236963   0.906   3.386   4.840  1.1548 -1.0878  0.9317
 8501SOL     OW36964   3.358   2.499   0.440 -0.6916  0.1851  0.2048
 8501SOL    HW136965   3.440   2.479   0.486 -0.1435 -0.9858 -1.2640
 8501SOL    HW236966   3.395   2.570   0.388 -0.8653  0.4874  0.4950
 8502SOL     OW36967   3.556   0.313  15.383  0.3192 -0.9329 -0.0847
 8502SOL    HW136968   3.575   0.223  15.355 -0.1255 -1.0793  0.0728
 8502SOL    HW236969   3.628   0.361  15.343  0.4825 -2.6194 -1.8650
 8503SOL     OW36970   0.175   2.681   5.019 -0.1542 -0.6154 -0.1315
 8503SOL    HW136971   0.179   2.699   4.925  1.6515  0.6288  0.1882
 8503SOL    HW236972   0.095   2.728   5.045  0.7984 -0.3000  2.1744
 8504SOL     OW36973   3.082   3.081  16.427  0.5807  0.2602 -0.9437
 8504SOL    HW136974   3.014   3.021  16.396  0.2408 -1.2558  2.7813
 8504SOL    HW236975   3.038   3.152  16.474  0.1836 -0.7256  0.1564
 8505SOL     OW36976   2.515   1.441   8.890  0.1483 -0.3304 -0.0933
 8505SOL    HW136977   2.528   1.441   8.985  1.6899  0.8782 -0.3052
 8505SOL    HW236978   2.604   1.466   8.866 -0.1897  1.3696  0.4100
 8506SOL     OW36979   0.605   4.451   8.263 -0.5589 -0.1515 -0.1923
 8506SOL    HW136980   0.607   4.535   8.217 -0.4637  0.0039  0.1003
 8506SOL    HW236981   0.699   4.435   8.254 -0.4706 -0.1459  0.7783
 8507SOL     OW36982   2.350   2.671   3.300  0.2702 -0.6124  0.1513
 8507SOL    HW136983   2.441   2.699   3.301 -0.7058  2.4847  0.6360
 8507SOL    HW236984   2.342   2.583   3.261 -2.0345 -0.7202  0.8539
 8508SOL     OW36985   4.112   3.686   2.757  0.4915  0.1360  0.5537
 8508SOL    HW136986   4.151   3.698   2.670 -1.7715 -3.1112 -0.9114
 8508SOL    HW236987   4.091   3.777   2.777 -1.2409  0.1182 -1.1558
 8509SOL     OW36988   4.334   0.635   5.460  0.3102 -0.2609 -0.3142
 8509SOL    HW136989   4.284   0.597   5.387 -0.5169 -0.5787  0.4161
 8509SOL    HW236990   4.330   0.730   5.456 -2.9926 -0.4653 -1.5583
 8510SOL     OW36991   2.769   3.155  12.485 -0.3735 -0.1462  0.1338
 8510SOL    HW136992   2.761   3.060  12.496  0.5810 -0.3059 -0.5044
 8510SOL    HW236993   2.693   3.181  12.537  1.9997  2.8120  2.1313
 8511SOL     OW36994   3.409   1.600   3.844 -0.4397  0.4536  0.2328
 8511SOL    HW136995   3.365   1.602   3.760  0.5841  0.3155 -0.3064
 8511SOL    HW236996   3.497   1.584   3.810 -0.6100 -1.5036  0.7342
 8512SOL     OW36997   2.915   1.325   9.200  0.1865 -0.5374  0.0440
 8512SOL    HW136998   2.967   1.249   9.223  0.4388 -0.5817 -0.6710
 8512SOL    HW236999   2.957   1.397   9.247 -1.6219  0.5277  0.0549
 8513SOL     OW37000   0.613   4.467   4.585  0.0142  0.1677 -0.0176
 8513SOL    HW137001   0.632   4.454   4.492 -1.0980  0.1354 -0.2429
 8513SOL    HW237002   0.545   4.399   4.583 -0.2346  0.4335 -0.6040
 8514SOL     OW37003   2.934   3.763   6.404 -0.2797  0.3002 -0.4718
 8514SOL    HW137004   2.840   3.762   6.421  0.3135  1.3715  2.8772
 8514SOL    HW237005   2.950   3.670   6.390 -4.5696 -0.0889 -2.7576
 8515SOL     OW37006   1.007   2.037   8.766 -0.4446  0.1148 -0.3525
 8515SOL    HW137007   1.010   1.945   8.740  0.6550 -0.1145  0.5732
 8515SOL    HW237008   1.086   2.040   8.820 -1.7933  1.3864  1.5236
 8516SOL     OW37009   4.315   2.936   3.159 -0.1986 -0.0638  0.5144
 8516SOL    HW137010   4.409   2.954   3.163 -0.4019  1.2691 -0.7015
 8516SOL    HW237011   4.300   2.884   3.081 -1.8226  0.5545  0.4205
 8517SOL     OW37012   4.054   0.834   3.232 -0.4055  0.0486  0.6321
 8517SOL    HW137013   3.998   0.826   3.155  0.4553  0.9138 -0.0793
 8517SOL    HW237014   4.145   0.842   3.202 -0.1969  1.0008  1.5144
 8518SOL     OW37015   3.107   3.742   5.713 -0.2633  0.5333  0.0141
 8518SOL    HW137016   3.046   3.709   5.647  1.7290 -1.8271 -0.6498
 8518SOL    HW237017   3.127   3.824   5.668  2.0996  0.1209  0.3411
 8519SOL     OW37018   2.519   2.533  10.409  0.9722 -0.1516  0.5977
 8519SOL    HW137019   2.609   2.560  10.391  0.0151  3.2074  1.0052
 8519SOL    HW237020   2.537   2.443  10.380  2.0835  0.9854 -2.2469
 8520SOL     OW37021   3.403   4.023   7.298  0.7173  0.2582 -0.1474
 8520SOL    HW137022   3.340   4.004   7.367  2.3745  0.8820  1.5716
 8520SOL    HW237023   3.482   4.018   7.353  1.2434 -2.1118 -1.1120
 8521SOL     OW37024   1.716   3.686   8.307 -0.2977  0.9472 -0.4121
 8521SOL    HW137025   1.670   3.612   8.266  1.0304  0.4902 -1.0758
 8521SOL    HW237026   1.700   3.661   8.398  4.2863  0.1486  0.1725
 8522SOL     OW37027   2.078   4.356   7.633 -0.3084 -0.3423  0.3179
 8522SOL    HW137028   2.072   4.308   7.550 -0.0324 -0.3312  0.2915
 8522SOL    HW237029   2.028   4.434   7.609  0.5894  0.5690  1.4178
 8523SOL     OW37030   2.241   1.509  15.574  0.0190  0.0531 -0.0148
 8523SOL    HW137031   2.161   1.473  15.613  0.4086 -1.7667 -0.9296
 8523SOL    HW237032   2.227   1.457  15.495  0.9439  1.9181 -1.3962
 8524SOL     OW37033   1.811   2.398  14.061  0.0969 -0.1412 -0.4071
 8524SOL    HW137034   1.722   2.375  14.088  0.6043 -1.6381  0.0164
 8524SOL    HW237035   1.843   2.323  14.010  1.8401  1.7789 -2.1442
 8525SOL     OW37036   1.754   4.521   7.914 -0.2510  0.0421 -0.0718
 8525SOL    HW137037   1.794   4.589   7.967 -0.8193  0.2172  0.1377
 8525SOL    HW237038   1.669   4.520   7.958 -1.1603 -0.4355 -1.8166
 8526SOL     OW37039   4.263   2.151   9.219  0.0190  0.4878  0.2321
 8526SOL    HW137040   4.342   2.097   9.225 -0.4286 -0.3513 -1.6162
 8526SOL    HW237041   4.200   2.087   9.252 -0.6374 -0.0471 -2.1032
 8527SOL     OW37042   4.598   3.434  11.821  0.3394  0.0716 -0.3082
 8527SOL    HW137043   4.640   3.447  11.906 -1.4914 -1.5429  0.8409
 8527SOL    HW237044   4.651   3.491  11.766  0.0954  1.2301  0.6645
 8528SOL     OW37045   3.459   2.487   9.953  0.6430 -0.1664 -0.0275
 8528SOL    HW137046   3.522   2.498   9.882 -0.8212  0.1310 -1.2828
 8528SOL    HW237047   3.412   2.410   9.922 -0.7131 -0.4592  2.6934
 8529SOL     OW37048   2.419   1.326  11.723 -0.1939  0.7859  0.2821
 8529SOL    HW137049   2.422   1.382  11.645 -5.1592 -1.7033 -1.7265
 8529SOL    HW237050   2.497   1.274  11.706 -0.8655 -0.0344 -0.2948
 8530SOL     OW37051   4.455   2.520   9.446  0.2238 -0.4272 -0.3238
 8530SOL    HW137052   4.424   2.505   9.357  1.6597 -1.5818 -0.6261
 8530SOL    HW237053   4.369   2.533   9.486 -0.4188 -0.6345 -1.6226
 8531SOL     OW37054   2.080   4.718   0.067 -0.0021 -0.1247 -0.1898
 8531SOL    HW137055   2.163   4.677   0.045  0.4358  0.3163  0.6421
 8531SOL    HW237056   2.040   0.010  17.683 -0.0150 -0.9805 -0.3574
 8532SOL     OW37057   0.674   3.063  17.467 -0.3289 -0.4354 -0.0526
 8532SOL    HW137058   0.724   3.069  17.549  0.3710  0.2905 -0.5319
 8532SOL    HW237059   0.657   3.157  17.462 -0.8947 -0.6634 -2.2942
 8533SOL     OW37060   2.549   0.746  11.240 -0.1623 -0.5238 -0.4284
 8533SOL    HW137061   2.622   0.719  11.296  0.1236  1.0688 -0.0454
 8533SOL    HW237062   2.480   0.713  11.298 -0.8391  0.2607 -0.7842
 8534SOL     OW37063   1.417   1.714   3.955 -0.3662  0.0305  0.1174
 8534SOL    HW137064   1.447   1.723   3.865  1.0091  0.1101  0.5843
 8534SOL    HW237065   1.483   1.651   3.982 -2.8865 -2.0162  1.5376
 8535SOL     OW37066   0.065   3.264   0.562  0.3634  0.2081 -0.3016
 8535SOL    HW137067   0.141   3.222   0.520  1.4321  1.8802 -0.0466
 8535SOL    HW237068   0.111   3.326   0.619 -2.9797  0.7579  1.7651
 8536SOL     OW37069   2.955   0.808   4.915 -0.9034 -0.5493  0.3958
 8536SOL    HW137070   2.914   0.807   5.001 -2.3487 -2.4612 -0.3081
 8536SOL    HW237071   2.886   0.767   4.863 -0.5049  1.7740 -1.9359
 8537SOL     OW37072   4.426   0.034   5.686 -0.1045  0.6050  0.0280
 8537SOL    HW137073   4.419   4.671   5.724  0.9523  0.5554  0.1197
 8537SOL    HW237074   4.506   0.066   5.727  0.3527 -0.6655  0.1332
 8538SOL     OW37075   4.409   2.416   2.471  0.5277 -0.2855 -0.1679
 8538SOL    HW137076   4.476   2.445   2.533 -0.8329  0.0810  1.1190
 8538SOL    HW237077   4.443   2.466   2.397  2.2356  0.2171  0.9539
 8539SOL     OW37078   0.418   2.185   7.407  0.1862  0.5651  0.1568
 8539SOL    HW137079   0.457   2.242   7.473  1.2530 -1.3050  1.1265
 8539SOL    HW237080   0.333   2.226   7.390  0.2242  0.7858  0.4947
 8540SOL     OW37081   1.038   1.751  16.232  0.3012  0.0158  0.3577
 8540SOL    HW137082   1.106   1.769  16.297 -0.7744 -1.7936  1.9702
 8540SOL    HW237083   0.993   1.674  16.267 -0.8825 -0.6947 -2.7275
 8541SOL     OW37084   4.117   0.130   1.634  0.7570 -0.5475  0.2418
 8541SOL    HW137085   4.090   0.048   1.592  0.7407 -0.0319 -0.7434
 8541SOL    HW237086   4.039   0.178   1.609  1.6532  1.1499  0.7186
 8542SOL     OW37087   3.545   0.383   5.722  0.2036 -0.1232  0.0746
 8542SOL    HW137088   3.639   0.380   5.710  0.3905  3.0070  0.7976
 8542SOL    HW237089   3.514   0.368   5.632  0.4648  0.8971 -0.1866
 8543SOL     OW37090   3.988   0.608  13.268 -0.1646 -0.4416  0.3862
 8543SOL    HW137091   3.894   0.597  13.251 -0.1314  2.0790 -1.5617
 8543SOL    HW237092   4.016   0.529  13.313 -2.2970 -0.0345  2.4325
 8544SOL     OW37093   0.163   1.570   9.324 -0.0660 -0.2370  0.0162
 8544SOL    HW137094   0.245   1.599   9.364 -0.4109  0.7175  0.0240
 8544SOL    HW237095   0.165   1.475   9.339  2.8705 -0.0701  0.6373
 8545SOL     OW37096   1.374   0.436   2.543 -0.3454  0.2872  0.1040
 8545SOL    HW137097   1.404   0.468   2.457 -1.5331 -0.1709 -0.4773
 8545SOL    HW237098   1.296   0.382   2.532 -0.6951  0.6108  1.0068
 8546SOL     OW37099   0.241   0.711   4.091 -0.3618  0.3318  0.3497
 8546SOL    HW137100   0.154   0.748   4.109 -1.5644 -1.3401 -2.0213
 8546SOL    HW237101   0.269   0.681   4.177  1.6797  0.7979 -0.1538
 8547SOL     OW37102   3.983   2.373  11.702  0.1507 -0.5048  0.7836
 8547SOL    HW137103   4.005   2.466  11.697 -0.2161 -0.3549  1.9085
 8547SOL    HW237104   4.035   2.342  11.776  0.2711  0.3451  1.0483
 8548SOL     OW37105   4.176   2.572  10.479 -0.3635 -0.0600  0.0481
 8548SOL    HW137106   4.181   2.661  10.443  2.0763  0.0105  0.5670
 8548SOL    HW237107   4.257   2.538  10.440 -0.0794  1.0931 -0.3558
 8549SOL     OW37108   4.501   4.666   8.780 -0.0643  0.5561  0.3386
 8549SOL    HW137109   4.580   4.613   8.765  0.1295  1.5055 -1.9434
 8549SOL    HW237110   4.435   4.642   8.715  0.2755 -1.7242  0.8203
 8550SOL     OW37111   1.194   2.993   9.808 -0.8213 -0.4252 -0.0217
 8550SOL    HW137112   1.172   2.994   9.901  2.4262 -1.7260  0.7614
 8550SOL    HW237113   1.109   3.011   9.767 -1.2415 -1.6660  0.3085
 8551SOL     OW37114   1.930   0.463  16.822 -0.1077  0.0236 -0.1517
 8551SOL    HW137115   1.839   0.461  16.792  0.4018  2.6932 -1.9027
 8551SOL    HW237116   1.966   0.478  16.734  1.4904  0.3841  0.5562
 8552SOL     OW37117   3.773   2.420  16.933  0.3593  0.2286  0.2232
 8552SOL    HW137118   3.686   2.381  16.943 -1.0396  3.2112  0.0083
 8552SOL    HW237119   3.812   2.402  17.018  1.5854  1.3377 -0.1099
 8553SOL     OW37120   1.424   2.357   4.382 -0.5693 -0.0320  0.4042
 8553SOL    HW137121   1.430   2.402   4.467 -0.2064 -0.6073  0.6796
 8553SOL    HW237122   1.518   2.353   4.363 -0.8005  0.5276 -0.8769
 8554SOL     OW37123   3.539   2.345  10.177  0.4626  0.5018  0.1568
 8554SOL    HW137124   3.520   2.395  10.098  0.1245 -0.5256 -0.4033
 8554SOL    HW237125   3.465   2.286  10.188  0.5488  0.4922  0.7068
 8555SOL     OW37126   0.979   0.693   4.913 -0.0005 -0.1252  0.0535
 8555SOL    HW137127   1.068   0.718   4.890 -0.1336  1.6825  1.4355
 8555SOL    HW237128   0.951   0.638   4.840  1.6926  0.2516 -0.8747
 8556SOL     OW37129   4.291   4.045   5.135 -0.7650  0.3100 -0.2211
 8556SOL    HW137130   4.270   4.132   5.101  1.3105  1.4071  1.2650
 8556SOL    HW237131   4.256   3.990   5.065 -0.5158 -2.0724  1.5695
 8557SOL     OW37132   2.642   1.378   4.909 -0.3532 -0.7691  0.2123
 8557SOL    HW137133   2.652   1.285   4.891  1.0847 -0.4084 -0.8620
 8557SOL    HW237134   2.601   1.380   4.995 -2.0402 -3.1462 -0.5369
 8558SOL     OW37135   3.278   1.350   5.528 -0.1801 -0.3762  0.3088
 8558SOL    HW137136   3.199   1.383   5.570 -0.0162  0.3841  0.0316
 8558SOL    HW237137   3.267   1.349   5.433 -0.0915  0.0735  0.2914
 8559SOL     OW37138   0.587   3.377   0.157  0.6995 -0.1122  0.5505
 8559SOL    HW137139   0.603   3.302   0.214 -2.2588 -0.3283  1.1028
 8559SOL    HW237140   0.493   3.378   0.139  0.6343 -3.0399  0.6599
 8560SOL     OW37141   2.630   0.632   7.847 -0.7013  0.2871 -0.5129
 8560SOL    HW137142   2.569   0.613   7.919  1.3375 -1.6653  0.6952
 8560SOL    HW237143   2.713   0.641   7.894 -0.3285  1.3265 -1.3559
 8561SOL     OW37144   0.707   1.303  17.683  0.1548  1.3067 -0.4447
 8561SOL    HW137145   0.707   1.237  17.614  0.8198  1.0807 -0.2327
 8561SOL    HW237146   0.780   1.360  17.660  0.0734  1.6244  0.0955
 8562SOL     OW37147   0.567   4.244  16.125 -0.3154  0.2628 -0.2121
 8562SOL    HW137148   0.652   4.238  16.168 -1.2889  0.0724  1.6853
 8562SOL    HW237149   0.513   4.287  16.191 -0.4780  0.1257 -0.2544
 8563SOL     OW37150   2.657   3.113   3.738 -0.1036 -0.0644 -0.6090
 8563SOL    HW137151   2.600   3.058   3.685 -0.8329  1.6299 -1.5511
 8563SOL    HW237152   2.617   3.197   3.716  2.0621  1.6886  2.0770
 8564SOL     OW37153   0.319   1.267   8.405  0.3919 -0.6118  0.1735
 8564SOL    HW137154   0.286   1.177   8.408 -0.1651 -0.4187 -0.1367
 8564SOL    HW237155   0.306   1.274   8.310  0.3379  1.6607  0.3544
 8565SOL     OW37156   4.689   1.203   8.244  0.0960  0.5329 -0.0135
 8565SOL    HW137157   0.035   1.164   8.294  2.0665  1.6447 -1.9618
 8565SOL    HW237158   4.700   1.294   8.274 -0.7806  0.9070 -0.8195
 8566SOL     OW37159   3.625   3.257  11.448  0.5682 -0.0015 -0.0385
 8566SOL    HW137160   3.611   3.201  11.371 -1.9511  0.8495 -0.1967
 8566SOL    HW237161   3.617   3.348  11.420  0.0131  0.2807  1.0160
 8567SOL     OW37162   0.093   1.861   0.038 -1.0528 -0.1740  0.0160
 8567SOL    HW137163   0.129   1.930  17.683  0.6784  0.4819  1.8778
 8567SOL    HW237164   0.174   1.815   0.060  0.6043  3.3064  1.3579
 8568SOL     OW37165   4.022   2.230  10.006  0.4507  0.6834 -0.1578
 8568SOL    HW137166   4.061   2.257  10.089  3.1648  0.7535 -1.4458
 8568SOL    HW237167   3.931   2.218  10.031  0.4806 -0.1249 -0.4581
 8569SOL     OW37168   1.613   0.115  12.259  0.4985  0.0111  0.1430
 8569SOL    HW137169   1.617   0.152  12.347  0.5711 -2.1428  1.0545
 8569SOL    HW237170   1.618   0.023  12.286 -0.5367  0.0591  0.5317
 8570SOL     OW37171   3.918   0.283   8.932  0.2186  0.2550  0.0432
 8570SOL    HW137172   3.850   0.313   8.871  1.7227 -0.4603 -1.9687
 8570SOL    HW237173   3.908   0.343   9.007 -1.7051 -1.9558  1.5810
 8571SOL     OW37174   3.995   4.713   0.823  0.1174  0.0461 -0.3716
 8571SOL    HW137175   3.945   0.069   0.830 -1.9199 -1.2955  0.6914
 8571SOL    HW237176   3.985   4.674   0.910  2.4034 -1.5975 -0.8249
 8572SOL     OW37177   1.536   3.999  14.620 -0.0656  0.2062  0.2388
 8572SOL    HW137178   1.452   4.033  14.652 -0.2546 -0.7689  0.7721
 8572SOL    HW237179   1.526   3.985  14.526 -0.2278  0.3538  0.2351
 8573SOL     OW37180   2.418   1.185   8.839  0.0055  0.5670  0.4984
 8573SOL    HW137181   2.447   1.268   8.878 -0.3065  0.2427  1.4350
 8573SOL    HW237182   2.347   1.208   8.779 -1.6763 -1.5990  1.6316
 8574SOL     OW37183   3.174   2.488   7.947 -0.1087  0.0932  0.0324
 8574SOL    HW137184   3.101   2.505   7.888  1.2055  1.2840 -1.2650
 8574SOL    HW237185   3.160   2.547   8.021  0.5229 -1.1037  1.0831
 8575SOL     OW37186   4.625   2.209   2.890 -0.4720 -0.1620 -0.0217
 8575SOL    HW137187   4.610   2.151   2.964 -0.8970 -2.3495 -1.8322
 8575SOL    HW237188   4.568   2.283   2.911 -0.5669  0.5108 -2.6169
 8576SOL     OW37189   0.151   0.724   2.483  0.0492  0.0178 -0.1535
 8576SOL    HW137190   0.238   0.765   2.478 -0.9348  1.8986 -1.9192
 8576SOL    HW237191   0.162   0.640   2.438 -0.8639 -0.0253 -0.2800
 8577SOL     OW37192   4.060   2.016   2.275  0.2803  0.2801  0.3768
 8577SOL    HW137193   4.018   1.932   2.258 -0.9917  0.6090  1.8664
 8577SOL    HW237194   4.066   2.037   2.182 -1.6976  2.1733  0.6756
 8578SOL     OW37195   4.691   2.926   3.846  0.6966 -0.4290 -0.1858
 8578SOL    HW137196   4.647   2.900   3.765 -0.1634  0.9966 -0.1897
 8578SOL    HW237197   4.624   2.986   3.880  0.5358 -0.0280 -1.1914
 8579SOL     OW37198   0.725   1.990   6.066 -0.0098 -0.5563 -0.4979
 8579SOL    HW137199   0.706   2.080   6.093  0.9493 -0.0554 -1.4463
 8579SOL    HW237200   0.638   1.967   6.034 -1.3372  0.4107  2.3966
 8580SOL     OW37201   0.316   3.366   8.046 -0.2345  0.3411 -0.2115
 8580SOL    HW137202   0.259   3.357   8.123 -0.4198 -1.3062 -0.5431
 8580SOL    HW237203   0.393   3.316   8.073 -0.7269  0.8276  2.1255
 8581SOL     OW37204   2.153   3.054   6.241  0.3793  0.0687  0.3426
 8581SOL    HW137205   2.151   2.959   6.254  0.9155 -0.2522 -1.8645
 8581SOL    HW237206   2.099   3.081   6.316 -1.9898 -0.5616 -1.1371
 8582SOL     OW37207   3.362   0.093  14.100 -0.5920 -0.0675  0.4391
 8582SOL    HW137208   3.385   0.133  14.016  2.1996 -0.4756  1.0120
 8582SOL    HW237209   3.368   0.165  14.162 -2.6070 -0.0212  0.5975
 8583SOL     OW37210   1.500   4.631   8.739  0.1263  0.0955 -0.0475
 8583SOL    HW137211   1.540   4.605   8.823 -1.2299 -1.0802  0.2178
 8583SOL    HW237212   1.488   4.724   8.757 -1.5689  0.1441 -1.4998
 8584SOL     OW37213   3.465   0.376   3.239 -0.2097  0.4423 -0.3170
 8584SOL    HW137214   3.427   0.429   3.170  0.7898  1.4300 -0.1056
 8584SOL    HW237215   3.401   0.392   3.309 -1.0537  1.9335 -1.4557
 8585SOL     OW37216   2.269   4.653  14.326  0.0430  0.0487  0.0214
 8585SOL    HW137217   2.316   4.578  14.290  2.5953  0.6358  2.1804
 8585SOL    HW237218   2.244   4.643  14.418 -2.0835  0.1776 -0.5334
 8586SOL     OW37219   3.582   3.314   2.675  0.1335  0.0790  0.7146
 8586SOL    HW137220   3.518   3.385   2.684  2.0724  1.8523  0.6318
 8586SOL    HW237221   3.564   3.296   2.582 -0.5439  1.5711  0.5506
 8587SOL     OW37222   4.115   3.427  11.534  0.3009 -0.6594  0.4752
 8587SOL    HW137223   4.124   3.438  11.629  1.5803 -1.2923  0.4284
 8587SOL    HW237224   4.109   3.517  11.503  0.6297 -0.6585  0.4175
 8588SOL     OW37225   3.581   3.061   2.164 -0.4189  0.2808 -0.7755
 8588SOL    HW137226   3.661   3.113   2.160  0.2906 -0.6519  1.3676
 8588SOL    HW237227   3.571   3.037   2.072 -2.8725 -1.0423 -0.1547
 8589SOL     OW37228   1.027   3.442   8.838 -0.2147 -0.1223 -0.2619
 8589SOL    HW137229   1.017   3.535   8.860  2.1472  0.9408 -3.5178
 8589SOL    HW237230   1.113   3.435   8.880 -0.3655  1.5583  0.3264
 8590SOL     OW37231   0.010   0.426  11.971 -0.0304  0.1613 -0.1906
 8590SOL    HW137232   4.644   0.399  11.958  0.3479 -0.9295 -0.5756
 8590SOL    HW237233   4.725   0.514  12.008 -2.3006 -0.5146  0.7755
 8591SOL     OW37234   4.610   3.300   7.759 -0.4045 -0.0018 -0.1309
 8591SOL    HW137235   4.525   3.290   7.803 -0.4251  1.5601  0.1935
 8591SOL    HW237236   4.641   3.378   7.806  2.1907 -1.2040  0.1182
 8592SOL     OW37237   2.281   0.011   8.999  0.1861 -0.1980 -0.3855
 8592SOL    HW137238   2.188   0.018   9.023  0.8504  0.0422  2.1159
 8592SOL    HW237239   2.288   0.080   8.934  0.2654  0.8030  0.6983
 8593SOL     OW37240   1.737   4.240   0.707 -0.0752 -0.3004 -0.1117
 8593SOL    HW137241   1.710   4.189   0.784 -1.6926  0.7425  0.0152
 8593SOL    HW237242   1.758   4.323   0.750  2.4648  1.0085 -3.8947
 8594SOL     OW37243   3.754   0.439   4.212 -0.4399 -0.1005 -0.1597
 8594SOL    HW137244   3.800   0.415   4.132  1.8251 -0.2818  1.2061
 8594SOL    HW237245   3.763   0.534   4.213  0.1347 -0.1480 -0.8204
 8595SOL     OW37246   4.496   1.538   2.453 -0.3880 -0.1193  0.2754
 8595SOL    HW137247   4.430   1.470   2.467  0.2993 -0.9506 -0.4977
 8595SOL    HW237248   4.458   1.612   2.500  0.7285  1.8619 -1.9993
 8596SOL     OW37249   0.972   0.987  10.591 -0.1037  0.1715  0.3227
 8596SOL    HW137250   1.030   0.916  10.616  0.9629  0.9883  0.1390
 8596SOL    HW237251   0.955   1.024  10.678  0.3565  0.8689  0.1182
 8597SOL     OW37252   1.407   2.401   6.019  0.5067  0.4540  0.1781
 8597SOL    HW137253   1.328   2.375   6.066  0.9763  1.1117  1.3085
 8597SOL    HW237254   1.451   2.453   6.085 -0.8101 -0.1092  1.5083
 8598SOL     OW37255   0.810   1.230   3.787  0.0687  0.1709  0.5034
 8598SOL    HW137256   0.767   1.316   3.782  0.4525  0.3889  1.0518
 8598SOL    HW237257   0.854   1.227   3.702 -0.0289 -1.0899  0.5029
 8599SOL     OW37258   1.973   4.427   8.261 -0.4085  0.6097 -0.4928
 8599SOL    HW137259   1.912   4.495   8.234  1.8371  2.1245 -1.7581
 8599SOL    HW237260   2.044   4.425   8.196  0.4631  0.2086  0.4736
 8600SOL     OW37261   3.915   1.780   3.418  0.0618 -0.0274  0.8657
 8600SOL    HW137262   3.882   1.696   3.450 -0.0863  0.5879  2.3333
 8600SOL    HW237263   3.858   1.844   3.461 -0.2511 -0.2711  0.8148
 8601SOL     OW37264   2.678   1.247  15.998  0.7597 -0.1755 -0.3913
 8601SOL    HW137265   2.758   1.194  15.995 -0.9202 -2.9529  3.4322
 8601SOL    HW237266   2.659   1.256  15.905  0.6922 -1.7419 -0.5334
 8602SOL     OW37267   2.868   2.926   7.362 -0.0674 -0.1267 -0.3173
 8602SOL    HW137268   2.871   3.022   7.354 -0.8447  0.0990  1.9230
 8602SOL    HW237269   2.775   2.903   7.355  0.1158 -1.2598  1.0646
 8603SOL     OW37270   4.566   2.326   3.485  0.2909 -0.3027 -0.1321
 8603SOL    HW137271   4.547   2.242   3.443  2.8720  0.3670 -2.6425
 8603SOL    HW237272   4.662   2.326   3.482  0.2080  1.0038 -2.1476
 8604SOL     OW37273   1.675   0.362  14.116 -0.3099 -0.9003  0.4092
 8604SOL    HW137274   1.643   0.368  14.026  2.7974 -2.6592 -0.8471
 8604SOL    HW237275   1.641   0.445  14.147 -2.5519 -0.8882 -2.0628
 8605SOL     OW37276   1.146   3.812  14.111 -0.0429  0.0580  0.0140
 8605SOL    HW137277   1.059   3.847  14.126  0.5530  1.9219 -0.8601
 8605SOL    HW237278   1.130   3.747  14.042  0.3664 -2.4777  2.2864
 8606SOL     OW37279   3.595   3.381   8.109  0.1063 -0.1337  0.3025
 8606SOL    HW137280   3.558   3.352   8.193  0.5667 -3.5171 -0.6564
 8606SOL    HW237281   3.647   3.450   8.150 -1.2296  0.2236  1.3739
 8607SOL     OW37282   4.098   0.934   7.264 -0.0907  0.8080 -0.0594
 8607SOL    HW137283   4.025   0.911   7.206 -0.3770 -0.1476  0.6903
 8607SOL    HW237284   4.115   1.026   7.245  0.4009  0.5793 -0.7253
 8608SOL     OW37285   1.674   0.728   2.466  0.0522 -0.1120 -0.0684
 8608SOL    HW137286   1.677   0.757   2.557 -0.5104 -2.7375  0.8037
 8608SOL    HW237287   1.763   0.717   2.434  0.0303 -1.4539  0.3025
 8609SOL     OW37288   2.788   2.196   3.717 -0.1475 -0.1231 -0.4333
 8609SOL    HW137289   2.733   2.124   3.747 -0.0940 -0.0766 -0.2236
 8609SOL    HW237290   2.788   2.166   3.626 -2.0231 -0.9998 -0.1473
 8610SOL     OW37291   4.446   3.751  11.772 -0.5050 -0.9209  0.2378
 8610SOL    HW137292   4.456   3.762  11.866  1.8340 -2.7190  0.2148
 8610SOL    HW237293   4.367   3.697  11.771 -0.5340 -0.8782  0.2832
 8611SOL     OW37294   1.507   0.177   7.145  0.1879 -0.1209 -0.7189
 8611SOL    HW137295   1.504   0.205   7.237  1.8400  0.2000 -0.7673
 8611SOL    HW237296   1.594   0.210   7.124  0.6254  0.0918  1.4295
 8612SOL     OW37297   2.113   2.965  15.867  0.0422  0.1614  0.7090
 8612SOL    HW137298   2.048   2.897  15.885  1.1087 -1.0449 -0.0175
 8612SOL    HW237299   2.192   2.924  15.901 -0.6158 -2.1703 -0.6228
 8613SOL     OW37300   0.501   2.387   7.613  0.4907 -0.1340 -0.1574
 8613SOL    HW137301   0.583   2.366   7.569 -0.6749 -4.1451 -0.3882
 8613SOL    HW237302   0.500   2.337   7.695 -0.2720 -1.1842 -0.8146
 8614SOL     OW37303   4.452   2.521   6.933 -0.4358 -0.3789  0.0480
 8614SOL    HW137304   4.432   2.542   7.025  0.6458 -0.8917  0.3983
 8614SOL    HW237305   4.380   2.564   6.887  1.5228  0.9701 -1.7846
 8615SOL     OW37306   3.644   1.543   6.922 -0.0744  0.3979  0.5371
 8615SOL    HW137307   3.598   1.466   6.956 -1.7767  1.7846  1.3346
 8615SOL    HW237308   3.722   1.498   6.889 -0.8751 -0.5500 -0.0682
 8616SOL     OW37309   1.798   3.947  14.678 -0.2725  0.5306  0.5311
 8616SOL    HW137310   1.704   3.954  14.660 -0.9600 -0.1268  3.7861
 8616SOL    HW237311   1.836   4.030  14.649  0.0136  0.3364  0.3538
 8617SOL     OW37312   0.787   3.538   3.046  0.0541 -0.7963 -0.2348
 8617SOL    HW137313   0.881   3.555   3.040  0.0956  0.3869  3.5234
 8617SOL    HW237314   0.771   3.496   2.962 -0.6273 -0.5865 -0.2083
 8618SOL     OW37315   2.296   1.240   9.107 -0.1455  0.5339  0.1179
 8618SOL    HW137316   2.304   1.160   9.160  0.7078  0.7700  0.3496
 8618SOL    HW237317   2.230   1.217   9.042 -0.7486  1.8820  0.2750
 8619SOL     OW37318   1.768   1.441   5.292 -0.3324  0.6186 -0.0422
 8619SOL    HW137319   1.688   1.439   5.344 -0.4635  0.8210 -0.2401
 8619SOL    HW237320   1.755   1.371   5.228  0.7514  0.2174  0.1656
 8620SOL     OW37321   3.639   2.849   7.883  0.0380 -0.0803 -0.3323
 8620SOL    HW137322   3.721   2.810   7.913  1.0563  2.6777  0.4713
 8620SOL    HW237323   3.579   2.776   7.892 -1.1259  0.8958 -0.1598
 8621SOL     OW37324   0.412   4.405  10.405  0.3759 -0.4920  0.4326
 8621SOL    HW137325   0.490   4.375  10.358 -0.0998 -0.3168 -0.4869
 8621SOL    HW237326   0.359   4.426  10.327  0.5236 -1.7977 -0.0282
 8622SOL     OW37327   1.975   2.087   9.384 -0.4153 -0.5641 -0.3936
 8622SOL    HW137328   2.064   2.107   9.353  0.4909 -1.3452  1.7298
 8622SOL    HW237329   1.978   1.993   9.404 -0.4161  0.0712  2.5174
 8623SOL     OW37330   3.776   0.079   2.235  0.8158 -0.2426 -0.1130
 8623SOL    HW137331   3.870   0.087   2.251  0.3215 -0.4222  2.9849
 8623SOL    HW237332   3.769   0.015   2.164 -1.6879  1.4528 -1.3952
 8624SOL     OW37333   4.556   0.238  15.463  0.6266 -0.1569  0.1194
 8624SOL    HW137334   4.545   0.151  15.426  1.2263 -1.0632  2.0996
 8624SOL    HW237335   4.559   0.292  15.384  0.8225 -0.0080  0.2284
 8625SOL     OW37336   1.469   0.726   2.277  0.6650 -0.1861 -0.1729
 8625SOL    HW137337   1.456   0.634   2.300 -1.1073  0.7835  2.6966
 8625SOL    HW237338   1.516   0.753   2.356  1.2201 -2.1983  0.1938
 8626SOL     OW37339   3.689   4.503  10.129 -0.2044 -0.0426  0.1218
 8626SOL    HW137340   3.639   4.577  10.095 -0.7863  0.2929  1.6789
 8626SOL    HW237341   3.682   4.444  10.055 -0.3063  0.6266 -0.3997
 8627SOL     OW37342   2.083   2.276  13.783 -0.3277 -0.4530 -0.0919
 8627SOL    HW137343   2.167   2.282  13.738  0.1549 -1.4034  0.6884
 8627SOL    HW237344   2.085   2.361  13.827  0.1447 -0.3602 -0.2839
 8628SOL     OW37345   3.184   0.202   5.486  0.0472 -0.1805 -0.1118
 8628SOL    HW137346   3.272   0.226   5.458  0.7174 -1.8663  0.6053
 8628SOL    HW237347   3.183   0.246   5.571  2.5712 -0.1201 -0.1258
 8629SOL     OW37348   1.356   4.341   6.009  0.3169  0.2826  0.3505
 8629SOL    HW137349   1.319   4.380   5.931  0.1045 -0.9476 -0.1697
 8629SOL    HW237350   1.328   4.397   6.081  3.4582  1.3073  0.7931
 8630SOL     OW37351   2.859   2.661   1.977  0.1505 -0.2847  0.3232
 8630SOL    HW137352   2.921   2.591   1.959 -2.2978 -2.2977 -0.3905
 8630SOL    HW237353   2.879   2.678   2.069  1.0824  0.7218 -0.0705
 8631SOL     OW37354   3.521   0.516   2.267 -0.9679 -0.1641 -0.3357
 8631SOL    HW137355   3.494   0.454   2.335  2.7830 -1.7073 -0.2531
 8631SOL    HW237356   3.604   0.475   2.244  1.1832  3.5295  0.7537
 8632SOL     OW37357   1.267   3.811   6.067  0.4763  0.2921  0.6015
 8632SOL    HW137358   1.300   3.775   5.984 -3.0015 -1.5836  0.0248
 8632SOL    HW237359   1.207   3.737   6.073 -0.7919  1.2284 -0.3458
 8633SOL     OW37360   1.970   3.230   9.377  0.5845  0.0158 -0.6534
 8633SOL    HW137361   1.969   3.137   9.398  0.6653  0.2589  0.3883
 8633SOL    HW237362   1.954   3.261   9.466  1.6648  0.5505 -0.6488
 8634SOL     OW37363   0.213   1.890   8.184 -0.2151 -0.7374  0.5375
 8634SOL    HW137364   0.172   1.975   8.168  2.0639 -0.0536 -1.5664
 8634SOL    HW237365   0.136   1.838   8.208 -1.9649  1.2675 -0.7935
 8635SOL     OW37366   1.977   2.236   3.341  0.4095 -0.3552 -0.5015
 8635SOL    HW137367   1.923   2.217   3.417 -3.2922 -1.4031 -3.3549
 8635SOL    HW237368   1.945   2.326   3.330 -0.2567 -0.3764  1.2319
 8636SOL     OW37369   1.429   4.003   0.117 -0.0829  0.0090 -0.5811
 8636SOL    HW137370   1.481   4.062   0.171 -0.5897 -0.6900  0.6716
 8636SOL    HW237371   1.425   3.933   0.182 -0.3696 -0.5507 -1.2045
 8637SOL     OW37372   4.199   0.274   2.122  0.1179 -0.7514  0.6614
 8637SOL    HW137373   4.178   0.327   2.045  1.2617 -0.8003  0.3180
 8637SOL    HW237374   4.178   0.186   2.091  0.8167 -1.2804  1.6651
 8638SOL     OW37375   0.948   0.927   2.451  0.8098  0.2036 -0.2622
 8638SOL    HW137376   0.965   1.021   2.439  0.8244  0.3219  0.6800
 8638SOL    HW237377   0.982   0.916   2.539  1.1855 -1.2361 -0.5957
 8639SOL     OW37378   4.719   0.938   4.129  0.1721 -0.4665 -0.1226
 8639SOL    HW137379   0.028   1.027   4.124 -0.8313 -0.1442 -1.2225
 8639SOL    HW237380   4.633   0.949   4.088  0.9391  1.0626 -1.3077
 8640SOL     OW37381   4.071   2.508   2.156 -0.6240  1.0386 -0.2537
 8640SOL    HW137382   3.994   2.539   2.109 -0.4487  0.8032 -0.6953
 8640SOL    HW237383   4.124   2.587   2.157  1.2178 -0.1913  1.0638
 8641SOL     OW37384   1.890   2.194   2.227  0.1644  0.4175 -0.6053
 8641SOL    HW137385   1.812   2.140   2.220 -0.1893  0.8625 -0.0611
 8641SOL    HW237386   1.959   2.138   2.263 -0.2585  0.2591 -0.0502
 8642SOL     OW37387   3.410   1.580   6.387  0.0615  0.2948  0.6829
 8642SOL    HW137388   3.326   1.587   6.433 -0.6093 -1.0311 -0.3426
 8642SOL    HW237389   3.420   1.487   6.367 -1.0643  0.5247 -0.8995
 8643SOL     OW37390   1.520   1.155   7.062  0.7364 -0.1866  0.0501
 8643SOL    HW137391   1.502   1.206   7.141 -0.3796  0.5984 -0.7082
 8643SOL    HW237392   1.615   1.146   7.068  0.5364 -1.6920  0.9910
 8644SOL     OW37393   2.655   1.176  15.485  0.5750  0.0020  0.1394
 8644SOL    HW137394   2.587   1.117  15.519  1.5535 -0.4212  1.3840
 8644SOL    HW237395   2.711   1.116  15.437  0.0714 -0.3586 -0.0003
 8645SOL     OW37396   4.605   0.187   1.839 -0.1542 -0.0249  0.2027
 8645SOL    HW137397   4.533   0.200   1.778 -0.6358  2.1898  1.2302
 8645SOL    HW237398   4.645   0.273   1.857 -0.0194  0.1944 -1.1922
 8646SOL     OW37399   1.969   4.455   2.650 -0.3443 -1.0147  0.0090
 8646SOL    HW137400   2.020   4.465   2.730  0.7378  1.3083 -0.9857
 8646SOL    HW237401   1.936   4.366   2.665 -2.2657 -0.3377 -0.1583
 8647SOL     OW37402   0.641   4.624   6.010  0.1492  0.3859 -0.0971
 8647SOL    HW137403   0.714   4.562   6.008  0.4028  0.5617  3.0887
 8647SOL    HW237404   0.656   4.660   6.098  0.7623  0.6676 -0.3233
 8648SOL     OW37405   4.106   1.641  14.263 -0.1800  0.0493 -0.0123
 8648SOL    HW137406   4.073   1.667  14.177  0.3247  0.4612 -0.0848
 8648SOL    HW237407   4.131   1.728  14.294 -1.7316  0.8975 -1.1112
 8649SOL     OW37408   3.780   3.777   4.571 -0.0276 -0.4508  0.4011
 8649SOL    HW137409   3.797   3.709   4.506 -0.0409  0.3748 -0.4674
 8649SOL    HW237410   3.858   3.830   4.558  0.0979 -0.6363  0.4060
 8650SOL     OW37411   3.300   0.808   4.571 -0.0845  0.2119  0.0687
 8650SOL    HW137412   3.393   0.794   4.556  0.5827  2.3508  2.2352
 8650SOL    HW237413   3.270   0.748   4.503  0.1814  2.7701 -2.3039
 8651SOL     OW37414   3.920   0.623   2.713 -0.2871 -0.0896  0.4059
 8651SOL    HW137415   3.910   0.566   2.637 -0.7245  0.0732  0.3406
 8651SOL    HW237416   3.843   0.607   2.767  0.1634 -2.4296  0.3516
 8652SOL     OW37417   0.511   4.566   1.575 -0.0369  0.4174 -0.2127
 8652SOL    HW137418   0.601   4.536   1.564 -0.6021 -0.8738 -1.3759
 8652SOL    HW237419   0.481   4.551   1.485 -1.9489  0.0813  0.4749
 8653SOL     OW37420   2.478   2.157   4.999  0.2933  0.4560 -0.5908
 8653SOL    HW137421   2.391   2.118   4.988  1.0983 -0.5680 -3.3865
 8653SOL    HW237422   2.528   2.078   5.021 -1.5633 -0.7826 -0.7774
 8654SOL     OW37423   3.907   4.288  17.427  0.2418  0.1554 -0.2805
 8654SOL    HW137424   3.904   4.213  17.368  0.8765 -0.3315  0.3045
 8654SOL    HW237425   3.991   4.281  17.471  1.0770  0.6047 -1.7817
 8655SOL     OW37426   1.222   0.645   8.266 -0.0377 -0.6367 -0.0340
 8655SOL    HW137427   1.265   0.614   8.346  1.2576  1.4344  0.0662
 8655SOL    HW237428   1.294   0.667   8.206  0.6317 -1.1932  0.5608
 8656SOL     OW37429   4.083   3.185  14.614  0.0672 -0.6326  0.1659
 8656SOL    HW137430   4.133   3.144  14.684 -0.8049  2.0879  2.4159
 8656SOL    HW237431   4.131   3.154  14.538  0.3983 -3.1092  1.4087
 8657SOL     OW37432   1.328   1.685  12.730  0.2631 -0.0039  0.4293
 8657SOL    HW137433   1.422   1.694  12.745  0.4132  1.3577 -1.2479
 8657SOL    HW237434   1.292   1.729  12.807 -0.5059 -1.3516  0.8503
 8658SOL     OW37435   1.451   0.274  15.070 -0.4792  0.4726 -0.3442
 8658SOL    HW137436   1.456   0.184  15.103 -0.9018  0.1109 -1.2618
 8658SOL    HW237437   1.511   0.326  15.124 -0.7996 -1.1397  1.5595
 8659SOL     OW37438   4.526   0.427  16.301 -0.0035  0.0895  0.4016
 8659SOL    HW137439   4.571   0.358  16.350 -0.6722 -0.3188  0.4427
 8659SOL    HW237440   4.447   0.437  16.353 -0.8333  1.9890 -1.2346
 8660SOL     OW37441   0.497   2.824   7.851 -0.6670 -0.2605 -0.3681
 8660SOL    HW137442   0.501   2.736   7.889 -0.0245 -0.0544  0.0375
 8660SOL    HW237443   0.415   2.808   7.804 -0.9955 -3.8665  1.4170
 8661SOL     OW37444   0.260   0.518   5.023 -0.1741  0.3453 -0.4239
 8661SOL    HW137445   0.194   0.567   5.072  1.5273  2.6472 -0.4610
 8661SOL    HW237446   0.231   0.521   4.932 -0.7488  0.0943 -0.2501
 8662SOL     OW37447   4.107   4.611   5.999  0.2012 -0.0137 -0.1639
 8662SOL    HW137448   4.192   4.612   6.042  0.0340  0.9423  0.1597
 8662SOL    HW237449   4.039   4.624   6.066 -1.4347  0.0822 -1.8390
 8663SOL     OW37450   4.037   4.150   2.189 -0.0253 -0.3625 -0.1397
 8663SOL    HW137451   4.108   4.086   2.198 -0.3302 -0.4539  1.6192
 8663SOL    HW237452   4.007   4.133   2.100 -1.4644  3.8736 -0.4446
 8664SOL     OW37453   0.449   1.962   9.957  0.2051  0.4185 -0.4738
 8664SOL    HW137454   0.355   1.977   9.946 -0.0100 -0.4913  0.0927
 8664SOL    HW237455   0.443   1.869   9.977 -0.5197 -0.1571 -3.4278
 8665SOL     OW37456   0.701   3.825  10.839 -0.4106  0.2912 -0.2087
 8665SOL    HW137457   0.694   3.837  10.934 -1.4775  0.4746 -0.3074
 8665SOL    HW237458   0.609   3.829  10.810 -0.3487 -1.4896 -0.6603
 8666SOL     OW37459   2.772   2.439  14.966 -0.3583 -0.4798 -0.3186
 8666SOL    HW137460   2.739   2.349  14.976 -3.4174  0.5871 -0.7977
 8666SOL    HW237461   2.749   2.482  15.048  0.8425 -0.3394 -0.0618
 8667SOL     OW37462   0.391   1.060  11.327  0.0220  0.3775 -0.1690
 8667SOL    HW137463   0.380   1.017  11.243 -1.9182  3.3778 -1.4387
 8667SOL    HW237464   0.486   1.063  11.314 -0.1006  2.5990 -0.4152
 8668SOL     OW37465   4.167   1.878   4.555 -0.2426 -0.2667  0.2458
 8668SOL    HW137466   4.091   1.824   4.574  0.4151 -0.5856  1.9397
 8668SOL    HW237467   4.191   1.848   4.467  1.1050  5.9415 -1.5039
 8669SOL     OW37468   4.618   0.338   6.343  0.3023  0.2131  0.3761
 8669SOL    HW137469   4.674   0.336   6.266 -0.0197  2.4222  0.0805
 8669SOL    HW237470   4.555   0.270   6.319 -0.0264  0.3834  0.7501
 8670SOL     OW37471   0.134   1.023   7.947  0.3762  0.0635 -0.7354
 8670SOL    HW137472   0.068   1.011   7.879 -0.5737 -0.7516  0.3500
 8670SOL    HW237473   0.122   1.117   7.956  2.8175  0.2894  0.3855
 8671SOL     OW37474   3.832   2.448   9.634  0.1234  0.5360 -0.2852
 8671SOL    HW137475   3.861   2.461   9.725  1.6244  1.2225 -0.8657
 8671SOL    HW237476   3.747   2.408   9.657  0.3336 -0.8411 -1.9069
 8672SOL     OW37477   0.799   3.558   0.782  0.6748  0.1654 -0.4205
 8672SOL    HW137478   0.844   3.633   0.821 -0.8971  1.3299 -0.8418
 8672SOL    HW237479   0.805   3.584   0.690 -1.8106  2.4317  0.0686
 8673SOL     OW37480   1.644   3.838   4.950  0.4266 -0.3159 -0.3211
 8673SOL    HW137481   1.612   3.814   4.863 -0.0493 -1.0134  0.0418
 8673SOL    HW237482   1.570   3.873   5.001  2.2476  1.7144  0.9219
 8674SOL     OW37483   3.096   1.571   3.558 -0.1795 -0.1836 -0.4748
 8674SOL    HW137484   3.082   1.503   3.624  0.2449  0.7826  0.6063
 8674SOL    HW237485   3.027   1.633   3.583  0.4734  1.4503 -2.7751
 8675SOL     OW37486   1.843   3.457  13.059  1.0894 -0.4305 -0.7945
 8675SOL    HW137487   1.761   3.417  13.031 -0.4959  1.4255  1.2530
 8675SOL    HW237488   1.823   3.495  13.145 -0.5315  2.3418 -2.4080
 8676SOL     OW37489   0.548   0.249  14.029  0.9955  0.8076 -0.2187
 8676SOL    HW137490   0.559   0.343  14.015  0.6713  0.8879  0.0635
 8676SOL    HW237491   0.481   0.231  13.963 -0.5317 -0.0847  1.5696
 8677SOL     OW37492   4.065   4.321   5.243 -0.7976 -0.0417  0.4589
 8677SOL    HW137493   4.159   4.323   5.262 -0.9495  2.0627  1.0056
 8677SOL    HW237494   4.043   4.231   5.220 -1.5234  0.3455 -0.3704
 8678SOL     OW37495   0.616   2.383   9.880 -0.0202  0.3207 -0.4957
 8678SOL    HW137496   0.566   2.317   9.929  1.2522  1.4474  2.3602
 8678SOL    HW237497   0.593   2.460   9.932  0.3204  1.0224 -1.3935
 8679SOL     OW37498   4.062   0.517   0.760  0.1763  0.2591 -0.4994
 8679SOL    HW137499   4.047   0.487   0.670  2.1440  1.5660 -1.2735
 8679SOL    HW237500   4.153   0.544   0.747  0.1431  0.3887 -0.4556
 8680SOL     OW37501   0.736   4.348   8.656 -0.2736 -0.2815 -0.0430
 8680SOL    HW137502   0.766   4.336   8.566 -0.1104  0.9294 -0.1528
 8680SOL    HW237503   0.784   4.287   8.711 -1.2405  0.1279  1.2702
 8681SOL     OW37504   3.581   3.527   9.789 -0.0089 -0.3817 -0.1130
 8681SOL    HW137505   3.553   3.611   9.753  3.0700  0.4512 -0.4894
 8681SOL    HW237506   3.503   3.471   9.783  0.7430 -1.5977  1.4829
 8682SOL     OW37507   3.922   4.090   1.937 -0.0748 -0.2369 -0.3250
 8682SOL    HW137508   3.908   4.017   1.877 -1.3323  1.5277 -2.1791
 8682SOL    HW237509   3.838   4.133   1.920  0.4797  0.5850 -1.0226
 8683SOL     OW37510   2.655   3.369  10.029 -0.5553  0.2572 -0.8363
 8683SOL    HW137511   2.698   3.374  10.115  0.1725  0.6025 -1.2230
 8683SOL    HW237512   2.563   3.375  10.055 -0.1890  0.9716  0.3186
 8684SOL     OW37513   0.974   2.360   4.236 -0.4107  0.2090 -0.1972
 8684SOL    HW137514   0.927   2.395   4.311 -0.1652 -0.6588  0.3643
 8684SOL    HW237515   1.038   2.303   4.280 -0.7012  1.3643  1.6862
 8685SOL     OW37516   3.166   1.218   7.672  0.2250  0.5640 -0.1048
 8685SOL    HW137517   3.125   1.299   7.703  0.6436  1.3428 -1.5946
 8685SOL    HW237518   3.084   1.170   7.660  0.9891 -1.1963  1.8467
 8686SOL     OW37519   1.905   2.718   6.641 -0.3842  0.1623  0.3343
 8686SOL    HW137520   1.999   2.699   6.646 -0.8273 -2.1797  0.1676
 8686SOL    HW237521   1.868   2.645   6.590 -1.4196  0.3046  0.8746
 8687SOL     OW37522   0.047   4.094   4.070  0.1006  0.2828  0.4240
 8687SOL    HW137523   0.108   4.119   4.001  1.4979 -1.8688  0.8798
 8687SOL    HW237524   4.702   4.155   4.046 -1.5899 -1.3199  1.2361
 8688SOL     OW37525   1.511   1.783   6.444  0.0696  0.0939  0.3600
 8688SOL    HW137526   1.529   1.692   6.467 -1.3131 -0.4887 -0.8962
 8688SOL    HW237527   1.592   1.827   6.470 -0.7128 -0.2635  3.3837
 8689SOL     OW37528   3.459   4.301   8.424  0.9024 -0.4926 -0.6452
 8689SOL    HW137529   3.498   4.216   8.403 -1.8528 -2.0692  0.7003
 8689SOL    HW237530   3.436   4.342   8.341  1.9068 -0.1067 -0.7400
 8690SOL     OW37531   1.387   1.702   5.852  0.5222 -0.0205 -0.0234
 8690SOL    HW137532   1.362   1.730   5.764 -1.4740 -2.5978 -0.2636
 8690SOL    HW237533   1.309   1.735   5.896  1.7598  1.9123  0.7501
 8691SOL     OW37534   3.015   2.649   5.658 -0.6638 -0.1318 -0.3013
 8691SOL    HW137535   3.093   2.593   5.661 -0.1596  0.8337  3.6752
 8691SOL    HW237536   3.030   2.711   5.729  0.4709  0.5426 -1.1369
 8692SOL     OW37537   0.590   4.654   7.601  0.2606 -0.1978 -0.0590
 8692SOL    HW137538   0.640   4.608   7.669  0.8972 -0.5909 -0.7983
 8692SOL    HW237539   0.655   4.720   7.577  1.9083 -1.4437  0.9049
 8693SOL     OW37540   0.527   4.625   5.187 -0.1769 -0.1455 -0.3880
 8693SOL    HW137541   0.497   4.657   5.102  3.2429  0.1445 -1.4854
 8693SOL    HW237542   0.447   4.635   5.237 -1.7308  0.2964 -2.9548
 8694SOL     OW37543   4.342   1.647  16.777 -0.2756  0.5959 -0.5220
 8694SOL    HW137544   4.334   1.739  16.801  1.3406  0.3850  0.8420
 8694SOL    HW237545   4.272   1.613  16.833  0.4682 -0.5949 -0.3013
 8695SOL     OW37546   4.044   1.920   0.580 -0.1814  0.4305 -0.5078
 8695SOL    HW137547   4.047   1.861   0.655 -0.0449  2.9418  1.4964
 8695SOL    HW237548   4.136   1.918   0.554 -0.1967 -1.8574 -0.3864
 8696SOL     OW37549   2.540   0.455   2.294 -0.4051  0.4611 -0.2785
 8696SOL    HW137550   2.475   0.487   2.232 -1.0134 -0.1852  0.0290
 8696SOL    HW237551   2.613   0.439   2.235  1.1328 -2.0463  2.2660
 8697SOL     OW37552   0.998   0.621  16.695 -0.1380 -0.1254  0.3419
 8697SOL    HW137553   0.988   0.716  16.685 -1.3040 -0.3663 -0.7581
 8697SOL    HW237554   1.092   0.621  16.714 -0.0011  1.3939 -0.2985
 8698SOL     OW37555   0.022   0.439  16.936  0.6635 -0.2054  0.1962
 8698SOL    HW137556   0.068   0.369  16.889  0.2298  0.6311 -1.4905
 8698SOL    HW237557   4.718   0.397  17.016  0.6188 -0.8501 -0.1567
 8699SOL     OW37558   0.799   1.383  11.892  0.5361 -0.1401 -0.1208
 8699SOL    HW137559   0.882   1.425  11.869  0.5328 -0.0355  0.0605
 8699SOL    HW237560   0.747   1.445  11.943 -0.4051 -0.5095 -0.6297
 8700SOL     OW37561   3.737   0.052   1.168 -0.0029 -0.0219 -0.2163
 8700SOL    HW137562   3.805   0.118   1.176 -0.4714  0.3484  0.7104
 8700SOL    HW237563   3.665   0.102   1.129  0.1404  1.2880  1.1907
 8701SOL     OW37564   4.629   4.318  14.688  0.7168 -0.4650  0.7252
 8701SOL    HW137565   4.547   4.308  14.639  1.4092 -0.5492 -0.4094
 8701SOL    HW237566   4.685   4.353  14.619 -0.7594 -0.5637 -0.5430
 8702SOL     OW37567   3.309   4.206   3.271  0.1349  0.1094 -0.1600
 8702SOL    HW137568   3.264   4.237   3.349 -0.7395 -0.4509 -0.4524
 8702SOL    HW237569   3.398   4.236   3.292  0.1412 -1.3954  1.9438
 8703SOL     OW37570   3.962   2.398  16.146  0.0630 -0.4686  0.9374
 8703SOL    HW137571   4.053   2.427  16.136 -0.4121  0.3542 -1.1213
 8703SOL    HW237572   3.919   2.459  16.205 -1.5601 -0.0746 -0.6478
 8704SOL     OW37573   4.452   0.773   5.024  0.1061 -0.0488  0.1177
 8704SOL    HW137574   4.454   0.868   5.027  1.4964 -0.1221  1.5909
 8704SOL    HW237575   4.392   0.760   5.098 -1.7953 -0.0355 -1.4234
 8705SOL     OW37576   0.898   4.705   4.079 -0.3790 -0.3235 -0.2780
 8705SOL    HW137577   0.827   4.712   4.142 -0.0803  0.1923  0.0047
 8705SOL    HW237578   0.852   0.015   4.003 -1.5171 -1.4578 -0.1106
 8706SOL     OW37579   2.648   0.303   5.831  0.0334  0.2441  0.0724
 8706SOL    HW137580   2.697   0.221   5.829  1.5513  1.0840  3.0348
 8706SOL    HW237581   2.572   0.269   5.783  1.4884  1.3434 -3.0386
 8707SOL     OW37582   0.956   2.146   6.228  0.5268 -0.5019 -0.0895
 8707SOL    HW137583   0.910   2.070   6.193 -1.0158  0.3336  0.1259
 8707SOL    HW237584   0.940   2.150   6.323 -0.1236  2.7498 -0.3388
 8708SOL     OW37585   0.348   1.983   0.203  0.2484  0.0320  0.0832
 8708SOL    HW137586   0.350   2.076   0.224 -0.2295  0.4591 -1.7653
 8708SOL    HW237587   0.306   1.987   0.117  1.9962 -2.2624 -0.8879
 8709SOL     OW37588   2.263   2.072   5.206 -0.6341 -0.5692 -0.2551
 8709SOL    HW137589   2.243   1.993   5.157  0.5264 -0.5077 -0.8357
 8709SOL    HW237590   2.239   2.129   5.134 -1.4382 -0.6940 -0.0843
 8710SOL     OW37591   3.549   3.311   3.771 -0.0070 -0.3980  0.0766
 8710SOL    HW137592   3.478   3.341   3.827  2.1570  2.7117  1.1769
 8710SOL    HW237593   3.625   3.338   3.822 -0.1291  1.2239 -0.6021
 8711SOL     OW37594   1.035   3.781   4.649  0.1322  0.4982 -0.0761
 8711SOL    HW137595   1.053   3.819   4.562 -0.0139  2.1143  0.5914
 8711SOL    HW237596   1.101   3.712   4.645 -0.0495  0.2515  1.5047
 8712SOL     OW37597   3.893   0.117   4.757  0.2674  0.4611  0.1060
 8712SOL    HW137598   3.850   0.191   4.715  0.0366  0.0516 -0.3919
 8712SOL    HW237599   3.942   0.071   4.688  0.8108  1.8498 -0.4314
 8713SOL     OW37600   3.678   2.504   1.360 -0.3062  0.1791  0.0089
 8713SOL    HW137601   3.713   2.418   1.383  1.8001  0.8377 -0.7242
 8713SOL    HW237602   3.766   2.543   1.363 -0.1228 -0.2283 -0.1189
 8714SOL     OW37603   3.047   2.446   3.807 -0.1699 -0.2945  0.2423
 8714SOL    HW137604   3.077   2.360   3.777  0.2330  0.5195 -1.7277
 8714SOL    HW237605   3.040   2.486   3.720  0.4663  1.9299  1.2059
 8715SOL     OW37606   3.809   0.718   6.025 -0.3597  0.0181  0.0463
 8715SOL    HW137607   3.744   0.663   5.980 -0.7283  1.3739 -1.0690
 8715SOL    HW237608   3.808   0.678   6.112 -2.3354  1.4750  0.6771
 8716SOL     OW37609   4.356   1.260   4.655 -0.0073 -0.0011  0.3365
 8716SOL    HW137610   4.410   1.262   4.734 -0.6748  0.2070  0.7896
 8716SOL    HW237611   4.357   1.355   4.645  0.6442 -0.0207  0.2290
 8717SOL     OW37612   0.234   4.229   4.417 -0.2179 -0.1087  0.0950
 8717SOL    HW137613   0.278   4.208   4.334  0.6919 -0.0872  0.5767
 8717SOL    HW237614   0.240   4.323   4.404  1.7566 -0.1890  0.4777
 8718SOL     OW37615   3.377   1.714   8.404 -0.3400  0.1373 -0.2620
 8718SOL    HW137616   3.308   1.772   8.370  1.7966  1.5194 -2.2602
 8718SOL    HW237617   3.325   1.638   8.429  0.4947  0.1079  1.3442
 8719SOL     OW37618   3.880   0.327   7.857  0.2499  0.6397 -0.0030
 8719SOL    HW137619   3.875   0.415   7.820 -1.5182 -0.1284 -1.6107
 8719SOL    HW237620   3.973   0.311   7.842  0.0876  0.4793 -0.8105
 8720SOL     OW37621   1.298   3.965  12.914 -0.6558 -0.3714  0.9210
 8720SOL    HW137622   1.216   3.974  12.962 -0.9927 -0.6393  0.3984
 8720SOL    HW237623   1.309   4.054  12.882  1.6477 -0.4367  1.5050
 8721SOL     OW37624   2.958   1.796   2.808  0.2198 -0.0618 -0.0423
 8721SOL    HW137625   3.010   1.716   2.817  1.8387  1.1687  1.3952
 8721SOL    HW237626   3.024   1.860   2.782 -0.2686  1.7740  3.2374
 8722SOL     OW37627   4.622   3.849   0.231 -0.4386 -0.1231 -0.3003
 8722SOL    HW137628   4.607   3.871   0.139 -1.3987 -0.4029 -0.2085
 8722SOL    HW237629   4.659   3.924   0.276 -0.6193 -0.4183  0.3517
 8723SOL     OW37630   3.172   3.239   2.055  0.5595 -0.1061  0.5480
 8723SOL    HW137631   3.219   3.177   2.111  2.2277  1.2136  0.6151
 8723SOL    HW237632   3.245   3.300   2.047  2.1963 -2.2754 -0.9312
 8724SOL     OW37633   2.369   2.353   9.097 -0.5659 -0.1959 -0.1925
 8724SOL    HW137634   2.431   2.401   9.152 -0.9257 -2.0456  1.8315
 8724SOL    HW237635   2.287   2.390   9.132 -0.6175 -1.0140  0.5400
 8725SOL     OW37636   1.976   4.426   4.429  0.8188 -0.3748  0.1648
 8725SOL    HW137637   1.980   4.505   4.482 -3.3551 -0.5084  0.7167
 8725SOL    HW237638   2.057   4.376   4.440  1.6336  0.5225 -1.8893
 8726SOL     OW37639   4.360   4.353  13.825 -0.1676 -0.1230  0.0248
 8726SOL    HW137640   4.343   4.439  13.865  1.7197 -0.2476  1.1079
 8726SOL    HW237641   4.450   4.337  13.853  0.4920  1.1929 -1.3242
 8727SOL     OW37642   3.957   3.692   1.174 -0.3212  0.0574 -0.0857
 8727SOL    HW137643   3.895   3.708   1.103 -1.1993 -0.0495  0.6402
 8727SOL    HW237644   3.957   3.596   1.182  2.1282 -0.0678 -1.8626
 8728SOL     OW37645   0.308   0.247   1.642 -0.1786  0.0528  0.2532
 8728SOL    HW137646   0.229   0.206   1.607 -0.7946  1.1587  0.3661
 8728SOL    HW237647   0.362   0.168   1.650 -0.4869 -0.3505 -1.6132
 8729SOL     OW37648   0.362   0.640   4.606  0.1548  0.0877  0.1061
 8729SOL    HW137649   0.432   0.576   4.599  0.7059  0.7786 -0.7784
 8729SOL    HW237650   0.303   0.598   4.669  1.2684 -1.8591 -0.1439
 8730SOL     OW37651   4.370   0.545   6.359  0.1538  0.0304 -0.2574
 8730SOL    HW137652   4.411   0.496   6.430 -1.3576 -2.5965 -1.2078
 8730SOL    HW237653   4.334   0.470   6.312  0.3280 -1.1020  1.4262
 8731SOL     OW37654   0.586   0.509  17.595  0.5209  0.1799 -0.0323
 8731SOL    HW137655   0.545   0.427  17.567 -1.9185  1.7211 -0.9410
 8731SOL    HW237656   0.662   0.508  17.537  0.9019 -0.3675  0.4780
 8732SOL     OW37657   4.534   2.226  14.727 -0.3204  0.2922  0.0670
 8732SOL    HW137658   4.535   2.297  14.791 -2.6676  2.6236 -2.4774
 8732SOL    HW237659   4.524   2.275  14.646 -2.6579  0.2888  0.3640
 8733SOL     OW37660   4.581   1.572   2.733 -0.6533 -0.4793  0.0755
 8733SOL    HW137661   4.636   1.613   2.799 -0.0048  1.6650 -1.8107
 8733SOL    HW237662   4.648   1.528   2.680 -0.1767  1.9300 -1.2932
 8734SOL     OW37663   0.693   0.035   6.630  0.3829  0.2769 -0.5700
 8734SOL    HW137664   0.622   0.098   6.645 -0.2856 -0.5989 -0.0451
 8734SOL    HW237665   0.745   0.045   6.710  0.8948  2.8179 -1.2219
 8735SOL     OW37666   3.715   3.615   7.890 -0.3390  0.5016  0.0245
 8735SOL    HW137667   3.702   3.635   7.983  1.0426  1.9224 -0.0816
 8735SOL    HW237668   3.749   3.526   7.895  0.6503  0.8179 -0.9615
 8736SOL     OW37669   2.678   0.789   6.326  0.1131 -0.0961  0.1284
 8736SOL    HW137670   2.621   0.748   6.391 -0.1624 -0.5446 -0.3979
 8736SOL    HW237671   2.613   0.826   6.267  0.0217 -0.2935  0.1059
 8737SOL     OW37672   4.512   2.249   0.385  0.0405 -0.2674  0.0890
 8737SOL    HW137673   4.542   2.340   0.384 -0.5565 -0.0914 -1.4709
 8737SOL    HW237674   4.564   2.223   0.309 -0.2665 -2.2948  0.5854
 8738SOL     OW37675   0.701   3.682  10.583 -0.0073 -0.1259 -0.1093
 8738SOL    HW137676   0.722   3.731  10.662 -0.6247  0.4300 -0.2977
 8738SOL    HW237677   0.621   3.718  10.545 -0.1578 -0.2316  0.1036
 8739SOL     OW37678   2.062   1.737   4.147 -0.0964  0.2347 -0.6141
 8739SOL    HW137679   2.041   1.820   4.104  2.0614  2.3955  2.5115
 8739SOL    HW237680   2.154   1.748   4.168 -0.5548  1.7044  0.6296
 8740SOL     OW37681   3.276   2.973   4.176 -0.3882 -0.6529 -0.2385
 8740SOL    HW137682   3.296   2.996   4.267  0.3601  2.6482 -1.2129
 8740SOL    HW237683   3.212   3.042   4.156  0.3484  1.2407  3.9754
 8741SOL     OW37684   1.540   0.613   7.301  0.0244  0.8274 -0.7067
 8741SOL    HW137685   1.575   0.561   7.228  0.0122 -0.5508  0.2785
 8741SOL    HW237686   1.569   0.703   7.285 -1.4399  1.1069 -1.7431
 8742SOL     OW37687   2.889   0.376   0.602 -0.2288  0.2843 -0.2028
 8742SOL    HW137688   2.940   0.302   0.570 -2.0814 -1.6427  1.3243
 8742SOL    HW237689   2.898   0.358   0.696  3.3915 -0.1718 -0.6405
 8743SOL     OW37690   4.086   0.084   5.096 -0.0142 -0.7700  0.5691
 8743SOL    HW137691   4.172   0.041   5.095  0.6624  0.6152 -2.8925
 8743SOL    HW237692   4.037   0.047   5.023 -0.5973 -0.3556  0.7526
 8744SOL     OW37693   1.319   2.335   7.642 -0.1255  0.3768  0.0852
 8744SOL    HW137694   1.279   2.274   7.704 -3.4567  0.4997 -1.9235
 8744SOL    HW237695   1.268   2.412   7.668 -1.0216 -0.0835 -0.3064
 8745SOL     OW37696   1.146   2.819   6.449 -0.1681 -0.0165 -1.0474
 8745SOL    HW137697   1.159   2.748   6.511  0.2266 -0.1237 -1.2582
 8745SOL    HW237698   1.239   2.839   6.442  0.0015  0.2743  1.9433
 8746SOL     OW37699   3.595   1.224   6.569 -0.5647  0.0995 -0.5400
 8746SOL    HW137700   3.629   1.215   6.657  0.1650 -1.4491 -0.9775
 8746SOL    HW237701   3.674   1.252   6.521 -1.4619  1.4973 -1.2128
 8747SOL     OW37702   0.789   4.054   9.412 -0.0478 -0.0024  0.1187
 8747SOL    HW137703   0.788   3.960   9.430 -1.7684 -0.0835 -0.4094
 8747SOL    HW237704   0.856   4.077   9.476  0.5674 -0.7108 -0.2743
 8748SOL     OW37705   4.578   3.003   6.657 -0.4489  0.4600  0.0881
 8748SOL    HW137706   4.614   2.917   6.680 -0.1816  0.1660 -1.4079
 8748SOL    HW237707   4.489   2.976   6.683  0.5192 -1.1686  1.7106
 8749SOL     OW37708   2.579   2.782  13.671 -0.3352  0.0642  0.2621
 8749SOL    HW137709   2.643   2.812  13.606  0.2747 -0.7225  0.5010
 8749SOL    HW237710   2.596   2.838  13.746  0.1997  0.0604  0.1409
 8750SOL     OW37711   1.887   0.459   4.775  0.3096 -0.0676 -0.2206
 8750SOL    HW137712   1.835   0.535   4.750  0.6941  0.9964  2.1085
 8750SOL    HW237713   1.819   0.412   4.822 -1.5837  0.3834 -2.5368
 8751SOL     OW37714   1.320   0.753  12.639 -0.1925 -0.2174 -0.0092
 8751SOL    HW137715   1.358   0.723  12.557 -0.7990  0.6358 -0.5977
 8751SOL    HW237716   1.228   0.772  12.621  0.3745  0.0854 -2.6165
 8752SOL     OW37717   4.658   1.892   2.527 -0.4771 -0.1661 -0.8526
 8752SOL    HW137718   4.626   1.976   2.559  0.9855 -0.2555  0.8771
 8752SOL    HW237719   4.705   1.909   2.446  2.5214 -1.6265  0.5320
 8753SOL     OW37720   2.953   3.707   4.938 -0.8511 -0.2327  0.3417
 8753SOL    HW137721   2.915   3.628   4.977  0.0938 -0.1811  1.3694
 8753SOL    HW237722   3.012   3.676   4.869  1.7085 -0.9147  2.8205
 8754SOL     OW37723   1.821   4.663  12.349  0.2639 -0.0320 -0.2322
 8754SOL    HW137724   1.807   4.569  12.359 -0.3994 -0.1094 -1.8754
 8754SOL    HW237725   1.894   4.683  12.408 -1.1458  1.8652  0.9097
 8755SOL     OW37726   1.637   1.530   6.507  0.0411  0.6910  0.1714
 8755SOL    HW137727   1.585   1.488   6.439 -0.9266 -1.3387  2.1361
 8755SOL    HW237728   1.578   1.534   6.582 -0.4373  0.0914 -0.1720
 8756SOL     OW37729   2.641   1.945   2.592  0.0233  0.1261  0.0856
 8756SOL    HW137730   2.592   2.026   2.575 -0.7585  0.1159  2.2840
 8756SOL    HW237731   2.642   1.959   2.686 -1.3020  2.0976 -0.1883
 8757SOL     OW37732   2.592   4.303   3.397  0.2468 -0.3877 -0.0262
 8757SOL    HW137733   2.650   4.239   3.355  0.7290  2.3946 -3.5759
 8757SOL    HW237734   2.533   4.243   3.442 -0.3192  1.4683  1.6828
 8758SOL     OW37735   1.300   2.709   8.753  0.1740  0.1258 -0.3119
 8758SOL    HW137736   1.367   2.646   8.778  1.3289  1.5389  0.1283
 8758SOL    HW237737   1.226   2.652   8.773 -0.9338  1.6381 -0.0758
 8759SOL     OW37738   2.404   3.832   4.235 -0.3766 -0.6635  0.0273
 8759SOL    HW137739   2.320   3.875   4.252 -0.5127 -1.1526  0.6011
 8759SOL    HW237740   2.381   3.748   4.196 -0.4610 -1.0457  0.9115
 8760SOL     OW37741   3.097   0.498   4.610 -0.8383 -0.0488  0.6563
 8760SOL    HW137742   3.100   0.421   4.554  0.1800  0.5401 -0.1178
 8760SOL    HW237743   3.005   0.513   4.633 -1.0783 -1.0258  0.3009
 8761SOL     OW37744   4.461   1.084  17.241  0.3241 -0.0789  0.0609
 8761SOL    HW137745   4.535   1.117  17.293  0.0489 -0.2080  0.5294
 8761SOL    HW237746   4.478   1.118  17.153 -0.4303  0.6694  0.1980
 8762SOL     OW37747   2.085   1.297   6.047 -0.0366 -0.4903  0.1804
 8762SOL    HW137748   2.072   1.344   6.129  1.9005 -3.0869  1.9647
 8762SOL    HW237749   2.168   1.331   6.013  0.2649 -1.1283  0.2812
 8763SOL     OW37750   3.513   3.001   5.053 -0.1070  0.6459  0.1922
 8763SOL    HW137751   3.424   2.995   5.018  0.1914 -0.1895 -0.4285
 8763SOL    HW237752   3.511   3.086   5.098 -0.6497  0.9166 -0.3465
 8764SOL     OW37753   0.925   1.226  12.588  0.4482 -0.2170 -0.0383
 8764SOL    HW137754   0.938   1.226  12.683  0.9308  0.2770 -0.1074
 8764SOL    HW237755   0.923   1.131  12.579 -1.6304 -0.1021 -0.8332
 8765SOL     OW37756   4.398   2.248   8.445  0.2287  0.1962  0.3554
 8765SOL    HW137757   4.323   2.277   8.497  0.0325 -0.6063  0.5206
 8765SOL    HW237758   4.471   2.257   8.506  0.3542 -2.2148  0.5356
 8766SOL     OW37759   4.579   0.136   6.103 -0.9095 -0.4580 -0.0970
 8766SOL    HW137760   4.663   0.093   6.118 -0.2787  0.3261 -1.3925
 8766SOL    HW237761   4.570   0.171   6.015  0.7991 -1.3426 -0.6216
 8767SOL     OW37762   1.440   1.262   2.174  0.5313  0.3603  1.2945
 8767SOL    HW137763   1.352   1.272   2.137  1.2009 -1.0383 -0.6302
 8767SOL    HW237764   1.456   1.168   2.174 -1.0483  0.0973  1.1938
 8768SOL     OW37765   2.725   0.620   1.850 -0.4201  0.4818 -0.0333
 8768SOL    HW137766   2.677   0.669   1.917  0.6815 -0.6978  1.6150
 8768SOL    HW237767   2.767   0.693   1.803  1.6897  0.9592  2.5675
 8769SOL     OW37768   1.939   0.171   6.038  0.1349  0.6620 -0.4221
 8769SOL    HW137769   1.951   0.266   6.036  0.4740  0.5792 -2.2685
 8769SOL    HW237770   1.945   0.157   6.133  0.3191 -0.5098 -0.6163
 8770SOL     OW37771   2.826   1.434   7.428  0.2590  0.1565  0.3319
 8770SOL    HW137772   2.827   1.487   7.349 -2.3471  0.8076  0.7155
 8770SOL    HW237773   2.794   1.500   7.490  0.4737  0.7301 -0.1688
 8771SOL     OW37774   1.488   4.041  15.056  0.6897  0.7129 -0.2070
 8771SOL    HW137775   1.520   4.107  14.995  1.9538  0.7272  0.4640
 8771SOL    HW237776   1.479   3.969  14.994  0.1518  1.3805 -0.9024
 8772SOL     OW37777   1.565   3.148  13.317 -0.3041  0.0955 -0.0529
 8772SOL    HW137778   1.646   3.184  13.281 -0.7997  0.9545 -0.3148
 8772SOL    HW237779   1.582   3.054  13.314  0.0641  0.1038  1.7964
 8773SOL     OW37780   2.629   3.603   7.602 -0.5581 -0.1079  0.3476
 8773SOL    HW137781   2.690   3.534   7.631 -2.6238 -1.8824  0.5075
 8773SOL    HW237782   2.696   3.668   7.581 -1.3511 -0.2565 -2.5254
 8774SOL     OW37783   2.357   3.656   1.254 -0.1686  0.2578  0.4238
 8774SOL    HW137784   2.313   3.632   1.172  1.4937 -0.4848 -0.2536
 8774SOL    HW237785   2.439   3.690   1.218 -0.7225  1.9278  0.7018
 8775SOL     OW37786   2.510   3.997   3.818 -0.2994  0.3679  0.0485
 8775SOL    HW137787   2.585   4.023   3.765 -2.1120  0.1379 -2.6583
 8775SOL    HW237788   2.440   3.974   3.757  0.9216  1.8318 -1.9128
 8776SOL     OW37789   3.085   3.831  10.537  0.1564 -0.2818 -0.2557
 8776SOL    HW137790   3.052   3.841  10.626 -1.7207  1.4471 -1.1397
 8776SOL    HW237791   3.007   3.792  10.497 -0.7537  1.9939 -0.7045
 8777SOL     OW37792   0.620   4.344  10.256  0.3337  0.9979  0.3276
 8777SOL    HW137793   0.705   4.380  10.279  0.9251  0.9437 -1.7044
 8777SOL    HW237794   0.646   4.279  10.191  0.2433 -1.5783  2.9158
 8778SOL     OW37795   1.167   1.114  12.203 -0.0891 -0.3684 -0.6613
 8778SOL    HW137796   1.196   1.034  12.247 -1.6376  0.4727  1.8945
 8778SOL    HW237797   1.254   1.150  12.188 -0.5870  0.4767 -1.5222
 8779SOL     OW37798   1.649   4.000   6.772  0.0964 -0.3782 -0.1679
 8779SOL    HW137799   1.708   3.997   6.848 -1.7680 -0.0305  1.2746
 8779SOL    HW237800   1.568   3.966   6.808 -0.3849  2.3070  1.2419
 8780SOL     OW37801   3.357   3.412   4.191  0.0227  0.0794 -0.2171
 8780SOL    HW137802   3.442   3.415   4.233  0.0165  1.4474 -0.2980
 8780SOL    HW237803   3.377   3.376   4.105  0.6095 -1.5367  0.6026
 8781SOL     OW37804   0.949   3.033   5.734 -0.6643  0.0821  0.7102
 8781SOL    HW137805   1.016   2.965   5.745  0.2943  0.6261 -1.7142
 8781SOL    HW237806   0.994   3.112   5.765  0.2021 -0.5734  1.1265
 8782SOL     OW37807   3.925   4.209   3.217  0.9256 -0.1428 -0.5730
 8782SOL    HW137808   3.920   4.223   3.312  0.4898 -0.8141 -0.4989
 8782SOL    HW237809   3.995   4.143   3.217  1.7094  0.6878  1.7347
 8783SOL     OW37810   4.160   0.155   8.904 -0.2680  0.5033 -0.0152
 8783SOL    HW137811   4.144   0.061   8.894  1.2656  0.2503 -0.0366
 8783SOL    HW237812   4.072   0.187   8.923 -0.5771 -1.1809  1.4285
 8784SOL     OW37813   3.683   0.044  11.886  0.3706 -0.0262 -0.0538
 8784SOL    HW137814   3.660   0.121  11.833 -2.8300 -0.2496  0.9685
 8784SOL    HW237815   3.629   4.702  11.843  1.3503 -0.6059 -0.3742
 8785SOL     OW37816   2.928   4.306   3.960 -0.5070 -0.4132 -0.1254
 8785SOL    HW137817   2.996   4.305   4.026 -1.1015  0.6818  0.4968
 8785SOL    HW237818   2.982   4.333   3.886  1.0942 -1.6232  0.6079
 8786SOL     OW37819   3.735   1.456   0.179 -0.3715  0.3816 -0.3620
 8786SOL    HW137820   3.770   1.387   0.236 -0.7877  1.5220  1.2778
 8786SOL    HW237821   3.756   1.534   0.231 -2.1093  1.0896 -0.7346
 8787SOL     OW37822   3.152   3.761   3.337 -0.5198 -0.4759 -0.1647
 8787SOL    HW137823   3.136   3.682   3.284 -2.6202 -0.1509 -0.0146
 8787SOL    HW237824   3.129   3.833   3.279 -2.3903 -0.0732  1.0824
 8788SOL     OW37825   0.227   3.303  16.148 -0.6309  0.3929 -0.0879
 8788SOL    HW137826   0.181   3.371  16.197 -0.7540  0.5284 -0.3938
 8788SOL    HW237827   0.308   3.297  16.198 -0.3174  0.4953 -0.5844
 8789SOL     OW37828   1.915   3.533  16.451  0.1082  0.7183 -0.4109
 8789SOL    HW137829   1.993   3.477  16.445 -1.1576 -1.2548  1.3782
 8789SOL    HW237830   1.846   3.468  16.466 -0.1907  1.0784 -0.2559
 8790SOL     OW37831   4.197   3.813   6.048  0.5217  0.2874 -0.2130
 8790SOL    HW137832   4.193   3.721   6.078 -1.4427  0.7729  1.0371
 8790SOL    HW237833   4.216   3.842   6.138 -0.4567  1.8207 -0.5135
 8791SOL     OW37834   0.688   3.292   1.917 -0.2297  0.3555 -0.2509
 8791SOL    HW137835   0.717   3.332   1.999 -1.4080  1.6244 -0.4666
 8791SOL    HW237836   0.616   3.350   1.892 -1.7598 -0.1226  3.1194
 8792SOL     OW37837   0.625   4.512   9.190  0.2820  0.5592  0.1929
 8792SOL    HW137838   0.655   4.511   9.099 -0.5242  1.9095 -0.0919
 8792SOL    HW237839   0.703   4.485   9.237 -0.2432 -0.6960  0.3347
 8793SOL     OW37840   4.547   1.709   4.381  0.4632 -0.1830 -0.6747
 8793SOL    HW137841   4.491   1.635   4.402  0.2792  0.1307 -0.0578
 8793SOL    HW237842   4.498   1.779   4.425 -0.5845 -0.4705 -1.3999
 8794SOL     OW37843   3.486   1.286   8.562  0.1940  0.3598 -0.4525
 8794SOL    HW137844   3.456   1.195   8.555 -0.4976  0.5396  0.1561
 8794SOL    HW237845   3.579   1.265   8.553 -0.3537 -1.8929 -0.7606
 8795SOL     OW37846   3.235   1.800   3.983  0.2723  0.2007 -0.2345
 8795SOL    HW137847   3.284   1.865   4.035 -0.3998  1.3666 -1.0602
 8795SOL    HW237848   3.307   1.753   3.941  0.4416 -1.0579  1.4363
 8796SOL     OW37849   2.895   1.487  15.004 -0.5425  0.2169 -0.2683
 8796SOL    HW137850   2.956   1.482  15.076 -2.1234 -0.0214  1.0521
 8796SOL    HW237851   2.950   1.461  14.930  0.3513 -0.6121  0.7156
 8797SOL     OW37852   4.568   0.051   7.128  0.2593  0.2485  0.4469
 8797SOL    HW137853   4.554   0.145   7.120 -1.8164 -0.0116  0.9910
 8797SOL    HW237854   4.486   0.030   7.173 -0.2594  1.5693  0.1180
 8798SOL     OW37855   2.069   3.098   0.317 -0.3379 -0.5531 -0.1270
 8798SOL    HW137856   2.121   3.162   0.366  0.9928 -0.1920 -2.0065
 8798SOL    HW237857   1.990   3.147   0.295 -1.6464 -3.0417 -0.8980
 8799SOL     OW37858   2.152   2.861   4.509  0.1561 -0.0512 -0.0105
 8799SOL    HW137859   2.078   2.829   4.560  0.1480 -0.9001 -0.5453
 8799SOL    HW237860   2.199   2.778   4.518 -2.2365 -1.6409 -1.9476
 8800SOL     OW37861   3.235   3.580   8.662 -0.1099 -0.2132 -0.7374
 8800SOL    HW137862   3.159   3.570   8.720 -1.1700  1.6057 -1.7993
 8800SOL    HW237863   3.204   3.535   8.583 -0.9223 -1.0658  0.0697
 8801SOL     OW37864   1.724   0.393   9.300  0.5139 -0.0350  0.1740
 8801SOL    HW137865   1.678   0.372   9.219 -0.8732  0.2863  0.8831
 8801SOL    HW237866   1.718   0.487   9.280 -0.2417  0.1455  1.2826
 8802SOL     OW37867   1.669   1.618   2.430 -0.0591  0.0758 -0.0036
 8802SOL    HW137868   1.760   1.592   2.415 -0.3268  0.2007 -1.7758
 8802SOL    HW237869   1.623   1.537   2.408  1.6582 -0.1128 -2.8229
 8803SOL     OW37870   4.191   1.955   5.022 -0.1246 -0.2094 -0.2694
 8803SOL    HW137871   4.147   2.019   4.967 -0.8127  0.5562  1.1581
 8803SOL    HW237872   4.285   1.963   5.007 -0.7217  2.6434 -2.3736
 8804SOL     OW37873   2.571   2.367   3.249  0.4050  0.3346 -0.0713
 8804SOL    HW137874   2.487   2.408   3.229  0.8288  2.5594  2.5886
 8804SOL    HW237875   2.554   2.277   3.221  1.5696 -0.1241  0.6570
 8805SOL     OW37876   2.675   4.557   5.004  0.0790  0.0726 -0.3946
 8805SOL    HW137877   2.698   4.523   4.918 -0.1924  1.0405 -0.8438
 8805SOL    HW237878   2.768   4.560   5.028  0.2293 -0.9166 -0.8584
 8806SOL     OW37879   2.444   3.524  10.492 -0.3616 -0.0601  0.7446
 8806SOL    HW137880   2.359   3.542  10.452  0.3880  0.7606 -0.4955
 8806SOL    HW237881   2.427   3.430  10.504  1.7235 -0.5244  0.1571
 8807SOL     OW37882   0.389   4.224   3.209 -0.0006 -0.2698 -0.4152
 8807SOL    HW137883   0.311   4.223   3.265 -0.6787  2.5818 -1.3335
 8807SOL    HW237884   0.439   4.159   3.259  0.1013 -0.3473 -0.6179
 8808SOL     OW37885   1.205   2.632   3.696  0.6975 -0.2355 -0.3415
 8808SOL    HW137886   1.154   2.701   3.653  1.2396  1.1166  1.1622
 8808SOL    HW237887   1.223   2.567   3.629 -1.2177  0.3135 -1.3890
 8809SOL     OW37888   0.464   4.043   6.338 -0.0493 -0.3816  0.0585
 8809SOL    HW137889   0.486   4.099   6.412  2.6028 -0.1256 -0.9243
 8809SOL    HW237890   0.440   3.963   6.385  0.2259  0.9228  2.4252
 8810SOL     OW37891   3.903   0.304   1.574  0.4064 -0.2947  0.1787
 8810SOL    HW137892   3.897   0.391   1.536  0.9340  0.0428  0.8730
 8810SOL    HW237893   3.813   0.272   1.580  0.3397 -0.6187 -2.3624
 8811SOL     OW37894   4.106   4.698   2.943 -0.3687  0.0642  0.0739
 8811SOL    HW137895   4.167   0.042   2.918 -1.1852  0.0108 -2.0447
 8811SOL    HW237896   4.152   4.655   3.016  0.1034  2.9756  1.4666
 8812SOL     OW37897   4.354   2.027   8.006 -0.1717 -0.0795 -0.0470
 8812SOL    HW137898   4.320   2.056   8.091 -2.9836  0.9045 -1.4925
 8812SOL    HW237899   4.442   2.003   8.034  0.0291  0.5737 -0.1112
 8813SOL     OW37900   2.494   1.878  10.635 -0.5577  0.5066 -0.0032
 8813SOL    HW137901   2.477   1.902  10.544  0.2935  4.7422  0.9665
 8813SOL    HW237902   2.482   1.783  10.634  2.1474  0.1873 -2.0480
 8814SOL     OW37903   2.987   3.773  11.035  0.7343 -0.0025 -0.0365
 8814SOL    HW137904   2.896   3.797  11.016  1.1866 -0.0035 -2.1217
 8814SOL    HW237905   2.975   3.679  11.049 -1.8131  0.0829 -1.7279
 8815SOL     OW37906   1.512   1.088   5.892 -0.0639  0.3904 -0.2030
 8815SOL    HW137907   1.590   1.107   5.841 -0.5153 -0.1232 -1.0695
 8815SOL    HW237908   1.545   1.022   5.953  0.0280 -1.1979 -1.9734
 8816SOL     OW37909   3.666   4.024   9.562  0.0189  0.3474  0.3807
 8816SOL    HW137910   3.579   4.035   9.601  0.3719 -0.8791  1.4962
 8816SOL    HW237911   3.725   4.004   9.634 -0.1248 -1.9264 -0.1267
 8817SOL     OW37912   0.573   3.905  10.268 -0.1928 -0.0192 -0.1505
 8817SOL    HW137913   0.567   3.963  10.344  0.1684  0.9540 -0.8685
 8817SOL    HW237914   0.584   3.967  10.197  1.2040  0.3937  0.4348
 8818SOL     OW37915   0.443   4.483  15.235 -0.0053 -0.0831 -0.2660
 8818SOL    HW137916   0.466   4.478  15.142  1.5024  3.7124 -0.1052
 8818SOL    HW237917   0.392   4.564  15.236  1.1532  0.6265  1.8183
 8819SOL     OW37918   4.441   4.348   8.040 -0.3564  0.4617 -0.1904
 8819SOL    HW137919   4.458   4.383   7.952  0.7102 -1.1155 -0.6159
 8819SOL    HW237920   4.370   4.288   8.015 -0.2961  0.1202  0.4694
 8820SOL     OW37921   0.593   0.732  12.735 -0.2129  0.8553  0.1920
 8820SOL    HW137922   0.600   0.655  12.678 -2.6489  1.3304 -0.7362
 8820SOL    HW237923   0.570   0.801  12.674 -0.1748  0.3200 -0.4273
 8821SOL     OW37924   1.885   1.023   3.367  0.1626 -0.3811  0.5412
 8821SOL    HW137925   1.958   1.084   3.379 -2.0137  1.8807  2.3036
 8821SOL    HW237926   1.802   1.070   3.359  0.1928 -0.3689  0.2962
 8822SOL     OW37927   0.952   0.621  15.774  0.5273 -0.5332  0.0414
 8822SOL    HW137928   0.872   0.609  15.723  0.4174  0.3048  0.0252
 8822SOL    HW237929   0.930   0.709  15.803 -0.8844 -1.2029  0.9808
 8823SOL     OW37930   4.244   1.549   0.059 -0.4423 -0.2918 -0.6777
 8823SOL    HW137931   4.176   1.595   0.108  0.7315  0.2885  0.4040
 8823SOL    HW237932   4.280   1.497   0.131  1.5903  3.1354  0.7538
 8824SOL     OW37933   4.675   3.350  15.959 -0.6481 -0.0117 -0.0078
 8824SOL    HW137934   0.024   3.297  15.988 -0.0539  1.7850  1.7566
 8824SOL    HW237935   4.627   3.383  16.035  1.3154  1.4817  0.5751
 8825SOL     OW37936   0.542   2.641   2.262 -0.2446  0.3319  0.3027
 8825SOL    HW137937   0.448   2.625   2.250  0.3724 -2.2928 -1.2419
 8825SOL    HW237938   0.575   2.599   2.182  0.7310 -0.5386  1.1680
 8826SOL     OW37939   2.541   0.361   6.669 -0.0283  0.3724  0.0586
 8826SOL    HW137940   2.588   0.440   6.641  0.5859  0.6976  1.9890
 8826SOL    HW237941   2.570   0.285   6.619 -0.4320 -0.2069  0.7090
 8827SOL     OW37942   2.869   0.867   1.789 -0.2040 -0.6067 -0.7069
 8827SOL    HW137943   2.881   0.871   1.694  0.9541 -0.0419 -0.5428
 8827SOL    HW237944   2.837   0.956   1.804  0.2699 -0.4815 -0.4281
 8828SOL     OW37945   3.515   1.717   8.003  0.0290  1.2065  0.4608
 8828SOL    HW137946   3.451   1.648   7.987 -0.2332  1.6838 -0.5411
 8828SOL    HW237947   3.466   1.787   8.048  0.8651  1.9273  0.2458
 8829SOL     OW37948   1.960   1.002   2.571  0.4839  0.3606  0.1638
 8829SOL    HW137949   1.979   0.922   2.523  1.8461 -0.1622  1.5632
 8829SOL    HW237950   1.899   0.970   2.638 -0.2682  2.4112  0.4703
 8830SOL     OW37951   2.329   1.833  14.715  0.4436  0.1999 -0.1877
 8830SOL    HW137952   2.291   1.749  14.691 -0.0678  0.8110 -1.5154
 8830SOL    HW237953   2.360   1.815  14.804  2.7254 -1.3655 -1.2890
 8831SOL     OW37954   1.032   1.853  15.344 -0.3749  0.6253 -0.4020
 8831SOL    HW137955   1.018   1.850  15.439  0.8794  0.9829 -0.2082
 8831SOL    HW237956   1.067   1.942  15.336 -1.5596  1.0381 -0.9452
 8832SOL     OW37957   3.917   1.333   2.717  0.2678 -0.3744 -0.1208
 8832SOL    HW137958   3.893   1.253   2.671  1.8388 -0.5574 -0.6232
 8832SOL    HW237959   3.975   1.301   2.786  0.9683  2.1182  0.4223
 8833SOL     OW37960   0.204   2.455  12.819  0.1887 -0.5719 -0.2109
 8833SOL    HW137961   0.210   2.419  12.907  1.7492 -3.6671 -1.5904
 8833SOL    HW237962   0.114   2.489  12.813  0.1522 -0.4501  1.0928
 8834SOL     OW37963   2.880   1.108  17.370 -0.3692 -0.1394  0.4556
 8834SOL    HW137964   2.848   1.069  17.289  1.1690 -2.6938  1.1158
 8834SOL    HW237965   2.863   1.200  17.350  0.7939 -0.2695 -1.0610
 8835SOL     OW37966   2.183   3.022  12.903  0.2791 -0.5478  0.2809
 8835SOL    HW137967   2.237   3.086  12.857  0.0914  1.1239  2.3924
 8835SOL    HW237968   2.140   2.979  12.829  0.8987 -0.7300  0.0319
 8836SOL     OW37969   3.278   0.090  12.943 -0.3974  0.0236  0.3972
 8836SOL    HW137970   3.245   0.012  12.899 -2.6083  2.0023 -1.5177
 8836SOL    HW237971   3.220   0.095  13.019 -0.5149 -0.2999  0.3281
 8837SOL     OW37972   0.423   4.085   8.556 -0.3311 -0.2071 -0.1023
 8837SOL    HW137973   0.417   4.115   8.465 -3.4266  1.0077  0.5035
 8837SOL    HW237974   0.352   4.021   8.562 -1.8161  1.3805 -0.6872
 8838SOL     OW37975   1.313   0.752  11.787 -0.1848 -0.3916  0.2895
 8838SOL    HW137976   1.255   0.779  11.858  2.5474  1.1395  1.9464
 8838SOL    HW237977   1.356   0.673  11.819 -0.6782 -1.0685 -0.7030
 8839SOL     OW37978   3.387   0.978   3.723  0.2074 -0.9850  0.6114
 8839SOL    HW137979   3.401   1.064   3.683 -0.5902  0.5753  3.6776
 8839SOL    HW237980   3.393   0.927   3.642  0.7926  0.0901 -0.0158
 8840SOL     OW37981   3.459   4.502   3.882 -0.1817  0.1210  0.2661
 8840SOL    HW137982   3.421   4.488   3.969 -1.4532 -0.0405 -0.3163
 8840SOL    HW237983   3.395   4.562   3.844 -0.0224 -0.2580 -0.6077
 8841SOL     OW37984   2.716   2.120   8.689 -0.2813  0.7222  0.1686
 8841SOL    HW137985   2.742   2.028   8.696  1.2285  1.2688  1.7789
 8841SOL    HW237986   2.721   2.146   8.781 -0.6039  2.1095 -0.2105
 8842SOL     OW37987   2.721   2.377   2.167 -0.2410 -0.2777  0.0824
 8842SOL    HW137988   2.791   2.381   2.232  0.4774  0.1535 -0.7228
 8842SOL    HW237989   2.725   2.286   2.137  0.4269 -0.3251  0.3197
 8843SOL     OW37990   0.832   4.334   8.407 -0.6283  0.3000  0.6332
 8843SOL    HW137991   0.899   4.382   8.358 -0.3641 -0.2883  0.4211
 8843SOL    HW237992   0.798   4.297   8.326 -1.5221  3.1831 -0.3269
 8844SOL     OW37993   0.238   0.084   7.342  0.0713 -0.2756  0.1174
 8844SOL    HW137994   0.277   0.092   7.429 -0.4594 -0.4372  0.3680
 8844SOL    HW237995   0.309   0.122   7.291  1.1337 -1.3495  0.7916
 8845SOL     OW37996   3.524   1.655   5.114 -0.1851  0.2500  0.0735
 8845SOL    HW137997   3.569   1.591   5.169 -0.5792 -0.6217 -0.6310
 8845SOL    HW237998   3.582   1.652   5.038 -1.5600 -1.0257 -0.9126
 8846SOL     OW37999   3.763   3.231   6.307 -0.0053 -0.2021 -0.3654
 8846SOL    HW138000   3.793   3.261   6.392 -0.1242 -0.5624 -0.2003
 8846SOL    HW238001   3.750   3.137   6.318 -0.6036 -0.0718  0.0591
 8847SOL     OW38002   0.005   4.344   4.249 -0.1103  0.4438 -0.0921
 8847SOL    HW138003   4.699   4.319   4.336 -1.4952 -0.3038 -0.7971
 8847SOL    HW238004   0.098   4.358   4.267 -0.2722  1.7959 -0.3367
 8848SOL     OW38005   0.375   1.104  13.273  0.2064 -0.5537 -0.3296
 8848SOL    HW138006   0.323   1.161  13.216 -1.5684 -1.7349  0.1012
 8848SOL    HW238007   0.357   1.025  13.222  0.6716 -0.7448 -0.1938
 8849SOL     OW38008   0.183   3.916   4.894  0.7221  0.1737 -0.1771
 8849SOL    HW138009   0.179   3.864   4.814  1.6101 -0.7761  0.4006
 8849SOL    HW238010   0.155   3.999   4.856  0.5650  0.1362 -0.1456
 8850SOL     OW38011   2.810   1.167   1.504 -0.0434  0.1202  0.4967
 8850SOL    HW138012   2.826   1.073   1.494  1.0527  0.4926 -1.2904
 8850SOL    HW238013   2.755   1.177   1.427  1.3310 -0.5892 -0.5870
 8851SOL     OW38014   2.081   3.499   6.456  0.3402  0.0268  0.5800
 8851SOL    HW138015   2.142   3.480   6.527  0.4567  0.9633  0.7265
 8851SOL    HW238016   2.126   3.565   6.404  2.9112 -1.5372  0.8297
 8852SOL     OW38017   1.721   2.832   3.748  0.2409  0.6101 -0.3845
 8852SOL    HW138018   1.725   2.756   3.690  0.6716 -0.3135  0.8383
 8852SOL    HW238019   1.692   2.799   3.834  3.3885  1.3042  0.9238
 8853SOL     OW38020   0.156   3.204  16.822 -0.6585 -0.1846  0.3437
 8853SOL    HW138021   0.243   3.221  16.859  0.4776 -0.3039 -2.2715
 8853SOL    HW238022   0.124   3.129  16.872  2.0009 -1.1635  0.5516
 8854SOL     OW38023   2.546   3.255   4.189 -0.8802 -0.3266  0.1996
 8854SOL    HW138024   2.548   3.307   4.269 -2.3795 -1.6099  1.0679
 8854SOL    HW238025   2.611   3.301   4.136 -0.0713  0.1644  1.6105
 8855SOL     OW38026   3.822   0.091   3.389 -0.2109  0.4741  0.2552
 8855SOL    HW138027   3.840   0.026   3.457  1.1245 -0.2126 -0.7626
 8855SOL    HW238028   3.737   0.064   3.355  1.3992 -2.7297 -1.2193
 8856SOL     OW38029   0.027   4.619  17.476  0.4542  0.0034  0.0701
 8856SOL    HW138030   0.113   4.586  17.451  0.3347  1.8044 -2.6739
 8856SOL    HW238031   0.034   4.700  17.425  1.2246  0.1960  0.4719
 8857SOL     OW38032   1.699   2.111   1.972 -0.0570  0.2596 -0.0475
 8857SOL    HW138033   1.640   2.074   1.906 -0.3906 -0.2893  0.5524
 8857SOL    HW238034   1.787   2.106   1.936  0.2998 -1.9381  1.1109
 8858SOL     OW38035   1.433   0.758   2.938  0.1563 -0.4902 -0.2329
 8858SOL    HW138036   1.441   0.805   3.021 -1.9437  0.9388 -0.8592
 8858SOL    HW238037   1.352   0.794   2.903  1.5613  1.4644 -1.5439
 8859SOL     OW38038   4.590   0.589  11.718 -0.3910 -0.3184 -0.1935
 8859SOL    HW138039   4.616   0.503  11.685 -3.6340 -0.2203 -3.0318
 8859SOL    HW238040   4.527   0.576  11.789  0.4913 -1.6481  0.3450
 8860SOL     OW38041   3.503   4.513  11.984 -0.6674  0.2146  0.4586
 8860SOL    HW138042   3.523   4.579  12.051 -1.3086 -0.8163  1.6729
 8860SOL    HW238043   3.467   4.574  11.920  2.4716  0.7275 -0.8218
 8861SOL     OW38044   0.140   1.059  11.179  0.3760 -0.2779 -0.4403
 8861SOL    HW138045   0.074   0.998  11.211 -1.0870  0.6141 -1.7303
 8861SOL    HW238046   0.164   1.109  11.258 -0.7298  1.8266 -1.4207
 8862SOL     OW38047   2.051   1.630   3.391 -0.2262 -0.0420  0.1199
 8862SOL    HW138048   2.091   1.606   3.475 -0.7075 -0.9616  0.0820
 8862SOL    HW238049   2.086   1.558   3.340  1.1202 -1.4155  2.9492
 8863SOL     OW38050   0.827   2.247   2.253  0.5976 -0.4168  0.2284
 8863SOL    HW138051   0.755   2.258   2.315 -0.6526  0.1939 -1.3163
 8863SOL    HW238052   0.776   2.203   2.185  1.5394 -0.3851 -0.5056
 8864SOL     OW38053   2.113   3.822   5.000  0.6978 -0.1514  0.3641
 8864SOL    HW138054   2.034   3.877   4.998  0.3415 -0.6577  0.6901
 8864SOL    HW238055   2.184   3.870   4.956  0.3750  1.1749  1.3013
 8865SOL     OW38056   1.751   0.500   6.509 -0.2662  0.0812  0.0173
 8865SOL    HW138057   1.675   0.555   6.492 -0.9216 -0.5709  0.8445
 8865SOL    HW238058   1.752   0.450   6.427  3.3900  0.9895 -0.5131
 8866SOL     OW38059   3.327   2.113   2.869  0.0934  0.8990  0.1200
 8866SOL    HW138060   3.260   2.052   2.839  0.1443  1.2350 -0.6940
 8866SOL    HW238061   3.370   2.081   2.948 -0.1777 -0.1241 -0.1411
 8867SOL     OW38062   3.473   2.703   0.273 -0.9238  0.5759  0.1706
 8867SOL    HW138063   3.533   2.767   0.312 -0.5355  0.7477 -0.6986
 8867SOL    HW238064   3.400   2.766   0.271 -1.3453  0.0677 -0.2931
 8868SOL     OW38065   3.052   1.306  12.181  0.3831 -0.0670 -0.3871
 8868SOL    HW138066   3.051   1.306  12.086  2.7506 -2.3002 -0.4031
 8868SOL    HW238067   3.002   1.228  12.207  2.2575 -1.1242  0.0061
 8869SOL     OW38068   4.208   2.688   1.537 -0.1352  0.0470 -0.2317
 8869SOL    HW138069   4.146   2.757   1.513  1.8898  1.9991  0.2034
 8869SOL    HW238070   4.166   2.613   1.495  0.2886  0.3771 -1.2385
 8870SOL     OW38071   3.075   2.212   4.563 -0.0305  0.0373 -0.2963
 8870SOL    HW138072   3.166   2.210   4.533  0.7561  1.5054  2.0205
 8870SOL    HW238073   3.086   2.146   4.632  0.0907  1.2616  0.8382
 8871SOL     OW38074   3.382   1.044   8.672 -0.3549 -0.2023  0.3211
 8871SOL    HW138075   3.341   1.033   8.587  0.2060  0.2602 -0.0135
 8871SOL    HW238076   3.322   1.113   8.701  0.6801  0.7891  0.1006
 8872SOL     OW38077   4.154   3.151  11.564  0.1233 -0.3567 -0.3790
 8872SOL    HW138078   4.207   3.110  11.495 -2.8017 -1.0189 -2.2064
 8872SOL    HW238079   4.178   3.241  11.542 -1.0906  1.0595  4.0637
 8873SOL     OW38080   3.123   0.924   8.083  0.5297  0.3682 -0.1151
 8873SOL    HW138081   3.035   0.918   8.120  0.6943 -1.6662 -0.0529
 8873SOL    HW238082   3.174   0.887   8.156  1.5015 -1.9505 -1.9519
 8874SOL     OW38083   0.004   1.634   2.221  0.0252 -0.2158 -0.0308
 8874SOL    HW138084   0.097   1.634   2.194  1.0364  0.6891  3.5572
 8874SOL    HW238085   0.007   1.588   2.304 -3.9267 -0.2762  0.0658
 8875SOL     OW38086   2.342   2.779   8.463 -0.1997 -0.5808  0.7654
 8875SOL    HW138087   2.260   2.768   8.511 -1.2926  2.0448 -0.4861
 8875SOL    HW238088   2.331   2.701   8.409  1.5457 -0.6802  0.5510
 8876SOL     OW38089   2.928   1.935   0.998 -0.0259 -0.2365  0.4295
 8876SOL    HW138090   2.963   2.002   0.939 -0.2779  1.2462  1.9823
 8876SOL    HW238091   3.010   1.887   1.012 -0.1961 -0.3833  0.9384
 8877SOL     OW38092   0.863   1.752  14.726 -0.5855  0.0435  0.1896
 8877SOL    HW138093   0.840   1.710  14.644 -0.5016 -1.3565  0.8883
 8877SOL    HW238094   0.909   1.831  14.697 -1.0659  0.2739  0.0526
 8878SOL     OW38095   2.982   1.310  15.914  0.0615  0.3297 -0.2066
 8878SOL    HW138096   2.986   1.214  15.920 -0.1510  0.3565  0.3865
 8878SOL    HW238097   2.936   1.307  15.830 -1.6518 -0.4662  0.7621
 8879SOL     OW38098   2.741   1.652   5.478  0.4776 -0.9473 -0.0075
 8879SOL    HW138099   2.696   1.621   5.557  0.3289  2.4025  1.2089
 8879SOL    HW238100   2.736   1.745   5.498 -0.8486 -0.7087 -1.4773
 8880SOL     OW38101   2.514   0.473  10.842 -0.1775  0.0532  0.6054
 8880SOL    HW138102   2.544   0.394  10.797  0.9673  0.8720 -0.0813
 8880SOL    HW238103   2.424   0.455  10.868 -0.4633  1.5337  0.6494
 8881SOL     OW38104   4.446   1.837  16.317 -1.0094 -0.0584 -0.2083
 8881SOL    HW138105   4.538   1.818  16.331 -0.9985 -0.1830 -0.4539
 8881SOL    HW238106   4.436   1.908  16.381 -0.4092 -1.2476  1.1973
 8882SOL     OW38107   0.253   2.252  12.633  0.2458 -0.3705 -0.6399
 8882SOL    HW138108   0.242   2.325  12.694 -0.5390 -1.0039 -0.0236
 8882SOL    HW238109   0.221   2.187  12.695 -2.6766  2.5914  0.9935
 8883SOL     OW38110   3.381   4.014   1.441 -0.6174 -0.2484 -0.3992
 8883SOL    HW138111   3.342   4.093   1.478 -3.5077 -3.1698  2.7599
 8883SOL    HW238112   3.473   4.034   1.457 -1.1294 -0.1082  2.3048
 8884SOL     OW38113   0.768   3.613   7.571  0.2455  0.0530  0.4302
 8884SOL    HW138114   0.674   3.618   7.585 -0.1090  1.8129 -2.7313
 8884SOL    HW238115   0.794   3.541   7.629  0.0172 -0.2748  0.1177
 8885SOL     OW38116   0.144   4.247   3.849 -0.6545  0.7275 -0.8049
 8885SOL    HW138117   0.125   4.322   3.793 -1.8328 -0.9244 -2.6408
 8885SOL    HW238118   0.214   4.283   3.902 -1.3056 -0.0883  0.6118
 8886SOL     OW38119   0.650   2.781  13.116  0.2099  0.8739 -0.3466
 8886SOL    HW138120   0.732   2.778  13.166  0.5417  1.9313 -0.8175
 8886SOL    HW238121   0.629   2.868  13.150  0.0634  0.8833 -0.4610
 8887SOL     OW38122   3.605   4.337  17.188 -0.2093 -0.0498  0.5118
 8887SOL    HW138123   3.692   4.365  17.161 -0.1060  0.6060  1.5439
 8887SOL    HW238124   3.576   4.286  17.112  2.7833  0.1813 -0.7459
 8888SOL     OW38125   2.576   3.682   8.520  0.5379 -0.2855  0.6545
 8888SOL    HW138126   2.621   3.739   8.583  2.7793  0.5569 -1.7241
 8888SOL    HW238127   2.647   3.621   8.499  0.8249  0.9037 -1.8534
 8889SOL     OW38128   0.933   0.673   6.947  0.6318  0.0562  0.1162
 8889SOL    HW138129   0.918   0.633   7.033  0.8290 -1.8620 -0.7220
 8889SOL    HW238130   0.936   0.766   6.966 -0.0100 -0.1247  1.0881
 8890SOL     OW38131   1.625   3.103   1.040 -0.0249  0.8894  0.0472
 8890SOL    HW138132   1.569   3.026   1.045 -0.4938  1.2671  0.5814
 8890SOL    HW238133   1.571   3.181   1.023 -0.9407  0.1302 -0.4924
 8891SOL     OW38134   0.417   4.412   2.406 -0.2476 -0.0664 -0.8934
 8891SOL    HW138135   0.465   4.486   2.367  0.9336 -0.3338  0.0585
 8891SOL    HW238136   0.456   4.415   2.493 -3.3087  0.8083  0.4528
 8892SOL     OW38137   0.103   2.855  17.170 -0.5043  1.0068  0.5708
 8892SOL    HW138138   0.018   2.826  17.203 -0.4261 -2.0573 -1.9540
 8892SOL    HW238139   0.141   2.885  17.252  1.6952  1.8557 -0.7577
 8893SOL     OW38140   1.598   4.578   8.974 -0.4137 -0.0955 -0.0506
 8893SOL    HW138141   1.670   4.610   9.028  0.4973 -2.3865  0.0543
 8893SOL    HW238142   1.522   4.618   9.016 -0.2481 -1.3180  1.3950
 8894SOL     OW38143   4.659   1.214  15.954 -0.3598 -0.1575  0.5671
 8894SOL    HW138144   4.649   1.256  16.039 -2.7204 -1.2849  0.8522
 8894SOL    HW238145   4.662   1.288  15.894 -2.9705 -1.2220 -0.9150
 8895SOL     OW38146   3.538   2.428   4.504  0.2868 -0.2455  0.2795
 8895SOL    HW138147   3.606   2.432   4.571 -0.7086  0.0966  1.2791
 8895SOL    HW238148   3.466   2.433   4.567 -0.5373 -0.7433 -0.6312
 8896SOL     OW38149   0.167   2.291   7.319 -0.0960 -0.0690  0.1327
 8896SOL    HW138150   0.213   2.374   7.306 -0.3452  0.0293 -0.0997
 8896SOL    HW238151   0.160   2.256   7.231  1.5523 -0.8179  0.2862
 8897SOL     OW38152   4.123   3.221   6.143 -0.1229 -0.3761 -0.0722
 8897SOL    HW138153   4.176   3.239   6.221  0.2143  1.7119 -0.7907
 8897SOL    HW238154   4.188   3.219   6.073  0.2240  1.0628  0.2027
 8898SOL     OW38155   3.176   2.215   6.510  0.0070  0.5453  0.1257
 8898SOL    HW138156   3.170   2.171   6.595 -0.2429  0.1614 -0.0935
 8898SOL    HW238157   3.094   2.189   6.468  1.3677 -2.3388 -0.7311
 8899SOL     OW38158   1.565   0.959  10.737  0.3805  0.2606 -0.1563
 8899SOL    HW138159   1.572   1.029  10.802 -1.1440  0.0928  0.1955
 8899SOL    HW238160   1.566   1.018  10.662 -0.8714  0.1332 -0.2756
 8900SOL     OW38161   3.528   0.710   5.565 -0.6261  0.0073 -0.0146
 8900SOL    HW138162   3.479   0.738   5.487  0.4282  0.3477 -0.5538
 8900SOL    HW238163   3.596   0.777   5.571 -0.9871  0.6453 -2.7948
 8901SOL     OW38164   3.080   3.607   4.228  0.7723 -0.3302 -0.0299
 8901SOL    HW138165   3.130   3.584   4.149  1.1515  0.7159 -0.0953
 8901SOL    HW238166   3.058   3.697   4.205  1.0753 -0.8276 -2.3329
 8902SOL     OW38167   2.042   0.395   8.455  0.0237  0.1917  0.1613
 8902SOL    HW138168   2.132   0.386   8.486  0.3680 -1.5130 -1.3368
 8902SOL    HW238169   2.017   0.303   8.469 -0.0178  0.4451  1.8092
 8903SOL     OW38170   2.538   3.126   5.831 -0.3113  0.6219 -0.0447
 8903SOL    HW138171   2.459   3.177   5.817 -1.2859 -1.0067 -0.5141
 8903SOL    HW238172   2.515   3.092   5.917  2.9198  0.6704  0.8388
 8904SOL     OW38173   4.710   0.717   0.576 -0.3885 -0.2718  0.0839
 8904SOL    HW138174   4.648   0.752   0.513  1.8777  1.1846 -1.3380
 8904SOL    HW238175   0.069   0.714   0.530 -0.2811 -1.5355  0.3612
 8905SOL     OW38176   2.676   0.216  16.526  0.4096  0.0288 -0.1678
 8905SOL    HW138177   2.721   0.290  16.566  0.7744 -1.1683  1.6662
 8905SOL    HW238178   2.655   0.249  16.439 -2.4554  0.9466  0.8670
 8906SOL     OW38179   2.922   3.231  13.052  0.2134 -0.5327 -0.1104
 8906SOL    HW138180   2.905   3.264  12.964  1.0870 -1.2661 -0.5524
 8906SOL    HW238181   3.010   3.264  13.065 -1.0377  1.8525  2.2430
 8907SOL     OW38182   3.089   1.598  17.157  0.8361  0.0173 -0.1363
 8907SOL    HW138183   3.051   1.633  17.238  0.8084  0.4472 -0.3385
 8907SOL    HW238184   3.167   1.563  17.201  0.0023 -1.2054  0.3758
 8908SOL     OW38185   0.635   1.353   8.440 -0.2728  0.2869  0.4173
 8908SOL    HW138186   0.713   1.404   8.460 -0.5867  1.0886 -0.3929
 8908SOL    HW238187   0.575   1.427   8.439 -0.9481 -0.2437  1.5210
 8909SOL     OW38188   1.863   3.757   3.969 -0.6248 -0.4887 -0.6524
 8909SOL    HW138189   1.858   3.675   3.920  0.2882 -1.0271  0.1478
 8909SOL    HW238190   1.771   3.775   3.984 -0.3565 -0.8970  1.3968
 8910SOL     OW38191   2.084   1.698   6.044 -0.1504  0.3156  0.2217
 8910SOL    HW138192   2.091   1.711   5.949 -0.1202  1.0890  0.3318
 8910SOL    HW238193   1.995   1.662   6.043 -0.7741  1.9093 -0.9771
 8911SOL     OW38194   2.851   4.712   0.703  0.3326 -0.3769 -0.4040
 8911SOL    HW138195   2.796   4.694   0.779  0.8347 -0.3707 -0.0418
 8911SOL    HW238196   2.782   0.002   0.638  0.1256  0.1260 -0.0733
 8912SOL     OW38197   3.118   0.409   3.119 -0.2329 -0.6736 -0.2028
 8912SOL    HW138198   3.050   0.458   3.072 -0.0178 -1.2265 -1.0952
 8912SOL    HW238199   3.129   0.321   3.084  2.0088 -0.7965  0.7725
 8913SOL     OW38200   0.676   2.236   6.215 -0.9520  0.3560 -0.1139
 8913SOL    HW138201   0.597   2.290   6.213  0.5808  2.4989 -3.9519
 8913SOL    HW238202   0.750   2.297   6.213 -0.3755 -0.3355 -0.2725
 8914SOL     OW38203   4.294   0.903   1.315 -0.0789 -0.1646 -0.3911
 8914SOL    HW138204   4.382   0.924   1.348 -0.2997 -1.5568  1.1122
 8914SOL    HW238205   4.306   0.822   1.264 -2.6534 -0.1009 -1.0941
 8915SOL     OW38206   3.044   0.621   6.119 -0.4725 -0.4590  0.2179
 8915SOL    HW138207   2.982   0.636   6.047  1.9147  1.4002 -1.4290
 8915SOL    HW238208   3.010   0.693   6.173  1.3181  0.4380  0.1223
 8916SOL     OW38209   2.047   0.642  13.908  0.1400  0.7694  0.0355
 8916SOL    HW138210   1.954   0.655  13.929  0.3444  0.0877  1.3489
 8916SOL    HW238211   2.044   0.567  13.848 -0.2046  3.4236 -3.2511
 8917SOL     OW38212   3.430   3.934   5.599 -0.7063 -0.0713  0.7135
 8917SOL    HW138213   3.472   3.854   5.631  0.9490  1.7081  3.0218
 8917SOL    HW238214   3.501   3.981   5.555 -1.3495  3.2334  3.1840
 8918SOL     OW38215   1.017   3.299   4.457 -0.0821 -0.0847  0.6713
 8918SOL    HW138216   1.075   3.275   4.530 -1.5056  1.4333  2.3114
 8918SOL    HW238217   1.082   3.345   4.404 -2.2118  3.3280  1.0693
 8919SOL     OW38218   1.560   3.630   7.647  0.6409  0.3868 -0.0319
 8919SOL    HW138219   1.599   3.653   7.562  0.4470  0.2261 -0.1616
 8919SOL    HW238220   1.511   3.709   7.671 -1.1298  0.2410 -3.1888
 8920SOL     OW38221   3.019   2.311   7.308 -0.7921  0.0821  0.2821
 8920SOL    HW138222   2.935   2.335   7.269 -0.8100  0.2747  0.4439
 8920SOL    HW238223   3.067   2.393   7.321  1.8265 -1.4196  0.0704
 8921SOL     OW38224   4.477   4.123   8.637 -0.5784 -1.0348  0.5526
 8921SOL    HW138225   4.425   4.196   8.603  1.7180 -0.3147 -1.4286
 8921SOL    HW238226   4.471   4.098   8.729 -3.2090  0.1372  0.6815
 8922SOL     OW38227   0.874   1.868   3.407  0.1592 -0.2445 -0.1555
 8922SOL    HW138228   0.858   1.961   3.421  4.0767  0.1553  1.4134
 8922SOL    HW238229   0.838   1.858   3.319 -1.6138  2.5414  0.2467
 8923SOL     OW38230   2.832   1.099   9.412  0.3655 -0.2631  0.5296
 8923SOL    HW138231   2.820   1.019   9.463 -3.0645 -0.4718 -0.6246
 8923SOL    HW238232   2.909   1.128   9.461  0.1853  0.1514  0.5636
 8924SOL     OW38233   0.385   0.465   7.868 -0.0735 -0.0676  0.3597
 8924SOL    HW138234   0.322   0.409   7.913  0.0020  0.3829  1.0318
 8924SOL    HW238235   0.386   0.544   7.922  0.8541  0.8728 -1.0072
 8925SOL     OW38236   3.250   3.479   1.623  0.1249  0.3668  0.5597
 8925SOL    HW138237   3.337   3.480   1.583 -0.6426  0.8472 -1.0975
 8925SOL    HW238238   3.244   3.384   1.630 -3.0738  0.7414  3.1083
 8926SOL     OW38239   1.425   1.471  13.436  0.0294  0.4418  0.4034
 8926SOL    HW138240   1.476   1.447  13.513  0.8085 -0.7122 -0.4784
 8926SOL    HW238241   1.486   1.435  13.373 -0.7090  1.1090 -0.6991
 8927SOL     OW38242   3.929   1.421   9.163 -0.3073  0.5750  0.4189
 8927SOL    HW138243   3.910   1.353   9.099  1.0628 -0.4973  1.1492
 8927SOL    HW238244   4.003   1.383   9.210 -0.9532  0.7810  1.5838
 8928SOL     OW38245   3.585   3.376   0.953 -0.2683 -0.6917 -0.1370
 8928SOL    HW138246   3.628   3.395   0.869 -0.3712 -1.7325 -0.4330
 8928SOL    HW238247   3.497   3.409   0.930  0.5057 -0.2946 -2.5754
 8929SOL     OW38248   2.311   1.549   3.739 -0.4731  0.3380  0.6029
 8929SOL    HW138249   2.388   1.501   3.771  0.8453  3.2186  1.7221
 8929SOL    HW238250   2.265   1.480   3.691 -0.4962 -0.3097  1.5510
 8930SOL     OW38251   4.168   2.416   0.471 -0.3745  0.1382  0.3680
 8930SOL    HW138252   4.135   2.327   0.481 -1.1326  0.7214  2.9495
 8930SOL    HW238253   4.184   2.418   0.376 -0.8825  0.3976  0.2929
 8931SOL     OW38254   2.476   0.510  14.183 -0.1495 -0.7939  0.0658
 8931SOL    HW138255   2.416   0.565  14.234  0.1899 -0.1240 -0.2600
 8931SOL    HW238256   2.407   0.453  14.149 -0.5776 -0.3330  0.1567
 8932SOL     OW38257   1.606   3.282  12.026 -0.0172  0.0667 -0.3504
 8932SOL    HW138258   1.517   3.315  12.031 -0.6720 -1.3564 -2.9504
 8932SOL    HW238259   1.647   3.358  11.985  0.4456 -0.5536 -1.0278
 8933SOL     OW38260   1.969   0.268  10.135  0.2479 -0.3202  0.2144
 8933SOL    HW138261   1.955   0.208  10.208  0.7608  2.3632  2.5182
 8933SOL    HW238262   2.063   0.287  10.142  0.1879 -0.1444  0.5355
 8934SOL     OW38263   0.972   3.819  15.033  0.0153 -0.3083  0.5181
 8934SOL    HW138264   1.052   3.862  15.005 -1.3425  1.3766 -0.8224
 8934SOL    HW238265   0.915   3.831  14.957  2.2728 -0.4108 -1.1929
 8935SOL     OW38266   3.499   4.484   5.873 -0.3714 -0.0370 -0.2304
 8935SOL    HW138267   3.557   4.525   5.937 -1.3501  0.2264  0.4888
 8935SOL    HW238268   3.551   4.406   5.852  1.2250  1.2923 -1.2213
 8936SOL     OW38269   3.551   1.471  12.761  0.4990 -0.2837  0.0543
 8936SOL    HW138270   3.590   1.393  12.802  1.2040 -1.6023 -3.1080
 8936SOL    HW238271   3.460   1.471  12.789  1.1549  1.0980  2.1556
 8937SOL     OW38272   1.020   2.102   5.069  0.3778  0.0715  0.4545
 8937SOL    HW138273   0.987   2.023   5.112  1.1933 -0.2054  0.5581
 8937SOL    HW238274   0.974   2.087   4.986  0.7206 -1.2924  0.5126
 8938SOL     OW38275   3.399   2.797   6.730 -0.3305  0.5388  0.1465
 8938SOL    HW138276   3.358   2.723   6.686 -0.7195  1.3544 -0.8649
 8938SOL    HW238277   3.340   2.809   6.804  0.2148 -2.0748  0.9908
 8939SOL     OW38278   1.852   4.342   2.009 -0.4063  0.2884  0.0723
 8939SOL    HW138279   1.890   4.374   2.091 -0.3694  0.3073  0.0475
 8939SOL    HW238280   1.796   4.419   1.995  0.5538  0.9866  0.0829
 8940SOL     OW38281   2.931   3.692  14.169 -0.0646  0.1543 -0.1017
 8940SOL    HW138282   2.858   3.630  14.177  0.0332 -0.1174 -1.3105
 8940SOL    HW238283   2.971   3.692  14.256 -0.0426  2.1768 -0.1099
 8941SOL     OW38284   3.195   1.559   1.450  0.4340  0.2621  0.2983
 8941SOL    HW138285   3.129   1.490   1.451 -0.1967  0.8639  0.5632
 8941SOL    HW238286   3.287   1.533   1.446  0.5634  0.5933  1.0040
 8942SOL     OW38287   2.075   0.524   3.420  0.2433 -0.2020  0.0943
 8942SOL    HW138288   2.074   0.619   3.408  0.0697 -0.0941  0.9637
 8942SOL    HW238289   1.984   0.500   3.403 -0.2653  0.6868  1.5553
 8943SOL     OW38290   3.792   3.286   3.253 -0.5633  0.4490  0.5473
 8943SOL    HW138291   3.881   3.252   3.264 -1.0325 -0.5418  1.3410
 8943SOL    HW238292   3.750   3.200   3.259  1.1554 -0.3958  0.4692
 8944SOL     OW38293   0.898   0.454   6.431 -0.3572  0.1453 -0.0106
 8944SOL    HW138294   0.853   0.522   6.482 -1.6067 -0.7851  0.1298
 8944SOL    HW238295   0.877   0.484   6.342 -0.1635 -1.8930 -0.7387
 8945SOL     OW38296   3.582   2.410   8.827  0.2299 -0.2556 -0.0343
 8945SOL    HW138297   3.526   2.486   8.842  1.9892  1.1410 -0.5555
 8945SOL    HW238298   3.632   2.396   8.908  1.5306  2.3002 -0.4068
 8946SOL     OW38299   3.333   2.547   0.045  0.1814  0.5361  0.0286
 8946SOL    HW138300   3.285   2.517   0.122  0.9271  0.0485  0.2987
 8946SOL    HW238301   3.418   2.563   0.086  0.1552  1.1271 -0.1399
 8947SOL     OW38302   1.309   3.781   9.012  0.6730 -0.1147 -0.1012
 8947SOL    HW138303   1.379   3.844   9.028 -1.2886  2.0237  0.1090
 8947SOL    HW238304   1.257   3.778   9.093 -1.0438 -1.3357 -1.2293
 8948SOL     OW38305   3.054   4.207   5.340 -0.1040 -0.2408 -0.0066
 8948SOL    HW138306   3.010   4.125   5.364 -0.6502  0.2722  0.7468
 8948SOL    HW238307   3.125   4.205   5.405  0.8441  1.4751 -1.0037
 8949SOL     OW38308   1.966   3.868  13.914 -0.4070  0.5704 -0.2691
 8949SOL    HW138309   1.921   3.932  13.859 -1.7966 -0.9726 -0.9277
 8949SOL    HW238310   2.028   3.920  13.966  0.8665  0.4752 -1.6829
 8950SOL     OW38311   0.841   2.486  12.783  0.5004 -0.3611 -0.1618
 8950SOL    HW138312   0.760   2.452  12.822  0.7992  0.0088  0.7600
 8950SOL    HW238313   0.846   2.566  12.834  0.2171  0.6122 -1.6729
 8951SOL     OW38314   4.593   3.743   6.407  0.3926  0.1308  0.0065
 8951SOL    HW138315   4.539   3.818   6.431 -0.3713 -1.3961  3.1291
 8951SOL    HW238316   4.683   3.775   6.417  0.5588 -1.5128  4.1513
 8952SOL     OW38317   2.711   2.762   1.737  0.6031  0.6514  0.2810
 8952SOL    HW138318   2.776   2.726   1.798  0.2453  2.3609  1.6702
 8952SOL    HW238319   2.638   2.725   1.787  1.5054  0.8102  1.7217
 8953SOL     OW38320   0.981   2.717   4.478 -0.2286  0.0140 -0.2487
 8953SOL    HW138321   0.964   2.628   4.510  1.4589 -0.1093  0.3130
 8953SOL    HW238322   1.066   2.731   4.519 -1.7855  1.6973  2.3972
 8954SOL     OW38323   0.339   0.682  11.169  0.2450 -0.2879 -0.1513
 8954SOL    HW138324   0.398   0.641  11.232  1.7152 -0.6544 -1.7586
 8954SOL    HW238325   0.258   0.680  11.219 -0.0919 -0.8270 -0.7179
 8955SOL     OW38326   1.921   4.200  13.467 -0.1929  0.3634 -0.3106
 8955SOL    HW138327   2.000   4.208  13.413  0.4402 -1.4185  0.3411
 8955SOL    HW238328   1.874   4.134  13.416  1.1949 -0.1269 -0.9675
 8956SOL     OW38329   4.125   3.463   1.333 -0.1832  0.2583 -0.5419
 8956SOL    HW138330   4.209   3.421   1.314 -1.1235 -1.3841 -1.1219
 8956SOL    HW238331   4.069   3.403   1.283 -0.8176  0.2320  0.1934
 8957SOL     OW38332   3.042   3.825   8.541 -0.0480 -0.0417  0.3684
 8957SOL    HW138333   3.096   3.759   8.585 -0.1932  0.0688  0.7065
 8957SOL    HW238334   3.070   3.818   8.450  0.9521 -4.8518  1.0427
 8958SOL     OW38335   1.244   0.244   1.307  0.1311  0.1962  0.2818
 8958SOL    HW138336   1.185   0.294   1.252 -0.7588 -1.2755 -0.1117
 8958SOL    HW238337   1.204   0.158   1.320 -0.2798  0.3864  0.2735
 8959SOL     OW38338   0.082   4.540   6.264  0.0222  0.9431  0.3010
 8959SOL    HW138339   0.057   4.616   6.211  1.4199  1.2354  0.0654
 8959SOL    HW238340   0.176   4.537   6.251 -0.5735  1.1009 -3.8671
 8960SOL     OW38341   4.620   4.510   7.512 -0.1025 -0.0737 -0.3566
 8960SOL    HW138342   4.661   4.554   7.439  1.4287  0.9562  1.1305
 8960SOL    HW238343   4.679   4.516   7.587 -0.9103  0.8720  0.2114
 8961SOL     OW38344   0.015   1.441   8.353  0.3429 -0.0325 -0.8270
 8961SOL    HW138345   0.098   1.416   8.395  0.2155  0.4135 -0.3078
 8961SOL    HW238346   0.021   1.536   8.341  1.0221  0.1236  0.7577
 8962SOL     OW38347   1.714   4.153   8.069 -0.2763 -0.2094  0.4324
 8962SOL    HW138348   1.728   4.059   8.054  0.0339  0.1298 -1.4795
 8962SOL    HW238349   1.795   4.191   8.034  0.6004 -1.7617  0.7411
 8963SOL     OW38350   2.011   1.446   6.278  0.2436  0.0487  0.2670
 8963SOL    HW138351   2.010   1.511   6.348  0.1883 -2.1004  2.2162
 8963SOL    HW238352   1.949   1.385   6.316 -0.4954  0.2960 -0.5377
 8964SOL     OW38353   4.543   0.631   3.266  0.1307 -0.2832 -0.2061
 8964SOL    HW138354   4.588   0.712   3.243  1.9045 -1.5840 -1.3432
 8964SOL    HW238355   4.449   0.638   3.252 -0.2195  2.0064  3.3513
 8965SOL     OW38356   4.694   3.942   1.342 -0.1847 -0.0113  0.2584
 8965SOL    HW138357   4.624   3.906   1.397 -0.1990  0.5434  0.5978
 8965SOL    HW238358   0.033   3.871   1.352  1.2883  1.1844 -0.6318
 8966SOL     OW38359   2.081   0.717   6.570  0.6090 -0.3527 -0.1276
 8966SOL    HW138360   2.053   0.794   6.522  1.6671 -0.9397 -1.6857
 8966SOL    HW238361   2.176   0.711   6.559  0.7149 -1.2449  1.1525
 8967SOL     OW38362   4.514   4.380  13.575 -0.3837  0.0365 -0.3308
 8967SOL    HW138363   4.495   4.465  13.613 -1.4872 -2.2441  4.2639
 8967SOL    HW238364   4.438   4.332  13.608 -0.7096  1.0298  0.3453
 8968SOL     OW38365   1.435   3.187   4.064  1.2568  0.0120  0.0429
 8968SOL    HW138366   1.521   3.220   4.088  0.5920  1.0156  1.0376
 8968SOL    HW238367   1.455   3.093   4.059  0.7951 -0.2240  2.5859
 8969SOL     OW38368   2.053   0.635   5.120 -0.7460 -0.1674 -0.3014
 8969SOL    HW138369   2.036   0.687   5.198 -1.3663  2.9637 -2.5002
 8969SOL    HW238370   1.990   0.564   5.129 -0.1660 -0.6808 -0.3458
 8970SOL     OW38371   1.600   3.087   6.394  0.2062 -0.5141 -0.3832
 8970SOL    HW138372   1.686   3.076   6.433  0.1939 -0.6263 -0.3873
 8970SOL    HW238373   1.627   3.124   6.310 -2.6302 -0.4200 -1.2612
 8971SOL     OW38374   4.171   4.108   1.181  0.1973 -0.0863  0.6091
 8971SOL    HW138375   4.081   4.091   1.152 -0.0598 -0.9784  1.8914
 8971SOL    HW238376   4.222   4.030   1.159  0.0644  0.2396 -0.8417
 8972SOL     OW38377   1.552   0.709   6.563  0.0543  0.5926  0.2211
 8972SOL    HW138378   1.568   0.802   6.578 -0.1997 -0.0292  4.1996
 8972SOL    HW238379   1.459   0.708   6.540  0.3612 -4.8612 -0.9696
 8973SOL     OW38380   2.732   2.485   2.555 -0.3904  0.0965 -0.0413
 8973SOL    HW138381   2.751   2.433   2.634 -1.5546  0.1112  0.2386
 8973SOL    HW238382   2.637   2.486   2.547 -0.4103 -0.3420  0.0901
 8974SOL     OW38383   3.391   4.718   7.214 -0.4881 -0.0295  0.2527
 8974SOL    HW138384   3.377   4.687   7.303  1.1819  2.3379  1.2981
 8974SOL    HW238385   3.347   0.077   7.209  0.3640  0.6167  4.2282
 8975SOL     OW38386   4.185   0.369   6.272  0.1963 -0.1538  0.3849
 8975SOL    HW138387   4.136   0.324   6.341  1.9610 -2.1125  0.3480
 8975SOL    HW238388   4.138   0.338   6.195  0.4459  0.2448  0.0734
 8976SOL     OW38389   4.659   1.232  17.345  0.5580 -0.0767 -0.1318
 8976SOL    HW138390   0.019   1.232  17.301  0.7928  3.0369  0.3223
 8976SOL    HW238391   4.681   1.278  17.426  0.4217 -2.5550  1.3262
 8977SOL     OW38392   1.257   0.933   0.031  0.0148  0.9185  0.2840
 8977SOL    HW138393   1.213   0.927  17.648  0.2702  0.3379  0.1925
 8977SOL    HW238394   1.349   0.942   0.006  0.2215 -1.0034  0.3028
 8978SOL     OW38395   3.471   4.130  16.143 -0.1197 -0.3329 -0.2238
 8978SOL    HW138396   3.405   4.096  16.083  0.9860  0.5693 -1.9291
 8978SOL    HW238397   3.489   4.204  16.085 -2.2425  1.1831  1.0153
 8979SOL     OW38398   0.004   1.149  13.286  0.3679  0.1358 -0.2960
 8979SOL    HW138399   0.011   1.053  13.284  0.4929  0.1182  0.5358
 8979SOL    HW238400   0.061   1.175  13.214  0.4067 -0.5731 -0.5193
 8980SOL     OW38401   2.028   3.039   1.813  0.4052 -0.0979 -0.3830
 8980SOL    HW138402   1.969   2.988   1.870  0.7825  3.2848  3.0374
 8980SOL    HW238403   2.102   3.059   1.870  0.7820 -0.9709 -0.5664
 8981SOL     OW38404   2.235   2.776   5.158 -0.0596  0.6964  0.1179
 8981SOL    HW138405   2.330   2.769   5.168 -0.2343  1.6825  2.4576
 8981SOL    HW238406   2.232   2.872   5.156  0.4494  0.6753 -1.4944
 8982SOL     OW38407   4.058   0.647  16.963 -0.0388  0.3736 -0.2223
 8982SOL    HW138408   3.980   0.629  17.016 -0.2405 -1.8096 -1.2471
 8982SOL    HW238409   4.041   0.736  16.932 -0.8178 -0.4104 -2.0409
 8983SOL     OW38410   1.976   0.153  16.724  0.5735 -0.0024 -0.6962
 8983SOL    HW138411   2.069   0.159  16.705  0.7239 -0.5391 -0.1126
 8983SOL    HW238412   1.960   0.242  16.754 -0.3005 -0.6661  0.8362
 8984SOL     OW38413   0.178   1.999   9.981  0.4782 -0.3544 -0.0368
 8984SOL    HW138414   0.187   1.982  10.075  1.5502  0.9577  0.1004
 8984SOL    HW238415   0.085   2.023   9.983  0.9367  1.5098 -0.8469
 8985SOL     OW38416   2.108   1.924   8.685 -0.4792  0.6480  0.2519
 8985SOL    HW138417   2.147   1.898   8.768 -0.7723 -0.8694 -0.0814
 8985SOL    HW238418   2.186   1.952   8.637  0.5083 -0.7386  1.0888
 8986SOL     OW38419   4.710   4.175   1.514  0.1693  0.5042 -0.2015
 8986SOL    HW138420   4.709   4.098   1.457  1.4143  0.9523 -0.8392
 8986SOL    HW238421   0.024   4.241   1.456 -0.7407  0.9650 -0.2943
 8987SOL     OW38422   1.196   1.539   3.511 -0.4440  0.1218 -0.5737
 8987SOL    HW138423   1.227   1.518   3.599  2.5252 -1.5005 -2.0036
 8987SOL    HW238424   1.131   1.470   3.497 -1.9422  1.5984 -0.8976
 8988SOL     OW38425   2.954   3.739   0.826  0.2041  0.0072  0.3296
 8988SOL    HW138426   2.956   3.782   0.741 -0.0018  0.3014  0.4754
 8988SOL    HW238427   3.001   3.803   0.878  1.4372 -0.5271 -0.1363
 8989SOL     OW38428   1.219   1.980   4.861  0.0518  0.4513  0.0630
 8989SOL    HW138429   1.281   1.990   4.933  0.1427 -1.4418  0.2338
 8989SOL    HW238430   1.212   2.070   4.827  0.6047 -0.6932 -3.0672
 8990SOL     OW38431   3.477   1.768   8.772 -0.4806 -0.0575  0.1860
 8990SOL    HW138432   3.461   1.675   8.757  1.4292 -0.0105 -2.1838
 8990SOL    HW238433   3.420   1.788   8.847 -0.2889 -1.2215  0.6470
 8991SOL     OW38434   1.251   1.785   3.639  0.1717 -0.0705 -0.4645
 8991SOL    HW138435   1.215   1.712   3.588 -1.4895 -0.8819  1.8699
 8991SOL    HW238436   1.343   1.765   3.654 -0.0884 -0.4690  0.5705
 8992SOL     OW38437   3.447   0.647   6.340  0.7289 -0.5003  0.5702
 8992SOL    HW138438   3.382   0.697   6.389  0.7416 -1.2038  1.3215
 8992SOL    HW238439   3.393   0.606   6.272  0.6112  1.3433 -0.4257
 8993SOL     OW38440   1.835   2.898   0.984 -0.5342  0.1827  0.0901
 8993SOL    HW138441   1.840   2.829   1.051  0.9516  0.4915  0.2921
 8993SOL    HW238442   1.741   2.904   1.001 -0.4207 -0.3902  0.9387
 8994SOL     OW38443   1.606   0.315  15.331 -0.0607  0.1228 -0.3517
 8994SOL    HW138444   1.533   0.256  15.347 -0.6390  0.3290 -2.1740
 8994SOL    HW238445   1.641   0.325  15.419 -1.5557 -1.5148  0.4125
 8995SOL     OW38446   1.923   3.687   7.290  0.4872 -0.1254 -0.1766
 8995SOL    HW138447   1.862   3.714   7.222  0.3689  0.6836  0.2522
 8995SOL    HW238448   1.998   3.657   7.239  2.0034 -0.4025  2.1634
 8996SOL     OW38449   4.276   1.067   1.548 -0.5801  0.5027 -0.2237
 8996SOL    HW138450   4.335   0.995   1.570  0.3550  1.2740 -0.2061
 8996SOL    HW238451   4.221   1.025   1.483 -0.8261  0.8342 -0.2274
 8997SOL     OW38452   2.751   2.988   6.765  0.1600 -0.3197 -0.5485
 8997SOL    HW138453   2.829   2.939   6.791 -0.5099 -0.6051  0.9071
 8997SOL    HW238454   2.758   3.068   6.818  0.7250 -1.2468  0.7596
 8998SOL     OW38455   2.176   1.376  11.830  0.0702  0.1700  0.3726
 8998SOL    HW138456   2.267   1.356  11.810 -0.3629  0.6055 -2.0462
 8998SOL    HW238457   2.161   1.467  11.805  0.5592 -0.3112 -1.6360
 8999SOL     OW38458   1.952   2.666  12.907 -0.1889 -0.1610  0.0673
 8999SOL    HW138459   2.027   2.680  12.965  0.2980  0.4191 -0.6956
 8999SOL    HW238460   1.976   2.715  12.828 -0.5656 -1.5384 -0.8875
 9000SOL     OW38461   4.021   0.192   5.330  0.3513  0.3923 -0.3460
 9000SOL    HW138462   4.077   0.135   5.382  0.6540 -0.4701 -1.6256
 9000SOL    HW238463   4.037   0.162   5.240 -0.2206 -2.3650  0.4566
 9001SOL     OW38464   4.265   3.258   6.756  0.2671  0.1935  0.1304
 9001SOL    HW138465   4.262   3.193   6.825  0.1706  1.8548  1.6943
 9001SOL    HW238466   4.216   3.328   6.799  1.8520  0.4470  1.4965
 9002SOL     OW38467   2.885   2.386  12.934  0.2514  0.0312 -0.6142
 9002SOL    HW138468   2.911   2.346  12.851 -0.8893 -4.6216  1.2822
 9002SOL    HW238469   2.932   2.324  12.990 -1.7824  0.0972  1.1726
 9003SOL     OW38470   4.093   1.700   7.839 -0.2723 -0.3228 -0.6895
 9003SOL    HW138471   4.000   1.678   7.837 -0.3369  0.0149 -1.7652
 9003SOL    HW238472   4.101   1.777   7.895  0.5125  0.0064 -1.2568
 9004SOL     OW38473   1.520   3.611   8.497  0.0768  0.2459  0.4866
 9004SOL    HW138474   1.436   3.580   8.465 -0.0782  0.9121  0.2471
 9004SOL    HW238475   1.486   3.694   8.530 -2.0044 -0.2549 -0.3831
 9005SOL     OW38476   4.433   1.733   9.118  0.0623  0.6245 -0.0620
 9005SOL    HW138477   4.388   1.649   9.111  0.0142  0.5511  1.2450
 9005SOL    HW238478   4.482   1.732   9.036 -1.0981 -0.8946 -0.7256
 9006SOL     OW38479   0.344   2.023  10.596  0.4414 -0.6004 -0.0932
 9006SOL    HW138480   0.371   2.110  10.626  0.1874 -0.1030 -1.3061
 9006SOL    HW238481   0.274   1.996  10.655  0.3266  0.1470  0.1087
 9007SOL     OW38482   2.541   3.361   8.293  0.0411 -0.2692 -0.7473
 9007SOL    HW138483   2.584   3.277   8.276  0.4942 -0.7461  2.8921
 9007SOL    HW238484   2.609   3.407   8.342  1.9153 -0.3578 -3.2156
 9008SOL     OW38485   0.206   2.899   0.430  0.4668  0.3089  0.7700
 9008SOL    HW138486   0.210   2.898   0.525  2.1914 -2.1822  0.6636
 9008SOL    HW238487   0.253   2.983   0.426  0.1710  0.3094 -2.4909
 9009SOL     OW38488   1.520   3.944   0.510 -0.0121 -0.0551  0.1989
 9009SOL    HW138489   1.611   3.926   0.534  0.3018  0.9092 -0.2688
 9009SOL    HW238490   1.483   3.865   0.550 -0.4639  0.4948  0.8668
 9010SOL     OW38491   1.150   1.900   7.852 -0.4703 -0.5554 -0.3509
 9010SOL    HW138492   1.236   1.919   7.889  0.8831 -1.6369 -2.9786
 9010SOL    HW238493   1.091   1.863   7.919 -1.0470  0.3069 -0.3820
 9011SOL     OW38494   3.640   3.998   1.602  0.0262 -0.3239 -0.2127
 9011SOL    HW138495   3.653   4.014   1.696  1.3632 -2.3239 -0.0540
 9011SOL    HW238496   3.710   4.056   1.572 -0.7601  0.3394 -0.7684
 9012SOL     OW38497   1.744   0.806  13.049 -0.3340 -0.1063 -0.1714
 9012SOL    HW138498   1.829   0.767  13.028 -0.3707  0.4458 -1.3134
 9012SOL    HW238499   1.686   0.762  12.987  1.8529 -2.2611 -0.6515
 9013SOL     OW38500   1.845   3.625  13.294  0.3216 -0.0401  0.1738
 9013SOL    HW138501   1.855   3.685  13.367  0.6230  1.3636 -1.0353
 9013SOL    HW238502   1.926   3.641  13.246  1.9996  0.2519  3.1287
 9014SOL     OW38503   3.051   3.548   8.886  0.3387  0.6570  0.3059
 9014SOL    HW138504   2.957   3.567   8.889  0.2067  0.2759 -1.6957
 9014SOL    HW238505   3.078   3.610   8.953 -0.1009 -1.7203  2.6887
 9015SOL     OW38506   4.296   0.592  14.965 -0.1936 -0.1278 -0.4766
 9015SOL    HW138507   4.377   0.572  15.012 -0.1105  0.4964 -0.3501
 9015SOL    HW238508   4.314   0.674  14.919  1.1320  1.2381  2.5173
 9016SOL     OW38509   0.172   1.854  10.212 -0.1434  0.3667  1.0454
 9016SOL    HW138510   0.215   1.811  10.286  3.7436  0.3061 -1.1936
 9016SOL    HW238511   0.100   1.881  10.268 -1.1363 -1.5102  0.6868
 9017SOL     OW38512   4.262   3.504   5.298 -0.1349 -0.6370 -0.2934
 9017SOL    HW138513   4.188   3.502   5.237 -0.6816  1.2089  0.3239
 9017SOL    HW238514   4.297   3.418   5.276  0.3739 -0.8814  1.5236
 9018SOL     OW38515   1.301   1.854   8.887  0.1331 -0.2828 -0.0753
 9018SOL    HW138516   1.395   1.854   8.873 -0.1835  0.9143 -2.3669
 9018SOL    HW238517   1.273   1.946   8.896  1.4201 -0.0344  1.3252
 9019SOL     OW38518   2.310   3.543   6.271 -0.4996 -0.5803 -0.2483
 9019SOL    HW138519   2.334   3.609   6.335  0.2752 -0.7103 -0.4043
 9019SOL    HW238520   2.338   3.461   6.311  0.5642 -0.0278  0.1268
 9020SOL     OW38521   0.425   1.902   1.700  0.2268  0.1344 -0.4237
 9020SOL    HW138522   0.382   1.933   1.620 -0.1452  0.7217  0.0102
 9020SOL    HW238523   0.416   1.983   1.750 -0.3195 -0.8362  1.0672
 9021SOL     OW38524   3.068   2.277  15.716 -0.3611 -0.2991 -0.6642
 9021SOL    HW138525   3.122   2.278  15.795  0.5565  0.8125 -1.3005
 9021SOL    HW238526   3.033   2.366  15.711  1.2238  0.2920 -1.0044
 9022SOL     OW38527   4.483   1.434   3.308  0.0619 -0.4453 -0.4830
 9022SOL    HW138528   4.405   1.423   3.254  0.1428  0.4098 -0.7723
 9022SOL    HW238529   4.549   1.381   3.264 -0.1487 -0.2243 -1.0580
 9023SOL     OW38530   1.787   4.396  12.386  0.1477  0.2063 -0.4794
 9023SOL    HW138531   1.799   4.301  12.388  0.2106  0.2490  1.1759
 9023SOL    HW238532   1.846   4.423  12.457 -0.2541  0.5508 -0.2793
 9024SOL     OW38533   3.152   0.256   1.833  0.0775  0.3104  0.2471
 9024SOL    HW138534   3.062   0.256   1.864 -0.4676  1.5355 -1.3295
 9024SOL    HW238535   3.151   0.304   1.750  3.1690  0.1477  0.1097
 9025SOL     OW38536   2.890   0.657   8.338  0.4144 -0.5653 -0.3990
 9025SOL    HW138537   2.964   0.706   8.302  0.8864 -0.8439  0.1684
 9025SOL    HW238538   2.923   0.567   8.336  0.2168 -0.6555  0.4407
 9026SOL     OW38539   2.715   2.469   6.394  0.2343 -0.0780  0.4728
 9026SOL    HW138540   2.769   2.495   6.469  1.6910 -1.0327 -0.2549
 9026SOL    HW238541   2.726   2.546   6.338 -0.8746 -0.2170  0.0676
 9027SOL     OW38542   0.014   2.917   8.458 -0.3273  0.1229 -0.1947
 9027SOL    HW138543   0.103   2.891   8.435 -0.8209 -1.9852  0.3034
 9027SOL    HW238544   0.018   3.010   8.434 -2.1845  0.7972  2.1002
 9028SOL     OW38545   3.374   0.743   8.097  0.1491 -0.2696  0.1002
 9028SOL    HW138546   3.330   0.661   8.076 -1.5862  0.7192 -0.0520
 9028SOL    HW238547   3.323   0.806   8.046 -0.7008 -1.6060 -0.7225
 9029SOL     OW38548   2.816   0.044   4.721  0.0918 -0.4800  0.5670
 9029SOL    HW138549   2.794   0.091   4.802 -1.0425  1.2880 -0.7726
 9029SOL    HW238550   2.800   4.683   4.758 -0.5650 -0.7627 -0.3856
 9030SOL     OW38551   2.096   3.670   1.650 -0.7340  0.3021  0.0551
 9030SOL    HW138552   2.182   3.662   1.690 -0.6310 -0.9495 -0.4240
 9030SOL    HW238553   2.045   3.602   1.695 -1.1191  0.1608 -0.5935
 9031SOL     OW38554   0.438   0.237   6.236 -0.2566  0.4568  0.3460
 9031SOL    HW138555   0.500   0.294   6.190  1.0115 -1.4879 -0.3094
 9031SOL    HW238556   0.420   0.181   6.161  2.5637 -1.3186  0.9992
 9032SOL     OW38557   3.179   4.194  11.245  0.1599 -0.4038  0.0234
 9032SOL    HW138558   3.255   4.250  11.228  0.1981 -0.0642  1.2783
 9032SOL    HW238559   3.230   4.113  11.246 -0.5769 -0.8633 -0.2571
 9033SOL     OW38560   1.220   3.804   1.889 -0.4047 -0.1412 -0.3517
 9033SOL    HW138561   1.265   3.889   1.891 -2.2850  0.8744 -0.9925
 9033SOL    HW238562   1.145   3.827   1.833  0.6127 -0.1024 -1.6881
 9034SOL     OW38563   3.493   4.465   3.042 -0.2994  0.0717 -0.9593
 9034SOL    HW138564   3.527   4.408   3.111 -1.2715 -0.0067 -0.5499
 9034SOL    HW238565   3.422   4.408   3.013 -1.5377  1.3211 -0.3818
 9035SOL     OW38566   1.823   1.748   6.991  0.0050 -0.4449  0.1948
 9035SOL    HW138567   1.834   1.655   6.969 -1.2719 -0.3302 -0.9174
 9035SOL    HW238568   1.913   1.774   6.975 -0.0083 -0.5661 -0.0769
 9036SOL     OW38569   2.267   3.360   8.317  0.7046  0.3062 -0.6613
 9036SOL    HW138570   2.247   3.449   8.345  0.0039 -0.4262  1.1754
 9036SOL    HW238571   2.363   3.363   8.315  0.8040 -1.9502  0.2265
 9037SOL     OW38572   3.705   0.746   2.175  0.0053  0.4010 -0.4983
 9037SOL    HW138573   3.778   0.784   2.224 -0.4703  0.9076 -0.1826
 9037SOL    HW238574   3.660   0.694   2.242  0.5305 -0.2687 -0.6740
 9038SOL     OW38575   4.307   2.001  16.504 -0.4219  0.1180  0.2088
 9038SOL    HW138576   4.230   1.964  16.548 -0.1217  0.0955  0.7125
 9038SOL    HW238577   4.271   2.072  16.449  1.2133  1.2784  0.6353
 9039SOL     OW38578   0.489   1.776   1.971  0.3231  0.0176  0.2716
 9039SOL    HW138579   0.469   1.799   1.880 -1.6195  1.1893  0.9908
 9039SOL    HW238580   0.560   1.836   1.995  2.1789 -2.1310  0.1348
 9040SOL     OW38581   4.172   0.949  15.493 -0.4280  0.2312 -0.6780
 9040SOL    HW138582   4.103   0.973  15.431 -0.7901  0.1613 -0.2986
 9040SOL    HW238583   4.167   1.027  15.549 -1.4476  0.6361 -1.3262
 9041SOL     OW38584   2.311   2.406   3.160 -0.1118  0.3971 -0.5613
 9041SOL    HW138585   2.330   2.312   3.160 -0.8387  0.2639  2.2402
 9041SOL    HW238586   2.266   2.413   3.076  1.2965  0.8459 -1.2778
 9042SOL     OW38587   1.701   0.971  10.033  0.6453  0.8166  0.4674
 9042SOL    HW138588   1.622   0.963  10.087  0.0789 -0.5708 -0.5659
 9042SOL    HW238589   1.723   0.880  10.016 -0.2141  0.6373  0.2744
 9043SOL     OW38590   1.531   4.147   6.480  0.0688 -0.0924  0.1343
 9043SOL    HW138591   1.516   4.113   6.392 -1.8845 -2.3143  1.3328
 9043SOL    HW238592   1.442   4.178   6.497 -0.7246 -1.0871 -2.2182
 9044SOL     OW38593   3.615   2.573   7.408  0.7294  0.0193 -0.3295
 9044SOL    HW138594   3.681   2.601   7.471  0.3447 -0.3188  0.2258
 9044SOL    HW238595   3.649   2.489   7.377  0.3841  0.1129 -0.9589
 9045SOL     OW38596   2.770   4.221   4.518  0.1907  0.0653 -0.5670
 9045SOL    HW138597   2.732   4.155   4.576 -2.8063  3.3425  1.1662
 9045SOL    HW238598   2.857   4.212   4.558 -0.2997  0.5087  0.5866
 9046SOL     OW38599   4.565   4.504   7.837 -0.1156  0.3868 -0.0511
 9046SOL    HW138600   4.532   4.585   7.797  0.3662  0.9546  0.6865
 9046SOL    HW238601   4.547   4.447   7.762 -2.8579 -0.8127  1.5386
 9047SOL     OW38602   0.310   0.126   1.353 -0.2050  0.1721  0.2756
 9047SOL    HW138603   0.239   0.112   1.415 -0.8195  1.3347 -0.1650
 9047SOL    HW238604   0.268   0.083   1.279  1.7657 -0.9548 -0.1915
 9048SOL     OW38605   2.171   3.325  12.489  0.0927  0.5577 -0.2385
 9048SOL    HW138606   2.106   3.283  12.433 -0.4572  1.5233 -0.3250
 9048SOL    HW238607   2.247   3.267  12.482 -0.8334 -0.5466 -0.9975
 9049SOL     OW38608   4.154   2.706   9.225 -0.0682 -0.0034  0.2643
 9049SOL    HW138609   4.204   2.728   9.147 -0.0415  0.7441  0.4944
 9049SOL    HW238610   4.164   2.782   9.282  0.6949  0.1008 -0.0005
 9050SOL     OW38611   2.290   1.663  10.362 -0.1667  0.5636 -1.2620
 9050SOL    HW138612   2.269   1.662  10.269  0.3468 -0.3554 -1.3678
 9050SOL    HW238613   2.206   1.677  10.407 -0.1733 -1.5254 -0.5745
 9051SOL     OW38614   2.677   3.485   3.027 -0.5529 -0.4371  0.1184
 9051SOL    HW138615   2.682   3.512   2.935 -2.3875 -2.4894 -0.5750
 9051SOL    HW238616   2.679   3.389   3.019 -0.5047 -0.1820 -2.7724
 9052SOL     OW38617   1.535   1.494   8.309 -0.0587  0.3017  0.1423
 9052SOL    HW138618   1.489   1.563   8.261  1.2336 -0.8751 -2.8080
 9052SOL    HW238619   1.498   1.505   8.397 -0.1818  0.8135  0.0301
 9053SOL     OW38620   0.236   1.000  12.142 -0.0868 -0.5362 -0.0276
 9053SOL    HW138621   0.273   0.960  12.063 -0.2238  1.0819 -0.9261
 9053SOL    HW238622   0.151   0.958  12.150  1.4355 -3.4050  0.7539
 9054SOL     OW38623   0.942   0.316  12.418  0.7915 -0.9316  0.4282
 9054SOL    HW138624   0.861   0.273  12.390  0.3857  1.5528 -2.1957
 9054SOL    HW238625   1.001   0.240  12.416  1.0754 -0.7232  0.9633
 9055SOL     OW38626   4.183   3.845  17.315  0.1461  0.0880 -0.3225
 9055SOL    HW138627   4.097   3.859  17.275  0.5441  1.5561 -0.6553
 9055SOL    HW238628   4.240   3.873  17.244  0.5110  0.6870  0.2071
 9056SOL     OW38629   0.226   1.313  10.300  0.0634 -0.7628  0.3305
 9056SOL    HW138630   0.300   1.279  10.351  1.2104  2.3718  0.7681
 9056SOL    HW238631   0.251   1.405  10.304 -0.2026 -0.6787  0.0944
 9057SOL     OW38632   0.500   4.036   5.611  0.5877 -0.1192 -0.0929
 9057SOL    HW138633   0.419   4.022   5.659  0.0708  2.1694 -0.2718
 9057SOL    HW238634   0.485   3.996   5.525 -0.3647  0.5522 -0.2442
 9058SOL     OW38635   1.388   4.455  10.548 -0.1439  0.3637  0.0623
 9058SOL    HW138636   1.447   4.383  10.528 -1.3625 -0.6172 -0.0356
 9058SOL    HW238637   1.372   4.443  10.642 -0.3874 -1.7620 -0.2473
 9059SOL     OW38638   2.012   4.176   7.391  0.5616 -0.2992 -0.1054
 9059SOL    HW138639   2.002   4.136   7.305  3.5339 -0.1304 -0.4945
 9059SOL    HW238640   1.925   4.210   7.413  0.8469 -0.0675  0.6767
 9060SOL     OW38641   4.229   3.558  12.593  0.1777  0.4590 -0.3426
 9060SOL    HW138642   4.324   3.555  12.592  0.2113  1.1123  1.1238
 9060SOL    HW238643   4.212   3.470  12.558  1.2531 -0.3603  1.2029
 9061SOL     OW38644   3.173   4.178   6.496 -0.1239 -0.0052 -0.0686
 9061SOL    HW138645   3.155   4.222   6.413  0.2787  1.4927  0.6488
 9061SOL    HW238646   3.258   4.216   6.517  0.0009  0.0466 -0.6543
 9062SOL     OW38647   4.555   1.564   0.172 -0.5118 -0.1289 -0.3733
 9062SOL    HW138648   4.470   1.537   0.136 -0.3522  1.3142 -1.8388
 9062SOL    HW238649   4.589   1.612   0.097 -0.5506  1.4208  0.6148
 9063SOL     OW38650   4.619   0.217   5.829 -0.5857  0.0554 -0.6034
 9063SOL    HW138651   4.686   0.285   5.837  0.5984 -0.9937 -1.7243
 9063SOL    HW238652   4.544   0.267   5.861 -1.2142 -0.7131 -0.8751
 9064SOL     OW38653   2.898   0.066   7.961  0.6190  0.0797 -0.2148
 9064SOL    HW138654   2.877   0.029   8.046 -1.2913 -1.2782 -1.2845
 9064SOL    HW238655   2.869   4.722   7.902  0.8680 -0.1034 -0.1220
 9065SOL     OW38656   4.691   1.078  13.854  0.0643  0.1016  0.3095
 9065SOL    HW138657   4.629   1.071  13.781 -3.8229 -0.1215  3.6059
 9065SOL    HW238658   0.032   1.116  13.796 -0.2536  0.8418  0.4331
 9066SOL     OW38659   2.266   1.639   5.727  0.3485 -0.1942 -0.0389
 9066SOL    HW138660   2.176   1.661   5.701  0.0722  1.5188  2.4511
 9066SOL    HW238661   2.295   1.571   5.665 -1.8588 -1.3972  0.2336
 9067SOL     OW38662   4.258   4.051   2.012  0.2208 -0.3152 -0.0067
 9067SOL    HW138663   4.268   3.996   1.935 -0.4148 -0.9041  0.3221
 9067SOL    HW238664   4.323   4.119   1.992 -0.5964  0.2138 -0.8738
 9068SOL     OW38665   2.808   1.238   7.959  0.0818 -0.4444  0.5612
 9068SOL    HW138666   2.783   1.146   7.950  0.4639 -0.4256 -0.7347
 9068SOL    HW238667   2.894   1.234   7.917  0.6719  1.8097  1.5369
 9069SOL     OW38668   4.381   2.940  11.828 -0.5555 -0.6479  0.0492
 9069SOL    HW138669   4.417   3.015  11.873 -0.5914  0.1664 -1.2740
 9069SOL    HW238670   4.356   2.887  11.904 -1.1319 -0.6654 -0.1462
 9070SOL     OW38671   4.571   1.626  13.461 -0.2253 -0.5642 -0.4363
 9070SOL    HW138672   4.629   1.553  13.442 -0.7848 -2.0417  3.5447
 9070SOL    HW238673   4.577   1.670  13.376 -0.5467 -0.4251 -0.3890
 9071SOL     OW38674   3.273   0.525   4.807  0.2632 -0.1084 -0.1932
 9071SOL    HW138675   3.216   0.519   4.730 -1.0750  1.7098  0.6504
 9071SOL    HW238676   3.266   0.620   4.821 -0.6914 -0.3287  0.8442
 9072SOL     OW38677   4.153   1.910   9.302 -0.2160  0.4722 -0.3925
 9072SOL    HW138678   4.228   1.859   9.331  0.1392  1.0803 -0.2573
 9072SOL    HW238679   4.087   1.840   9.302  0.6664 -0.3505 -0.6041
 9073SOL     OW38680   4.472   3.541   1.432 -0.7382  0.0676 -0.1569
 9073SOL    HW138681   4.526   3.479   1.482 -0.7097  0.3487  0.1630
 9073SOL    HW238682   4.464   3.494   1.349 -0.4688 -0.9988  0.4256
 9074SOL     OW38683   2.561   0.858   9.055  0.3229  0.3365 -0.5203
 9074SOL    HW138684   2.486   0.862   8.997 -0.0645 -1.9511 -0.1684
 9074SOL    HW238685   2.580   0.765   9.044  0.9547  0.7103 -2.6511
 9075SOL     OW38686   4.179   0.469   4.177  0.0206  0.3705 -0.2435
 9075SOL    HW138687   4.117   0.481   4.248 -1.9787  1.6017 -2.1992
 9075SOL    HW238688   4.115   0.471   4.106  0.7934 -1.5800 -0.9844
 9076SOL     OW38689   3.654   3.316  14.485  0.3541 -0.1534  0.2349
 9076SOL    HW138690   3.665   3.285  14.575  1.3385  0.4863  0.3229
 9076SOL    HW238691   3.627   3.407  14.489 -0.1750 -0.2802 -0.3993
 9077SOL     OW38692   2.037   2.447   7.767  0.0052  0.2239  0.2776
 9077SOL    HW138693   1.989   2.397   7.701  0.1293 -0.3090  0.5924
 9077SOL    HW238694   1.961   2.476   7.816  0.0286  1.3556 -0.3535
 9078SOL     OW38695   0.651   3.841   2.663 -0.1420  0.6449 -0.5344
 9078SOL    HW138696   0.659   3.905   2.734 -1.9390  0.9825 -0.6167
 9078SOL    HW238697   0.560   3.813   2.679  0.0283  0.3516 -0.0571
 9079SOL     OW38698   0.287   1.871   3.257 -0.4133  0.1127 -0.8184
 9079SOL    HW138699   0.356   1.852   3.193 -0.3427 -2.8087  0.1149
 9079SOL    HW238700   0.295   1.962   3.286 -0.3616  0.4518 -1.9154
 9080SOL     OW38701   3.598   3.769   5.298 -0.1597  0.0393  0.2574
 9080SOL    HW138702   3.529   3.828   5.325 -1.8277 -1.7480 -0.0893
 9080SOL    HW238703   3.547   3.689   5.284 -1.2345  0.8131 -0.2669
 9081SOL     OW38704   3.928   2.416  14.521  0.2195 -0.1608  0.0718
 9081SOL    HW138705   3.974   2.488  14.478 -2.1741  0.4575 -1.4775
 9081SOL    HW238706   3.992   2.345  14.515 -0.0756 -0.3007 -1.2271
 9082SOL     OW38707   4.576   0.133  13.063 -0.3266 -0.3114 -0.1571
 9082SOL    HW138708   4.603   0.183  12.985  2.2185  1.3578  1.7685
 9082SOL    HW238709   4.531   0.205  13.108 -3.1190 -2.3511  0.2563
 9083SOL     OW38710   0.890   2.673  16.326  0.2447  0.0956 -0.1594
 9083SOL    HW138711   0.917   2.702  16.413 -0.8989  2.4738 -0.5827
 9083SOL    HW238712   0.795   2.669  16.343  0.4395 -1.6933  0.4782
 9084SOL     OW38713   2.096   0.420   9.917  0.3904 -0.7491 -0.3882
 9084SOL    HW138714   2.010   0.460   9.908  1.6719  1.3474 -3.3379
 9084SOL    HW238715   2.155   0.494   9.930 -0.3828 -0.1248 -0.4014
 9085SOL     OW38716   4.639   2.095   3.785 -0.5293 -0.1134  0.4125
 9085SOL    HW138717   4.620   2.062   3.697  0.0778 -0.9890  0.6156
 9085SOL    HW238718   4.649   2.016   3.838 -1.1878  1.9924  3.6513
 9086SOL     OW38719   1.285   4.211   6.446 -0.0637  0.2821  0.2231
 9086SOL    HW138720   1.252   4.299   6.429  2.9049  1.7087  1.8390
 9086SOL    HW238721   1.209   4.155   6.437 -0.7007  1.7405 -3.3792
 9087SOL     OW38722   2.059   4.712  10.051  0.1332 -0.0111  0.0047
 9087SOL    HW138723   2.018   0.031   9.976  2.7469 -0.1136 -1.4970
 9087SOL    HW238724   2.080   0.065  10.102  1.9168 -0.6649  0.2558
 9088SOL     OW38725   0.562   4.464   2.641 -0.1820 -0.5431 -0.5334
 9088SOL    HW138726   0.641   4.424   2.604  0.0360 -0.7881  0.1966
 9088SOL    HW238727   0.594   4.531   2.701  0.2936 -0.9456 -0.3404
 9089SOL     OW38728   1.971   2.086   2.832 -0.3088  0.3139  0.1086
 9089SOL    HW138729   2.063   2.071   2.812 -0.5767  2.0979 -2.4117
 9089SOL    HW238730   1.927   2.098   2.748 -0.8323 -2.7242 -0.0663
 9090SOL     OW38731   2.257   2.003   5.986  0.2848  0.5469 -0.0042
 9090SOL    HW138732   2.193   2.055   5.937 -1.0299 -0.8134  0.2946
 9090SOL    HW238733   2.325   2.070   5.997 -0.6649  1.0084  2.8084
 9091SOL     OW38734   1.632   0.967   6.558 -0.4334 -0.0192 -0.2921
 9091SOL    HW138735   1.619   1.018   6.638 -0.1777 -0.0592 -0.2239
 9091SOL    HW238736   1.584   1.015   6.491 -0.5834 -1.5582 -1.2868
 9092SOL     OW38737   3.182   3.279   2.380 -0.1285 -0.4738  0.0097
 9092SOL    HW138738   3.157   3.272   2.472 -1.3246 -1.3407 -0.3725
 9092SOL    HW238739   3.211   3.191   2.354  0.7296 -0.2770  0.3294
 9093SOL     OW38740   3.391   1.965  16.182  0.7819  0.4754  0.0405
 9093SOL    HW138741   3.454   2.020  16.137  2.0922 -0.8462  0.2524
 9093SOL    HW238742   3.336   2.038  16.210  1.5259  1.3228 -0.7290
 9094SOL     OW38743   4.591   1.648   0.993 -0.6057 -0.3114  0.3339
 9094SOL    HW138744   4.518   1.627   1.051 -1.8820  0.2155 -1.0878
 9094SOL    HW238745   4.602   1.742   1.005  0.8731 -0.3423 -0.7148
 9095SOL     OW38746   2.205   2.823   3.825  0.0344 -0.0378 -0.4149
 9095SOL    HW138747   2.207   2.800   3.732 -0.5926  0.7848 -0.6320
 9095SOL    HW238748   2.110   2.821   3.837 -0.1835 -0.9903 -2.1932
 9096SOL     OW38749   4.382   3.393  14.292 -0.0745 -0.7608 -0.3988
 9096SOL    HW138750   4.458   3.389  14.235  0.8426 -0.7491  0.8131
 9096SOL    HW238751   4.374   3.483  14.323  0.2240 -0.7124 -0.4585
 9097SOL     OW38752   2.162   0.728   0.434  0.0635 -1.1421  0.4311
 9097SOL    HW138753   2.175   0.644   0.390  0.1016 -0.3370 -1.0812
 9097SOL    HW238754   2.161   0.695   0.524 -1.4556 -0.2321  0.7484
 9098SOL     OW38755   1.491   1.916   7.706  0.1062 -0.5170 -0.1446
 9098SOL    HW138756   1.450   1.924   7.793  0.2986  3.9185 -0.4953
 9098SOL    HW238757   1.442   1.835   7.688 -0.6736 -0.4867  1.8278
 9099SOL     OW38758   0.754   4.615   0.932 -1.0310  0.0179 -0.3126
 9099SOL    HW138759   0.759   4.705   0.963  2.1455 -0.0612 -0.6480
 9099SOL    HW238760   0.784   4.622   0.841  0.3343  0.0305  0.1384
 9100SOL     OW38761   1.846   4.258   6.919  0.4990 -0.3723  0.1282
 9100SOL    HW138762   1.815   4.349   6.915 -0.5160 -0.6451  1.8173
 9100SOL    HW238763   1.769   4.210   6.947 -0.3506  0.2977 -1.0640
 9101SOL     OW38764   0.126   2.110   5.955  0.2853 -0.0419 -0.2390
 9101SOL    HW138765   0.171   2.078   6.033 -0.0046 -0.4190 -0.2226
 9101SOL    HW238766   0.072   2.035   5.929  0.0923 -0.2678  0.8014
 9102SOL     OW38767   0.175   1.602   8.085  0.1000  0.5996  0.0920
 9102SOL    HW138768   0.111   1.640   8.024  0.2778  3.6907  1.8431
 9102SOL    HW238769   0.129   1.640   8.161 -0.7422 -1.9168  0.8575
 9103SOL     OW38770   1.695   0.659   9.222 -0.6675 -0.1878 -0.0789
 9103SOL    HW138771   1.780   0.684   9.186 -0.2746 -1.8648 -0.3037
 9103SOL    HW238772   1.644   0.739   9.209 -0.9456 -0.0750  1.7192
 9104SOL     OW38773   0.808   4.351   9.604 -0.3405  0.5513 -0.4146
 9104SOL    HW138774   0.772   4.286   9.663  0.7475 -0.9516 -1.4008
 9104SOL    HW238775   0.884   4.388   9.649 -0.3453  0.2399 -0.1511
 9105SOL     OW38776   3.811   1.031   4.924 -0.3537 -0.0887 -0.5894
 9105SOL    HW138777   3.779   1.014   4.835  0.6511  1.2423 -1.2071
 9105SOL    HW238778   3.904   1.010   4.922 -0.1389  0.7411  1.9313
 9106SOL     OW38779   2.302   3.434   2.539 -0.2447  0.0908 -0.3952
 9106SOL    HW138780   2.209   3.416   2.526 -0.4800 -0.5531  2.3282
 9106SOL    HW238781   2.316   3.477   2.454  0.0510 -2.9839 -1.9180
 9107SOL     OW38782   3.088   4.681   9.747  0.4343  0.5181  0.0634
 9107SOL    HW138783   2.998   4.675   9.716  0.6041 -2.9736  0.3277
 9107SOL    HW238784   3.077   0.045   9.781 -0.4129  0.8246 -1.0561
 9108SOL     OW38785   4.105   2.388  11.425  0.1915 -0.1801  0.3143
 9108SOL    HW138786   4.144   2.474  11.444 -1.8702  0.5653  1.1908
 9108SOL    HW238787   4.063   2.373  11.510  0.5069 -0.7991  0.3565
 9109SOL     OW38788   2.544   0.057   8.497  0.0193 -0.4263 -0.0399
 9109SOL    HW138789   2.535   0.017   8.410 -0.1327  0.2557 -0.3348
 9109SOL    HW238790   2.615   0.007   8.539  1.4296  1.1022 -0.5971
 9110SOL     OW38791   2.412   1.275  17.038 -0.0851 -0.2529 -0.3220
 9110SOL    HW138792   2.488   1.253  17.092  0.7283 -1.5075 -1.9980
 9110SOL    HW238793   2.436   1.249  16.950  0.4932 -1.6191  0.2468
 9111SOL     OW38794   3.643   3.939   2.081 -0.0074 -0.2537 -0.0542
 9111SOL    HW138795   3.632   4.033   2.100  2.7045 -0.3993  2.2860
 9111SOL    HW238796   3.552   3.910   2.077  0.4236 -1.6839  0.4047
 9112SOL     OW38797   3.238   1.109   4.545 -0.0122  0.2917  0.4331
 9112SOL    HW138798   3.211   1.070   4.461  0.7851  0.1537  0.2439
 9112SOL    HW238799   3.213   1.042   4.609  1.0235 -1.2344 -0.7699
 9113SOL     OW38800   1.460   0.766   4.091 -0.4117 -0.1052  0.5829
 9113SOL    HW138801   1.494   0.847   4.128 -2.1642  0.0596  1.8329
 9113SOL    HW238802   1.483   0.696   4.151 -1.3137 -1.2735 -0.4361
 9114SOL     OW38803   2.663   0.293  16.267  0.2786  0.0183  0.3233
 9114SOL    HW138804   2.592   0.240  16.233 -0.1764  0.7477  0.1454
 9114SOL    HW238805   2.721   0.308  16.193  0.5422 -1.9472  0.1233
 9115SOL     OW38806   2.624   2.608   6.951 -0.7094  0.4243  0.3023
 9115SOL    HW138807   2.595   2.688   6.908  0.8501  1.6808  1.5782
 9115SOL    HW238808   2.687   2.642   7.016  2.0287  0.0770 -2.1553
 9116SOL     OW38809   3.130   1.836   8.870  0.4558  0.1044 -0.3627
 9116SOL    HW138810   3.148   1.907   8.809  0.0613 -1.1762 -1.9884
 9116SOL    HW238811   3.204   1.848   8.929 -0.0976  0.7427  0.1937
 9117SOL     OW38812   1.099   3.746  15.633  0.3504 -0.3708 -0.0190
 9117SOL    HW138813   1.093   3.700  15.717 -0.2132  2.0409  1.2676
 9117SOL    HW238814   1.010   3.780  15.622  0.1278 -0.3897  1.7487
 9118SOL     OW38815   0.497   2.105   7.772 -0.2770  0.3891  0.8492
 9118SOL    HW138816   0.559   2.041   7.738  1.1454  2.6954 -0.9602
 9118SOL    HW238817   0.551   2.122   7.849 -0.4482  0.2619  0.9968
 9119SOL     OW38818   4.620   1.115  16.373 -0.1967 -0.5739 -0.8555
 9119SOL    HW138819   4.601   1.202  16.339 -0.6653 -1.5950 -3.2048
 9119SOL    HW238820   4.643   1.066  16.294 -1.2132  1.2108 -2.2723
 9120SOL     OW38821   1.267   0.665   7.299 -0.2018  0.6880 -0.4232
 9120SOL    HW138822   1.362   0.654   7.303 -0.4827 -2.4357 -2.1140
 9120SOL    HW238823   1.259   0.753   7.263 -1.5742  0.6816 -0.1301
 9121SOL     OW38824   4.293   1.297  10.025 -0.3091  0.3052  0.7064
 9121SOL    HW138825   4.345   1.369   9.990  1.8253 -0.9423  1.3522
 9121SOL    HW238826   4.290   1.326  10.116 -2.4514  0.9729  0.4279
 9122SOL     OW38827   1.735   3.273   5.662  0.0435 -0.2348  0.1929
 9122SOL    HW138828   1.800   3.214   5.625  2.4307  3.2753 -1.2603
 9122SOL    HW238829   1.703   3.326   5.588  1.6608  0.6779  0.1412
 9123SOL     OW38830   3.550   3.261   5.497  0.3256  0.9120  0.0384
 9123SOL    HW138831   3.599   3.210   5.562  2.0140  1.1444 -1.0379
 9123SOL    HW238832   3.551   3.351   5.528 -1.6289  1.7859 -2.4348
 9124SOL     OW38833   1.522   1.703   3.710  1.4090 -0.1206 -0.6681
 9124SOL    HW138834   1.606   1.747   3.724  0.5087  1.7136 -1.1292
 9124SOL    HW238835   1.543   1.609   3.715  0.6047 -0.2434  0.2672
 9125SOL     OW38836   3.287   3.466   1.114 -0.6722 -0.5273  0.0191
 9125SOL    HW138837   3.341   3.494   1.187 -1.4425 -0.1303  0.4449
 9125SOL    HW238838   3.335   3.496   1.037  0.1938  1.4981  1.3309
 9126SOL     OW38839   2.291   1.334   6.509  0.4846 -0.1190 -0.7543
 9126SOL    HW138840   2.245   1.257   6.474 -0.7395 -0.7508  2.1970
 9126SOL    HW238841   2.368   1.302   6.556 -0.1344 -2.5125 -1.3632
 9127SOL     OW38842   4.471   0.597   4.706 -0.4174 -0.0141 -0.2341
 9127SOL    HW138843   4.391   0.640   4.677 -0.0836  1.0242  0.3898
 9127SOL    HW238844   4.443   0.516   4.663 -0.3880  0.7275 -1.6605
 9128SOL     OW38845   2.527   4.651  16.990 -0.4491 -0.6024 -0.3972
 9128SOL    HW138846   2.617   4.623  16.973 -0.2836  0.4912 -1.2619
 9128SOL    HW238847   2.541   4.691  17.076 -0.6166 -1.3636 -0.0172
 9129SOL     OW38848   3.439   0.438  14.526  0.4768  0.5992  0.5502
 9129SOL    HW138849   3.528   0.410  14.548 -1.6777 -5.6738  1.2423
 9129SOL    HW238850   3.407   0.447  14.616  0.7328 -0.0976  0.7111
 9130SOL     OW38851   1.988   0.895   6.377  0.0023 -0.2289  1.2043
 9130SOL    HW138852   2.014   0.850   6.297 -0.9889  0.1434  0.6711
 9130SOL    HW238853   1.906   0.935   6.347  0.7674  0.8926  0.6274
 9131SOL     OW38854   1.303   2.859   8.237  0.2571  0.3984 -0.4109
 9131SOL    HW138855   1.251   2.851   8.317  0.2575 -1.5316 -0.6112
 9131SOL    HW238856   1.380   2.899   8.277 -0.5024  0.2981  1.1319
 9132SOL     OW38857   3.930   3.635   6.760 -0.5462 -0.3603  0.3491
 9132SOL    HW138858   3.884   3.593   6.688 -3.8387  1.9440  1.1243
 9132SOL    HW238859   3.858   3.684   6.801 -0.4368  0.5550 -0.5385
 9133SOL     OW38860   2.528   4.115   4.909  0.7611 -0.0679  0.3628
 9133SOL    HW138861   2.534   4.155   4.823  0.9318  2.4973  1.5696
 9133SOL    HW238862   2.620   4.126   4.933  0.1807 -0.0912  2.6372
 9134SOL     OW38863   3.980   0.344   7.351 -0.1084  0.7769 -0.4559
 9134SOL    HW138864   4.072   0.322   7.367 -1.4270 -3.4258  1.4959
 9134SOL    HW238865   3.979   0.425   7.300 -0.4206  2.0412  1.6123
 9135SOL     OW38866   1.940   3.466   4.222  0.0270 -0.0673  0.2961
 9135SOL    HW138867   1.877   3.537   4.233  2.0784  1.8634 -0.5279
 9135SOL    HW238868   2.020   3.514   4.243  0.6578 -0.3584 -1.4645
 9136SOL     OW38869   2.406   3.400   6.901  0.5185  0.5257 -0.0388
 9136SOL    HW138870   2.405   3.387   6.996  0.2123 -1.3041 -0.2974
 9136SOL    HW238871   2.452   3.320   6.876 -1.1049 -0.6150  0.6470
 9137SOL     OW38872   2.293   2.055   1.594 -0.1337 -0.3358  0.2182
 9137SOL    HW138873   2.364   1.991   1.600  1.3828  1.3152 -0.1900
 9137SOL    HW238874   2.217   1.996   1.590  0.7225 -1.3734 -0.6385
 9138SOL     OW38875   0.171   0.904   5.225  1.0023  0.0407  0.0607
 9138SOL    HW138876   0.122   0.824   5.204  0.0947  1.1382 -2.0336
 9138SOL    HW238877   0.176   0.951   5.142 -1.6851  3.0848  1.6130
 9139SOL     OW38878   2.699   1.423   6.249 -0.3351  0.0888  0.7754
 9139SOL    HW138879   2.759   1.487   6.210 -0.7093 -0.7503 -1.2125
 9139SOL    HW238880   2.659   1.480   6.314 -0.3121 -0.4817  1.2902
 9140SOL     OW38881   4.113   4.384   9.063 -1.0328  0.2210  0.6828
 9140SOL    HW138882   4.032   4.417   9.024 -0.8056 -2.2844 -1.8919
 9140SOL    HW238883   4.074   4.328   9.130 -1.2572  1.4628  1.6036
 9141SOL     OW38884   0.361   3.625   8.042  0.5288  0.1060  0.0677
 9141SOL    HW138885   0.275   3.650   8.009  0.3809 -0.1097  0.2957
 9141SOL    HW238886   0.361   3.531   8.060  1.6867  0.2864  1.0180
 9142SOL     OW38887   0.293   0.951  12.401  0.2106 -0.6827 -0.2023
 9142SOL    HW138888   0.267   0.950  12.309 -1.2349  1.6174  0.1819
 9142SOL    HW238889   0.220   1.001  12.438  1.0469  3.3005 -3.9915
 9143SOL     OW38890   3.818   3.332  12.041  0.2116 -0.3415 -0.4616
 9143SOL    HW138891   3.836   3.407  12.098  0.0750 -1.1126  0.6085
 9143SOL    HW238892   3.740   3.295  12.083  0.3442  0.3105  0.3701
 9144SOL     OW38893   2.618   2.780   3.075 -0.3270 -0.1498 -0.3298
 9144SOL    HW138894   2.669   2.806   2.998 -2.1935  2.0331 -0.8320
 9144SOL    HW238895   2.569   2.862   3.070  0.6387  0.3436 -1.6091
 9145SOL     OW38896   0.847   3.127  11.682  0.0664 -0.2644 -0.0444
 9145SOL    HW138897   0.890   3.140  11.766 -2.3765 -0.3978  1.2302
 9145SOL    HW238898   0.797   3.205  11.660 -1.1846 -1.5991 -1.9252
 9146SOL     OW38899   4.596   3.351   3.747 -0.0076  0.3544  0.4166
 9146SOL    HW138900   4.669   3.406   3.718  1.3983 -0.9949  1.4060
 9146SOL    HW238901   4.614   3.340   3.841  4.8256  2.0144 -0.3292
 9147SOL     OW38902   0.666   2.259  14.953 -0.3101  0.3681 -0.3474
 9147SOL    HW138903   0.693   2.265  14.861  0.5244 -2.5106 -0.2804
 9147SOL    HW238904   0.571   2.257  14.948 -0.4111 -3.8674  3.4060
 9148SOL     OW38905   1.158   4.194  14.024 -0.3777  0.0803  0.1837
 9148SOL    HW138906   1.190   4.240  14.101 -0.0238 -0.2554  0.2413
 9148SOL    HW238907   1.082   4.151  14.063  1.3073 -1.7499  1.4701
 9149SOL     OW38908   1.254   4.373   4.463  0.1384 -0.0474  0.6760
 9149SOL    HW138909   1.275   4.282   4.441  1.1012  0.6268 -1.1939
 9149SOL    HW238910   1.170   4.379   4.417 -0.6849  0.3936  2.2419
 9150SOL     OW38911   1.239   1.171   4.878  0.1100 -0.2361 -0.1858
 9150SOL    HW138912   1.242   1.261   4.911 -1.6748  0.3437 -1.5944
 9150SOL    HW238913   1.324   1.172   4.835  0.8880  0.3135  1.4031
 9151SOL     OW38914   4.480   3.902  13.652 -0.3342 -0.1984  0.3385
 9151SOL    HW138915   4.559   3.909  13.706 -1.0275  2.0297  1.0572
 9151SOL    HW238916   4.437   3.978  13.690  2.4206  0.4541  2.1896
 9152SOL     OW38917   1.963   0.711   7.502 -0.2467 -0.5618 -0.7111
 9152SOL    HW138918   1.876   0.730   7.536 -0.7780 -0.6989 -1.9913
 9152SOL    HW238919   1.971   0.616   7.513  0.7644 -0.6499 -2.1756
 9153SOL     OW38920   3.351   2.092  10.563 -0.5813 -0.8846 -0.0685
 9153SOL    HW138921   3.426   2.041  10.592 -1.8340 -2.1057  1.0564
 9153SOL    HW238922   3.321   2.136  10.643 -0.7881 -0.0782 -0.5888
 9154SOL     OW38923   2.159   1.028   9.756  0.4747  0.3946 -0.3993
 9154SOL    HW138924   2.099   1.076   9.813  0.0034  0.0155 -0.5827
 9154SOL    HW238925   2.117   0.942   9.754  0.1830  0.5640 -2.2804
 9155SOL     OW38926   4.341   2.763   7.748  0.6079 -0.7207  0.3254
 9155SOL    HW138927   4.381   2.846   7.776 -0.0713  0.0487 -0.9633
 9155SOL    HW238928   4.251   2.773   7.779  1.0349  0.1283  1.2823
 9156SOL     OW38929   3.449   2.938   6.050 -0.0880 -0.2776 -0.9891
 9156SOL    HW138930   3.475   3.000   5.982  0.1182 -0.9184 -1.4928
 9156SOL    HW238931   3.408   2.872   5.993  0.2261 -1.7041  0.4442
 9157SOL     OW38932   3.313   0.353  13.507 -0.2402  0.2789 -0.8248
 9157SOL    HW138933   3.345   0.390  13.589  0.9438 -1.5626 -0.4556
 9157SOL    HW238934   3.376   0.284  13.488 -3.2165 -2.5978 -0.1037
 9158SOL     OW38935   4.029   2.849  14.335 -0.5693  0.9492  0.0148
 9158SOL    HW138936   4.071   2.821  14.417  1.3965  1.1736 -0.8998
 9158SOL    HW238937   4.000   2.938  14.353  0.5638  1.2697  0.2936
 9159SOL     OW38938   2.970   3.343   7.942  0.3522  0.4851 -0.6053
 9159SOL    HW138939   2.903   3.356   7.875  0.2982  1.1663 -0.4101
 9159SOL    HW238940   3.047   3.319   7.891  1.0149 -2.0865  1.5769
 9160SOL     OW38941   0.048   3.039   2.482 -0.2210 -0.0958  0.1198
 9160SOL    HW138942   4.695   3.028   2.536 -0.8257  0.4481 -0.6545
 9160SOL    HW238943   0.100   2.974   2.528  1.3078  1.7553  1.0051
 9161SOL     OW38944   4.127   3.805  13.994  0.2065 -0.7575 -0.2365
 9161SOL    HW138945   4.109   3.738  13.928  2.7814  0.2526 -1.9448
 9161SOL    HW238946   4.040   3.808  14.035  1.0791  0.2954  1.5191
 9162SOL     OW38947   3.028   4.078   8.546  0.1045  1.5202  0.0449
 9162SOL    HW138948   3.038   3.985   8.569 -0.0301  1.2293 -1.0550
 9162SOL    HW238949   2.942   4.099   8.582  0.3938 -0.9229  2.1756
 9163SOL     OW38950   0.760   0.049  10.930  0.5137 -0.4689 -0.3103
 9163SOL    HW138951   0.828   0.110  10.955 -0.5826  0.8894 -0.6334
 9163SOL    HW238952   0.683   0.102  10.907  0.2414 -0.9545 -0.5223
 9164SOL     OW38953   2.800   0.025   4.445  0.1628  0.8077 -0.1349
 9164SOL    HW138954   2.752   0.096   4.402  0.4589  0.3627 -1.2166
 9164SOL    HW238955   2.779   0.038   4.537 -0.9092  2.3640 -0.5936
 9165SOL     OW38956   0.861   3.307  10.361  0.2136 -0.4379  0.5329
 9165SOL    HW138957   0.821   3.393  10.353  0.2339 -0.5658 -0.8946
 9165SOL    HW238958   0.912   3.295  10.281 -0.1112  1.0201  0.1049
 9166SOL     OW38959   0.323   2.084  14.298 -0.3541 -0.5136  0.2897
 9166SOL    HW138960   0.237   2.046  14.314 -0.3152 -1.2621 -1.2742
 9166SOL    HW238961   0.292   2.172  14.276  2.9490  0.7864  0.9028
 9167SOL     OW38962   2.969   3.595   1.466 -0.2264  0.5097  0.5044
 9167SOL    HW138963   2.949   3.503   1.448 -0.9136  0.8282 -0.3371
 9167SOL    HW238964   2.942   3.635   1.383  3.2271 -0.2107 -0.9554
 9168SOL     OW38965   4.286   4.097  16.397  0.2843 -0.1888  0.5413
 9168SOL    HW138966   4.253   4.026  16.342 -3.9667  1.1151  1.4124
 9168SOL    HW238967   4.281   4.060  16.485 -0.0184 -0.1973  0.5178
 9169SOL     OW38968   3.050   0.397   6.558  0.2270 -0.0349 -0.2392
 9169SOL    HW138969   3.022   0.372   6.470 -1.0252  0.8356 -0.0964
 9169SOL    HW238970   3.104   0.476   6.552 -0.0273  0.0824 -1.0225
 9170SOL     OW38971   1.145   0.201   4.836 -0.3300 -0.0075 -0.1258
 9170SOL    HW138972   1.147   0.288   4.875 -0.9182  0.1265 -0.3897
 9170SOL    HW238973   1.052   0.198   4.813 -0.4774 -2.2862  0.7416
 9171SOL     OW38974   0.098   4.630   1.315  0.2667 -0.9982 -0.4022
 9171SOL    HW138975   0.147   4.549   1.302 -2.3840 -2.3440 -1.9947
 9171SOL    HW238976   0.038   4.617   1.389  0.1559 -2.1661 -0.7017
 9172SOL     OW38977   2.168   1.562  17.076  0.3797 -0.1895  0.0551
 9172SOL    HW138978   2.179   1.652  17.107  0.2201 -0.5740  1.2190
 9172SOL    HW238979   2.135   1.568  16.986 -1.6465 -1.1582  0.7581
 9173SOL     OW38980   2.000   3.646   0.651 -0.1327 -0.1074 -0.8057
 9173SOL    HW138981   2.049   3.699   0.713 -0.7234 -0.7386  0.1996
 9173SOL    HW238982   1.925   3.629   0.708 -1.0249  2.5525 -1.1846
 9174SOL     OW38983   4.348   1.212   0.086 -0.2783 -0.2985  0.0438
 9174SOL    HW138984   4.442   1.227   0.096 -0.0713 -0.3607 -1.9177
 9174SOL    HW238985   4.314   1.274   0.150  0.1828  0.1069 -0.1064
 9175SOL     OW38986   3.514   1.261   5.007 -0.0074  0.0227  0.3279
 9175SOL    HW138987   3.465   1.248   5.087 -0.1346  0.9282  0.3965
 9175SOL    HW238988   3.605   1.265   5.037  0.1008  0.0072  0.0100
 9176SOL     OW38989   0.464   1.503   4.667  0.2393  0.3238  0.2112
 9176SOL    HW138990   0.473   1.553   4.586  0.3243 -0.8395 -0.4962
 9176SOL    HW238991   0.395   1.551   4.712  1.7839  1.0281  1.8677
 9177SOL     OW38992   0.717   3.463   9.750 -0.2771  0.0728 -0.6294
 9177SOL    HW138993   0.741   3.548   9.714  1.5568  1.2049  3.3738
 9177SOL    HW238994   0.684   3.481   9.838  0.4520 -0.8012 -0.1861
 9178SOL     OW38995   1.836   2.964  15.339  0.5544  0.0038  0.0138
 9178SOL    HW138996   1.774   2.891  15.337 -1.1064  1.3592  2.1189
 9178SOL    HW238997   1.792   3.024  15.278  0.5186  0.2533  0.2851
 9179SOL     OW38998   3.823   2.850  15.694  0.1279 -0.7008 -0.0645
 9179SOL    HW138999   3.831   2.937  15.734 -1.2260  1.1122 -3.7929
 9179SOL    HW239000   3.793   2.798  15.769 -2.6759 -0.6348 -1.1486
 9180SOL     OW39001   0.170   3.278   0.262 -0.4554 -0.2424  0.1951
 9180SOL    HW139002   0.115   3.221   0.208 -0.7159  1.4743 -1.3621
 9180SOL    HW239003   0.215   3.222   0.326 -1.5144 -2.7895 -1.3022
 9181SOL     OW39004   0.605   1.334   5.877  0.0782  0.6104  0.9483
 9181SOL    HW139005   0.511   1.343   5.863  0.4560  1.6445 -0.9277
 9181SOL    HW239006   0.616   1.401   5.944  0.6037  1.7114 -0.2365
 9182SOL     OW39007   0.206   0.757  12.662  0.1800 -0.0022 -0.3405
 9182SOL    HW139008   0.259   0.707  12.600 -0.8707 -2.5811  0.8081
 9182SOL    HW239009   0.162   0.814  12.599 -1.3929  0.5964  1.2911
 9183SOL     OW39010   3.371   3.932   1.763  0.5138 -0.9503 -0.1381
 9183SOL    HW139011   3.290   3.980   1.778  0.1674 -1.4155 -0.5273
 9183SOL    HW239012   3.435   3.997   1.734  1.8982 -1.0080  2.8085
 9184SOL     OW39013   2.995   0.332  13.587 -0.2970  0.2705  0.6338
 9184SOL    HW139014   3.090   0.344  13.576 -0.1816 -1.1021  0.1456
 9184SOL    HW239015   2.961   0.421  13.582 -0.1675  0.3310  0.7893
 9185SOL     OW39016   1.562   4.122   7.754 -0.0285  0.3500  0.4346
 9185SOL    HW139017   1.520   4.088   7.833 -0.2771 -0.2530  0.0356
 9185SOL    HW239018   1.627   4.052   7.742  1.1199  1.1873  1.7071
 9186SOL     OW39019   3.376   2.978   0.578  0.4417 -0.0453  0.4308
 9186SOL    HW139020   3.440   2.927   0.527 -1.7044 -1.7547 -0.5679
 9186SOL    HW239021   3.437   3.029   0.631 -0.9827 -0.5561  2.5604
 9187SOL     OW39022   4.098   4.705   3.724  0.6249  0.8693 -0.3399
 9187SOL    HW139023   4.126   0.052   3.780 -0.1389 -0.5471  1.8347
 9187SOL    HW239024   4.133   0.003   3.637 -0.8701 -1.4566 -1.5779
 9188SOL     OW39025   1.547   3.189  16.561  0.6434 -0.5144  0.3837
 9188SOL    HW139026   1.503   3.114  16.601 -1.9871  1.2482  0.8156
 9188SOL    HW239027   1.529   3.174  16.468 -1.4316 -1.3556  0.9320
 9189SOL     OW39028   0.879   4.219   6.044 -0.0430 -0.2804 -0.0011
 9189SOL    HW139029   0.969   4.189   6.062 -0.2506 -0.8854  0.0297
 9189SOL    HW239030   0.824   4.189   6.117 -0.0238  0.9137  0.5028
 9190SOL     OW39031   0.121   4.246  14.888  0.2826 -0.3030  0.0668
 9190SOL    HW139032   0.144   4.161  14.851  0.0310 -0.7580  0.9516
 9190SOL    HW239033   0.049   4.276  14.832  0.3965 -1.7091 -0.8100
 9191SOL     OW39034   2.937   2.286   7.746  0.9403  0.2154 -0.0506
 9191SOL    HW139035   2.971   2.214   7.799 -0.1382 -0.4447 -0.2462
 9191SOL    HW239036   2.987   2.279   7.664 -0.8896  2.7567 -1.3824
 9192SOL     OW39037   1.691   1.848   8.512  0.2732  0.4985  0.3689
 9192SOL    HW139038   1.744   1.789   8.459 -0.2255  0.1100  0.3079
 9192SOL    HW239039   1.731   1.814   8.592 -1.1609 -2.1669 -0.0473
 9193SOL     OW39040   1.503   0.826   7.046  0.1546 -0.0389  0.5975
 9193SOL    HW139041   1.585   0.816   6.998 -0.3251 -3.1324  0.4809
 9193SOL    HW239042   1.528   0.863   7.131 -1.5603  1.2623  0.5486
 9194SOL     OW39043   3.086   3.324  11.152 -0.8662 -0.2693  0.0843
 9194SOL    HW139044   3.006   3.372  11.130 -0.5941  1.0662  1.9896
 9194SOL    HW239045   3.146   3.387  11.192 -0.7186 -0.8827  0.8364
 9195SOL     OW39046   3.318   0.811   6.673 -0.2410  0.0301 -0.1232
 9195SOL    HW139047   3.314   0.855   6.588 -0.1592  0.8060  0.2724
 9195SOL    HW239048   3.411   0.788   6.677 -0.2271  0.0321 -0.3842
 9196SOL     OW39049   0.808   3.050   3.334 -0.6213  0.4339  0.2170
 9196SOL    HW139050   0.854   3.007   3.262  0.0411  0.2281  0.7605
 9196SOL    HW239051   0.792   2.969   3.382  0.3724  1.9361  3.1174
 9197SOL     OW39052   4.528   1.486   6.987 -0.8791  0.3602 -0.9290
 9197SOL    HW139053   4.539   1.465   7.080 -2.2142 -2.2358 -1.3376
 9197SOL    HW239054   4.611   1.455   6.951 -0.6505 -0.2919  0.1342
 9198SOL     OW39055   0.444   1.672   9.747 -0.3198  0.1574 -0.2021
 9198SOL    HW139056   0.376   1.737   9.767 -0.0418 -0.6675  3.2573
 9198SOL    HW239057   0.398   1.595   9.781  0.9503  0.3809  1.9693
 9199SOL     OW39058   0.837   4.604   2.173  0.2347 -0.0214 -0.6219
 9199SOL    HW139059   0.862   4.526   2.222 -1.1847 -0.2420 -0.2340
 9199SOL    HW239060   0.918   4.652   2.187 -0.8401  1.0833  1.7672
 9200SOL     OW39061   2.723   3.661   9.991 -0.1973  0.3576 -0.5608
 9200SOL    HW139062   2.806   3.653  10.038  0.0094 -0.2051 -1.0170
 9200SOL    HW239063   2.662   3.631  10.058 -1.2847 -0.3259 -1.8585
 9201SOL     OW39064   2.553   0.728   7.612 -0.5204  0.6139  0.4640
 9201SOL    HW139065   2.535   0.821   7.625 -0.0019  0.7967 -0.1481
 9201SOL    HW239066   2.568   0.702   7.703 -1.0489  1.5503  0.8194
 9202SOL     OW39067   1.766   1.656   7.793  0.3043  0.0823  0.2855
 9202SOL    HW139068   1.806   1.699   7.717 -1.2432 -3.2580 -2.4010
 9202SOL    HW239069   1.841   1.638   7.850  0.4350  1.2939  0.5070
 9203SOL     OW39070   2.003   1.161   5.155  0.2220  0.1878  0.2767
 9203SOL    HW139071   2.057   1.239   5.144 -0.2660  0.2839 -1.3515
 9203SOL    HW239072   2.069   1.094   5.137 -2.0894 -0.9993 -3.6758
 9204SOL     OW39073   4.704   3.986  15.603 -0.1969 -0.6100  0.1442
 9204SOL    HW139074   4.683   3.905  15.649  5.2404 -1.7919  0.4823
 9204SOL    HW239075   0.029   4.030  15.672 -0.2114  0.5909 -0.6188
 9205SOL     OW39076   1.669   2.791  12.903 -0.7120 -0.3630  0.2267
 9205SOL    HW139077   1.747   2.736  12.900 -1.4839 -1.2900 -2.8524
 9205SOL    HW239078   1.608   2.722  12.927  0.3094 -1.7550 -1.2106
 9206SOL     OW39079   0.944   1.822   8.008  0.6816 -0.3401  0.3935
 9206SOL    HW139080   0.871   1.762   7.990  1.4345 -0.5691 -1.8964
 9206SOL    HW239081   0.948   1.828   8.103 -0.6174  0.4117  0.3918
 9207SOL     OW39082   3.374   4.433   2.332  0.6281 -0.3704  0.1225
 9207SOL    HW139083   3.305   4.496   2.352  0.7553 -0.2509  0.1859
 9207SOL    HW239084   3.386   4.371   2.404  0.5584 -0.8458 -0.2742
 9208SOL     OW39085   1.485   2.377   7.366 -0.0023 -0.1366 -0.0434
 9208SOL    HW139086   1.539   2.395   7.443  0.9799 -1.6674 -0.3723
 9208SOL    HW239087   1.410   2.354   7.420  0.8510 -0.4573  0.9999
 9209SOL     OW39088   0.334   2.517   9.115  0.4887 -0.3063  0.0594
 9209SOL    HW139089   0.284   2.592   9.150 -0.3205 -0.8683  0.1163
 9209SOL    HW239090   0.426   2.533   9.136  0.8730  0.1867 -2.0463
 9210SOL     OW39091   4.441   1.527   3.946 -0.3658 -0.0603  0.0481
 9210SOL    HW139092   4.517   1.556   3.997  0.3760  0.4044 -1.3075
 9210SOL    HW239093   4.481   1.453   3.901 -0.9827 -1.4235  1.7872
 9211SOL     OW39094   2.659   0.130  14.657 -0.4115 -0.1848 -0.0497
 9211SOL    HW139095   2.627   0.220  14.663 -2.7761 -0.9630 -1.0662
 9211SOL    HW239096   2.700   0.127  14.744  2.4559  2.6397 -1.2771
 9212SOL     OW39097   1.815   0.066   6.382 -0.5320  0.2923 -0.0294
 9212SOL    HW139098   1.806   0.030   6.470 -0.4087  0.1399 -0.0793
 9212SOL    HW239099   1.905   0.041   6.361  0.0823  0.1160  2.8409
 9213SOL     OW39100   4.263   2.121   8.237  0.2121 -0.4922  0.0966
 9213SOL    HW139101   4.276   2.167   8.319 -0.5937  0.1600 -0.1396
 9213SOL    HW239102   4.208   2.183   8.189 -0.3359 -2.4051 -1.7647
 9214SOL     OW39103   1.365   3.139   5.908  0.1169  0.2544  0.4195
 9214SOL    HW139104   1.414   3.214   5.874 -0.5019  0.1866 -0.6270
 9214SOL    HW239105   1.437   3.090   5.947 -1.5738 -2.6810 -0.1847
 9215SOL     OW39106   1.480   0.093   2.968  0.0101 -0.2622 -0.0651
 9215SOL    HW139107   1.480   0.140   3.052 -1.3806 -1.4687  0.6102
 9215SOL    HW239108   1.555   0.034   2.976  0.3525 -0.2753 -3.3891
 9216SOL     OW39109   0.708   1.767   7.135  0.1416  0.1342 -0.2032
 9216SOL    HW139110   0.765   1.798   7.065 -0.0777  1.8171  0.3454
 9216SOL    HW239111   0.778   1.753   7.198  0.1265 -3.3280 -0.9561
 9217SOL     OW39112   1.402   1.441   6.936  0.2611  0.5528 -0.3580
 9217SOL    HW139113   1.484   1.402   6.966 -0.9808 -0.9587  1.0565
 9217SOL    HW239114   1.377   1.487   7.017 -0.1731 -0.0793 -0.1309
 9218SOL     OW39115   1.247   1.864   1.765  0.2806  0.2295  0.2265
 9218SOL    HW139116   1.256   1.790   1.706 -2.0865  1.1839 -1.3560
 9218SOL    HW239117   1.195   1.822   1.833 -0.5193  0.6496 -0.1139
 9219SOL     OW39118   1.833   4.625  11.200  0.0015 -0.1542 -0.4553
 9219SOL    HW139119   1.786   4.707  11.214 -1.9114 -1.3991  0.3087
 9219SOL    HW239120   1.765   4.577  11.153 -1.0887 -0.7459  1.7186
 9220SOL     OW39121   0.969   0.767   8.310  0.4157 -0.3125  0.8332
 9220SOL    HW139122   1.057   0.731   8.300  1.0664  1.4161  0.4207
 9220SOL    HW239123   0.952   0.748   8.402 -2.4694  0.4347  0.4658
 9221SOL     OW39124   0.436   4.263   7.078 -0.9570  0.2600 -0.2592
 9221SOL    HW139125   0.476   4.190   7.125 -3.2811 -1.7373 -1.3684
 9221SOL    HW239126   0.353   4.227   7.046 -0.7864 -0.5866  0.2693
 9222SOL     OW39127   0.711   0.697   4.153  0.4567  0.3774 -0.2684
 9222SOL    HW139128   0.724   0.607   4.183  1.1390 -0.1339 -2.0696
 9222SOL    HW239129   0.796   0.730   4.183  0.1589  0.2082  0.7535
 9223SOL     OW39130   2.146   0.867   4.437 -0.8360 -0.1942  0.0787
 9223SOL    HW139131   2.177   0.848   4.525 -0.8112 -0.2762  0.0520
 9223SOL    HW239132   2.198   0.937   4.397 -0.9924  0.3363  0.7961
 9224SOL     OW39133   4.539   4.077   2.410 -0.3409  0.0079  0.5667
 9224SOL    HW139134   4.526   4.079   2.315  2.0325 -0.7396  0.2292
 9224SOL    HW239135   4.449   4.053   2.431 -0.9099  0.4238 -1.3897
 9225SOL     OW39136   0.685   4.113   5.297  0.2599 -0.2304  0.3397
 9225SOL    HW139137   0.636   4.161   5.231 -0.7935 -1.7667  0.0173
 9225SOL    HW239138   0.623   4.043   5.316  0.8905 -1.1939 -1.1446
 9226SOL     OW39139   1.432   0.890   8.080 -0.2780 -0.1857 -0.1176
 9226SOL    HW139140   1.482   0.903   8.160 -0.4025  2.2180 -0.4090
 9226SOL    HW239141   1.468   0.970   8.042  1.0474 -0.3465  0.8069
 9227SOL     OW39142   1.060   0.838   2.702 -0.3409 -0.4203  0.3495
 9227SOL    HW139143   1.120   0.766   2.682  0.6854  0.1961  1.2676
 9227SOL    HW239144   1.071   0.840   2.797 -0.6204 -4.3410  0.4840
 9228SOL     OW39145   0.546   2.830   0.443  0.4509 -0.3321 -0.3158
 9228SOL    HW139146   0.562   2.820   0.537 -1.1822  0.3044  0.0313
 9228SOL    HW239147   0.456   2.863   0.437  0.6972 -0.0147 -2.2040
 9229SOL     OW39148   4.184   0.263   0.085 -0.6441 -0.1079 -0.4729
 9229SOL    HW139149   4.262   0.308   0.116 -2.4251  1.0371  2.3406
 9229SOL    HW239150   4.187   0.280  17.692 -1.4431 -0.3716 -0.5420
 9230SOL     OW39151   2.242   0.252  10.716  0.3028 -0.0909  0.2649
 9230SOL    HW139152   2.235   0.215  10.804 -0.6065  2.8524  1.4410
 9230SOL    HW239153   2.220   0.173  10.666  2.0568  0.3650 -1.2515
 9231SOL     OW39154   0.873   3.392   5.795 -0.6016 -0.0405  0.0994
 9231SOL    HW139155   0.936   3.329   5.760  1.3216  1.1083  1.4955
 9231SOL    HW239156   0.818   3.402   5.717 -1.2429 -1.1030  0.4068
 9232SOL     OW39157   2.213   3.886   8.675  0.7568 -0.3068  0.0404
 9232SOL    HW139158   2.181   3.887   8.765 -0.2678 -1.0376 -0.3065
 9232SOL    HW239159   2.259   3.802   8.679  2.4125  0.6798  1.2777
 9233SOL     OW39160   2.040   0.653   8.866  0.3596 -0.0376 -1.0586
 9233SOL    HW139161   2.021   0.672   8.957 -1.8237 -0.9083 -1.3344
 9233SOL    HW239162   1.953   0.645   8.827  0.4458  1.0582 -1.4645
 9234SOL     OW39163   1.107   3.239   3.216 -0.3722  0.0978 -0.1632
 9234SOL    HW139164   1.039   3.276   3.272  0.0938 -1.2086  1.2572
 9234SOL    HW239165   1.054   3.254   3.137  0.5955  1.5893 -0.5263
 9235SOL     OW39166   4.475   3.848   1.902 -0.5439 -0.4648 -0.1558
 9235SOL    HW139167   4.412   3.850   1.830 -2.4479  0.6355  1.5515
 9235SOL    HW239168   4.547   3.796   1.867  0.3491 -0.5624  1.8081
 9236SOL     OW39169   2.164   3.100   4.709  0.2538  0.1646 -0.0736
 9236SOL    HW139170   2.166   3.026   4.649 -3.6277  0.8181 -0.9880
 9236SOL    HW239171   2.218   3.079   4.785  0.2658 -0.4212 -0.2443
 9237SOL     OW39172   4.039   2.626   2.893  0.2464 -0.7920  0.2211
 9237SOL    HW139173   4.007   2.704   2.938 -0.4837 -1.0204  0.0987
 9237SOL    HW239174   4.083   2.670   2.820 -2.8871  0.5099 -0.8824
 9238SOL     OW39175   2.471   3.345   7.363 -0.0119  0.0919 -0.4077
 9238SOL    HW139176   2.400   3.291   7.328  0.5218 -0.9126  0.0736
 9238SOL    HW239177   2.512   3.373   7.281  1.1494 -0.9522 -0.1745
 9239SOL     OW39178   0.101   3.481   3.675 -0.4119  0.1842  0.0684
 9239SOL    HW139179   0.158   3.404   3.662 -1.0410 -0.1374 -0.8155
 9239SOL    HW239180   0.115   3.487   3.769 -3.1670  0.1365  0.4676
 9240SOL     OW39181   1.650   3.720   5.474 -0.2136 -0.6031 -0.6648
 9240SOL    HW139182   1.618   3.660   5.406 -0.3260 -1.3196  0.0189
 9240SOL    HW239183   1.583   3.789   5.479  0.5385  0.1219 -0.6605
 9241SOL     OW39184   1.009   0.480  13.350  0.3167 -0.2231  0.0807
 9241SOL    HW139185   0.932   0.465  13.295  1.3988 -1.1900 -1.1578
 9241SOL    HW239186   0.976   0.458  13.437 -0.2468 -3.1235 -0.8554
 9242SOL     OW39187   0.977   3.204   2.651  0.1500  0.4369  0.1555
 9242SOL    HW139188   0.909   3.257   2.609  0.9552  0.1509 -1.5129
 9242SOL    HW239189   0.988   3.131   2.590  0.2153 -0.1734  0.9104
 9243SOL     OW39190   4.676   2.180   0.131  0.1651  0.4356 -0.3491
 9243SOL    HW139191   4.683   2.138   0.045 -0.9336  0.5626 -0.5056
 9243SOL    HW239192   0.039   2.218   0.132  0.5600 -0.4145 -2.0342
 9244SOL     OW39193   1.800   3.600   3.753 -0.3139 -0.3160 -1.0473
 9244SOL    HW139194   1.718   3.640   3.724 -0.0532  0.1959 -1.0865
 9244SOL    HW239195   1.846   3.601   3.669 -0.3477 -3.6361 -1.1108
 9245SOL     OW39196   4.226   4.375   2.185 -0.3363 -0.3676  0.2415
 9245SOL    HW139197   4.257   4.409   2.101  2.2704 -0.3689  1.1728
 9245SOL    HW239198   4.179   4.296   2.160 -1.4197  0.0407  0.9916
 9246SOL     OW39199   0.755   2.255  15.787 -0.1485 -0.7370 -0.4077
 9246SOL    HW139200   0.834   2.229  15.741  0.5275  0.4459  0.0598
 9246SOL    HW239201   0.759   2.351  15.791 -0.5938 -0.7205 -0.3322
 9247SOL     OW39202   0.364   3.519  13.318 -0.1315 -0.2138  0.3606
 9247SOL    HW139203   0.415   3.503  13.238 -0.7609 -0.1415 -0.0562
 9247SOL    HW239204   0.395   3.603  13.353  0.0237  1.1154 -2.9102
 9248SOL     OW39205   4.150   3.036   4.824  0.2199 -0.8385 -0.0113
 9248SOL    HW139206   4.230   3.068   4.867  1.8317 -0.2863 -3.3983
 9248SOL    HW239207   4.137   2.952   4.868  2.3578 -1.1478  0.0577
 9249SOL     OW39208   0.819   3.796  16.646 -0.2200 -0.7283 -0.3108
 9249SOL    HW139209   0.895   3.836  16.688  0.3915 -2.0774 -0.1523
 9249SOL    HW239210   0.747   3.800  16.709  1.6207 -0.3901  1.7504
 9250SOL     OW39211   0.043   3.850   6.172 -0.1622  0.2062 -0.3157
 9250SOL    HW139212   0.076   3.933   6.207 -0.0488  1.3468 -3.1544
 9250SOL    HW239213   0.088   3.786   6.227  2.1193  0.1797 -2.2224
 9251SOL     OW39214   1.056   1.327   1.783 -0.2444  0.1855 -0.0006
 9251SOL    HW139215   1.090   1.249   1.739 -2.3073  0.1037 -1.4744
 9251SOL    HW239216   1.056   1.390   1.710 -0.6063  0.7293  0.4642
 9252SOL     OW39217   1.744   2.931   9.270  0.3058 -0.0806  0.6203
 9252SOL    HW139218   1.805   2.934   9.197 -1.3476  0.5718 -0.7481
 9252SOL    HW239219   1.799   2.936   9.348  1.2686 -1.0422 -0.0043
 9253SOL     OW39220   3.126   4.633   7.800  0.6313  0.0140  0.2775
 9253SOL    HW139221   3.034   4.610   7.790  1.2082 -1.5351 -1.4345
 9253SOL    HW239222   3.118   4.719   7.841  2.5491 -0.2094  1.1136
 9254SOL     OW39223   1.148   1.663   8.836  0.1427  0.5214 -0.1368
 9254SOL    HW139224   1.118   1.692   8.750 -0.4020  1.7528  0.4588
 9254SOL    HW239225   1.211   1.732   8.859  1.7092 -1.6042  1.9775
 9255SOL     OW39226   3.299   4.000  13.497 -0.6136 -0.0932 -0.0317
 9255SOL    HW139227   3.278   4.058  13.570 -1.1648 -1.3251  0.7846
 9255SOL    HW239228   3.240   3.927  13.515  0.0399 -0.6885 -0.2902
 9256SOL     OW39229   1.602   0.307   5.718 -0.6858 -0.0943 -0.0717
 9256SOL    HW139230   1.675   0.263   5.675  2.1044  2.0143  2.5232
 9256SOL    HW239231   1.636   0.387   5.759  0.4659 -0.2980 -0.6237
 9257SOL     OW39232   3.770   2.758  11.780  0.0890  0.0315 -0.4389
 9257SOL    HW139233   3.763   2.686  11.717 -1.5772  0.1178 -0.3644
 9257SOL    HW239234   3.864   2.750  11.795 -0.2026 -0.6763  1.0028
 9258SOL     OW39235   2.529   3.219   6.769  0.2139  0.0481 -0.7220
 9258SOL    HW139236   2.609   3.249   6.727  0.6731  0.9888  0.8514
 9258SOL    HW239237   2.528   3.127   6.742  2.0440  0.5698 -2.5493
 9259SOL     OW39238   0.050   4.663  13.031  0.1869  1.0144  0.5545
 9259SOL    HW139239   0.089   4.642  13.115 -1.1594 -1.5335  0.5325
 9259SOL    HW239240   4.707   0.002  13.055  0.7386  2.0307 -0.5746
 9260SOL     OW39241   0.486   3.540   7.719 -0.5772 -0.0247  0.3068
 9260SOL    HW139242   0.426   3.496   7.779  0.2963 -2.0025 -0.2898
 9260SOL    HW239243   0.569   3.528   7.767 -0.4674  1.7852  0.5854
 9261SOL     OW39244   0.539   3.852   8.124  0.2232 -0.0410 -0.6020
 9261SOL    HW139245   0.485   3.775   8.107 -1.6594  1.0652  0.2917
 9261SOL    HW239246   0.540   3.857   8.220  1.6513 -1.3999 -0.5591
 9262SOL     OW39247   4.335   1.892   0.555  0.5633  0.0858  0.5509
 9262SOL    HW139248   4.400   1.961   0.568  1.0009 -0.5131  1.5623
 9262SOL    HW239249   4.380   1.826   0.502  2.1741  1.2112  0.5186
 9263SOL     OW39250   2.168   0.188   2.608  0.5194  0.0611 -0.4874
 9263SOL    HW139251   2.243   0.133   2.587 -0.5255 -1.1927 -0.9134
 9263SOL    HW239252   2.120   0.128   2.666  1.4603 -0.5018 -0.2853
 9264SOL     OW39253   0.259   1.307   8.148  0.6842  0.1866 -0.1154
 9264SOL    HW139254   0.236   1.400   8.149 -0.7058 -0.1601 -0.3285
 9264SOL    HW239255   0.213   1.278   8.069  1.1837 -0.4952 -0.1638
 9265SOL     OW39256   3.668   0.773   3.602  0.1519  0.5771  0.2940
 9265SOL    HW139257   3.708   0.792   3.517 -0.2484 -0.3411 -0.1018
 9265SOL    HW239258   3.585   0.734   3.575  1.7954 -1.9340 -1.1853
 9266SOL     OW39259   1.992   4.473   2.208 -0.2403 -0.7225  0.1432
 9266SOL    HW139260   2.038   4.557   2.201 -0.4842 -0.7253 -1.4677
 9266SOL    HW239261   1.931   4.485   2.280  0.3543 -2.0947  0.8932
 9267SOL     OW39262   2.797   3.659  10.742  0.0123  0.4920 -0.2464
 9267SOL    HW139263   2.888   3.640  10.763  0.0695 -1.2091 -2.0305
 9267SOL    HW239264   2.765   3.719  10.809  0.6360  0.0226  0.4730
 9268SOL     OW39265   1.565   1.385  13.654 -0.1580  0.6954  0.8303
 9268SOL    HW139266   1.646   1.385  13.602 -0.5850 -0.6987  0.1497
 9268SOL    HW239267   1.577   1.453  13.721  1.6458  0.9208  0.2910
 9269SOL     OW39268   0.765   4.373  15.084  0.1676  0.0724  0.4632
 9269SOL    HW139269   0.836   4.366  15.148 -0.4976  1.4879  1.3545
 9269SOL    HW239270   0.787   4.464  15.064  1.2536 -0.2578  0.1373
 9270SOL     OW39271   1.344   1.064   8.727  0.1924 -0.0357 -0.7123
 9270SOL    HW139272   1.295   1.098   8.652 -0.4949  0.9487  0.1885
 9270SOL    HW239273   1.436   1.067   8.699  0.8580 -1.9617  1.2409
 9271SOL     OW39274   1.354   1.475   5.575  0.9795  0.5375 -0.0623
 9271SOL    HW139275   1.323   1.559   5.542  2.6261  0.8799 -0.7167
 9271SOL    HW239276   1.308   1.487   5.658  1.3401  1.0867  0.0564
 9272SOL     OW39277   0.897   2.912  11.503  0.0075 -0.1256 -0.9009
 9272SOL    HW139278   0.896   2.995  11.550 -1.0345 -0.0864 -1.0000
 9272SOL    HW239279   0.892   2.936  11.411 -0.7623  0.3834 -0.7219
 9273SOL     OW39280   4.246   1.744   0.779  0.1250  0.3027  0.2602
 9273SOL    HW139281   4.304   1.672   0.754 -0.0801 -0.2276  1.3094
 9273SOL    HW239282   4.283   1.815   0.727  2.4195  0.1690  1.6838
 9274SOL     OW39283   2.010   1.832   9.436 -0.5597  0.3449  0.4125
 9274SOL    HW139284   1.970   1.795   9.514  1.9470 -0.6873  1.2114
 9274SOL    HW239285   2.098   1.853   9.467  0.0048 -1.3547 -0.0347
 9275SOL     OW39286   0.033   4.496  10.818 -0.2877  0.5976 -0.2937
 9275SOL    HW139287   4.696   4.505  10.890  0.3657 -1.1223  0.4784
 9275SOL    HW239288   0.091   4.568  10.841  0.2625  0.2405 -0.5677
 9276SOL     OW39289   3.198   1.138  10.264 -0.1561 -0.0067  0.0930
 9276SOL    HW139290   3.245   1.200  10.208 -2.1778  1.1139 -0.3552
 9276SOL    HW239291   3.253   1.157  10.340  0.0671 -1.5348  0.3095
 9277SOL     OW39292   3.863   3.388   7.249  0.1788 -0.0031 -0.2003
 9277SOL    HW139293   3.952   3.406   7.220 -0.1000 -1.1192 -1.7178
 9277SOL    HW239294   3.886   3.329   7.322 -1.0554 -0.4277 -0.1517
 9278SOL     OW39295   3.097   1.583   5.286  0.0727 -0.2567 -0.4230
 9278SOL    HW139296   3.173   1.570   5.229  0.4478 -1.0316  0.2566
 9278SOL    HW239297   3.036   1.586   5.212 -0.4514 -2.5834 -0.0906
 9279SOL     OW39298   2.743   0.323   6.156  0.3581  0.0672 -0.1217
 9279SOL    HW139299   2.761   0.321   6.062 -0.1204 -2.8232 -0.1397
 9279SOL    HW239300   2.679   0.252   6.158  0.9937 -0.5792 -2.7628
 9280SOL     OW39301   1.510   3.678   7.254 -0.0787 -0.3997 -0.8314
 9280SOL    HW139302   1.574   3.627   7.303 -0.7770 -0.3824  0.0878
 9280SOL    HW239303   1.448   3.688   7.325 -0.1057  2.2592 -1.2042
 9281SOL     OW39304   1.086   4.536   1.623  0.3910 -0.2490  0.2055
 9281SOL    HW139305   1.165   4.591   1.618  0.1672 -0.0019 -0.5619
 9281SOL    HW239306   1.126   4.450   1.631  1.2675  0.2973  1.7650
 9282SOL     OW39307   0.740   2.785   1.223 -0.2150  0.3005 -0.5904
 9282SOL    HW139308   0.717   2.774   1.316 -1.1210 -2.6399 -1.1854
 9282SOL    HW239309   0.701   2.873   1.216  1.0466  0.7876 -1.3952
 9283SOL     OW39310   3.876   2.081   3.443  0.4267 -0.2564  0.5633
 9283SOL    HW139311   3.913   2.044   3.363  0.0066 -0.8900  0.6594
 9283SOL    HW239312   3.934   2.157   3.448  1.9218 -1.3428 -0.6286
 9284SOL     OW39313   4.418   2.017   0.962 -0.1763  0.0337  0.6682
 9284SOL    HW139314   4.496   2.048   1.009 -1.0504  1.0783  1.3958
 9284SOL    HW239315   4.402   1.935   1.008 -2.9109  0.4813  0.4754
 9285SOL     OW39316   0.505   2.578   7.980  0.1152  0.1345  0.0142
 9285SOL    HW139317   0.585   2.575   7.927  1.2436 -1.5543  1.7955
 9285SOL    HW239318   0.478   2.487   7.970  2.4904 -0.6917  0.9301
 9286SOL     OW39319   1.245   1.529   6.424  0.3755  0.3104 -0.2309
 9286SOL    HW139320   1.229   1.558   6.335 -0.1644 -1.9770 -0.8810
 9286SOL    HW239321   1.322   1.480   6.394  0.8673  1.1433 -0.3128
 9287SOL     OW39322   2.270   1.844   8.899  0.3980  0.3437 -0.3254
 9287SOL    HW139323   2.274   1.755   8.864 -0.7583 -0.1830  0.8904
 9287SOL    HW239324   2.361   1.866   8.921  0.2150  2.4311 -1.6548
 9288SOL     OW39325   2.020   2.983  11.088  0.4536 -0.5303  0.1086
 9288SOL    HW139326   2.053   3.018  11.171 -0.3483  0.0096  0.1956
 9288SOL    HW239327   1.980   2.902  11.119 -0.8728  0.8567  2.0281
 9289SOL     OW39328   3.238   3.069  15.764  0.1510  0.3471  0.0577
 9289SOL    HW139329   3.242   3.108  15.676  1.0045  0.1541  0.0136
 9289SOL    HW239330   3.165   3.008  15.750  0.0042  0.3955  0.6240
 9290SOL     OW39331   2.799   2.571   1.243 -0.4080  0.2194  0.3963
 9290SOL    HW139332   2.761   2.626   1.312  0.6724 -1.2400  2.1446
 9290SOL    HW239333   2.750   2.609   1.170 -0.9081 -2.8461 -0.8562
 9291SOL     OW39334   2.070   2.298   2.661 -0.4781 -0.1729 -0.1090
 9291SOL    HW139335   2.126   2.223   2.641 -1.5159 -0.5697 -1.4774
 9291SOL    HW239336   2.001   2.254   2.712  1.5729 -1.1279  1.8421
 9292SOL     OW39337   3.705   4.177   5.265 -0.3456 -0.1254 -0.5009
 9292SOL    HW139338   3.798   4.197   5.266 -0.2938 -0.4236  0.2447
 9292SOL    HW239339   3.703   4.105   5.327  1.5510  0.0695 -0.2245
 9293SOL     OW39340   1.847   1.334   5.906  0.0281  0.2083 -0.3034
 9293SOL    HW139341   1.924   1.315   5.961  0.0598 -1.2868 -0.8649
 9293SOL    HW239342   1.844   1.254   5.853 -0.8184 -0.0327  0.1004
 9294SOL     OW39343   3.971   0.769   3.981  0.3379  0.0451  0.5210
 9294SOL    HW139344   4.065   0.761   3.962  0.7592  0.8951  2.2455
 9294SOL    HW239345   3.970   0.673   3.978  0.2199  0.1487 -2.6317
 9295SOL     OW39346   1.101   4.077   3.286 -0.0641  0.0937  0.2537
 9295SOL    HW139347   1.059   4.030   3.359  1.8219 -1.1634  0.5099
 9295SOL    HW239348   1.017   4.112   3.256 -1.0480 -1.8577  0.7672
 9296SOL     OW39349   3.853   1.907  11.787  0.2760  0.5237 -0.1454
 9296SOL    HW139350   3.842   1.864  11.703  1.7998  1.6436 -0.9340
 9296SOL    HW239351   3.854   2.000  11.764 -1.1576  0.7286  0.6702
 9297SOL     OW39352   2.343   4.364  10.421 -0.6293 -0.3918  0.1658
 9297SOL    HW139353   2.368   4.422  10.493 -1.6261  0.9539 -0.5570
 9297SOL    HW239354   2.425   4.330  10.386  0.5844  2.8263 -0.1112
 9298SOL     OW39355   4.177   0.860   6.851 -0.0619 -0.4144  0.6569
 9298SOL    HW139356   4.222   0.786   6.890  0.3559 -0.6114 -0.2085
 9298SOL    HW239357   4.092   0.828   6.821  0.7917 -2.7226  0.7106
 9299SOL     OW39358   4.124   4.514   2.429 -0.7612 -0.4894 -1.0355
 9299SOL    HW139359   4.110   4.462   2.508  1.3610  0.5938  0.0530
 9299SOL    HW239360   4.158   4.442   2.376 -1.1300 -1.8733  0.6277
 9300SOL     OW39361   0.332   1.237  12.295 -0.1945  0.1053  0.0134
 9300SOL    HW139362   0.300   1.187  12.220  2.6475  1.3559 -2.0375
 9300SOL    HW239363   0.249   1.264  12.335  0.2446 -0.3923  1.2520
 9301SOL     OW39364   1.650   2.009   5.592  0.5924 -0.0308 -0.1797
 9301SOL    HW139365   1.649   2.026   5.498 -1.5607  1.1563  0.0571
 9301SOL    HW239366   1.563   2.041   5.615 -0.0084 -0.2564 -2.1360
 9302SOL     OW39367   4.283   4.071   2.778 -0.0765  0.5051  0.2343
 9302SOL    HW139368   4.201   4.023   2.788 -0.6909  1.5875  0.3782
 9302SOL    HW239369   4.315   4.081   2.867  0.1603 -1.7718  0.3919
 9303SOL     OW39370   4.432   3.577   2.006  0.2016 -0.4534 -0.2784
 9303SOL    HW139371   4.453   3.662   1.968 -1.4035 -0.4346 -1.1192
 9303SOL    HW239372   4.420   3.527   1.925  1.7811 -0.0243 -0.7849
 9304SOL     OW39373   0.106   2.072   4.091 -1.1750 -0.6404  0.4581
 9304SOL    HW139374   0.143   2.005   4.149 -2.1147 -1.6292 -0.0625
 9304SOL    HW239375   0.028   2.098   4.140 -0.4196 -2.2214  2.5180
 9305SOL     OW39376   1.208   2.094   2.022 -0.3624  0.0753 -0.4666
 9305SOL    HW139377   1.283   2.050   2.061 -0.4883  0.5799  0.3544
 9305SOL    HW239378   1.165   2.137   2.096 -0.3919 -0.4929 -0.1573
 9306SOL     OW39379   3.401   2.134   3.738 -0.0509  0.5064 -0.1102
 9306SOL    HW139380   3.384   2.040   3.728 -0.9114  0.2839  3.2236
 9306SOL    HW239381   3.493   2.148   3.716 -0.9759  3.1285 -2.2401
 9307SOL     OW39382   1.827   2.623   9.660  0.1077 -0.8256 -0.4412
 9307SOL    HW139383   1.845   2.716   9.645  2.1571 -1.1193  0.1666
 9307SOL    HW239384   1.791   2.617   9.748 -2.0976 -0.0873 -1.2860
 9308SOL     OW39385   0.059   1.041   5.422  0.0750 -0.6056 -0.1697
 9308SOL    HW139386   0.108   0.988   5.359  0.3187  0.9392 -1.2799
 9308SOL    HW239387   0.001   1.093   5.366 -1.2745  0.0175  1.8417
 9309SOL     OW39388   4.039   2.530   7.782 -0.0661  0.0446  0.6059
 9309SOL    HW139389   4.119   2.499   7.740 -0.3383 -1.7580  1.4189
 9309SOL    HW239390   3.995   2.445   7.789 -1.0034  0.4083 -0.8171
 9310SOL     OW39391   3.769   0.907   1.746 -0.0009  0.2630  0.6673
 9310SOL    HW139392   3.799   0.847   1.678 -0.2748  0.7031  0.1612
 9310SOL    HW239393   3.748   0.841   1.812 -0.8893  0.0102  0.1318
 9311SOL     OW39394   4.143   2.736   2.634 -0.0107 -0.2940  0.7402
 9311SOL    HW139395   4.096   2.782   2.565  1.5149 -0.7026 -0.5705
 9311SOL    HW239396   4.133   2.646   2.604 -0.8926  0.8141 -2.2441
 9312SOL     OW39397   2.832   3.155   8.500 -0.2072 -0.4354  0.2380
 9312SOL    HW139398   2.787   3.182   8.420  1.1172 -0.7997 -0.6183
 9312SOL    HW239399   2.870   3.068   8.489  0.2862 -0.2534  0.5270
 9313SOL     OW39400   2.816   3.338   5.634 -0.8599 -0.1258  0.1929
 9313SOL    HW139401   2.823   3.433   5.644  0.7152 -0.1365 -0.7433
 9313SOL    HW239402   2.721   3.336   5.638 -0.8762 -1.0495 -0.9058
 9314SOL     OW39403   1.070   4.239   3.698 -0.0219  0.0571  0.0839
 9314SOL    HW139404   1.041   4.156   3.737  0.6835 -0.8387 -1.2683
 9314SOL    HW239405   1.018   4.232   3.618 -0.8730  0.8889  0.5698
 9315SOL     OW39406   1.981   0.022  10.318  0.3073 -0.9092  0.2574
 9315SOL    HW139407   2.062   0.034  10.367 -0.4656 -0.3851  1.4268
 9315SOL    HW239408   2.008   4.707  10.235 -0.3852  0.2296 -0.5245
 9316SOL     OW39409   1.279   4.127   6.757 -0.6922  0.0959  0.3430
 9316SOL    HW139410   1.272   4.033   6.774 -0.8011 -0.3174 -1.9629
 9316SOL    HW239411   1.250   4.123   6.666  1.5401 -0.0910 -0.3606
 9317SOL     OW39412   1.931   2.014   5.745  0.4994 -0.7890  0.2688
 9317SOL    HW139413   1.862   2.011   5.678 -2.1127 -0.3818  2.8938
 9317SOL    HW239414   1.949   1.920   5.746 -0.8640 -1.0606 -3.9775
 9318SOL     OW39415   2.009   2.697   2.306 -1.0832  0.2523 -0.3053
 9318SOL    HW139416   2.015   2.627   2.371  1.9369 -1.3592 -2.3198
 9318SOL    HW239417   1.992   2.665   2.217 -0.0371 -1.0093 -0.0473
 9319SOL     OW39418   3.947   1.302   5.483 -0.1840 -0.2403  0.1952
 9319SOL    HW139419   4.039   1.285   5.501  1.1672  2.6870 -4.0450
 9319SOL    HW239420   3.938   1.289   5.389  2.3923 -0.5280  0.0063
 9320SOL     OW39421   3.386   2.553   2.043  0.4979 -0.3638 -0.0028
 9320SOL    HW139422   3.376   2.560   1.948  1.4061  0.2636 -0.0452
 9320SOL    HW239423   3.405   2.460   2.056 -4.3137 -1.4561 -0.5176
 9321SOL     OW39424   1.901   2.948   9.015 -0.1100  0.0636 -0.4723
 9321SOL    HW139425   1.931   3.027   9.061  1.5028 -1.0948  0.4827
 9321SOL    HW239426   1.901   2.971   8.922 -0.4376  0.8854 -0.2685
 9322SOL     OW39427   0.271   3.195   3.416  0.2792  0.5820  0.2907
 9322SOL    HW139428   0.335   3.125   3.417  0.9186  1.1819  1.0521
 9322SOL    HW239429   0.312   3.266   3.367  1.9394 -1.5752 -1.4604
 9323SOL     OW39430   1.955   2.433   2.118 -0.4407 -0.5665 -0.3594
 9323SOL    HW139431   1.925   2.349   2.153  2.0924 -0.3721  2.2451
 9323SOL    HW239432   2.034   2.408   2.070  0.6762  3.3044 -0.5269
 9324SOL     OW39433   3.686   3.019   7.638 -0.3013  0.3606  0.4398
 9324SOL    HW139434   3.720   3.093   7.688 -1.9161  1.2301  0.2462
 9324SOL    HW239435   3.632   2.973   7.702 -1.4456  0.4309 -0.4828
 9325SOL     OW39436   4.023   1.410   6.471 -0.1438 -0.3463  0.1744
 9325SOL    HW139437   3.977   1.492   6.456  0.9665 -0.1331 -2.0872
 9325SOL    HW239438   3.957   1.348   6.439 -0.0895  0.5996 -1.7514
 9326SOL     OW39439   2.392   4.146  10.108 -0.2784  0.1275 -0.0392
 9326SOL    HW139440   2.453   4.073  10.114  0.5762  0.8627  0.2583
 9326SOL    HW239441   2.397   4.193  10.192 -1.9239 -2.0938  1.2982
 9327SOL     OW39442   2.193   0.496   4.280 -0.1662 -0.6403  0.2304
 9327SOL    HW139443   2.106   0.533   4.297  1.7934  3.9785  0.0678
 9327SOL    HW239444   2.179   0.402   4.297 -0.9111 -0.3463  1.2343
 9328SOL     OW39445   2.338   1.870   4.263 -0.1489 -0.3333  0.0504
 9328SOL    HW139446   2.430   1.849   4.242 -0.2876  1.6237 -2.4855
 9328SOL    HW239447   2.350   1.965   4.260 -0.0662 -0.3733 -1.0720
 9329SOL     OW39448   2.780   3.539   8.908  0.0615  0.1187 -0.4464
 9329SOL    HW139449   2.758   3.622   8.864 -1.8127 -1.1481 -1.9145
 9329SOL    HW239450   2.695   3.499   8.922  0.9893 -2.1514 -1.3938
 9330SOL     OW39451   3.733   1.874   8.110 -0.1915 -0.2888 -0.2893
 9330SOL    HW139452   3.725   1.780   8.092 -0.3325 -0.4065  0.3849
 9330SOL    HW239453   3.644   1.894   8.139 -0.3259  1.3793 -1.8701
 9331SOL     OW39454   4.465   4.291   3.277  0.1522  0.5396 -0.2974
 9331SOL    HW139455   4.494   4.217   3.331  1.9732  0.8380 -0.8818
 9331SOL    HW239456   4.525   4.298   3.203 -0.3360 -1.2963 -0.8766
 9332SOL     OW39457   1.517   0.708  16.241  0.3431  0.3129  0.5427
 9332SOL    HW139458   1.495   0.671  16.327  2.2892  1.9308  1.7210
 9332SOL    HW239459   1.605   0.673  16.237 -0.6505 -1.8802 -2.4386
 9333SOL     OW39460   1.952   3.501  12.220  0.1199 -0.1255 -0.5103
 9333SOL    HW139461   1.942   3.503  12.315  2.6049  1.9715 -0.2708
 9333SOL    HW239462   1.858   3.501  12.202  0.2565 -2.0942 -1.1480
 9334SOL     OW39463   4.182   0.104  15.927  0.6874 -0.2761 -0.1497
 9334SOL    HW139464   4.120   0.034  15.908 -1.0431  0.7777  1.7341
 9334SOL    HW239465   4.238   0.091  15.850  0.4027  0.0481 -0.4111
 9335SOL     OW39466   0.210   1.437   3.548  0.2272 -0.5595  0.2825
 9335SOL    HW139467   0.230   1.371   3.481 -0.8251  1.4480 -2.0047
 9335SOL    HW239468   0.232   1.521   3.508 -2.3484 -1.1969 -2.5042
 9336SOL     OW39469   3.948   3.801   1.806  0.5789  0.1284  0.4347
 9336SOL    HW139470   3.875   3.750   1.770  0.5205 -0.5078  1.4470
 9336SOL    HW239471   3.962   3.749   1.885  0.5343  0.5597  0.7261
 9337SOL     OW39472   0.048   0.669  12.065 -0.1854  0.4246 -0.3567
 9337SOL    HW139473   0.113   0.659  11.996  1.3438 -0.5956  1.2087
 9337SOL    HW239474   0.063   0.757  12.100 -0.6695 -0.2981  1.6777
 9338SOL     OW39475   3.685   2.286   1.595  0.3601 -0.7598  0.5508
 9338SOL    HW139476   3.750   2.275   1.526  0.3034  1.6579  0.1011
 9338SOL    HW239477   3.694   2.375   1.631 -2.7358 -0.8433  1.5550
 9339SOL     OW39478   0.634   2.586  16.638  0.2257  0.0274 -0.0237
 9339SOL    HW139479   0.597   2.609  16.724 -2.6774 -1.0849 -0.9708
 9339SOL    HW239480   0.601   2.498  16.618 -0.5525  0.5891 -1.2425
 9340SOL     OW39481   0.791   3.194   9.809  0.4830 -0.0183  0.3167
 9340SOL    HW139482   0.774   3.287   9.798 -1.2214 -0.2855  0.7186
 9340SOL    HW239483   0.804   3.191   9.903  1.8641  2.0029  0.1966
 9341SOL     OW39484   0.878   3.421   3.320 -0.1019 -0.3326 -0.3307
 9341SOL    HW139485   0.860   3.473   3.241  0.1274  0.3484  0.0673
 9341SOL    HW239486   0.806   3.438   3.380 -0.1289 -0.7966 -0.2326
 9342SOL     OW39487   0.233   2.956   6.657 -0.2082  0.0449  0.5000
 9342SOL    HW139488   0.191   2.872   6.637  1.0668 -0.5127  0.2057
 9342SOL    HW239489   0.304   2.962   6.594 -0.7505  0.1234 -0.1009
 9343SOL     OW39490   1.642   4.091   1.686  0.1677  0.4754 -0.4314
 9343SOL    HW139491   1.618   4.133   1.603 -1.9863  1.3885  0.6481
 9343SOL    HW239492   1.652   4.000   1.659 -0.8146  0.4831 -0.8215
 9344SOL     OW39493   1.142   4.021  17.495  0.7242  0.4393  1.3748
 9344SOL    HW139494   1.052   4.054  17.494  0.4802 -0.4150 -2.3842
 9344SOL    HW239495   1.190   4.104  17.491 -0.4609  1.2159  3.0068
 9345SOL     OW39496   3.621   0.418   7.767 -0.3331 -0.1809 -0.1610
 9345SOL    HW139497   3.673   0.384   7.840 -0.9455 -1.2309 -0.2075
 9345SOL    HW239498   3.626   0.513   7.782 -2.3400 -0.0620 -0.1341
 9346SOL     OW39499   2.906   0.540   3.026 -0.2584 -0.0690  0.3825
 9346SOL    HW139500   2.812   0.532   3.012 -0.1664  1.2851 -0.9989
 9346SOL    HW239501   2.919   0.625   2.984  0.0173  0.1955  1.0100
 9347SOL     OW39502   3.887   0.560   3.187 -0.2415 -0.0484 -0.2205
 9347SOL    HW139503   3.964   0.507   3.170  1.2052  2.4923 -1.6615
 9347SOL    HW239504   3.903   0.640   3.136 -0.6462  0.9622  1.2292
 9348SOL     OW39505   2.000   0.310   9.087  0.5842 -0.0694  0.1621
 9348SOL    HW139506   1.924   0.351   9.045 -0.1333 -0.5520  0.9808
 9348SOL    HW239507   2.036   0.378   9.143  1.1313  0.0807 -0.3793
 9349SOL     OW39508   2.515   2.136   7.820  0.1819 -0.1363 -0.0697
 9349SOL    HW139509   2.577   2.206   7.803  1.0635 -0.4675  1.7790
 9349SOL    HW239510   2.429   2.175   7.804 -0.0098 -0.0367  1.1736
 9350SOL     OW39511   0.123   4.488   2.537  0.0371 -0.0298  0.0218
 9350SOL    HW139512   0.084   4.402   2.527  0.3917 -0.5170  2.7089
 9350SOL    HW239513   0.214   4.469   2.512 -0.1441 -0.4918 -0.2892
 9351SOL     OW39514   4.377   2.583  13.200  0.3701 -0.0897  0.8199
 9351SOL    HW139515   4.419   2.653  13.250  1.5229  0.4569 -0.9062
 9351SOL    HW239516   4.421   2.507  13.238 -0.2637 -1.9549 -2.1973
 9352SOL     OW39517   1.161   0.473  10.206 -0.5632 -0.1041  0.4170
 9352SOL    HW139518   1.254   0.491  10.188 -1.3535  4.2205  0.6022
 9352SOL    HW239519   1.148   0.469  10.301 -1.2248 -2.3102  0.2292
 9353SOL     OW39520   3.648   3.581  16.860 -0.0610 -0.2261 -0.5890
 9353SOL    HW139521   3.737   3.552  16.841 -0.7801 -2.4064 -0.6664
 9353SOL    HW239522   3.593   3.509  16.830  0.2209 -1.2315  1.3250
 9354SOL     OW39523   3.967   1.760   4.895  0.3294  0.0594 -0.4821
 9354SOL    HW139524   3.994   1.698   4.962  0.0347 -0.6640 -1.0288
 9354SOL    HW239525   3.873   1.765   4.906  0.6197 -0.1498  1.9648
 9355SOL     OW39526   1.956   2.965   6.709  0.3371 -0.2326  0.1222
 9355SOL    HW139527   1.897   2.996   6.779  0.2776  0.2261 -0.1324
 9355SOL    HW239528   1.937   2.871   6.706  0.5218 -0.3161  1.4146
 9356SOL     OW39529   3.957   3.929   5.890 -0.2173  0.0889  0.5369
 9356SOL    HW139530   4.025   3.868   5.918 -2.0015 -1.0700  2.3205
 9356SOL    HW239531   3.970   4.009   5.941 -0.4069  0.4461  0.0298
 9357SOL     OW39532   1.529   2.980   2.489 -0.2111  0.3731 -0.2784
 9357SOL    HW139533   1.506   2.921   2.418 -0.6739  1.3904 -0.9717
 9357SOL    HW239534   1.466   2.959   2.558  0.2989 -0.6065 -0.1187
 9358SOL     OW39535   1.210   0.009   7.687 -0.4347 -0.4838  0.3777
 9358SOL    HW139536   1.260   4.653   7.680 -0.8143 -0.8585  1.8893
 9358SOL    HW239537   1.253   0.053   7.760  1.1919 -0.0252 -0.8563
 9359SOL     OW39538   3.325   3.504  12.495 -0.0387 -0.3854  0.2163
 9359SOL    HW139539   3.343   3.582  12.547  1.9370 -0.3516 -0.5433
 9359SOL    HW239540   3.233   3.518  12.471 -0.2087  0.0384  1.1195
 9360SOL     OW39541   2.253   3.698   5.200 -0.0476 -0.2718  0.7422
 9360SOL    HW139542   2.195   3.733   5.133 -2.0694 -0.7242  2.2435
 9360SOL    HW239543   2.246   3.603   5.187 -1.1950 -0.3531  1.9408
 9361SOL     OW39544   4.693   3.840   2.427  0.4290 -0.0917  0.5599
 9361SOL    HW139545   4.640   3.919   2.433 -1.3358 -1.2545  0.2384
 9361SOL    HW239546   4.656   3.787   2.498 -2.7868 -0.1626 -1.1693
 9362SOL     OW39547   1.185   1.164  10.506  0.1737  0.7547  0.1524
 9362SOL    HW139548   1.124   1.186  10.434  0.4137 -0.4826 -0.4273
 9362SOL    HW239549   1.122   1.112  10.556  2.0344 -0.4543  1.2078
 9363SOL     OW39550   2.526   0.210   5.440  0.1902  0.5629  0.5146
 9363SOL    HW139551   2.538   0.179   5.350 -0.1412  0.6990  0.4243
 9363SOL    HW239552   2.588   0.282   5.450  0.6467  0.1532  0.6813
 9364SOL     OW39553   1.003   1.513   5.874  0.0081 -0.2685 -0.1075
 9364SOL    HW139554   0.936   1.576   5.899  2.3282  1.4067  1.9678
 9364SOL    HW239555   1.002   1.511   5.779 -0.3994 -0.4521 -0.1000
 9365SOL     OW39556   2.144   3.760   6.321 -0.3217  0.5547 -0.0172
 9365SOL    HW139557   2.185   3.766   6.234 -1.4987 -2.2711 -0.7514
 9365SOL    HW239558   2.218   3.793   6.372  1.0666 -1.1750 -0.9179
 9366SOL     OW39559   3.744   0.081   5.645  0.1165  0.0422 -0.2534
 9366SOL    HW139560   3.822   0.044   5.687 -0.7929  0.9866  2.2633
 9366SOL    HW239561   3.755   0.174   5.663  1.1061  0.0223 -0.7356
 9367SOL     OW39562   2.295   3.384   2.020 -0.0613 -0.2520  0.0170
 9367SOL    HW139563   2.274   3.295   1.991 -1.3933  0.0413  0.0967
 9367SOL    HW239564   2.308   3.372   2.114  0.5772  0.0098 -0.0359
 9368SOL     OW39565   1.216   1.196   2.048  0.6501 -0.5313  0.2227
 9368SOL    HW139566   1.162   1.255   1.995  1.4153 -0.4340 -0.4370
 9368SOL    HW239567   1.149   1.132   2.072 -0.2786  0.7981  1.2068
 9369SOL     OW39568   1.091   3.414  12.398  0.3625  0.3443 -0.0821
 9369SOL    HW139569   1.116   3.410  12.490 -2.3983 -0.8842  0.6087
 9369SOL    HW239570   1.000   3.441  12.399  0.0719 -0.7583  1.9885
 9370SOL     OW39571   4.007   0.233   2.642 -0.5204  0.2696 -0.8785
 9370SOL    HW139572   3.934   0.181   2.674 -0.0650 -1.2010 -2.2005
 9370SOL    HW239573   4.056   0.161   2.601 -0.5370  0.2299 -0.8282
 9371SOL     OW39574   4.548   4.483   2.150 -0.2504  0.3025 -0.5822
 9371SOL    HW139575   4.516   4.564   2.110 -0.7592  0.9538  1.1705
 9371SOL    HW239576   4.499   4.468   2.231 -2.4224 -0.2025 -2.0080
 9372SOL     OW39577   3.780   3.153  11.845  0.5168  1.0770  0.4873
 9372SOL    HW139578   3.783   3.080  11.907 -1.3906  1.5303  1.1206
 9372SOL    HW239579   3.790   3.223  11.909 -1.8356 -1.3283  3.5050
 9373SOL     OW39580   0.777   1.658  11.610 -0.8412 -0.0699 -0.4581
 9373SOL    HW139581   0.688   1.694  11.618 -1.0128 -0.4455 -0.6913
 9373SOL    HW239582   0.817   1.732  11.563 -0.1806 -0.9573 -1.3021
 9374SOL     OW39583   3.344   0.457   8.879 -0.2774 -0.3107  0.1388
 9374SOL    HW139584   3.282   0.522   8.847  0.8334  0.3084 -0.7320
 9374SOL    HW239585   3.418   0.514   8.900 -0.7028 -0.6832  2.7580
 9375SOL     OW39586   2.040   3.916  14.406 -0.1340 -0.1507 -0.5790
 9375SOL    HW139587   2.071   4.006  14.420 -0.5750  0.1437 -1.5209
 9375SOL    HW239588   2.085   3.892  14.325  2.7538 -0.5959  1.1448
 9376SOL     OW39589   2.091   1.259   7.659 -0.2904 -0.0274 -0.2302
 9376SOL    HW139590   2.126   1.257   7.570 -0.2270  0.2361 -0.2099
 9376SOL    HW239591   2.022   1.191   7.657 -1.2003  0.9416 -1.3992
 9377SOL     OW39592   0.795   2.007   0.050 -0.4013  0.2774  0.0467
 9377SOL    HW139593   0.850   1.986   0.125 -0.0394  0.0646 -0.2805
 9377SOL    HW239594   0.761   2.094   0.071  0.0651  0.2171  1.0367
 9378SOL     OW39595   1.892   1.533  14.085  0.8555 -0.6595  0.6461
 9378SOL    HW139596   1.812   1.481  14.073  0.0415  0.3414  1.7392
 9378SOL    HW239597   1.862   1.621  14.110 -0.3842 -0.9293  0.1249
 9379SOL     OW39598   0.368   0.478   6.940  0.0917  0.5777  0.0129
 9379SOL    HW139599   0.354   0.532   6.862 -1.0374 -0.2730 -0.3640
 9379SOL    HW239600   0.461   0.453   6.934  0.3630  1.4685  0.6176
 9380SOL     OW39601   3.676   4.199  15.384  0.1666 -0.1827  0.1753
 9380SOL    HW139602   3.710   4.277  15.339  1.2014 -0.4763  0.4371
 9380SOL    HW239603   3.751   4.176  15.439 -0.9482 -1.6728  1.0564
 9381SOL     OW39604   1.350   1.484   8.953 -0.2472  0.0217 -0.0298
 9381SOL    HW139605   1.290   1.559   8.958  0.3062  0.2785  2.6466
 9381SOL    HW239606   1.292   1.408   8.958 -1.5266  0.9292 -1.1499
 9382SOL     OW39607   3.137   1.175   7.171  0.0585  0.3048  0.1259
 9382SOL    HW139608   3.175   1.211   7.091  1.3847 -2.5613 -0.5294
 9382SOL    HW239609   3.180   1.090   7.161 -0.3826  0.1288 -0.2874
 9383SOL     OW39610   3.076   3.998   2.468  0.2329 -0.7636  0.2035
 9383SOL    HW139611   3.027   4.062   2.416 -0.1507  0.4539  2.0714
 9383SOL    HW239612   3.148   3.986   2.406 -0.6434  1.1280 -1.2001
 9384SOL     OW39613   2.407   1.329  14.077 -0.0858 -0.2522  0.1302
 9384SOL    HW139614   2.464   1.355  14.005 -0.0839  0.4954  0.3975
 9384SOL    HW239615   2.329   1.305  14.028 -0.8306  0.2892  1.0460
 9385SOL     OW39616   3.046   4.596  14.937  0.0360  0.1573  0.1363
 9385SOL    HW139617   2.962   4.575  14.977 -1.3585  2.4170 -1.5733
 9385SOL    HW239618   3.020   4.671  14.883 -0.5802 -1.7829 -2.2670
 9386SOL     OW39619   0.609   1.076  10.484  0.0816  0.1641  0.8527
 9386SOL    HW139620   0.513   1.078  10.484  0.1204  2.2755  3.3508
 9386SOL    HW239621   0.631   1.169  10.476  1.0071 -0.1586 -0.2753
 9387SOL     OW39622   1.160   1.459  10.847 -0.8064 -0.1070  0.1952
 9387SOL    HW139623   1.084   1.507  10.813 -0.4161 -1.1283 -2.1260
 9387SOL    HW239624   1.193   1.518  10.914 -0.6238 -0.2950  0.2699
 9388SOL     OW39625   1.742   2.168   3.798  0.0213  0.0901 -0.5075
 9388SOL    HW139626   1.668   2.228   3.784  0.2577  0.1878 -1.3377
 9388SOL    HW239627   1.718   2.123   3.878  0.9046  0.8722  0.1903
 9389SOL     OW39628   3.077   4.214   8.318 -0.6252 -0.1951  0.2234
 9389SOL    HW139629   3.172   4.225   8.313 -0.5811 -0.8123 -0.2784
 9389SOL    HW239630   3.065   4.168   8.401  1.2449 -1.1628 -0.0549
 9390SOL     OW39631   2.439   1.362   5.454  0.5321  0.4244  0.4877
 9390SOL    HW139632   2.393   1.279   5.466  0.6872  0.4258  1.0901
 9390SOL    HW239633   2.359   1.415   5.461 -1.7826 -2.7434 -2.3062
 9391SOL     OW39634   0.315   3.104  10.787 -0.0768 -0.5623  0.4020
 9391SOL    HW139635   0.398   3.152  10.784  0.3668 -1.3150  0.6833
 9391SOL    HW239636   0.278   3.136  10.705  1.2656  2.1318  0.8461
 9392SOL     OW39637   3.231   2.312  14.369  0.4341 -0.4433  0.0518
 9392SOL    HW139638   3.317   2.322  14.411  0.6209  1.6698 -0.8132
 9392SOL    HW239639   3.208   2.219  14.373  0.0900 -0.3338  0.5971
 9393SOL     OW39640   4.119   4.525  17.227 -0.2497 -0.3241 -0.5842
 9393SOL    HW139641   4.187   4.486  17.282 -0.4253 -0.3863 -0.4102
 9393SOL    HW239642   4.068   4.450  17.197 -1.1716  0.0756 -0.0046
 9394SOL     OW39643   0.502   2.276  10.648  0.6755  0.3903  0.9274
 9394SOL    HW139644   0.580   2.220  10.643  2.0468  2.2766  1.2405
 9394SOL    HW239645   0.553   2.355  10.631 -0.5588  0.9749 -0.0562
 9395SOL     OW39646   3.540   2.575  15.097 -0.2308  0.3328 -0.9884
 9395SOL    HW139647   3.500   2.566  15.011 -1.4824  2.0182 -0.5848
 9395SOL    HW239648   3.609   2.634  15.066  1.7496 -0.5836  1.6121
 9396SOL     OW39649   3.260   3.082   7.944 -0.0941  0.5298 -0.5024
 9396SOL    HW139650   3.318   3.038   7.881 -0.4556  0.0294 -0.4872
 9396SOL    HW239651   3.240   3.164   7.899 -0.4514 -0.1530 -1.5760
 9397SOL     OW39652   2.230   3.421   5.187  0.0410  0.6737 -0.2587
 9397SOL    HW139653   2.203   3.388   5.273  0.2306  2.4550  0.4743
 9397SOL    HW239654   2.227   3.346   5.127 -0.3028 -0.1082  0.7208
 9398SOL     OW39655   2.894   0.650   3.618 -0.1585 -0.0589  0.3778
 9398SOL    HW139656   2.851   0.579   3.665  4.1414 -1.9787  1.3674
 9398SOL    HW239657   2.820   0.708   3.597  0.8600  0.5995 -1.4180
 9399SOL     OW39658   2.273   0.658   7.657 -0.5653 -0.3961  0.0351
 9399SOL    HW139659   2.356   0.693   7.623  0.3510  0.2458  2.9357
 9399SOL    HW239660   2.295   0.677   7.748  0.3120  0.0202 -0.2626
 9400SOL     OW39661   1.213   0.816   1.682  0.0595 -0.0286 -0.2604
 9400SOL    HW139662   1.295   0.771   1.702 -1.7186 -2.8041  0.7121
 9400SOL    HW239663   1.146   0.749   1.693 -1.5375  1.3699 -1.3782
 9401SOL     OW39664   4.007   2.230   3.775  0.2237 -0.1435  0.0777
 9401SOL    HW139665   4.017   2.324   3.758  0.3651 -0.1004  0.3991
 9401SOL    HW239666   4.014   2.192   3.688 -0.7779 -1.7181  0.6810
 9402SOL     OW39667   2.920   3.114   4.383 -0.0653 -0.0235 -0.7350
 9402SOL    HW139668   2.924   3.208   4.398 -0.4458 -0.0443 -0.4959
 9402SOL    HW239669   2.873   3.110   4.300 -0.5552  0.9993 -0.4972
 9403SOL     OW39670   3.543   3.550   2.480 -0.0395  0.4894 -0.3149
 9403SOL    HW139671   3.473   3.558   2.416 -1.3207  2.7265  1.3785
 9403SOL    HW239672   3.583   3.470   2.444  2.1711  0.5207  2.0124
 9404SOL     OW39673   3.837   0.421   2.525  0.1677 -0.3143 -0.3500
 9404SOL    HW139674   3.857   0.426   2.432  0.6497 -0.9021 -0.2715
 9404SOL    HW239675   3.894   0.353   2.559  1.5484  0.7809 -0.4659
 9405SOL     OW39676   2.380   3.937  12.762 -0.0105 -0.8493 -0.0254
 9405SOL    HW139677   2.356   4.021  12.724 -1.8744 -2.1960 -1.8306
 9405SOL    HW239678   2.309   3.933  12.826 -0.5525  1.4589 -0.4791
 9406SOL     OW39679   0.938   0.423  17.196  0.4601  0.5672 -0.6386
 9406SOL    HW139680   0.994   0.347  17.215 -1.6855 -0.8043  0.2525
 9406SOL    HW239681   1.005   0.486  17.170  0.8341  0.3011 -0.3240
 9407SOL     OW39682   2.393   3.140   7.159 -0.1520 -0.6609 -0.4182
 9407SOL    HW139683   2.305   3.145   7.196  0.0624  1.5223 -0.2211
 9407SOL    HW239684   2.390   3.073   7.091  2.7378  0.8244 -2.0387
 9408SOL     OW39685   0.631   3.958   5.013 -0.3517  0.8503 -0.1539
 9408SOL    HW139686   0.620   3.885   4.953  0.6403  1.5282 -1.1509
 9408SOL    HW239687   0.544   3.946   5.052  0.0494 -0.5862  0.2810
 9409SOL     OW39688   2.792   1.657   4.294  0.1491  0.0697  0.0700
 9409SOL    HW139689   2.885   1.675   4.309  0.3698 -0.2678 -0.9231
 9409SOL    HW239690   2.800   1.592   4.225  0.4205  1.3220 -1.0856
 9410SOL     OW39691   0.441   2.543  15.686  0.1087 -0.5508  0.5545
 9410SOL    HW139692   0.449   2.637  15.706 -0.0087 -0.5400  0.5561
 9410SOL    HW239693   0.529   2.524  15.655 -0.5062 -1.9916 -0.2964
 9411SOL     OW39694   4.674   0.225  16.406 -0.3376 -0.1260 -0.0369
 9411SOL    HW139695   0.015   0.207  16.339 -2.8365  0.8124 -2.7322
 9411SOL    HW239696   4.627   0.142  16.405  2.1899 -1.5710 -0.2765
 9412SOL     OW39697   3.559   0.485   4.378 -0.0353 -0.8397  0.2814
 9412SOL    HW139698   3.626   0.435   4.331 -1.0767 -1.8285 -0.1287
 9412SOL    HW239699   3.479   0.458   4.333  1.0927 -0.8422 -1.7403
 9413SOL     OW39700   1.072   3.600   7.792 -0.1678 -0.0757  0.2537
 9413SOL    HW139701   1.054   3.693   7.804 -0.9496 -0.0800 -0.8685
 9413SOL    HW239702   1.168   3.602   7.789 -0.0717 -3.2305  1.0900
 9414SOL     OW39703   4.109   4.434  12.140 -0.5905 -0.3668  0.0324
 9414SOL    HW139704   4.027   4.457  12.096 -0.7510 -1.5200 -0.2753
 9414SOL    HW239705   4.110   4.465  12.231 -1.2234 -3.1539  0.9954
 9415SOL     OW39706   0.105   3.074  10.974  0.6096 -0.4880  0.0965
 9415SOL    HW139707   0.175   3.084  10.909 -0.6028  2.2055 -0.7744
 9415SOL    HW239708   0.029   3.083  10.917  0.8389 -1.3330 -0.3512
 9416SOL     OW39709   1.042   3.523   4.850 -0.0597  0.4161  0.0175
 9416SOL    HW139710   0.967   3.567   4.810  0.7589  1.4503 -0.3666
 9416SOL    HW239711   1.107   3.523   4.780  0.5067 -0.1894  0.5498
 9417SOL     OW39712   4.056   3.661   2.072 -0.3028  0.3650  0.6735
 9417SOL    HW139713   4.056   3.575   2.029  0.1026 -0.3212  2.0207
 9417SOL    HW239714   4.140   3.663   2.118 -0.5318  0.3359  1.0949
 9418SOL     OW39715   3.828   2.491  11.114  0.2108 -0.0281 -0.1584
 9418SOL    HW139716   3.884   2.555  11.071 -0.9839  1.3306  0.3272
 9418SOL    HW239717   3.745   2.521  11.077 -0.7880 -2.3270  0.2222
 9419SOL     OW39718   1.848   3.771  17.608 -0.1633 -0.2094 -0.2798
 9419SOL    HW139719   1.762   3.745  17.640 -1.0130  2.6964 -0.2077
 9419SOL    HW239720   1.876   3.688  17.570 -0.0672  0.3931 -1.5283
 9420SOL     OW39721   2.955   1.028   5.426 -0.0033 -0.0467  0.0392
 9420SOL    HW139722   2.957   0.968   5.352 -0.0151 -0.4403  0.3570
 9420SOL    HW239723   3.006   0.971   5.484  1.5042  1.8963  0.6290
 9421SOL     OW39724   1.328   4.270   7.706  0.7182  0.1098 -0.3342
 9421SOL    HW139725   1.404   4.220   7.676  3.1798  2.8273  1.3563
 9421SOL    HW239726   1.354   4.359   7.679  1.3722  0.5599  1.7936
 9422SOL     OW39727   4.409   4.239  16.594 -0.1447  0.3370  0.0840
 9422SOL    HW139728   4.357   4.190  16.530  2.1932 -1.3054 -0.5712
 9422SOL    HW239729   4.418   4.166  16.655  0.1306  1.6982  1.6670
 9423SOL     OW39730   1.066   2.884  14.503 -0.0873 -0.3972 -0.4529
 9423SOL    HW139731   1.091   2.891  14.411 -0.5407  1.2588 -0.4497
 9423SOL    HW239732   1.063   2.970  14.543 -0.2450 -0.7757  0.3493
 9424SOL     OW39733   3.242   4.003   6.132 -0.3729 -0.1992 -0.6592
 9424SOL    HW139734   3.177   3.934   6.119 -0.6243  0.1857 -1.4821
 9424SOL    HW239735   3.288   3.988   6.050 -1.2048 -2.1640 -0.7640
 9425SOL     OW39736   0.298   0.200  11.639 -0.8714  0.6506  0.0300
 9425SOL    HW139737   0.371   0.151  11.676 -0.0018  0.1383 -2.3748
 9425SOL    HW239738   0.310   0.285  11.682  1.6793 -0.3934  1.3788
 9426SOL     OW39739   1.808   1.353   0.136 -1.1040  0.0796  0.1620
 9426SOL    HW139740   1.870   1.332   0.206  0.5437  2.1499 -0.6800
 9426SOL    HW239741   1.741   1.404   0.183  0.6812  0.2723  2.5158
 9427SOL     OW39742   0.379   0.826  13.213 -0.7180  0.1559  0.1415
 9427SOL    HW139743   0.428   0.792  13.138 -1.6305 -2.3773  0.6937
 9427SOL    HW239744   0.297   0.782  13.191  0.1842 -1.4325  0.0052
 9428SOL     OW39745   2.743   3.295   6.613  0.3006 -0.2405  0.5065
 9428SOL    HW139746   2.823   3.348   6.620  0.5488 -0.6141  0.5000
 9428SOL    HW239747   2.697   3.342   6.544  3.2405  0.7582 -0.7810
 9429SOL     OW39748   1.126   2.796   2.477 -0.6553  0.1690 -0.3914
 9429SOL    HW139749   1.066   2.831   2.411  0.5137  1.1767 -0.9091
 9429SOL    HW239750   1.205   2.815   2.427  0.2153 -0.1871  0.8494
 9430SOL     OW39751   1.815   1.418   3.227 -0.0716 -0.4748  0.6709
 9430SOL    HW139752   1.751   1.488   3.217  1.8797  1.1753 -0.1283
 9430SOL    HW239753   1.759   1.341   3.242 -1.4229  0.0060 -1.8667
 9431SOL     OW39754   2.439   3.502  11.670  0.5960 -0.0726  0.0568
 9431SOL    HW139755   2.527   3.473  11.645  1.2941  1.5681  0.6044
 9431SOL    HW239756   2.448   3.596  11.656 -0.7685 -0.2727 -2.2082
 9432SOL     OW39757   0.632   2.745   9.694  0.5301  0.3571  0.2872
 9432SOL    HW139758   0.710   2.775   9.741  1.8928 -0.6139 -1.3911
 9432SOL    HW239759   0.681   2.717   9.617 -0.5120  1.2697 -0.7245
 9433SOL     OW39760   2.891   4.662   5.950  0.0390  0.4697 -0.0749
 9433SOL    HW139761   2.811   4.702   5.916 -1.3785 -0.7301  1.8174
 9433SOL    HW239762   2.941   4.648   5.870 -0.1371 -0.7672  0.0247
 9434SOL     OW39763   2.895   3.862   4.388 -0.3259  0.2755  0.5798
 9434SOL    HW139764   2.930   3.839   4.474 -1.4142  0.1343  0.9742
 9434SOL    HW239765   2.803   3.840   4.394 -0.7661  1.2128 -3.1294
 9435SOL     OW39766   1.782   0.457   5.818 -0.1183 -0.7318 -0.4334
 9435SOL    HW139767   1.789   0.398   5.893 -0.6845  1.0124  0.9881
 9435SOL    HW239768   1.871   0.451   5.784  0.2102  4.4471 -0.4953
 9436SOL     OW39769   1.689   0.990   9.411  0.4485  0.1350 -0.1929
 9436SOL    HW139770   1.654   0.983   9.500 -0.6213  0.7296 -0.5713
 9436SOL    HW239771   1.684   1.084   9.398  0.7918  0.2555  0.5934
 9437SOL     OW39772   3.745   1.720   8.886  0.1043  0.8310 -0.7405
 9437SOL    HW139773   3.659   1.731   8.844 -0.5318  0.4265  0.4545
 9437SOL    HW239774   3.766   1.627   8.874 -0.3642  0.4374  1.4377
 9438SOL     OW39775   1.673   4.354   5.591 -0.2202  0.3516 -0.1422
 9438SOL    HW139776   1.600   4.405   5.625 -0.5066  0.8680 -1.5404
 9438SOL    HW239777   1.750   4.373   5.645 -1.0861  0.8563  0.9077
 9439SOL     OW39778   0.914   2.769  12.769  0.0798 -0.1297 -0.0270
 9439SOL    HW139779   0.906   2.741  12.678 -0.2336  1.0239 -0.3397
 9439SOL    HW239780   0.963   2.850  12.761 -0.2256 -0.1053 -1.5622
 9440SOL     OW39781   0.108   0.801   8.150  0.2584 -0.4383 -0.1831
 9440SOL    HW139782   0.176   0.828   8.088  0.4481  0.6062  0.4841
 9440SOL    HW239783   0.033   0.776   8.096  1.3239 -2.9041 -0.5098
 9441SOL     OW39784   0.090   1.562  16.137  0.1422 -0.6468  0.4441
 9441SOL    HW139785   0.164   1.621  16.155  0.0300 -0.6054  0.7791
 9441SOL    HW239786   0.118   1.484  16.185  1.5796  0.2348  1.0699
 9442SOL     OW39787   3.955   0.726   6.785 -0.1852  0.6119 -0.8110
 9442SOL    HW139788   3.863   0.703   6.775 -0.3693  0.4728  1.2967
 9442SOL    HW239789   3.996   0.674   6.715  3.0593 -0.6002  2.0111
 9443SOL     OW39790   0.248   3.817   5.737 -0.8557  0.2852 -0.1559
 9443SOL    HW139791   0.208   3.899   5.712 -2.0734 -0.2004  0.2134
 9443SOL    HW239792   0.325   3.849   5.785  0.7023 -2.1929 -0.9672
 9444SOL     OW39793   3.964   4.062   5.308 -0.0887  0.8905  0.1774
 9444SOL    HW139794   3.987   3.986   5.255 -1.5265  0.5821 -0.0097
 9444SOL    HW239795   4.009   4.036   5.389  2.0839  1.0779 -0.9855
 9445SOL     OW39796   1.669   1.625   3.990 -0.1568 -0.6115 -0.4678
 9445SOL    HW139797   1.722   1.641   3.912  2.3897 -2.3939  0.8546
 9445SOL    HW239798   1.715   1.556   4.038  0.3538 -0.5205 -0.8160
 9446SOL     OW39799   0.108   1.888  14.385  0.1086  0.0387  0.1247
 9446SOL    HW139800   0.146   1.802  14.399 -0.1060 -0.1363 -0.3768
 9446SOL    HW239801   0.106   1.897  14.289 -1.3960 -0.6184  0.0958
 9447SOL     OW39802   0.463   1.935   6.058 -0.3088 -0.5700 -0.3461
 9447SOL    HW139803   0.408   1.961   6.132  0.9386 -0.0934  0.4173
 9447SOL    HW239804   0.427   1.848   6.040  0.1117 -0.6992 -0.5473
 9448SOL     OW39805   1.777   1.304   2.792 -0.1867  0.5754 -0.0651
 9448SOL    HW139806   1.698   1.273   2.837 -0.9266 -0.5576 -2.1705
 9448SOL    HW239807   1.851   1.285   2.850  0.1007  0.2272 -0.5486
 9449SOL     OW39808   2.564   3.481   7.141 -0.0346 -0.1322 -0.9569
 9449SOL    HW139809   2.523   3.555   7.096  0.5880 -1.1235 -3.1677
 9449SOL    HW239810   2.657   3.503   7.155  0.0924 -0.9841 -0.4805
 9450SOL     OW39811   3.442   0.961   9.213 -0.2887 -0.3567  0.0713
 9450SOL    HW139812   3.351   0.966   9.184 -0.2499 -2.6172 -0.4114
 9450SOL    HW239813   3.422   1.000   9.298  1.0267  4.1775 -1.7262
 9451SOL     OW39814   0.153   3.748   0.144  0.5388 -0.6322  0.2861
 9451SOL    HW139815   0.170   3.797   0.064 -2.8581 -0.5726 -0.4009
 9451SOL    HW239816   0.074   3.785   0.182  2.2009  0.9752  2.1841
 9452SOL     OW39817   2.837   1.632   8.580 -0.1131 -0.1168  0.6012
 9452SOL    HW139818   2.903   1.563   8.586  1.3557  1.1826 -0.6698
 9452SOL    HW239819   2.771   1.591   8.525  1.5838 -1.6521 -0.2977
 9453SOL     OW39820   1.648   3.198   8.883  0.0634  0.5357  0.0134
 9453SOL    HW139821   1.703   3.137   8.832 -1.9365 -0.5889 -0.8149
 9453SOL    HW239822   1.631   3.264   8.817 -0.5633  2.2264  1.8832
 9454SOL     OW39823   3.065   1.386   6.079  0.3493 -0.1089  0.0986
 9454SOL    HW139824   3.078   1.318   6.145  2.0658  2.1159  2.0596
 9454SOL    HW239825   3.004   1.343   6.020  0.1438  0.2241  0.0660
 9455SOL     OW39826   4.320   0.109  12.004 -0.5316 -0.1436 -0.3915
 9455SOL    HW139827   4.230   0.111  11.971 -0.1626  1.4152 -1.3045
 9455SOL    HW239828   4.334   0.202  11.986 -0.1768 -0.3214 -1.0372
 9456SOL     OW39829   0.986   4.534  12.112 -0.0105  0.2372 -0.0204
 9456SOL    HW139830   0.960   4.491  12.193  0.0407 -0.1803 -0.2291
 9456SOL    HW239831   1.014   4.471  12.047  0.8657  1.2091 -0.5845
 9457SOL     OW39832   4.352   4.643   6.118 -0.0677  0.5038 -0.3394
 9457SOL    HW139833   4.414   4.716   6.119  1.8559 -1.1453  0.7016
 9457SOL    HW239834   4.367   4.610   6.207  2.3941  0.0927 -0.9061
 9458SOL     OW39835   1.796   2.423  16.961 -0.6223  0.3811  0.4894
 9458SOL    HW139836   1.863   2.369  17.004 -0.7530  0.4010  0.7197
 9458SOL    HW239837   1.752   2.354  16.911 -1.0549  0.7582  0.3444
 9459SOL     OW39838   1.933   3.514   8.206  0.2891 -0.2252  0.3270
 9459SOL    HW139839   1.891   3.567   8.273 -1.8918 -2.4860  0.7520
 9459SOL    HW239840   2.027   3.533   8.213  0.2131 -0.6603  2.4618
 9460SOL     OW39841   3.940   1.999  13.722 -0.5050 -0.0236 -0.2616
 9460SOL    HW139842   3.887   1.948  13.662 -0.1924  2.0376 -2.2909
 9460SOL    HW239843   3.984   2.057  13.660 -1.7896  1.3422  0.1223
 9461SOL     OW39844   0.698   1.078   8.948  0.4092 -0.4645  0.0951
 9461SOL    HW139845   0.722   1.117   9.033 -0.7417 -1.4059  0.8459
 9461SOL    HW239846   0.649   1.147   8.904  0.1153 -2.0345 -2.0220
 9462SOL     OW39847   2.047   1.183   4.453  0.1990  0.0232  0.0546
 9462SOL    HW139848   2.091   1.184   4.368 -2.6038 -1.9344 -1.4229
 9462SOL    HW239849   1.972   1.125   4.442 -0.2995  0.1818  2.7469
 9463SOL     OW39850   2.963   2.811  17.054 -0.4884 -0.4798 -0.0916
 9463SOL    HW139851   2.973   2.876  17.123 -2.1913 -1.3604  0.9845
 9463SOL    HW239852   3.022   2.741  17.082  1.8039  2.3217  2.1179
 9464SOL     OW39853   4.326   0.910   5.487  0.0747  0.3549 -0.3119
 9464SOL    HW139854   4.394   0.937   5.549  0.6885 -0.7335 -0.5225
 9464SOL    HW239855   4.361   0.948   5.407  3.4710 -1.8066  0.1400
 9465SOL     OW39856   1.891   4.286   7.913 -0.1603  0.0321  0.1028
 9465SOL    HW139857   1.834   4.362   7.900 -0.7455 -0.0977  1.9608
 9465SOL    HW239858   1.973   4.334   7.927 -0.8146  1.3369 -0.5048
 9466SOL     OW39859   1.108   3.182   7.235 -0.2188  0.2547  0.0736
 9466SOL    HW139860   1.027   3.139   7.206 -0.8071  0.0465  2.0403
 9466SOL    HW239861   1.068   3.263   7.267 -1.6645 -0.4828  0.1804
 9467SOL     OW39862   1.434   3.135  11.267 -0.0492  0.1795  0.0340
 9467SOL    HW139863   1.378   3.070  11.309 -2.0197  2.7257  1.3905
 9467SOL    HW239864   1.482   3.086  11.201  0.6329 -0.5478  1.0658
 9468SOL     OW39865   0.312   2.499   7.277 -0.1984  0.2229  0.0730
 9468SOL    HW139866   0.382   2.540   7.329 -0.2404 -0.3292  0.5687
 9468SOL    HW239867   0.348   2.509   7.189 -1.5108 -0.0378 -0.4794
 9469SOL     OW39868   2.864   2.610   4.489 -0.1076  0.1801 -0.2810
 9469SOL    HW139869   2.831   2.522   4.504 -2.6120  1.4403  1.5792
 9469SOL    HW239870   2.789   2.645   4.441 -0.2081  1.1567  0.5771
 9470SOL     OW39871   3.821   1.875   7.441 -0.0054  0.0047  0.0220
 9470SOL    HW139872   3.817   1.885   7.536 -1.4966  1.9312 -0.2216
 9470SOL    HW239873   3.818   1.967   7.412 -0.6601 -0.3015 -0.8683
 9471SOL     OW39874   3.162   0.488   2.770  0.5902  0.1203  0.0836
 9471SOL    HW139875   3.111   0.410   2.748 -0.1419  0.0544  2.0232
 9471SOL    HW239876   3.248   0.451   2.791 -1.3681 -1.6146  5.0086
 9472SOL     OW39877   3.387   3.701   4.966  0.2465  0.2989 -0.0091
 9472SOL    HW139878   3.417   3.652   5.042  0.1650  1.5374  0.8266
 9472SOL    HW239879   3.463   3.712   4.910  1.3733  1.1722  1.7056
 9473SOL     OW39880   1.155   3.822   9.628 -0.1833 -0.6463  0.3154
 9473SOL    HW139881   1.078   3.806   9.683 -0.8283 -1.4472 -0.8375
 9473SOL    HW239882   1.149   3.758   9.558  1.6493 -0.4524 -0.0202
 9474SOL     OW39883   3.293   4.363   2.020  0.0221 -0.0559 -0.1479
 9474SOL    HW139884   3.311   4.456   2.009 -0.3624  0.2186  1.5823
 9474SOL    HW239885   3.338   4.353   2.104 -0.8210 -1.9016  0.0884
 9475SOL     OW39886   2.723   3.563  15.458  0.2520 -0.1584  0.6326
 9475SOL    HW139887   2.766   3.612  15.529  0.6101  0.8089 -0.2496
 9475SOL    HW239888   2.638   3.602  15.441  1.1875  2.0097  0.8629
 9476SOL     OW39889   1.061   1.543   6.922  0.1536  0.1249 -0.0806
 9476SOL    HW139890   1.107   1.482   6.864  2.8482  0.1880  2.0143
 9476SOL    HW239891   1.090   1.624   6.881  0.7508 -0.2147 -0.3268
 9477SOL     OW39892   1.083   0.643  12.922 -0.5252  0.2139  0.2655
 9477SOL    HW139893   1.019   0.680  12.862 -0.8752  3.7609  2.8317
 9477SOL    HW239894   1.036   0.634  13.005  1.5328 -0.4191  1.3751
 9478SOL     OW39895   3.090   0.675   8.887 -0.2975 -0.0578 -0.2541
 9478SOL    HW139896   3.102   0.661   8.981  1.3008 -0.2107 -0.4813
 9478SOL    HW239897   3.172   0.719   8.865 -0.6307  0.8874  0.3865
 9479SOL     OW39898   2.760   1.398  11.364 -0.2018 -0.4912 -0.0713
 9479SOL    HW139899   2.758   1.332  11.295  2.6864  0.2661 -0.8978
 9479SOL    HW239900   2.762   1.335  11.436  2.3313 -1.9793 -1.4498
 9480SOL     OW39901   2.187   3.126   2.301 -0.4558 -0.0289  0.3463
 9480SOL    HW139902   2.111   3.132   2.360  0.8245 -0.8198  2.0935
 9480SOL    HW239903   2.198   3.031   2.295  1.3080  0.2236 -0.4279
 9481SOL     OW39904   0.716   0.952   5.444 -0.6019  0.1061  0.0016
 9481SOL    HW139905   0.630   0.983   5.414  0.4660  2.1215 -0.9716
 9481SOL    HW239906   0.716   0.858   5.430  1.4512  0.2713 -1.0832
 9482SOL     OW39907   0.981   0.171   9.215  0.4653  0.7034  0.3297
 9482SOL    HW139908   0.944   0.202   9.133  3.0362  0.3862 -0.9697
 9482SOL    HW239909   0.912   0.111   9.243 -0.3738  0.7393 -1.6945
 9483SOL     OW39910   0.969   1.756  14.962 -0.0238 -0.5787 -0.5070
 9483SOL    HW139911   0.926   1.764  14.877 -0.5844 -1.4490 -0.3054
 9483SOL    HW239912   1.025   1.681  14.941 -0.6713 -1.2572  0.2086
 9484SOL     OW39913   3.108   1.986   6.751  0.1064 -0.4424  0.0938
 9484SOL    HW139914   3.122   1.950   6.838 -3.4381 -0.8169  0.5221
 9484SOL    HW239915   3.025   2.027   6.773 -0.3840 -1.3157 -0.1239
 9485SOL     OW39916   2.613   4.375   9.583  0.1286  0.4275  0.3555
 9485SOL    HW139917   2.670   4.445   9.618  3.3445 -0.7406 -2.5493
 9485SOL    HW239918   2.522   4.405   9.577  0.0283 -0.3111 -1.7513
 9486SOL     OW39919   4.264   3.762  13.577  0.3766 -0.6044  0.0846
 9486SOL    HW139920   4.304   3.682  13.612 -2.0249 -1.8091  0.0662
 9486SOL    HW239921   4.336   3.820  13.600 -2.2458  1.3404  3.4222
 9487SOL     OW39922   3.894   1.528   8.613  0.0112 -0.4735 -0.1242
 9487SOL    HW139923   3.948   1.549   8.537 -1.0678  2.8975  0.0031
 9487SOL    HW239924   3.809   1.561   8.583  0.6789  3.1496  1.9215
 9488SOL     OW39925   0.447   4.185   2.739  0.0781  0.3225 -0.1202
 9488SOL    HW139926   0.480   4.213   2.654  0.1853  0.7766  0.0734
 9488SOL    HW239927   0.521   4.134   2.773  0.1129  1.2179  1.1442
 9489SOL     OW39928   1.417   4.223  15.290 -0.1496  0.7881 -0.3553
 9489SOL    HW139929   1.334   4.238  15.244  0.0773 -0.4039 -1.1335
 9489SOL    HW239930   1.455   4.152  15.239 -1.8691 -1.2899  1.2823
 9490SOL     OW39931   0.986   3.970  16.414  0.6547  0.7891  0.2000
 9490SOL    HW139932   0.892   3.987  16.425  0.0858 -2.9546  1.1259
 9490SOL    HW239933   0.985   3.875  16.407 -3.4216  0.6654  2.3861
 9491SOL     OW39934   1.709   2.296   8.975  0.4331 -0.2181 -0.5446
 9491SOL    HW139935   1.801   2.300   8.950  0.0564 -1.1193 -2.1198
 9491SOL    HW239936   1.729   2.264   9.063  0.2625 -0.5962 -0.6429
 9492SOL     OW39937   4.709   4.116   8.194  0.9173  0.0937  0.5008
 9492SOL    HW139938   4.621   4.153   8.183  0.5882 -1.1242 -1.1245
 9492SOL    HW239939   0.032   4.156   8.266 -0.7122  1.3043  0.9243
 9493SOL     OW39940   2.123   4.608  11.183 -0.5475  0.7182  0.4865
 9493SOL    HW139941   2.111   4.658  11.264 -0.9993  1.4435 -0.0335
 9493SOL    HW239942   2.032   4.598  11.154 -0.0129 -1.5588 -0.3435
 9494SOL     OW39943   2.972   4.590   2.174 -0.0067 -0.3924  0.1926
 9494SOL    HW139944   2.988   4.615   2.083 -1.3970  0.3508  0.1547
 9494SOL    HW239945   2.920   4.510   2.169 -3.4222  1.9500 -1.6311
 9495SOL     OW39946   3.816   0.993  10.850 -0.0418  0.2685  0.1699
 9495SOL    HW139947   3.838   0.929  10.783  1.9007  0.5308  0.5560
 9495SOL    HW239948   3.840   1.080  10.818  0.7472 -0.1046 -0.2515
 9496SOL     OW39949   1.131   2.490  14.481 -0.1524  0.5199 -0.1418
 9496SOL    HW139950   1.080   2.410  14.483 -1.3964  1.3031 -0.4124
 9496SOL    HW239951   1.217   2.452  14.500  0.7585  2.0387 -1.1613
 9497SOL     OW39952   3.418   2.520  15.452 -0.1365  0.1657  0.0933
 9497SOL    HW139953   3.379   2.435  15.430 -0.8368  1.0364 -2.0573
 9497SOL    HW239954   3.410   2.561  15.366  0.4063 -0.5097 -0.2867
 9498SOL     OW39955   1.913   0.419   0.332  0.2902 -0.2407 -0.4872
 9498SOL    HW139956   1.958   0.334   0.325  0.7448 -0.0285 -0.1806
 9498SOL    HW239957   1.939   0.460   0.250 -0.1215 -1.5315 -1.2549
 9499SOL     OW39958   1.808   0.172  14.902  0.2266 -0.1219 -0.0199
 9499SOL    HW139959   1.777   0.219  14.980  1.0501  2.2692 -1.1196
 9499SOL    HW239960   1.889   0.130  14.930 -0.4250 -2.8944 -2.2268
 9500SOL     OW39961   4.614   2.815  13.509  0.5637 -0.4977 -0.2419
 9500SOL    HW139962   4.624   2.721  13.494 -1.2388 -0.7247 -0.1175
 9500SOL    HW239963   4.551   2.828  13.437 -0.9094 -0.8410  0.9719
 9501SOL     OW39964   4.517   4.704  15.395 -0.0912 -0.0925 -0.0267
 9501SOL    HW139965   4.503   4.634  15.459  0.9204  1.1526  1.5813
 9501SOL    HW239966   4.439   4.705  15.341 -0.8002  0.0001  0.9930
 9502SOL     OW39967   2.384   1.588   8.316  0.2107  0.1385 -0.6136
 9502SOL    HW139968   2.420   1.550   8.236  1.5230  0.2806 -0.0940
 9502SOL    HW239969   2.308   1.532   8.333  0.2662  0.0145 -0.7701
 9503SOL     OW39970   1.156   1.091   1.617  0.7047 -0.4098  0.4924
 9503SOL    HW139971   1.130   1.002   1.639 -0.5638  0.0854  1.0082
 9503SOL    HW239972   1.249   1.098   1.634  1.5496 -0.5028 -4.0253
 9504SOL     OW39973   3.394   2.493   3.665  0.0957  0.6216 -0.0986
 9504SOL    HW139974   3.360   2.580   3.682 -0.3329  0.4152  0.1056
 9504SOL    HW239975   3.433   2.497   3.577 -0.0959  3.7778 -0.0296
 9505SOL     OW39976   0.146   0.394  15.400  0.1401  0.1331  0.1219
 9505SOL    HW139977   0.214   0.398  15.333  1.9364  0.6808  1.9667
 9505SOL    HW239978   0.151   0.301  15.423  0.9829 -0.0380 -0.7380
 9506SOL     OW39979   4.068   2.871   5.599 -0.1299 -0.2875 -0.2834
 9506SOL    HW139980   4.109   2.785   5.609  0.2882 -0.2175 -1.4825
 9506SOL    HW239981   4.046   2.901   5.688 -0.8686  2.6213 -1.4468
 9507SOL     OW39982   0.168   1.644   6.465 -0.2462 -0.1698 -0.0873
 9507SOL    HW139983   0.263   1.654   6.471 -0.3092 -0.8294  1.8432
 9507SOL    HW239984   0.157   1.550   6.474  0.1912 -0.1289  0.8745
 9508SOL     OW39985   4.512   1.954  16.657 -0.1381 -0.2173  0.1370
 9508SOL    HW139986   4.457   1.974  16.581  2.1998  0.8350 -1.2943
 9508SOL    HW239987   4.489   2.033  16.707 -0.3761 -1.1656  1.5361
 9509SOL     OW39988   0.804   4.596   7.964 -0.7825 -0.2646 -0.0903
 9509SOL    HW139989   0.843   4.677   7.932 -0.4354 -0.8267 -1.0673
 9509SOL    HW239990   0.718   4.628   7.991 -0.5949 -1.7471  2.2696
 9510SOL     OW39991   2.190   2.134  10.959 -0.5000  0.4466 -0.1307
 9510SOL    HW139992   2.205   2.083  10.880  1.6833  0.4234  0.3024
 9510SOL    HW239993   2.171   2.066  11.024 -0.5662  1.0045  0.4279
 9511SOL     OW39994   1.942   0.807  17.368 -0.4805  0.2780  0.0834
 9511SOL    HW139995   1.928   0.869  17.439  0.1129 -2.2818  2.4083
 9511SOL    HW239996   1.874   0.836  17.306 -1.4385  0.1704  1.0902
 9512SOL     OW39997   3.238   4.098  13.726  0.2145  0.1408 -0.0839
 9512SOL    HW139998   3.188   4.146  13.793 -0.2927  0.3526 -0.6140
 9512SOL    HW239999   3.326   4.115  13.759  0.7254 -0.2702 -1.2562
 9513SOL     OW40000   2.406   3.914   9.080 -0.5052  0.1190  0.5258
 9513SOL    HW140001   2.472   3.845   9.086 -2.1229 -1.6734 -2.2177
 9513SOL    HW240002   2.457   3.978   9.130  0.1659 -0.7511  0.9478
 9514SOL     OW40003   2.471   4.677   7.178  0.2529  0.5730  0.2598
 9514SOL    HW140004   2.381   4.648   7.187  0.9997 -3.0843 -3.7051
 9514SOL    HW240005   2.490   4.719   7.262  2.3523 -1.2326  0.7107
 9515SOL     OW40006   1.413   4.015   7.977  0.3392  0.4113 -0.1520
 9515SOL    HW140007   1.432   4.021   8.070  0.5612  0.5571 -0.2088
 9515SOL    HW240008   1.321   4.036   7.960  0.7263  1.3411 -1.0662
 9516SOL     OW40009   1.856   4.142  17.128 -0.4505 -0.4331 -0.3586
 9516SOL    HW140010   1.838   4.090  17.206  0.7599 -0.9885 -0.4510
 9516SOL    HW240011   1.951   4.153  17.137 -0.7235  2.3407 -0.7154
 9517SOL     OW40012   0.443   4.574  12.330 -0.4084  0.7290 -0.4087
 9517SOL    HW140013   0.473   4.634  12.398  0.7895 -0.5103  0.1629
 9517SOL    HW240014   0.408   4.628  12.260 -0.3179  0.6913 -0.4834
 9518SOL     OW40015   1.216   1.087   5.968  0.5258 -0.1118 -0.1664
 9518SOL    HW140016   1.196   1.173   6.004  1.7586 -0.6027  1.6773
 9518SOL    HW240017   1.294   1.110   5.918 -0.7737  0.2941 -2.0186
 9519SOL     OW40018   0.530   4.244   1.609  0.2480 -0.0092  0.5372
 9519SOL    HW140019   0.476   4.166   1.598 -0.2303  0.7265 -2.2650
 9519SOL    HW240020   0.460   4.307   1.628 -2.4386 -2.6649 -0.5821
 9520SOL     OW40021   2.449   3.700   8.283 -0.2640  0.0317 -0.2789
 9520SOL    HW140022   2.405   3.785   8.294 -1.3661 -0.4659 -0.8468
 9520SOL    HW240023   2.490   3.690   8.369 -1.9337 -1.9608  0.2902
 9521SOL     OW40024   4.400   3.456   4.879 -0.1406  0.4988 -0.0218
 9521SOL    HW140025   4.312   3.424   4.862  1.0756 -2.7371 -0.2475
 9521SOL    HW240026   4.393   3.547   4.850 -0.3795  1.3398  2.6548
 9522SOL     OW40027   0.560   0.620   7.248  0.5099  0.1125  0.3162
 9522SOL    HW140028   0.485   0.636   7.305 -0.7884 -0.2389 -1.2991
 9522SOL    HW240029   0.528   0.569   7.174 -2.4770  0.7243  1.1986
 9523SOL     OW40030   3.854   2.392  13.862 -0.0957  0.0266  0.6025
 9523SOL    HW140031   3.758   2.388  13.862  0.0002 -2.2949 -0.5565
 9523SOL    HW240032   3.870   2.411  13.770 -1.5813 -0.4914  0.2298
 9524SOL     OW40033   0.337   4.000   9.329  0.2813 -0.5005  0.6282
 9524SOL    HW140034   0.410   3.940   9.316 -1.3258 -2.1690 -0.5872
 9524SOL    HW240035   0.373   4.078   9.286  2.1280 -3.3623 -2.9828
 9525SOL     OW40036   3.839   0.377   3.474  0.6230  0.2837 -0.6673
 9525SOL    HW140037   3.796   0.292   3.459  0.3569  0.7968 -2.7528
 9525SOL    HW240038   3.769   0.437   3.501  0.0728  0.1888 -1.8955
 9526SOL     OW40039   0.181   3.657   6.608  0.0380  0.6114 -0.0668
 9526SOL    HW140040   0.126   3.727   6.643 -1.7822 -0.6437 -0.3534
 9526SOL    HW240041   0.114   3.590   6.594  0.5631  0.5029 -2.0234
 9527SOL     OW40042   0.806   1.302   6.551 -0.3869 -0.3591 -0.2912
 9527SOL    HW140043   0.900   1.290   6.568 -0.1676  0.8235 -0.7036
 9527SOL    HW240044   0.802   1.283   6.457  0.3744 -1.9852 -0.0038
 9528SOL     OW40045   0.707   1.912   3.629  0.2902 -0.2470  0.1777
 9528SOL    HW140046   0.666   1.826   3.618  1.7793 -0.8297 -0.7152
 9528SOL    HW240047   0.661   1.975   3.574  0.8434  0.3468  0.3936
 9529SOL     OW40048   2.924   0.326   5.151  0.2813  0.1385  0.4413
 9529SOL    HW140049   3.008   0.343   5.108 -0.2267 -0.2782 -0.7176
 9529SOL    HW240050   2.905   0.238   5.120 -0.7688  0.9108 -1.0755
 9530SOL     OW40051   3.152   2.816   8.475 -0.0615 -0.5349 -0.8073
 9530SOL    HW140052   3.179   2.871   8.549 -2.7756 -0.4580  0.1387
 9530SOL    HW240053   3.202   2.735   8.486 -2.3128 -1.7919  0.2341
 9531SOL     OW40054   0.203   4.416  12.175 -0.2703  0.0651 -0.3567
 9531SOL    HW140055   0.294   4.439  12.197 -0.6200  1.8309 -0.7845
 9531SOL    HW240056   0.172   4.422  12.265 -1.7339 -2.0912 -0.7296
 9532SOL     OW40057   1.597   0.892   7.295 -0.6832 -0.1942  0.6602
 9532SOL    HW140058   1.691   0.903   7.310 -0.2506 -3.3228  0.2228
 9532SOL    HW240059   1.563   0.964   7.349 -0.3233  0.9196 -0.5998
 9533SOL     OW40060   1.063   3.178  15.800 -0.1678  0.1604 -0.2792
 9533SOL    HW140061   0.984   3.231  15.814 -0.3635  0.1031 -1.1640
 9533SOL    HW240062   1.089   3.224  15.721  0.0110 -0.7312 -0.7365
 9534SOL     OW40063   4.723   2.921   7.730  0.2577  0.0058  0.1481
 9534SOL    HW140064   0.037   2.838   7.758  3.3137  0.6466 -2.1657
 9534SOL    HW240065   4.649   2.899   7.674  0.4718 -0.1446 -0.0745
 9535SOL     OW40066   3.452   2.585   2.426 -0.2412  0.0593  0.3303
 9535SOL    HW140067   3.373   2.568   2.374 -0.5985  1.3822  0.4490
 9535SOL    HW240068   3.414   2.630   2.502  0.5103  0.7576  0.2948
 9536SOL     OW40069   3.816   3.562  11.432  0.1130  0.2989  0.1495
 9536SOL    HW140070   3.847   3.529  11.347 -0.4048 -1.2183  0.5562
 9536SOL    HW240071   3.764   3.634  11.397 -0.1738  0.4294  0.8474
 9537SOL     OW40072   2.980   1.802   1.802 -0.5087  0.5860 -0.4052
 9537SOL    HW140073   3.051   1.848   1.757  0.4260 -0.2568  0.2011
 9537SOL    HW240074   2.990   1.724   1.747 -0.4449  0.9773 -0.9512
 9538SOL     OW40075   1.053   0.448   8.911  0.2419 -0.1563 -0.2062
 9538SOL    HW140076   1.000   0.372   8.932 -1.6184  0.4420 -2.6985
 9538SOL    HW240077   0.982   0.505   8.881  0.7008  0.5080 -0.0437
 9539SOL     OW40078   3.213   1.323  17.520  0.6167 -0.6478  0.6535
 9539SOL    HW140079   3.249   1.256  17.577  3.7038 -0.6689 -1.3471
 9539SOL    HW240080   3.122   1.293  17.507  0.5841 -0.3129  0.0948
 9540SOL     OW40081   1.770   0.671   8.833  0.2847 -0.2532  0.0596
 9540SOL    HW140082   1.700   0.678   8.899 -1.0382  0.2705 -1.4082
 9540SOL    HW240083   1.726   0.647   8.752  1.2963 -0.8807 -0.2958
 9541SOL     OW40084   4.647   1.478  13.807  0.2434  0.6981 -0.0007
 9541SOL    HW140085   4.687   1.391  13.808 -1.8615 -0.2558  1.1362
 9541SOL    HW240086   4.644   1.500  13.714  1.9601 -1.1040 -0.4965
 9542SOL     OW40087   2.575   1.144   9.131  0.4172 -0.5339 -0.5246
 9542SOL    HW140088   2.551   1.053   9.111  0.6067 -0.7206  0.0737
 9542SOL    HW240089   2.497   1.181   9.091  0.4595 -0.6757 -0.7363
 9543SOL     OW40090   2.819   1.954  11.459 -0.4528 -0.4165 -0.3850
 9543SOL    HW140091   2.812   1.913  11.545  0.5126 -0.5288 -0.3516
 9543SOL    HW240092   2.803   2.044  11.487  0.6445  0.3756 -2.2817
 9544SOL     OW40093   1.597   3.888   4.514  0.0525  0.4473  0.2037
 9544SOL    HW140094   1.688   3.903   4.538  0.5991 -0.4925 -1.3089
 9544SOL    HW240095   1.557   3.853   4.593 -0.6938  2.1257  0.5816
 9545SOL     OW40096   0.995   2.273   8.632 -0.0372 -0.1724  0.2018
 9545SOL    HW140097   0.998   2.330   8.708  0.3261 -0.8024  0.6596
 9545SOL    HW240098   0.990   2.188   8.677 -0.6712 -0.2051  0.0659
 9546SOL     OW40099   0.881   4.486   6.044 -0.1635  0.2237  0.3167
 9546SOL    HW140100   0.892   4.392   6.055 -0.1763  0.2296  0.3820
 9546SOL    HW240101   0.954   4.519   6.097 -1.2959  1.8118  0.8771
 9547SOL     OW40102   3.970   3.217   3.555  0.2297 -0.5633  0.4852
 9547SOL    HW140103   3.891   3.168   3.531  1.2358 -0.9872 -1.9420
 9547SOL    HW240104   3.987   3.268   3.476  2.2956  1.5405  2.3147
 9548SOL     OW40105   0.481   0.384   8.671 -0.6044 -0.3155  0.0483
 9548SOL    HW140106   0.534   0.317   8.714 -0.1032  1.2867  1.9340
 9548SOL    HW240107   0.443   0.330   8.601  3.0914  1.0931 -3.0485
 9549SOL     OW40108   0.766   0.650   0.743 -0.2538  0.7751 -0.2209
 9549SOL    HW140109   0.830   0.585   0.716 -0.1812  1.0207 -0.6405
 9549SOL    HW240110   0.777   0.725   0.686 -0.3399  0.3675 -0.7739
 9550SOL     OW40111   0.217   3.085   8.160 -0.5113  0.1850 -0.2033
 9550SOL    HW140112   0.265   3.002   8.164  1.6051  1.4396  0.4490
 9550SOL    HW240113   0.204   3.088   8.066  0.0567  2.3930 -0.2038
 9551SOL     OW40114   1.525   2.663   4.478 -0.3350  0.2355  0.1457
 9551SOL    HW140115   1.542   2.585   4.531 -2.2729 -0.2044  0.1377
 9551SOL    HW240116   1.585   2.646   4.406  0.0251  0.2085  0.4525
 9552SOL     OW40117   3.649   4.053   8.390 -0.7640  0.5547  0.4659
 9552SOL    HW140118   3.566   4.026   8.430  0.6623 -2.0263  1.6862
 9552SOL    HW240119   3.708   4.071   8.463  0.2097 -2.0121  0.3216
 9553SOL     OW40120   3.909   2.675   8.352  0.1611 -0.3230 -0.2728
 9553SOL    HW140121   3.861   2.711   8.426 -0.5393 -1.6471 -0.0717
 9553SOL    HW240122   3.956   2.600   8.388  0.3431  0.3288  0.8164
 9554SOL     OW40123   3.670   0.418   3.051  0.0080  0.0838 -0.0554
 9554SOL    HW140124   3.602   0.409   3.118  0.1847  3.3832  0.5423
 9554SOL    HW240125   3.741   0.438   3.111 -1.9448  0.1753  2.2200
 9555SOL     OW40126   0.791   2.987  12.984  0.0824 -0.5300  0.3268
 9555SOL    HW140127   0.838   3.020  12.908  0.2753  1.0430  1.1260
 9555SOL    HW240128   0.840   2.909  13.007 -0.7841 -1.5634 -1.3028
 9556SOL     OW40129   1.305   3.778   3.776  0.1724 -0.2908  0.5654
 9556SOL    HW140130   1.249   3.790   3.699  0.7868 -1.0374  0.0075
 9556SOL    HW240131   1.352   3.862   3.774  2.5020 -1.6387 -0.8751
 9557SOL     OW40132   3.023   1.725   1.562 -0.0835  0.9303  0.0450
 9557SOL    HW140133   2.945   1.705   1.511 -0.9453  1.6862  1.0834
 9557SOL    HW240134   3.091   1.692   1.503 -0.5267  0.4457 -0.1960
 9558SOL     OW40135   3.677   0.724   1.915  0.3852 -0.3156  0.2105
 9558SOL    HW140136   3.586   0.696   1.905  0.0309  1.3521 -1.2822
 9558SOL    HW240137   3.691   0.716   2.010 -2.2703 -0.0637  0.6072
 9559SOL     OW40138   3.098   0.998   3.525  0.1154 -0.1639 -0.0200
 9559SOL    HW140139   3.091   1.048   3.444 -0.8415  0.8511  0.6755
 9559SOL    HW240140   3.071   0.915   3.488 -2.4265  0.7225 -0.1862
 9560SOL     OW40141   4.657   3.139  10.457  0.1394  0.1235  0.3067
 9560SOL    HW140142   4.662   3.084  10.380  1.2249  0.4791  0.1308
 9560SOL    HW240143   4.587   3.198  10.429  0.0684 -0.2660 -0.3401
 9561SOL     OW40144   3.525   0.057   2.305 -0.1111 -0.0900  0.2572
 9561SOL    HW140145   3.527   0.024   2.395  0.6603  0.4207  0.4257
 9561SOL    HW240146   3.617   0.067   2.283  0.1084  0.6695  1.5177
 9562SOL     OW40147   4.200   0.960   6.221  0.4186 -0.0785  0.3226
 9562SOL    HW140148   4.175   0.869   6.207 -1.2989  0.3699  0.3620
 9562SOL    HW240149   4.261   0.968   6.147  2.6676 -0.7431  2.1358
 9563SOL     OW40150   2.274   4.143  16.326 -0.2921  0.6039  0.1734
 9563SOL    HW140151   2.306   4.166  16.414  0.6041  1.4031 -0.3600
 9563SOL    HW240152   2.314   4.214  16.276 -0.7441  1.2148  0.6607
 9564SOL     OW40153   3.806   2.130  11.403 -0.1572 -0.3846 -0.4710
 9564SOL    HW140154   3.818   2.122  11.498 -3.6614 -1.5848 -0.1125
 9564SOL    HW240155   3.799   2.225  11.402  0.4824 -0.3433 -0.8164
 9565SOL     OW40156   2.497   0.758   3.028  0.2799  0.3076  0.1523
 9565SOL    HW140157   2.530   0.836   2.983 -1.6449  2.5141  2.5118
 9565SOL    HW240158   2.407   0.753   2.994 -0.0531  0.1215  1.0776
 9566SOL     OW40159   3.197   4.660   3.881 -0.4441  0.1938  0.5667
 9566SOL    HW140160   3.148   4.719   3.823  0.1444  0.0099 -0.1150
 9566SOL    HW240161   3.201   4.716   3.959  1.6405  2.0324 -0.8452
 9567SOL     OW40162   0.600   3.217   8.126 -0.0463 -0.2205  0.5426
 9567SOL    HW140163   0.572   3.199   8.036  0.2604  0.1635  0.3681
 9567SOL    HW240164   0.693   3.241   8.127  0.0782 -0.7557  1.6228
 9568SOL     OW40165   0.656   3.862  14.997  0.0674  0.0033  0.6985
 9568SOL    HW140166   0.689   3.820  15.077  0.2155  0.3649  0.8256
 9568SOL    HW240167   0.615   3.940  15.035 -0.0225 -0.2201  1.0676
   4.72512   4.72512  17.70186
