Membrane in water
40167
    1TCq1    O1    1   0.812   3.389  11.815 -0.2368 -0.1754 -0.3945
    1TCq1    C1    2   0.781   3.270  11.758 -0.3384 -0.5774  0.2947
    1TCq1    O2    3   0.863   3.178  11.746  0.2282 -0.2978 -0.5569
    1TCq1    C2    4   0.638   3.255  11.769  0.7543 -0.1568 -0.1973
    1TCq1    C3    5   0.554   3.360  11.731 -0.1786 -0.3741 -0.2886
    1TCq1    C4    6   0.436   3.321  11.683  0.8453  0.2989  0.2515
    1TCq1    C5    7   0.395   3.190  11.680  0.2891 -0.4113  0.4132
    1TCq1    C6    8   0.481   3.093  11.730  0.0645 -0.5121  0.0514
    1TCq1    C7    9   0.610   3.124  11.772 -0.2366  0.4809  0.3498
    1TCq1    C8   10   0.429   2.952  11.730 -0.2055 -0.3248  0.5452
    1TCq1    O4   11   0.325   2.917  11.676 -0.6251  0.8047  0.3102
    1TCq1    C9   12   0.340   3.425  11.645  0.2331  0.1592 -0.4132
    1TCq1    O5   13   0.223   3.397  11.606 -0.0881 -0.4661 -0.1596
    1TCq1    O6   14   0.386   3.539  11.608  0.0471  0.1199 -1.0599
    1TCq1    H1   15   0.742   3.457  11.823 -0.7299 -0.6506 -0.6125
    1TCq1    H2   16   0.571   3.467  11.742  1.2333 -0.7058  0.8441
    1TCq1    H3   17   0.292   3.168  11.652  0.3701 -1.0754  0.6595
    1TCq1    H4   18   0.687   3.053  11.798  0.3612  2.3422  3.7222
    2MPD2     C   19   0.438   2.486  11.954  0.0849  0.0160 -0.2637
    2MPD2    C1   20   0.353   2.539  11.864 -0.5876  0.9032 -0.1936
    2MPD2    C2   21   0.367   2.670  11.823  0.6699 -0.8490 -0.3428
    2MPD2    C3   22   0.467   2.752  11.872 -0.2437 -0.3131 -0.4395
    2MPD2    C4   23   0.549   2.701  11.969 -0.7707 -0.0337  0.5510
    2MPD2    C5   24   0.527   2.571  12.019 -0.0884  0.2312 -0.0429
    2MPD2     H   25   0.285   2.708  11.763  0.2210 -3.7748 -1.5643
    2MPD2    H1   26   0.616   2.763  12.029  0.1763  0.6487 -1.2160
    2MPD2    H2   27   0.430   2.383  11.986 -0.8019  1.0687  2.8839
    2MPD2    H3   28   0.580   2.537  12.107  0.5417 -0.0994 -0.5502
    2MPD2     N   29   0.487   2.884  11.828  0.0202  0.6402 -0.1569
    2MPD2    H5   30   0.550   2.943  11.881 -0.9531 -0.1911  1.9013
    2MPD2    N1   31   0.243   2.461  11.817 -0.0551  0.2151 -0.0380
    2MPD2    H7   32   0.171   2.506  11.762  0.2995 -1.3544 -1.7795
    3TCq1    O1   33   3.660   3.619  11.309  0.0802  0.3980 -0.0029
    3TCq1    C1   34   3.684   3.644  11.181  0.4438 -0.5478  0.1225
    3TCq1    O2   35   3.729   3.571  11.098 -0.3527 -0.4352 -0.4331
    3TCq1    C2   36   3.709   3.788  11.181  0.3131  0.9321 -0.2050
    3TCq1    C3   37   3.817   3.828  11.104 -0.3788 -0.7162  0.3373
    3TCq1    C4   38   3.847   3.954  11.112  0.9592 -0.2705 -0.6582
    3TCq1    C5   39   3.783   4.049  11.195 -0.2404 -1.2607  0.3056
    3TCq1    C6   40   3.688   4.000  11.273  0.0584 -0.0512 -0.3322
    3TCq1    C7   41   3.648   3.868  11.265  0.0808 -1.0063  0.1737
    3TCq1    C8   42   3.655   4.065  11.400 -0.3555 -0.1561 -0.3806
    3TCq1    O4   43   3.617   3.993  11.492 -0.2997  0.2688  0.1389
    3TCq1    C9   44   3.942   4.013  11.024 -0.3642  0.0631  0.6643
    3TCq1    O5   45   3.964   4.135  11.031  0.2342  0.0813  0.4507
    3TCq1    O6   46   4.021   3.926  10.973 -0.0816 -0.1856 -0.0277
    3TCq1    H1   47   3.651   3.701  11.362  0.9074  1.1038 -0.9417
    3TCq1    H2   48   3.866   3.754  11.041 -0.9712 -2.6996  2.1916
    3TCq1    H3   49   3.816   4.151  11.209  1.6849 -1.9856  1.0031
    3TCq1    H4   50   3.565   3.835  11.326  0.8245 -2.3200  0.4718
    4MPD2     C   51   3.561   4.453  11.711 -0.7638 -0.2161 -0.3110
    4MPD2    C1   52   3.554   4.491  11.584 -0.2388 -0.6490 -0.2750
    4MPD2    C2   53   3.593   4.413  11.477  1.1517 -0.4420 -0.1816
    4MPD2    C3   54   3.628   4.285  11.505  0.2546 -0.7914  0.8087
    4MPD2    C4   55   3.632   4.235  11.638  0.0374 -0.3381 -0.2116
    4MPD2    C5   56   3.593   4.321  11.736 -0.3761 -0.2787 -0.7191
    4MPD2     H   57   3.587   4.447  11.375 -1.3850 -0.2448  0.0419
    4MPD2    H1   58   3.643   4.130  11.660 -1.7823 -0.6356 -0.7040
    4MPD2    H2   59   3.528   4.512  11.796 -0.1497  0.4293 -0.5246
    4MPD2    H3   60   3.582   4.282  11.836 -1.0919 -2.3836 -1.6282
    4MPD2     N   61   3.661   4.205  11.395 -0.5664  0.4862 -0.2823
    4MPD2    H5   62   3.666   4.239  11.300  0.5886  0.1539 -0.3423
    4MPD2    N1   63   3.495   4.610  11.547 -0.1418  0.0844 -0.8048
    4MPD2    H7   64   3.492   4.629  11.447 -0.1978  1.0876 -0.6202
    5TCq1    O1   65   4.481   0.682  11.503  0.3545 -0.6921  0.1161
    5TCq1    C1   66   4.477   0.554  11.539 -0.2907 -0.2503 -0.0595
    5TCq1    O2   67   4.573   0.481  11.561 -0.2881 -0.2152  0.4210
    5TCq1    C2   68   4.351   0.508  11.490 -0.4129 -0.6518  0.3211
    5TCq1    C3   69   4.246   0.584  11.534 -0.5410 -0.0850 -0.5219
    5TCq1    C4   70   4.123   0.525  11.516 -0.0366 -0.2975 -0.5375
    5TCq1    C5   71   4.100   0.397  11.469  0.4086  0.4655 -0.3846
    5TCq1    C6   72   4.214   0.329  11.438 -0.1066  0.0025 -0.2271
    5TCq1    C7   73   4.340   0.375  11.451 -0.1424 -0.0222  0.4613
    5TCq1    C8   74   4.201   0.232  11.320 -0.3120 -0.2692 -0.6340
    5TCq1    O4   75   4.295   0.178  11.275 -0.1977  0.3834 -0.2312
    5TCq1    C9   76   4.010   0.608  11.558  0.3972 -0.5267  0.1846
    5TCq1    O5   77   3.895   0.565  11.558  0.1761 -0.6247 -0.5384
    5TCq1    O6   78   4.034   0.720  11.601  0.5569 -0.0513 -0.5087
    5TCq1    H1   79   4.412   0.720  11.446  0.6272  0.5664  0.6285
    5TCq1    H2   80   4.253   0.685  11.573  1.5079  0.4152 -2.1685
    5TCq1    H3   81   3.999   0.357  11.465 -0.4998  2.6523  0.2970
    5TCq1    H4   82   4.422   0.304  11.443 -1.0801 -0.8889 -1.3089
    6MPD2     C   83   3.903   0.227  11.096 -0.4579  0.0433  0.5502
    6MPD2    C1   84   4.033   0.194  11.137  0.1238  0.2646  0.2128
    6MPD2    C2   85   4.109   0.104  11.064  0.7424  0.3240 -0.9231
    6MPD2    C3   86   4.066   0.041  10.958 -1.0553 -0.2230 -0.3560
    6MPD2    C4   87   3.934   0.070  10.919  0.1131 -0.1145 -0.5522
    6MPD2    C5   88   3.858   0.164  10.986 -0.0734  0.2125 -0.5652
    6MPD2     H   89   4.211   0.081  11.094  0.4494  0.2063 -0.0047
    6MPD2    H1   90   3.885   0.015  10.840  2.3530 -1.3471 -1.0801
    6MPD2    H2   91   3.847   0.304  11.148 -0.7517 -0.8468  1.5467
    6MPD2    H3   92   3.762   0.190  10.942 -0.1573 -0.1273 -0.5780
    6MPD2     N   93   4.149   4.673  10.896  0.4073  0.1955  0.6507
    6MPD2    H5   94   4.240   4.669  10.940  1.7814  1.9548 -2.0880
    6MPD2    N1   95   4.080   0.246  11.255  0.8575  0.0547 -0.1194
    6MPD2    H7   96   4.011   0.297  11.311 -1.0617 -0.3708 -2.0977
    7TCq1    O1   97   1.533   0.452  13.462 -0.2219 -0.2394 -0.2170
    7TCq1    C1   98   1.408   0.415  13.451 -0.3601  0.1512  0.1785
    7TCq1    O2   99   1.333   0.426  13.354  0.5211  0.3669 -0.0069
    7TCq1    C2  100   1.377   0.299  13.536  0.2365  0.0015  0.4802
    7TCq1    C3  101   1.252   0.280  13.587  0.0811 -0.3225 -0.1755
    7TCq1    C4  102   1.209   0.151  13.608 -0.3412  0.2766  0.6471
    7TCq1    C5  103   1.293   0.044  13.611 -0.1438  0.3803 -0.0341
    7TCq1    C6  104   1.418   0.075  13.579 -0.1946 -0.2388  0.8339
    7TCq1    C7  105   1.467   0.194  13.533  0.6047 -0.2924 -0.0880
    7TCq1    C8  106   1.518   4.692  13.596 -0.1084  0.3093 -0.1212
    7TCq1    O4  107   1.471   4.583  13.602 -0.0794  0.0562  0.0120
    7TCq1    C9  108   1.071   0.133  13.643 -0.5667  1.0521 -0.2425
    7TCq1    O5  109   0.985   0.225  13.620 -0.0732  0.4442 -0.4586
    7TCq1    O6  110   1.042   0.021  13.697 -0.4296  0.5631  0.9346
    7TCq1    H1  111   1.559   0.450  13.556  1.3023  0.1945 -0.6386
    7TCq1    H2  112   1.177   0.359  13.592  0.3896 -0.1115  1.1452
    7TCq1    H3  113   1.265   4.674  13.644  1.9001 -0.7268 -1.6377
    7TCq1    H4  114   1.570   0.207  13.504  0.2288  0.8573 -0.8995
    8MPD2     C  115   2.007   4.534  13.595  0.8003  0.6740 -0.2518
    8MPD2    C1  116   1.888   4.463  13.567 -0.0187 -0.4021 -0.1089
    8MPD2    C2  117   1.768   4.533  13.578 -0.0957 -0.4754 -0.4983
    8MPD2    C3  118   1.766   4.667  13.608 -0.1054  0.2013 -0.2162
    8MPD2    C4  119   1.885   0.002  13.637 -0.8053 -0.8416  0.4143
    8MPD2    C5  120   2.000   4.666  13.635 -0.3488  0.5677 -0.7023
    8MPD2     H  121   1.676   4.481  13.551 -0.4085  0.2694 -0.8648
    8MPD2    H1  122   1.875   0.104  13.674  2.1402 -0.0179 -1.0016
    8MPD2    H2  123   2.102   4.484  13.585  0.7121  0.2709  0.9081
    8MPD2    H3  124   2.086   4.728  13.657  0.9761 -1.2863 -0.7033
    8MPD2     N  125   1.648   0.016  13.610 -0.1874 -0.3271  0.4177
    8MPD2    H5  126   1.657   0.115  13.628 -0.0542 -0.0524 -1.1055
    8MPD2    N1  127   1.898   4.329  13.528 -0.6510 -0.1123  0.4843
    8MPD2    H7  128   1.993   4.292  13.531 -0.7234 -0.2171  1.3062
    9TCq1    O1  129   4.385   3.362  10.119  0.1728 -0.5708 -0.2535
    9TCq1    C1  130   4.346   3.474  10.167  0.9609 -0.2386 -0.2796
    9TCq1    O2  131   4.298   3.560  10.098 -0.0286 -0.0974 -0.2399
    9TCq1    C2  132   4.291   3.452  10.303 -0.0735 -0.2512  0.8777
    9TCq1    C3  133   4.226   3.557  10.362  0.2451 -0.0746  0.2043
    9TCq1    C4  134   4.167   3.535  10.486  0.3229 -0.4230 -0.6586
    9TCq1    C5  135   4.180   3.416  10.555  0.2072 -0.1165 -0.0272
    9TCq1    C6  136   4.246   3.313  10.492 -0.5658 -0.1843  0.2361
    9TCq1    C7  137   4.302   3.337  10.369  0.0988  0.0298  0.3522
    9TCq1    C8  138   4.256   3.181  10.549  0.0224 -0.8271 -0.5503
    9TCq1    O4  139   4.297   3.106  10.464 -0.2498 -0.3848 -0.6914
    9TCq1    C9  140   4.092   3.637  10.550  0.0229 -0.2166 -0.3751
    9TCq1    O5  141   4.038   3.607  10.662 -0.4167  0.0698  0.1092
    9TCq1    O6  142   4.073   3.743  10.487 -0.1239 -0.2777  0.4077
    9TCq1    H1  143   4.435   3.314  10.189  0.6449  0.0795 -0.1448
    9TCq1    H2  144   4.222   3.650  10.307  0.6084 -0.7428 -0.9539
    9TCq1    H3  145   4.126   3.398  10.647  0.6523 -2.0059 -0.1389
    9TCq1    H4  146   4.350   3.252  10.322 -1.8486 -1.0339  0.2860
   10MPD2     C  147   4.204   2.924  10.690 -0.2911  0.2624 -0.2356
   10MPD2    C1  148   4.232   3.045  10.757  0.2994 -0.1394 -0.3402
   10MPD2    C2  149   4.235   3.050  10.900  0.0312 -0.6166 -0.6680
   10MPD2    C3  150   4.217   2.938  10.975  0.6174  0.1577  0.4479
   10MPD2    C4  151   4.201   2.819  10.905  0.1474 -0.1870 -0.5780
   10MPD2    C5  152   4.208   2.808  10.767 -0.3603  0.0309  0.0851
   10MPD2     H  153   4.254   3.146  10.945  1.0528 -0.8836 -0.5429
   10MPD2    H1  154   4.182   2.730  10.963  1.2839  0.2480  0.4405
   10MPD2    H2  155   4.211   2.913  10.582  1.1152 -0.3870 -0.0829
   10MPD2    H3  156   4.211   2.713  10.715  1.8431 -1.3463  2.7534
   10MPD2     N  157   4.219   2.943  11.121  0.6236  0.3676  0.5868
   10MPD2    H5  158   4.213   2.851  11.163 -1.8982  1.5681  2.8848
   10MPD2    N1  159   4.237   3.170  10.689  0.2107  0.4423 -0.2537
   10MPD2    H7  160   4.229   3.262  10.732 -1.7322  1.3935 -2.6077
   11TCq1    O1  161   0.270   3.562  14.427 -0.2725 -0.1840  0.1218
   11TCq1    C1  162   0.226   3.476  14.329 -0.8024 -0.7499  0.0540
   11TCq1    O2  163   0.109   3.447  14.305  0.2778  0.4435  0.0348
   11TCq1    C2  164   0.330   3.382  14.300  0.0447  0.3428 -0.5319
   11TCq1    C3  165   0.459   3.431  14.280  0.8706  0.2104  0.2174
   11TCq1    C4  166   0.557   3.336  14.282  0.9317  0.0276  0.8678
   11TCq1    C5  167   0.527   3.207  14.303  0.4603  0.9318  0.3304
   11TCq1    C6  168   0.401   3.172  14.329  0.7016  0.3236 -0.0166
   11TCq1    C7  169   0.294   3.252  14.328 -0.1819 -0.1294  0.7967
   11TCq1    C8  170   0.391   3.041  14.399 -0.0289  0.2906  0.3869
   11TCq1    O4  171   0.481   3.013  14.479  0.4067 -0.3560 -0.6907
   11TCq1    C9  172   0.689   3.373  14.231  0.7142 -0.1450 -0.2702
   11TCq1    O5  173   0.705   3.497  14.195 -0.1715  0.0825  0.0228
   11TCq1    O6  174   0.769   3.279  14.214 -0.1086 -0.6544 -0.2152
   11TCq1    H1  175   0.367   3.558  14.446 -0.8562 -1.9060  2.8210
   11TCq1    H2  176   0.483   3.537  14.271 -0.5542  0.6828  1.9859
   11TCq1    H3  177   0.606   3.134  14.315  0.0012  0.9346  3.4057
   11TCq1    H4  178   0.199   3.215  14.365 -0.1503 -0.6716  0.3430
   12MPD2     C  179   0.281   2.813  14.553 -0.2319  0.0455 -0.2126
   12MPD2    C1  180   0.252   2.843  14.418  0.2939  0.3494 -0.2132
   12MPD2    C2  181   0.171   2.756  14.350 -0.4843  0.0337  0.6578
   12MPD2    C3  182   0.117   2.643  14.405 -0.4794  0.9511  0.7674
   12MPD2    C4  183   0.130   2.629  14.544  0.6529 -0.4304 -0.1535
   12MPD2    C5  184   0.216   2.712  14.612 -0.0247 -0.8944 -0.5014
   12MPD2     H  185   0.165   2.765  14.242 -0.3529  0.3339  0.6772
   12MPD2    H1  186   0.089   2.551  14.607  0.4728 -0.3101 -0.1205
   12MPD2    H2  187   0.336   2.887  14.609 -1.1888 -0.1269  0.9747
   12MPD2    H3  188   0.231   2.693  14.717  0.7118  0.5312 -0.3574
   12MPD2     N  189   0.050   2.550  14.326  0.0703 -0.1782 -0.2298
   12MPD2    H5  190   0.047   2.571  14.227 -0.5168  1.5232  0.1508
   12MPD2    N1  191   0.289   2.965  14.350  0.9790 -0.4204  0.3195
   12MPD2    H7  192   0.242   2.983  14.262  1.0981  2.5018  0.8721
   13TCq1    O1  193   3.942   3.559  10.014 -0.4762  0.5204 -0.0949
   13TCq1    C1  194   3.882   3.544  10.132 -0.2446  0.0062  0.3382
   13TCq1    O2  195   3.831   3.626  10.206  0.4732  0.0791 -0.3262
   13TCq1    C2  196   3.916   3.406  10.177 -0.6690  0.6476 -0.0091
   13TCq1    C3  197   3.986   3.307  10.117 -0.6644 -0.4848 -0.6637
   13TCq1    C4  198   4.035   3.207  10.193  0.4784 -0.6607  0.2618
   13TCq1    C5  199   4.002   3.179  10.321 -0.2760  0.6109  0.1163
   13TCq1    C6  200   3.926   3.275  10.377 -0.2719 -0.0625  0.2476
   13TCq1    C7  201   3.893   3.389  10.312  0.0608 -0.2306 -0.5493
   13TCq1    C8  202   3.893   3.261  10.514  0.2363  0.0227 -0.3796
   13TCq1    O4  203   3.863   3.355  10.581  0.7773  0.1351 -0.3803
   13TCq1    C9  204   4.119   3.106  10.130 -0.2819  0.7077 -0.1371
   13TCq1    O5  205   4.075   3.059  10.018  0.1778 -0.6514 -0.5014
   13TCq1    O6  206   4.185   3.045  10.212  0.1605 -0.4501 -0.1790
   13TCq1    H1  207   4.001   3.486   9.986  0.8909  2.1526 -1.5012
   13TCq1    H2  208   4.000   3.302  10.010  1.1211 -4.4216 -0.2259
   13TCq1    H3  209   4.044   3.097  10.379 -1.6843 -0.4305 -0.3441
   13TCq1    H4  210   3.849   3.472  10.367  0.7040  1.0701 -2.0098
   14MPD2     C  211   3.875   2.940  10.689 -0.7226 -1.0130 -0.2670
   14MPD2    C1  212   3.884   3.075  10.679 -0.3668  0.4420 -0.1944
   14MPD2    C2  213   3.903   3.159  10.794  0.1231  0.1438  0.4804
   14MPD2    C3  214   3.893   3.098  10.917 -0.0548  0.0526  0.0657
   14MPD2    C4  215   3.888   2.964  10.925  0.5834 -0.0009 -0.4094
   14MPD2    C5  216   3.876   2.888  10.814  0.3901 -0.1006  0.2447
   14MPD2     H  217   3.913   3.267  10.789  1.3346 -0.0451 -1.2521
   14MPD2    H1  218   3.908   2.905  11.014 -1.0280 -0.7013 -0.5135
   14MPD2    H2  219   3.854   2.870  10.610 -0.2996 -0.3518 -0.9570
   14MPD2    H3  220   3.866   2.783  10.838  0.0383  0.3746  2.1909
   14MPD2     N  221   3.900   3.183  11.027 -0.6246 -0.1247 -0.5609
   14MPD2    H5  222   3.911   3.283  11.011  2.3309 -0.3119  0.3089
   14MPD2    N1  223   3.891   3.128  10.549  0.0570  0.4973 -0.2305
   14MPD2    H7  224   3.879   3.064  10.471  1.1877  2.0906 -1.7093
   15TCq1    O1  225   0.674   2.450   1.267 -0.5072  0.7746 -0.2007
   15TCq1    C1  226   0.803   2.484   1.286 -0.2700 -0.3948  0.2721
   15TCq1    O2  227   0.842   2.600   1.300  0.5448 -0.2751 -1.0179
   15TCq1    C2  228   0.893   2.374   1.284 -0.2128  0.0256  0.7797
   15TCq1    C3  229   0.989   2.393   1.379  0.4142 -0.4997 -1.3510
   15TCq1    C4  230   1.067   2.282   1.418  0.5860 -0.1636  0.2182
   15TCq1    C5  231   1.037   2.161   1.366  0.1814  0.2541  0.4296
   15TCq1    C6  232   0.931   2.147   1.283 -0.2777  0.1128 -0.5235
   15TCq1    C7  233   0.861   2.255   1.226  0.7826 -0.2885  0.3076
   15TCq1    C8  234   0.893   2.009   1.249  0.4787  0.0090 -0.8604
   15TCq1    O4  235   0.966   1.918   1.293 -0.0398 -0.0606 -0.0321
   15TCq1    C9  236   1.151   2.301   1.536  0.6650 -0.2454  0.5306
   15TCq1    O5  237   1.165   2.414   1.584  0.1411  0.2644 -0.2341
   15TCq1    O6  238   1.184   2.195   1.600 -0.3072 -0.9607 -0.1593
   15TCq1    H1  239   0.658   2.354   1.266  1.4523  0.4320  1.0515
   15TCq1    H2  240   1.004   2.491   1.423  2.6580 -1.0653 -0.8441
   15TCq1    H3  241   1.090   2.078   1.413 -0.4285 -0.1780  0.3547
   15TCq1    H4  242   0.784   2.255   1.149  0.8071  0.7951  0.2779
   16MPD2     C  243   0.599   1.885   1.072 -0.2070  0.2660  0.0355
   16MPD2    C1  244   0.719   1.872   1.139 -0.3060 -0.0889  0.1106
   16MPD2    C2  245   0.771   1.747   1.162  0.2589 -0.2388 -0.0532
   16MPD2    C3  246   0.700   1.637   1.129 -0.2673  0.1510  0.3370
   16MPD2    C4  247   0.583   1.649   1.056  0.2772 -0.4186  0.5689
   16MPD2    C5  248   0.533   1.769   1.035  0.4721  0.5719  0.5909
   16MPD2     H  249   0.869   1.740   1.208  0.2698 -1.5607 -0.2672
   16MPD2    H1  250   0.541   1.557   1.017  1.5576 -0.6397 -0.3191
   16MPD2    H2  251   0.554   1.982   1.052 -2.4401 -0.8745 -0.5379
   16MPD2    H3  252   0.439   1.772   0.982  0.3700  1.4548  0.8233
   16MPD2     N  253   0.743   1.505   1.164 -0.2140  0.3273  0.2483
   16MPD2    H5  254   0.815   1.495   1.235 -0.8621  2.4945  1.2163
   16MPD2    N1  255   0.775   1.998   1.177 -0.6091  0.1973 -0.2420
   16MPD2    H7  256   0.715   2.079   1.166  1.2368  1.7373  1.0502
   17TCq1    O1  257   4.308   2.053  11.111  0.2128  0.1528 -0.5317
   17TCq1    C1  258   4.230   2.157  11.155  0.5976 -0.0355 -0.7449
   17TCq1    O2  259   4.109   2.175  11.153 -0.0281  0.3081  0.0655
   17TCq1    C2  260   4.328   2.260  11.190 -0.0716  0.1441  0.6276
   17TCq1    C3  261   4.286   2.392  11.181 -0.0887 -0.3040 -0.2436
   17TCq1    C4  262   4.363   2.489  11.235  0.3088 -0.1089  0.6898
   17TCq1    C5  263   4.486   2.459  11.288  0.5228  0.3681  0.5976
   17TCq1    C6  264   4.527   2.324  11.283 -0.2422 -0.1231 -0.0811
   17TCq1    C7  265   4.445   2.223  11.251  0.2525  0.2954 -0.3326
   17TCq1    C8  266   4.657   2.292  11.338 -0.4477 -0.5047  0.1016
   17TCq1    O4  267   4.680   2.173  11.363  0.0863  0.1968 -0.3214
   17TCq1    C9  268   4.348   2.634  11.203 -0.0630  1.0003 -0.9224
   17TCq1    O5  269   4.233   2.663  11.169 -0.5504  0.7722  0.0620
   17TCq1    O6  270   4.437   2.712  11.232  0.6353  0.6897  0.5226
   17TCq1    H1  271   4.398   2.083  11.083  0.1875 -0.9647 -1.8029
   17TCq1    H2  272   4.195   2.426  11.132  0.3775  1.3854  0.0554
   17TCq1    H3  273   4.556   2.539  11.308 -1.5129  1.8519  1.6863
   17TCq1    H4  274   4.474   2.120  11.265 -0.7308  0.1455  0.6115
   18MPD2     C  275   0.208   2.283  11.443 -0.1102  0.1970  0.4311
   18MPD2    C1  276   0.149   2.387  11.370  0.5037 -0.2311 -0.1813
   18MPD2    C2  277   0.230   2.495  11.332 -0.1553  0.1891 -0.0165
   18MPD2    C3  278   0.364   2.498  11.369 -0.4153  0.0615  0.4554
   18MPD2    C4  279   0.424   2.393  11.429  0.5216  0.2900 -0.1015
   18MPD2    C5  280   0.340   2.290  11.470 -1.2844 -0.2984 -0.4791
   18MPD2     H  281   0.179   2.573  11.277  0.0026  0.8809  0.8206
   18MPD2    H1  282   0.527   2.389  11.463  0.3616 -2.1753  0.0873
   18MPD2    H2  283   0.150   2.202  11.485 -0.0826  0.3863  0.8344
   18MPD2    H3  284   0.384   2.208  11.525  0.1763 -2.0407 -4.1756
   18MPD2     N  285   0.451   2.606  11.324 -0.0406 -0.0712 -0.4333
   18MPD2    H5  286   0.550   2.603  11.349 -0.8077 -1.7986  2.2917
   18MPD2    N1  287   0.015   2.388  11.321 -0.7979  0.1640  0.0502
   18MPD2    H7  288   4.725   2.467  11.259  0.2271 -0.5814 -1.2100
   19TMC2    C1  289   1.587   2.754  13.973 -0.1795 -0.7179  0.0521
   19TMC2    C2  290   1.532   2.850  13.891  0.1252  0.4359 -0.8057
   19TMC2    C3  291   1.395   2.846  13.881  0.1272  0.7452 -0.4096
   19TMC2    C4  292   1.504   2.666  14.043 -0.8768 -0.0011  0.4772
   19TMC2    C5  293   1.370   2.665  14.024  0.9826  0.4984  0.0384
   19TMC2    C6  294   1.313   2.751  13.941  0.1064 -0.1010  0.0222
   19TMC2     C  295   1.722   2.779  14.020 -0.5383 -0.1607  0.3560
   19TMC2     O  296   1.781   2.878  13.969  1.0372  0.2241  0.4993
   19TMC2     H  297   1.593   2.927  13.845 -0.9817  0.6574 -1.8913
   19TMC2    H1  298   1.549   2.587  14.102 -0.9409 -0.7027 -0.4090
   19TMC2    H2  299   1.206   2.766  13.926  0.0046  0.0717  0.9006
   19TMC2    C7  300   1.289   2.555  14.071 -0.1095  0.0838 -0.1244
   19TMC2    C8  301   1.333   2.910  13.767  0.5818 -0.0707  0.0394
   19TMC2    O1  302   1.354   2.456  14.108  0.5208 -0.1467 -0.1195
   19TMC2    O2  303   1.246   2.859  13.703  0.6914 -0.0162  0.4698
   19TMC2    O5  304   1.414   3.006  13.711 -0.2880 -0.2376  0.1051
   19TMC2    H5  305   1.472   3.050  13.777 -0.0749 -0.0109 -0.2359
   20MPD2     C  306   1.993   2.779  14.135 -0.9346 -0.8565  0.3696
   20MPD2    C1  307   1.896   2.686  14.166  0.1502  0.6070  0.0646
   20MPD2    C2  308   1.925   2.588  14.260  0.4966 -0.3211  0.3444
   20MPD2    C3  309   2.052   2.587  14.313  0.7292  0.2058  0.2113
   20MPD2    C4  310   2.152   2.677  14.281  0.3662  0.2364  0.3044
   20MPD2    C5  311   2.117   2.781  14.193 -0.0337  0.2719 -0.9082
   20MPD2     H  312   1.848   2.515  14.281 -0.9209  1.0870 -0.0630
   20MPD2    H1  313   2.248   2.689  14.328  0.2296 -0.1996  0.6960
   20MPD2    H2  314   1.968   2.856  14.063 -2.0998 -1.5150  0.0631
   20MPD2    H3  315   2.192   2.858  14.175 -0.0412  0.0959 -1.6831
   20MPD2     N  316   2.096   2.496  14.421 -0.0447 -0.2514 -0.5088
   20MPD2    H5  317   2.193   2.500  14.451 -0.4212 -0.1034  0.6789
   20MPD2    N1  318   1.764   2.691  14.116 -0.3968 -0.4183  0.2295
   20MPD2    H7  319   1.700   2.619  14.147 -1.5901  0.3390 -0.4322
   21MPD2     C  320   3.721   3.394  14.224 -0.1423 -0.7885  0.2714
   21MPD2    C1  321   3.806   3.322  14.302 -0.0425 -0.5482  0.2064
   21MPD2    C2  322   3.772   3.208  14.359  0.3549  0.1613  0.1718
   21MPD2    C3  323   3.642   3.165  14.344  0.1618 -0.4391 -0.2782
   21MPD2    C4  324   3.553   3.233  14.266 -0.5145 -0.0665 -0.7538
   21MPD2    C5  325   3.592   3.351  14.212 -0.1914 -0.3545  0.0328
   21MPD2     H  326   3.836   3.169  14.437  0.0381 -0.2174  0.2489
   21MPD2    H1  327   3.453   3.197  14.244 -0.2535 -0.3147 -1.5336
   21MPD2    H2  328   3.756   3.490  14.188 -1.2374 -1.0627 -1.5698
   21MPD2    H3  329   3.524   3.419  14.164 -0.9152  1.7709  3.9991
   21MPD2     N  330   3.587   3.060  14.420  0.0680 -0.7152 -1.1386
   21MPD2    H5  331   3.492   3.064  14.453 -0.6897 -2.1454 -3.1318
   21MPD2    N1  332   3.935   3.359  14.347 -0.1160  0.4187  0.7934
   21MPD2    H7  333   3.984   3.285  14.396 -1.1522  1.3688  3.2919
   22TCq2    C1  334   3.667   2.964  14.477 -0.0633  0.3595  0.0155
   22TCq2    O2  335   3.780   2.927  14.448 -0.0451 -0.4471 -0.5548
   22TCq2    C2  336   3.616   2.905  14.599 -0.0832 -0.6293 -0.4044
   22TCq2    C3  337   3.706   2.813  14.653 -0.6386 -0.0689 -0.2186
   22TCq2    C4  338   3.725   2.821  14.790  0.0105 -0.8463 -0.3305
   22TCq2    C5  339   3.658   2.910  14.868 -0.2311 -0.6596 -0.4015
   22TCq2    C6  340   3.571   2.991  14.809 -0.2861 -0.2004 -0.2563
   22TCq2    C7  341   3.542   2.990  14.675  0.0234  0.5011  0.9876
   22TCq2    C8  342   3.503   3.095  14.892  0.2795 -0.0379 -0.8875
   22TCq2    O4  343   3.516   3.078  15.014  0.4858 -0.2865 -0.6823
   22TCq2    C9  344   3.809   2.727  14.853  0.1125  0.2037 -0.1917
   22TCq2    O5  345   3.837   2.754  14.971  0.2465  0.0991  0.5503
   22TCq2    O6  346   3.885   2.655  14.778  0.0062 -0.1642 -0.1641
   22TCq2    H2  347   3.762   2.743  14.592 -2.8089 -2.4739  0.5489
   22TCq2    H3  348   3.675   2.914  14.975 -0.3802 -0.4033 -0.3883
   22TCq2    H4  349   3.464   3.053  14.633  0.7353  0.4264 -0.4631
   23MPD2     C  350   0.584   4.285  14.948 -0.4715  0.7675 -0.0925
   23MPD2    C1  351   0.508   4.324  15.059  0.6504  0.2182  0.0872
   23MPD2    C2  352   0.378   4.370  15.041 -0.6205  0.4359  0.7804
   23MPD2    C3  353   0.319   4.367  14.913  0.5010  0.1268 -0.0197
   23MPD2    C4  354   0.392   4.326  14.803 -0.0024  0.0297 -0.1740
   23MPD2    C5  355   0.522   4.280  14.823  0.4264 -0.2572  0.1196
   23MPD2     H  356   0.320   4.415  15.121 -1.8143  0.1877  0.0550
   23MPD2    H1  357   0.341   4.319  14.708  1.4839  0.0053 -0.9744
   23MPD2    H2  358   0.689   4.259  14.949 -0.2156  1.7127 -5.0092
   23MPD2    H3  359   0.587   4.263  14.738  0.7003 -4.5044  1.1524
   23MPD2     N  360   0.183   4.397  14.889  0.7219  0.4891  0.3947
   23MPD2    H5  361   0.154   4.390  14.792 -0.7958  0.9864  0.8113
   23MPD2    N1  362   0.563   4.335  15.185  0.7732  0.1609  0.1502
   23MPD2    H7  363   0.495   4.358  15.257  1.4977 -0.2591  0.9766
   24TCq2    C1  364   0.079   4.420  14.982 -0.1776  0.2175  0.1026
   24TCq2    O2  365   0.080   4.435  15.101  0.1003  0.4605 -0.2312
   24TCq2    C2  366   4.673   4.412  14.916  0.3098 -0.2913  0.6431
   24TCq2    C3  367   4.661   4.395  14.785  0.2213  0.1155  0.1806
   24TCq2    C4  368   4.542   4.432  14.722  0.0459 -0.0700 -0.0886
   24TCq2    C5  369   4.439   4.490  14.796 -0.2346 -0.1213  0.4203
   24TCq2    C6  370   4.452   4.493  14.932 -0.2138 -0.5767 -0.6036
   24TCq2    C7  371   4.566   4.453  14.994  0.1879 -0.5716  0.5720
   24TCq2    C8  372   4.350   4.545  15.023  0.8521 -0.0933 -0.7127
   24TCq2    O4  373   4.346   4.501  15.139 -0.2895  0.1547  0.3616
   24TCq2    C9  374   4.528   4.401  14.579 -0.9600 -1.1298  0.6559
   24TCq2    O5  375   4.623   4.349  14.515  0.3026  0.4029 -0.4022
   24TCq2    O6  376   4.430   4.454  14.518  0.4415  0.2621 -0.6240
   24TCq2    H2  377   0.002   4.330  14.733  3.2678  2.7173  1.0858
   24TCq2    H3  378   4.341   4.503  14.751  0.7759  0.6911 -1.5532
   24TCq2    H4  379   4.574   4.458  15.102 -1.8697  2.0189  0.5998
   25TMC2    C1  380   4.235   1.933  11.890 -0.0200 -0.1151  0.3058
   25TMC2    C2  381   4.332   1.867  11.954 -0.3898  1.0181  0.3883
   25TMC2    C3  382   4.313   1.827  12.081 -0.8302 -0.0489 -0.2366
   25TMC2    C4  383   4.118   1.953  11.950 -0.1102 -0.1782  0.1258
   25TMC2    C5  384   4.098   1.911  12.075  0.2330 -0.6535  0.5495
   25TMC2    C6  385   4.194   1.844  12.147 -0.3307  0.2694  0.5628
   25TMC2     C  386   4.247   1.957  11.751 -0.0126  0.5271 -0.3281
   25TMC2     O  387   4.346   2.012  11.707 -0.8478 -0.0654  0.5338
   25TMC2     H  388   4.429   1.887  11.910 -0.6017  0.9430 -0.1209
   25TMC2    H1  389   4.033   1.990  11.893  0.1263  0.0885 -0.0590
   25TMC2    H2  390   4.173   1.812  12.248  0.2282 -0.7802  0.3450
   25TMC2    C7  391   3.978   1.944  12.156 -0.4818 -0.2347  0.4323
   25TMC2    C8  392   4.404   1.735  12.145  0.0071 -0.3992 -0.0146
   25TMC2    O1  393   3.968   1.889  12.267 -0.2970 -0.5809 -0.0918
   25TMC2    O2  394   4.399   1.694  12.262 -0.9028 -0.3045 -0.4610
   25TMC2    O5  395   4.479   1.677  12.049 -0.3467  0.7408  0.2649
   25TMC2    H5  396   4.479   1.714  11.958 -0.9115  1.0976  0.4112
   26MPD2     C  397   4.168   1.744  11.288 -0.3092  0.3242 -0.3753
   26MPD2    C1  398   4.054   1.730  11.361 -0.0792 -0.7327 -0.6946
   26MPD2    C2  399   4.046   1.791  11.488 -0.5219  0.7424  0.1656
   26MPD2    C3  400   4.162   1.851  11.544  0.6580 -0.3888  0.5185
   26MPD2    C4  401   4.276   1.855  11.474  0.0918 -0.1251 -0.2553
   26MPD2    C5  402   4.275   1.801  11.348  0.2166 -0.2568  0.1881
   26MPD2     H  403   3.955   1.780  11.546  0.8896  0.3769  2.3563
   26MPD2    H1  404   4.364   1.890  11.526  0.0290 -0.0413 -0.2056
   26MPD2    H2  405   4.182   1.701  11.190 -2.8397 -1.6232  0.1056
   26MPD2    H3  406   4.371   1.807  11.299 -0.3203 -2.6016 -1.1394
   26MPD2     N  407   4.156   1.882  11.683  0.1332 -0.0050  0.1883
   26MPD2    H5  408   4.086   1.836  11.740 -1.9737 -0.2911 -2.6714
   26MPD2    N1  409   3.943   1.665  11.305 -0.4356 -0.0906  0.0779
   26MPD2    H7  410   3.952   1.631  11.209 -0.8964  0.6372 -0.2224
   27TMC2    C1  411   2.741   3.945  12.205 -0.1806  0.0731 -0.2174
   27TMC2    C2  412   2.783   3.888  12.094  0.1342  0.3244  0.0253
   27TMC2    C3  413   2.801   3.958  11.979 -0.3538 -0.1234  0.2376
   27TMC2    C4  414   2.723   4.079  12.210  0.0324 -0.0558  0.2128
   27TMC2    C5  415   2.763   4.147  12.098 -0.0538 -0.1373 -0.3064
   27TMC2    C6  416   2.803   4.095  11.983  0.6578 -1.1435  0.5097
   27TMC2     C  417   2.701   3.851  12.305  0.2862 -0.1217  0.2291
   27TMC2     O  418   2.751   3.737  12.307 -0.1638 -0.5907  0.7247
   27TMC2     H  419   2.793   3.781  12.082  0.4726  0.1122  2.2165
   27TMC2    H1  420   2.705   4.131  12.304 -3.9012  1.1095 -1.1853
   27TMC2    H2  421   2.806   4.167  11.903  0.2995 -3.1663 -1.3019
   27TMC2    C7  422   2.724   4.288  12.101  0.0090 -0.1213 -0.4587
   27TMC2    C8  423   2.889   3.893  11.890 -0.5707  0.1277 -0.5072
   27TMC2    O1  424   2.653   4.331  12.012  0.0964 -0.0519  1.0232
   27TMC2    O2  425   2.960   3.799  11.926  0.0116  0.0144  0.5179
   27TMC2    O5  426   2.927   3.983  11.796 -0.4935 -0.4908 -0.0691
   27TMC2    H5  427   2.849   4.038  11.773 -0.6109  0.1277  1.8139
   28MPD2     C  428   2.400   3.695  12.696  0.5839  0.3917  0.3831
   28MPD2    C1  429   2.355   3.822  12.659 -0.5153  0.1946 -0.6337
   28MPD2    C2  430   2.430   3.892  12.567  0.1629 -0.3173  0.7254
   28MPD2    C3  431   2.536   3.831  12.500  0.1885 -0.3242  0.1702
   28MPD2    C4  432   2.578   3.706  12.537 -0.3228 -1.1854 -0.2614
   28MPD2    C5  433   2.507   3.638  12.632  0.5822  0.3198 -0.1601
   28MPD2     H  434   2.392   3.983  12.522  0.2858 -0.3871  0.4821
   28MPD2    H1  435   2.663   3.651  12.497  0.7518  0.9990 -0.9827
   28MPD2    H2  436   2.339   3.627  12.754 -1.4758  0.4700 -1.6524
   28MPD2    H3  437   2.545   3.540  12.658  0.0267 -0.8269 -3.6497
   28MPD2     N  438   2.597   3.897  12.389  0.5082  0.3605 -0.5369
   28MPD2    H5  439   2.553   3.985  12.364 -0.6266 -0.1346 -0.2698
   28MPD2    N1  440   2.226   3.861  12.715  0.3754  0.1211 -0.5389
   28MPD2    H7  441   2.181   3.788  12.769 -2.1010  0.3391 -2.2913
   29MPD2     C  442   2.200   1.086  13.765  0.3734  0.6854 -0.5733
   29MPD2    C1  443   2.320   1.064  13.838 -0.0412  0.8100 -0.1432
   29MPD2    C2  444   2.341   1.126  13.957  0.0349 -0.0106 -0.8664
   29MPD2    C3  445   2.259   1.223  14.005 -0.1800  0.1419 -0.8478
   29MPD2    C4  446   2.143   1.249  13.928 -0.1961 -0.0587  0.3636
   29MPD2    C5  447   2.119   1.183  13.811  0.7896  0.0190  0.0479
   29MPD2     H  448   2.432   1.096  14.007 -0.2689 -0.1341 -0.3827
   29MPD2    H1  449   2.068   1.322  13.956 -0.6079 -1.1602  2.1629
   29MPD2    H2  450   2.176   1.041  13.669 -0.4189  2.0651 -1.0170
   29MPD2    H3  451   2.024   1.206  13.763  0.6132 -0.3019  0.2454
   29MPD2     N  452   2.275   1.295  14.123 -0.2604 -0.7821 -0.2407
   29MPD2    H5  453   2.211   1.371  14.140 -1.2969 -1.5744 -0.5546
   29MPD2    N1  454   2.418   0.975  13.791 -0.1885 -0.9875  0.2720
   29MPD2    H7  455   2.501   0.969  13.849  0.0033  0.2370  0.1323
   30TCq2    C1  456   2.353   1.256  14.224 -0.1876 -0.3441  0.0020
   30TCq2    O2  457   2.427   1.163  14.238 -0.0714  0.0228  0.4877
   30TCq2    C2  458   2.346   1.348  14.339  0.2538  0.2211  1.2573
   30TCq2    C3  459   2.403   1.307  14.457 -0.5398  0.1543  0.5301
   30TCq2    C4  460   2.398   1.398  14.560  0.6173  0.1314 -0.2838
   30TCq2    C5  461   2.341   1.525  14.552 -0.2339  0.7452  0.4390
   30TCq2    C6  462   2.289   1.555  14.431 -0.7583 -0.1153 -0.0263
   30TCq2    C7  463   2.288   1.472  14.321 -0.2149 -0.0116 -0.1111
   30TCq2    C8  464   2.239   1.689  14.399 -0.1574 -0.8725  0.2117
   30TCq2    O4  465   2.159   1.700  14.312  0.8229  0.1565  0.4292
   30TCq2    C9  466   2.442   1.353  14.691  0.3362  0.0001  0.0787
   30TCq2    O5  467   2.431   1.425  14.789 -0.2047  0.5585 -0.9883
   30TCq2    O6  468   2.475   1.231  14.704  0.2752  0.5214  0.1003
   30TCq2    H2  469   2.454   1.214  14.478  1.4104  1.0182 -0.4194
   30TCq2    H3  470   2.322   1.587  14.638 -0.6168 -1.6719  2.1034
   30TCq2    H4  471   2.274   1.517  14.224 -0.6569 -1.5968 -0.7912
   31MPD2     C  472   0.602   0.846  14.953  0.0044  0.2247  0.3948
   31MPD2    C1  473   0.466   0.869  14.966  0.4243 -1.2040  0.2537
   31MPD2    C2  474   0.404   0.813  15.072  0.7205  0.3150 -0.6170
   31MPD2    C3  475   0.474   0.720  15.152  0.2948  0.0898 -0.5192
   31MPD2    C4  476   0.612   0.692  15.136 -0.3121 -0.4509 -0.7427
   31MPD2    C5  477   0.669   0.757  15.035  0.6922 -0.5443 -0.3543
   31MPD2     H  478   0.300   0.838  15.091  0.2202 -1.0127 -1.6574
   31MPD2    H1  479   0.668   0.618  15.191 -0.9167  1.2435  2.1883
   31MPD2    H2  480   0.656   0.899  14.875  0.2169  0.9608  1.0443
   31MPD2    H3  481   0.773   0.744  15.008  0.4822  0.1170 -1.4534
   31MPD2     N  482   0.410   0.633  15.243  0.4307 -0.4853  0.1399
   31MPD2    H5  483   0.471   0.564  15.285 -0.9834 -0.2025  2.6445
   31MPD2    N1  484   0.408   0.957  14.866  0.1245 -0.2243 -0.2230
   31MPD2    H7  485   0.471   0.963  14.787  0.7880 -1.2677  0.2230
   32TCq2    C1  486   0.277   0.613  15.256  0.2844  0.4628 -0.0496
   32TCq2    O2  487   0.184   0.693  15.266  0.4073 -0.3749  0.3790
   32TCq2    C2  488   0.241   0.475  15.284  0.1867  1.0848 -0.0151
   32TCq2    C3  489   0.332   0.381  15.234 -0.4505 -0.3440  0.5201
   32TCq2    C4  490   0.308   0.259  15.270 -0.1130 -0.2150  0.6452
   32TCq2    C5  491   0.219   0.217  15.363 -0.1282 -0.5825  0.0093
   32TCq2    C6  492   0.139   0.312  15.418 -1.0046  0.6902 -0.3056
   32TCq2    C7  493   0.152   0.440  15.384  0.4604 -0.9794 -0.0518
   32TCq2    C8  494   0.100   0.284  15.558 -0.5907 -0.4759 -0.0329
   32TCq2    O4  495   0.112   0.164  15.587 -0.0269  0.8178 -0.1055
   32TCq2    C9  496   0.390   0.160  15.212  0.2098 -0.1958 -0.3127
   32TCq2    O5  497   0.399   0.051  15.276 -0.1036  0.1160 -0.3567
   32TCq2    O6  498   0.484   0.202  15.142 -0.0921  0.0188  0.2932
   32TCq2    H2  499   0.397   0.408  15.152  2.1664  1.8376  3.2925
   32TCq2    H3  500   0.208   0.110  15.377 -0.1958 -0.8459 -2.0060
   32TCq2    H4  501   0.098   0.519  15.434 -1.1272 -1.5874 -0.8258
   33MPD2     C  502   0.780   3.248  10.738 -0.1473  0.0150 -0.5261
   33MPD2    C1  503   0.675   3.170  10.759 -0.1917  0.1907 -0.5361
   33MPD2    C2  504   0.574   3.160  10.664 -0.3156  0.1875 -0.1864
   33MPD2    C3  505   0.576   3.239  10.547  0.7425  0.8458  0.2206
   33MPD2    C4  506   0.682   3.327  10.531 -0.5463  0.2707  0.3254
   33MPD2    C5  507   0.788   3.322  10.622  0.7652 -0.0754  0.6142
   33MPD2     H  508   0.505   3.077  10.673 -0.4689  0.1983 -1.2574
   33MPD2    H1  509   0.694   3.398  10.450  2.3684 -1.8557 -1.1156
   33MPD2    H2  510   0.862   3.251  10.808 -1.4138  2.3705  0.8988
   33MPD2    H3  511   0.878   3.380  10.608 -0.8227  2.3784  0.6025
   33MPD2     N  512   0.466   3.253  10.452 -0.1181  0.1592  0.1170
   33MPD2    H5  513   0.461   3.332  10.388  2.4068 -0.6490 -1.0695
   33MPD2    N1  514   0.671   3.100  10.884  0.0223 -0.0057 -0.3306
   33MPD2    H7  515   0.749   3.108  10.947 -0.8292 -0.5850  0.7911
   34TCq2    C1  516   0.365   3.163  10.447  0.1904  0.9777  0.8977
   34TCq2    O2  517   0.337   3.073  10.528 -0.4358 -0.2436 -0.3247
   34TCq2    C2  518   0.256   3.198  10.351 -0.2214 -0.1442  0.0989
   34TCq2    C3  519   0.130   3.147  10.368  0.3935 -0.1884 -0.5575
   34TCq2    C4  520   0.030   3.185  10.280  0.5692  0.5520 -0.5043
   34TCq2    C5  521   0.064   3.275  10.179  0.1495  0.3420  0.2780
   34TCq2    C6  522   0.194   3.324  10.180 -0.1238 -0.2778  0.0502
   34TCq2    C7  523   0.292   3.284  10.256 -0.3346 -0.1637  0.0179
   34TCq2    C8  524   0.230   3.443  10.100 -0.5225  0.1370 -0.6101
   34TCq2    O4  525   0.309   3.523  10.150 -0.0795 -0.4580  0.6995
   34TCq2    C9  526   4.621   3.135  10.292 -0.1607  0.4086  0.6584
   34TCq2    O5  527   4.605   3.041  10.377  0.1959  0.1374  0.1072
   34TCq2    O6  528   4.542   3.170  10.203 -0.4207  0.0797  0.0490
   34TCq2    H2  529   0.108   3.084  10.453  0.9597 -1.9516 -1.7316
   34TCq2    H3  530   4.719   3.318  10.112  0.0386 -3.5977 -2.0846
   34TCq2    H4  531   0.386   3.336  10.239  0.1459 -0.8998  0.4038
   35MPD2     C  532   1.789   4.650  11.755 -0.4866 -0.3104  0.1016
   35MPD2    C1  533   1.756   4.522  11.710 -0.8357  0.6309 -0.7732
   35MPD2    C2  534   1.704   4.504  11.584 -0.0305 -0.6263  0.5942
   35MPD2    C3  535   1.687   4.613  11.501  0.7626 -0.4491 -0.5974
   35MPD2    C4  536   1.737   0.009  11.537  0.1321  0.9736  0.2523
   35MPD2    C5  537   1.782   0.028  11.665  0.4521  0.2444  0.8744
   35MPD2     H  538   1.672   4.406  11.550 -0.2663 -0.4990  0.4536
   35MPD2    H1  539   1.733   0.094  11.470 -2.3268 -0.8406 -1.9120
   35MPD2    H2  540   1.834   4.670  11.851  0.8386 -0.3530 -0.5151
   35MPD2    H3  541   1.824   0.123  11.698  0.5577  0.4641  0.0942
   35MPD2     N  542   1.628   4.601  11.372  0.1993  0.0990  0.3704
   35MPD2    H5  543   1.594   4.513  11.334  0.7883  0.5867 -1.2680
   35MPD2    N1  544   1.755   4.423  11.806  0.4652  0.3741 -0.0847
   35MPD2    H7  545   1.768   4.454  11.902 -0.3790 -0.4161  0.2871
   36TCq2    C1  546   1.591   4.705  11.290 -0.1992 -0.0039  0.3050
   36TCq2    O2  547   1.615   0.096  11.290 -0.2090  0.5909  0.4622
   36TCq2    C2  548   1.479   4.669  11.198 -0.1725  0.1436  0.4403
   36TCq2    C3  549   1.462   0.039  11.098  0.1631 -0.9025 -0.0938
   36TCq2    C4  550   1.341   0.032  11.030  0.3034 -0.4976  0.2774
   36TCq2    C5  551   1.241   4.668  11.062  0.3158  0.5380  0.0532
   36TCq2    C6  552   1.270   4.564  11.149 -0.3876  0.0392 -0.4695
   36TCq2    C7  553   1.390   4.562  11.219  0.2753 -0.5503  0.1928
   36TCq2    C8  554   1.188   4.446  11.138  0.2903 -0.2963 -0.0332
   36TCq2    O4  555   1.229   4.343  11.190  0.3986  0.7589  0.1726
   36TCq2    C9  556   1.306   0.146  10.947 -0.0614 -0.3306 -0.3492
   36TCq2    O5  557   1.399   0.200  10.889 -0.3796  0.0524 -0.2277
   36TCq2    O6  558   1.190   0.183  10.937 -0.0247  0.2107 -0.0044
   36TCq2    H2  559   1.523   0.126  11.074 -0.9068  0.4183  1.9657
   36TCq2    H3  560   1.149   4.687  11.008  1.9086  3.5446 -1.6065
   36TCq2    H4  561   1.393   4.487  11.296 -0.2800  0.4801  1.2196
   37TMC2    C1  562   3.721   3.933  11.897 -0.4085  0.0582 -0.0943
   37TMC2    C2  563   3.720   3.833  11.804  0.0742  1.0882 -0.4523
   37TMC2    C3  564   3.817   3.837  11.715 -0.6912  0.8434  0.8152
   37TMC2    C4  565   3.820   4.026  11.902 -0.6129  0.0516  0.4823
   37TMC2    C5  566   3.920   4.020  11.810  0.3296 -0.2321  0.3520
   37TMC2    C6  567   3.920   3.925  11.716 -0.2090  0.5742 -0.1390
   37TMC2     C  568   3.616   3.929  12.002 -0.4185 -0.0631 -0.0022
   37TMC2     O  569   3.511   3.863  11.987 -0.2941 -0.3325 -0.3664
   37TMC2     H  570   3.637   3.764  11.790 -1.3410  2.7333 -0.1015
   37TMC2    H1  571   3.826   4.108  11.973 -0.6008  0.1939  0.3192
   37TMC2    H2  572   3.995   3.903  11.642  0.3141 -2.7651  1.4024
   37TMC2    C7  573   4.006   4.135  11.802 -0.2876 -0.0526  0.1711
   37TMC2    C8  574   3.805   3.739  11.605 -0.2885  0.0947 -0.4890
   37TMC2    O1  575   4.003   4.217  11.889 -0.1962  0.4047 -1.1042
   37TMC2    O2  576   3.722   3.653  11.613 -0.5737 -0.3105 -0.0387
   37TMC2    O5  577   3.858   3.789  11.489 -0.1262  0.2665  0.4082
   37TMC2    H5  578   3.906   3.872  11.510  2.2006 -0.3531 -2.5389
   38MPD2     C  579   3.471   4.113  12.461 -0.6378  0.3992  1.1917
   38MPD2    C1  580   3.589   4.173  12.416 -0.2720  0.5597  0.1614
   38MPD2    C2  581   3.659   4.121  12.310  0.4358 -0.0052  0.4926
   38MPD2    C3  582   3.592   4.036  12.225  0.2708 -0.3722  0.0976
   38MPD2    C4  583   3.472   3.980  12.259  0.2069 -0.7504  0.2512
   38MPD2    C5  584   3.418   4.009  12.386 -0.4210  0.7703 -0.0341
   38MPD2     H  585   3.760   4.154  12.291  0.3319 -0.4760 -0.8516
   38MPD2    H1  586   3.431   3.898  12.201 -1.5242  0.0709  0.3248
   38MPD2    H2  587   3.419   4.151  12.548  0.1790 -0.7878  2.1915
   38MPD2    H3  588   3.332   3.952  12.418  1.3016 -1.6696  0.2987
   38MPD2     N  589   3.662   3.998  12.109 -0.4685  0.6268 -0.0421
   38MPD2    H5  590   3.757   4.031  12.098 -0.5048  0.8877  0.4167
   38MPD2    N1  591   3.653   4.277  12.483  0.0773  0.5327 -0.5957
   38MPD2    H7  592   3.747   4.295  12.448 -0.9164  4.5206 -1.1779
   39MPD2     C  593   1.239   0.724   1.350  0.2175 -0.0368 -1.4111
   39MPD2    C1  594   1.180   0.827   1.405 -0.0904 -0.3644 -0.4474
   39MPD2    C2  595   1.042   0.836   1.403  0.3543  0.2249  0.6456
   39MPD2    C3  596   0.970   0.736   1.346  0.2717 -0.3474 -0.1860
   39MPD2    C4  597   1.033   0.624   1.305 -0.4035  0.5471  0.1294
   39MPD2    C5  598   1.165   0.616   1.306  0.1907 -0.0778  0.1532
   39MPD2     H  599   0.998   0.930   1.434 -1.3061  0.1967 -1.6627
   39MPD2    H1  600   0.981   0.550   1.245 -0.0801  1.5145 -1.3514
   39MPD2    H2  601   1.347   0.719   1.341  0.6090  1.1657  2.7491
   39MPD2    H3  602   1.208   0.520   1.279 -0.5661 -0.0518 -1.1334
   39MPD2     N  603   0.835   0.743   1.311 -0.0891 -0.8463 -0.1256
   39MPD2    H5  604   0.802   0.683   1.236 -0.9073  0.9090 -1.1705
   39MPD2    N1  605   1.262   0.935   1.443 -0.3898  0.2860  0.4718
   39MPD2    H7  606   1.357   0.921   1.410 -0.8126  0.8969 -1.0030
   40TCq2    C1  607   1.239   1.034   1.531  0.6758 -0.4477 -0.4889
   40TCq2    O2  608   1.130   1.060   1.586  0.1108  0.1857 -0.0117
   40TCq2    C2  609   1.354   1.125   1.556 -0.0520 -0.4413 -0.8101
   40TCq2    C3  610   1.360   1.201   1.677 -0.1899 -0.1115 -0.1009
   40TCq2    C4  611   1.474   1.272   1.694  0.0140  0.2810 -0.3819
   40TCq2    C5  612   1.574   1.276   1.596  0.9907  0.0162 -0.4304
   40TCq2    C6  613   1.562   1.198   1.482  0.2654 -0.4760  0.3887
   40TCq2    C7  614   1.447   1.123   1.462  0.1154 -0.4873  0.1413
   40TCq2    C8  615   1.657   1.205   1.367 -0.3659 -0.0219 -0.7458
   40TCq2    O4  616   1.665   1.111   1.291  0.0943 -0.1809  0.0181
   40TCq2    C9  617   1.485   1.357   1.808 -0.9564 -1.0300 -0.0625
   40TCq2    O5  618   1.586   1.431   1.813  0.3763 -0.3663 -0.3575
   40TCq2    O6  619   1.417   1.334   1.911 -0.1959  0.7480  0.3215
   40TCq2    H2  620   1.277   1.198   1.747 -0.2785 -1.8321 -0.2740
   40TCq2    H3  621   1.666   1.329   1.620  1.4606 -0.2037 -1.7037
   40TCq2    H4  622   1.449   1.070   1.368 -1.3204 -1.7069  0.8023
   41TMC2    C1  623   1.315   4.314  13.875  0.1214 -0.5783  0.4817
   41TMC2    C2  624   1.282   4.414  13.958 -0.3705 -0.0742 -0.1597
   41TMC2    C3  625   1.190   4.507  13.915  0.6462 -0.1280  0.3329
   41TMC2    C4  626   1.262   4.303  13.751 -0.5627  0.9296  0.4060
   41TMC2    C5  627   1.170   4.394  13.712  0.0567  0.2817  0.3362
   41TMC2    C6  628   1.129   4.495  13.794 -0.7244 -0.1024  0.4949
   41TMC2     C  629   1.350   4.192  13.933 -0.1510  0.5888  0.4129
   41TMC2     O  630   1.414   4.107  13.869 -0.0404 -0.2591  0.4308
   41TMC2     H  631   1.339   4.435  14.048 -0.3291  0.1039 -0.2273
   41TMC2    H1  632   1.283   4.214  13.693  1.6297  1.2908  0.6324
   41TMC2    H2  633   1.037   4.551  13.789  0.3746  1.7627  1.0703
   41TMC2    C7  634   1.068   4.348  13.613  0.2552  0.1764  0.8396
   41TMC2    C8  635   1.165   4.618  14.006 -0.7818  0.4159  0.2335
   41TMC2    O1  636   0.953   4.387  13.627  0.4682 -0.3348 -0.5718
   41TMC2    O2  637   1.218   4.623  14.115 -0.0831  0.1513 -0.4028
   41TMC2    O5  638   1.142   0.003  13.935 -0.1014 -0.3245  0.5307
   41TMC2    H5  639   1.106   4.724  13.844 -0.5282 -1.4265  0.8016
   42MPD2     C  640   1.374   3.975  14.156 -0.3874  0.3814  0.2551
   42MPD2    C1  641   1.266   4.068  14.133 -0.3836  0.0650 -0.2777
   42MPD2    C2  642   1.162   4.065  14.226 -0.3531  0.5240 -0.5940
   42MPD2    C3  643   1.156   3.971  14.331  1.1713  0.0417  0.0303
   42MPD2    C4  644   1.258   3.873  14.340 -0.6175 -0.7976  0.2317
   42MPD2    C5  645   1.362   3.883  14.254 -0.5711 -0.0834 -0.1078
   42MPD2     H  646   1.084   4.137  14.208 -0.5726  0.6568  0.8633
   42MPD2    H1  647   1.255   3.802  14.423 -1.9037 -0.0011  0.8692
   42MPD2    H2  648   1.462   3.976  14.092 -1.0304  0.5632 -0.6285
   42MPD2    H3  649   1.447   3.816  14.253 -0.4462  0.0920 -0.8699
   42MPD2     N  650   1.060   3.971  14.432  0.0648 -0.1785  0.5673
   42MPD2    H5  651   1.086   3.916  14.513 -2.6785 -2.4566 -0.0761
   42MPD2    N1  652   1.274   4.177  14.042  0.1994 -0.3932 -0.5545
   42MPD2    H7  653   1.213   4.256  14.058  2.0142  0.6497  1.2332
   43MPD2     C  654   2.618   2.914   0.446 -0.3889  0.4734  0.4683
   43MPD2    C1  655   2.579   2.826   0.544  0.5053  0.4334  0.3862
   43MPD2    C2  656   2.652   2.829   0.664 -1.0411 -0.3484 -0.5154
   43MPD2    C3  657   2.761   2.918   0.672  0.7066  0.0360 -0.1286
   43MPD2    C4  658   2.808   2.995   0.568 -0.0412 -0.7925 -0.0950
   43MPD2    C5  659   2.735   2.986   0.456  0.3167 -0.1410 -0.2532
   43MPD2     H  660   2.626   2.759   0.742 -2.0477  0.3128 -0.2507
   43MPD2    H1  661   2.900   3.052   0.556  0.6743 -1.4542  2.1865
   43MPD2    H2  662   2.567   2.932   0.351  0.9023  3.6575  0.3886
   43MPD2    H3  663   2.769   3.039   0.368 -1.0246  2.1622  0.6147
   43MPD2     N  664   2.850   2.909   0.776  0.6073  0.4467 -0.6324
   43MPD2    H5  665   2.939   2.958   0.770  0.7826  0.1760 -0.2131
   43MPD2    N1  666   2.475   2.736   0.521  0.4666  0.2719  0.1482
   43MPD2    H7  667   2.458   2.666   0.592  0.2463 -1.3662 -1.5382
   44TCq2    C1  668   2.959   3.077   1.323  0.8175 -0.5156  0.0830
   44TCq2    O2  669   3.056   3.123   1.385  0.2583 -0.3239  0.4126
   44TCq2    C2  670   2.985   2.991   1.208 -0.4746 -0.1493  0.5174
   44TCq2    C3  671   3.115   2.979   1.167  0.1862 -0.1707  0.2682
   44TCq2    C4  672   3.144   2.932   1.043  0.1979 -0.4516  0.8005
   44TCq2    C5  673   3.045   2.883   0.961 -0.2279  0.2738 -0.0894
   44TCq2    C6  674   2.918   2.911   1.002  0.3803  0.2972  1.1534
   44TCq2    C7  675   2.881   2.960   1.126 -0.0613  0.1272 -0.0646
   44TCq2    C8  676   2.809   2.882   0.903 -0.3902  0.0913 -0.2922
   44TCq2    O4  677   2.696   2.853   0.942 -0.2177 -0.3148 -0.5683
   44TCq2    C9  678   3.276   2.912   0.997  0.5576 -0.3671 -0.2651
   44TCq2    O5  679   3.286   2.833   0.899 -0.4602 -0.0827  0.2871
   44TCq2    O6  680   3.366   2.959   1.067 -0.7132 -0.4027 -0.1635
   44TCq2    H2  681   3.193   3.026   1.226 -1.0668  0.9443  1.0374
   44TCq2    H3  682   3.068   2.825   0.872  1.6996 -1.2659  1.4212
   44TCq2    H4  683   2.777   2.944   1.153 -0.4887 -0.1864 -1.8998
   45TMC2    C1  684   3.466   4.696   9.666 -0.2622  0.1364 -0.2359
   45TMC2    C2  685   3.437   4.674   9.537  0.0731 -0.3030  0.3001
   45TMC2    C3  686   3.402   0.053   9.463  0.1770  0.1234 -0.2950
   45TMC2    C4  687   3.478   0.094   9.720  0.5155  0.2311 -0.1656
   45TMC2    C5  688   3.431   0.198   9.646  0.3032  0.3260 -0.3914
   45TMC2    C6  689   3.396   0.182   9.513 -0.6507 -0.0644  0.0197
   45TMC2     C  690   3.463   4.582   9.759  0.1431 -0.3149  0.1710
   45TMC2     O  691   3.511   4.601   9.872  0.3640 -0.0741  0.0778
   45TMC2     H  692   3.432   4.571   9.503 -2.2095  0.3290 -1.2848
   45TMC2    H1  693   3.515   0.095   9.822 -1.4033 -3.3321  0.5720
   45TMC2    H2  694   3.357   0.264   9.455  0.3166  1.4718  1.5479
   45TMC2    C7  695   3.460   0.334   9.686 -0.0455 -0.7909 -0.7176
   45TMC2    C8  696   3.330   0.018   9.336  0.2671 -0.6572  0.7118
   45TMC2    O1  697   3.416   0.428   9.618 -0.0026 -0.7097  0.1589
   45TMC2    O2  698   3.322   4.631   9.298 -0.1009 -0.1600 -0.2090
   45TMC2    O5  699   3.259   0.121   9.280  0.4945 -0.1412 -0.2822
   45TMC2    H5  700   3.307   0.206   9.283  1.9255 -0.9084 -1.0470
   46MPD2     C  701   3.439   4.302   9.883 -0.2683  0.0374 -0.2295
   46MPD2    C1  702   3.366   4.353   9.779  0.6924 -0.9124  0.2048
   46MPD2    C2  703   3.252   4.278   9.738 -0.0799 -0.0468 -0.9630
   46MPD2    C3  704   3.214   4.161   9.797 -0.8631 -0.3669 -0.6785
   46MPD2    C4  705   3.302   4.107   9.883  0.3022 -0.2071 -0.2903
   46MPD2    C5  706   3.413   4.176   9.921  0.2623 -0.2510 -0.5144
   46MPD2     H  707   3.183   4.322   9.667 -1.4950 -2.7694 -1.2776
   46MPD2    H1  708   3.291   4.008   9.927  0.4125 -0.4516 -0.8129
   46MPD2    H2  709   3.526   4.350   9.925 -0.1112 -0.5138  0.0790
   46MPD2    H3  710   3.487   4.129   9.985  0.5897  1.6040  0.4699
   46MPD2     N  711   3.084   4.105   9.768  0.4465  0.4698  0.6121
   46MPD2    H5  712   3.027   4.157   9.702 -0.9829  0.5027  1.8885
   46MPD2    N1  713   3.384   4.478   9.711  0.0317  0.2190  0.2358
   46MPD2    H7  714   3.335   4.492   9.624 -2.6562 -0.4712  1.6343
   47TMC2    C1  715   4.543   0.646   9.790  0.5198  0.1836  0.8737
   47TMC2    C2  716   4.442   0.695   9.718 -0.3390 -0.5114 -0.0546
   47TMC2    C3  717   4.364   0.611   9.651 -0.1981  0.5929 -0.2111
   47TMC2    C4  718   4.553   0.513   9.817  0.3416  0.5557  0.5393
   47TMC2    C5  719   4.462   0.432   9.753 -0.1718  0.1680  0.3448
   47TMC2    C6  720   4.379   0.478   9.659  0.3535  0.6147 -0.3556
   47TMC2     C  721   4.650   0.737   9.831  0.3847 -0.7232  0.3166
   47TMC2     O  722   4.613   0.846   9.874 -0.2235 -0.3704 -0.3718
   47TMC2     H  723   4.438   0.803   9.703 -1.4739 -0.4758  0.5146
   47TMC2    H1  724   4.628   0.480   9.888 -0.3497 -2.2654 -0.0464
   47TMC2    H2  725   4.313   0.405   9.613  0.5886  0.5851 -0.6494
   47TMC2    C7  726   4.476   0.287   9.754  0.0198 -0.2281  0.5140
   47TMC2    C8  727   4.283   0.665   9.547 -0.9124  0.0022 -0.1403
   47TMC2    O1  728   4.417   0.219   9.671  0.0601  0.2037  0.0985
   47TMC2    O2  729   4.206   0.581   9.497 -0.3925 -0.3301  0.6112
   47TMC2    O5  730   4.328   0.778   9.485  0.1795 -0.3278  0.0490
   47TMC2    H5  731   4.396   0.822   9.540 -0.5438 -0.3105  0.9305
   48MPD2     C  732   0.173   0.842   9.933  0.6850  1.3444  0.4299
   48MPD2    C1  733   0.165   0.734   9.858 -0.4145  0.4112  0.2103
   48MPD2    C2  734   0.279   0.674   9.813 -0.7898  0.1401 -0.0724
   48MPD2    C3  735   0.405   0.726   9.832  0.2611  0.9877 -0.0226
   48MPD2    C4  736   0.409   0.857   9.884  0.3614  0.3333 -0.3706
   48MPD2    C5  737   0.290   0.902   9.942 -0.2377  0.2621  0.4792
   48MPD2     H  738   0.273   0.581   9.759  3.0810  0.1971 -0.5543
   48MPD2    H1  739   0.505   0.907   9.890  0.5992 -0.3789  1.6973
   48MPD2    H2  740   0.081   0.883   9.973  0.2822  0.8006  0.0547
   48MPD2    H3  741   0.292   1.000   9.988 -2.8496 -1.1684  3.6032
   48MPD2     N  742   0.515   0.662   9.773  0.3235  0.3462 -0.5820
   48MPD2    H5  743   0.504   0.570   9.731 -0.6637  0.3351 -0.2797
   48MPD2    N1  744   0.045   0.674   9.820  0.1842 -0.1368  0.1264
   48MPD2    H7  745   0.053   0.593   9.759 -0.7914  1.9406 -2.7622
   49MPD2     C  746   3.788   1.906  10.065 -0.1307 -0.3935  0.0470
   49MPD2    C1  747   3.736   1.879  10.191 -0.3794  0.4385  0.5062
   49MPD2    C2  748   3.789   1.946  10.301 -0.4052  0.9097  0.2931
   49MPD2    C3  749   3.882   2.047  10.279  0.0094 -0.7188 -0.4239
   49MPD2    C4  750   3.932   2.073  10.161 -0.4256  0.0509  0.0161
   49MPD2    C5  751   3.887   2.002  10.051 -0.1118  0.2965  0.0244
   49MPD2     H  752   3.750   1.914  10.397 -2.0121 -0.0546 -0.6918
   49MPD2    H1  753   4.012   2.146  10.146  0.1157 -0.5687 -0.0970
   49MPD2    H2  754   3.757   1.852   9.976 -0.8231  0.6584 -0.3426
   49MPD2    H3  755   3.940   2.015   9.958 -0.1686  1.4216  0.1439
   49MPD2     N  756   3.930   2.134  10.383 -0.5031 -0.1817  0.2447
   49MPD2    H5  757   4.003   2.202  10.365  0.4136 -0.9511  1.0370
   49MPD2    N1  758   3.635   1.781  10.217 -0.1014 -0.5336 -0.0284
   49MPD2    H7  759   3.619   1.772  10.317 -1.3450  0.2940 -0.1552
   50TCq2    C1  760   3.564   1.711  10.123  0.7820 -0.0702  0.1381
   50TCq2    O2  761   3.561   1.741  10.001 -0.3336 -0.0168  0.2908
   50TCq2    C2  762   3.453   1.619  10.171  0.1069  0.3723  0.2037
   50TCq2    C3  763   3.389   1.536  10.083  0.4273  0.1366  0.2337
   50TCq2    C4  764   3.272   1.483  10.119 -1.0899 -0.0968 -0.0431
   50TCq2    C5  765   3.228   1.496  10.248  0.1412 -0.7163 -0.4300
   50TCq2    C6  766   3.307   1.560  10.333  0.5377 -0.7072 -0.6960
   50TCq2    C7  767   3.412   1.633  10.298 -0.5218  0.3734  0.0995
   50TCq2    C8  768   3.271   1.546  10.472  1.1269  0.0877  0.3068
   50TCq2    O4  769   3.194   1.458  10.500  0.0336 -0.2689  0.6756
   50TCq2    C9  770   3.200   1.384  10.035 -0.5461  0.5169  0.4000
   50TCq2    O5  771   3.259   1.366   9.922 -0.4458  0.4286 -1.7054
   50TCq2    O6  772   3.098   1.324  10.080 -0.2735 -0.0720  0.0952
   50TCq2    H2  773   3.431   1.530   9.983 -0.7051 -0.2059 -0.2182
   50TCq2    H3  774   3.133   1.455  10.280  0.3694 -1.2114 -0.3845
   50TCq2    H4  775   3.468   1.696  10.366 -0.4056 -0.5453  0.8638
   51MPD2     C  776   3.743   1.307   1.461 -0.2346 -0.4185 -0.9358
   51MPD2    C1  777   3.758   1.177   1.501 -0.1325  0.0527  0.1273
   51MPD2    C2  778   3.738   1.153   1.638 -0.0552 -0.1978  0.4394
   51MPD2    C3  779   3.714   1.254   1.729 -0.4821 -0.2217  0.4408
   51MPD2    C4  780   3.698   1.384   1.680 -0.2400 -0.1588  0.7267
   51MPD2    C5  781   3.708   1.409   1.548  0.1200  0.4805  0.9580
   51MPD2     H  782   3.755   1.054   1.679  2.0128  0.4953  1.2824
   51MPD2    H1  783   3.668   1.466   1.744 -0.6331 -0.6869  1.2162
   51MPD2    H2  784   3.749   1.340   1.358  2.5795  1.7450 -0.0753
   51MPD2    H3  785   3.706   1.510   1.510 -1.9026 -0.7017 -2.1182
   51MPD2     N  786   3.708   1.249   1.872  0.4911  0.3080  0.4205
   51MPD2    H5  787   3.682   1.334   1.922  2.9870  1.0747  0.4397
   51MPD2    N1  788   3.775   1.071   1.415 -0.0321 -0.2778  0.4147
   51MPD2    H7  789   3.760   0.983   1.463 -0.0790 -1.4932 -1.7839
   52TCq2    C1  790   3.729   1.135   1.948 -0.1894 -0.0463  0.4692
   52TCq2    O2  791   3.752   1.020   1.914 -0.1227 -0.0927 -0.2029
   52TCq2    C2  792   3.713   1.151   2.090  0.6815  0.0650  0.3775
   52TCq2    C3  793   3.651   1.049   2.161 -0.3856  0.1182 -0.3885
   52TCq2    C4  794   3.638   1.075   2.299 -0.0894  0.7736 -0.7090
   52TCq2    C5  795   3.687   1.192   2.354  0.4045 -0.3258 -0.2599
   52TCq2    C6  796   3.745   1.288   2.274 -0.0203 -0.3145 -0.2228
   52TCq2    C7  797   3.748   1.274   2.139 -0.1713  0.5060 -0.7755
   52TCq2    C8  798   3.815   1.401   2.341  0.5013  0.3042 -0.9666
   52TCq2    O4  799   3.865   1.486   2.263 -0.0971 -0.2160  0.1451
   52TCq2    C9  800   3.597   0.960   2.375  0.2033  0.2131  0.8356
   52TCq2    O5  801   3.545   0.867   2.310  0.2461 -0.2455  0.0886
   52TCq2    O6  802   3.567   0.980   2.495  0.4563 -0.1700  0.9689
   52TCq2    H2  803   3.614   0.960   2.111 -3.5472  0.8346  0.6797
   52TCq2    H3  804   3.681   1.209   2.461  2.7262 -2.4512  0.2070
   52TCq2    H4  805   3.788   1.348   2.070  1.6632  0.3631  0.1115
   53TMC2    C1  806   4.487   4.652  11.987 -0.1746 -0.0936  0.1337
   53TMC2    C2  807   4.603   4.715  12.027 -0.2249 -0.4488 -0.0036
   53TMC2    C3  808   4.612   0.042  12.151  0.4838 -0.3145  0.4178
   53TMC2    C4  809   4.376   4.657  12.067 -0.5711  0.5346  0.7696
   53TMC2    C5  810   4.393   4.703  12.192  0.3740 -0.4296  0.0436
   53TMC2    C6  811   4.509   0.039  12.237 -0.4416  0.8134  0.4982
   53TMC2     C  812   4.490   4.580  11.861 -0.6833  0.3624 -0.9403
   53TMC2     O  813   4.583   4.602  11.792  0.5496 -0.3014  0.1307
   53TMC2     H  814   4.694   4.707  11.969  0.6973 -0.3112  1.4434
   53TMC2    H1  815   4.278   4.621  12.039 -1.1607  0.5598  2.8013
   53TMC2    H2  816   4.521   0.087  12.333 -0.1335  0.4362  0.6488
   53TMC2    C7  817   4.272   4.694  12.273  0.9341 -0.7076 -0.0146
   53TMC2    C8  818   0.014   0.103  12.189 -0.5318  0.0737 -0.4019
   53TMC2    O1  819   4.170   4.671  12.210 -0.6251 -0.2720 -0.1197
   53TMC2    O2  820   0.009   0.208  12.257  0.3344  0.0881  0.1579
   53TMC2    O5  821   0.112   0.008  12.184  0.3819 -0.5492  0.1529
   53TMC2    H5  822   0.096   4.648  12.145 -2.1176  0.2236 -0.5955
   54MPD2     C  823   4.402   4.412  11.619  0.0261 -0.4003  0.5421
   54MPD2    C1  824   4.351   4.398  11.750 -0.2439 -0.1498  0.2364
   54MPD2    C2  825   4.246   4.314  11.767 -0.2801 -0.1650  0.1074
   54MPD2    C3  826   4.194   4.233  11.665  0.5965  0.8093  0.4669
   54MPD2    C4  827   4.263   4.227  11.547  0.5455  0.0615  0.2194
   54MPD2    C5  828   4.362   4.317  11.521 -0.1157 -0.0419  0.3980
   54MPD2     H  829   4.193   4.317  11.862  0.6666 -0.8962  0.6589
   54MPD2    H1  830   4.247   4.166  11.458 -0.1743 -0.0849  0.4447
   54MPD2    H2  831   4.471   4.490  11.589 -1.0768  0.8475  1.1952
   54MPD2    H3  832   4.404   4.334  11.423 -0.7423 -3.3333 -0.4527
   54MPD2     N  833   4.091   4.136  11.688  0.1390 -0.4800 -0.7388
   54MPD2    H5  834   4.068   4.070  11.616  0.0180 -0.6109 -0.5789
   54MPD2    N1  835   4.387   4.488  11.857 -0.4612  0.9143 -0.2699
   54MPD2    H7  836   4.340   4.479  11.947  0.9932 -1.0569  0.3063
   55MPD2     C  837   0.325   2.383  17.277  0.1135 -0.1165  0.0081
   55MPD2    C1  838   0.299   2.274  17.357 -0.0081  0.2319  0.7531
   55MPD2    C2  839   0.200   2.288  17.463 -0.2989 -0.0604 -0.3492
   55MPD2    C3  840   0.124   2.397  17.460 -0.2536 -0.0351  0.2805
   55MPD2    C4  841   0.142   2.501  17.371 -0.0569 -0.3543 -0.7256
   55MPD2    C5  842   0.246   2.495  17.279  0.0501  0.2297  0.3890
   55MPD2     H  843   0.166   2.209  17.530 -0.2341 -0.6970 -1.0687
   55MPD2    H1  844   0.083   2.592  17.379  0.4000 -0.1293  0.1441
   55MPD2    H2  845   0.403   2.372  17.203  0.3837  2.7347 -0.1209
   55MPD2    H3  846   0.273   2.578  17.214  1.2865 -0.9574 -0.6326
   55MPD2     N  847   0.023   2.405  17.562 -0.3017  0.4032 -0.4821
   55MPD2    H5  848   0.001   2.316  17.606 -0.3897 -0.0491 -1.4464
   55MPD2    N1  849   0.377   2.159  17.344  0.0180  0.0033 -0.3626
   55MPD2    H7  850   0.453   2.163  17.276  0.5259 -0.4613  0.1723
   56TCq2    C1  851   0.364   2.042  17.420 -0.0188  1.2356 -0.3606
   56TCq2    O2  852   0.281   1.996  17.497 -0.8069  0.5062 -0.5866
   56TCq2    C2  853   0.480   1.963  17.405  0.2675 -0.0473  0.0292
   56TCq2    C3  854   0.596   2.002  17.353 -0.0227  0.4164  0.0871
   56TCq2    C4  855   0.702   1.915  17.345  1.3679  0.1913 -0.5276
   56TCq2    C5  856   0.703   1.787  17.386  0.0324  0.0531  0.3387
   56TCq2    C6  857   0.585   1.750  17.447 -0.4000  0.0473  0.6091
   56TCq2    C7  858   0.472   1.827  17.446  0.4544 -0.4513  0.4530
   56TCq2    C8  859   0.562   1.617  17.501 -0.2591 -0.3801  0.7611
   56TCq2    O4  860   0.632   1.528  17.457 -0.1946 -0.0080 -0.7464
   56TCq2    C9  861   0.820   1.945  17.269 -0.0240 -0.1691 -0.3637
   56TCq2    O5  862   0.863   1.849  17.193 -0.3599 -0.4171 -0.1180
   56TCq2    O6  863   0.882   2.052  17.288  0.0689 -0.2991  0.1337
   56TCq2    H2  864   0.610   2.104  17.319 -1.3868  0.6927  0.3562
   56TCq2    H3  865   0.789   1.723  17.371  0.1622  0.2603  0.2072
   56TCq2    H4  866   0.373   1.786  17.462 -0.7269  1.5195 -1.6443
   57TMC2    C1  867   3.984   2.983  13.767  0.0033 -0.2931  0.5885
   57TMC2    C2  868   4.088   2.953  13.845 -0.4775 -0.4122  0.5697
   57TMC2    C3  869   4.203   2.913  13.784  0.0513  0.0400 -0.9512
   57TMC2    C4  870   3.989   2.987  13.632  0.1686 -0.0917  0.2349
   57TMC2    C5  871   4.108   2.954  13.570  0.1964 -0.1041 -1.1802
   57TMC2    C6  872   4.219   2.918  13.648  0.3089 -0.5328  0.0050
   57TMC2     C  873   3.860   3.012  13.832  0.0207 -1.0244 -0.3138
   57TMC2     O  874   3.789   3.077  13.760  0.1533  0.2077  0.1884
   57TMC2     H  875   4.087   2.952  13.953  1.4968 -2.3060  0.5835
   57TMC2    H1  876   3.911   3.035  13.573 -1.0486 -0.6059  1.4238
   57TMC2    H2  877   4.311   2.898  13.594 -1.7790 -2.0341 -3.0228
   57TMC2    C7  878   4.105   2.942  13.427 -0.4818 -0.2351  0.2275
   57TMC2    C8  879   4.302   2.836  13.850  0.5868 -0.3344  0.3748
   57TMC2    O1  880   4.017   3.005  13.367  0.7942 -0.2952  0.3302
   57TMC2    O2  881   4.394   2.776  13.790  0.2478  0.3969  0.0222
   57TMC2    O5  882   4.259   2.786  13.970 -0.3707  0.0491  0.5720
   57TMC2    H5  883   4.169   2.802  14.005 -1.1029 -0.3745 -1.1086
   58MPD2     C  884   3.441   2.947  14.096  0.3412  0.7164 -0.1854
   58MPD2    C1  885   3.475   3.048  14.009 -0.4432  0.0021  0.2346
   58MPD2    C2  886   3.603   3.048  13.961  0.4440  0.3285  0.0576
   58MPD2    C3  887   3.706   2.961  14.012 -0.3449 -0.5641  0.1343
   58MPD2    C4  888   3.667   2.864  14.101 -0.1130 -0.0734 -0.8322
   58MPD2    C5  889   3.534   2.858  14.133 -0.5362 -0.9283 -0.4928
   58MPD2     H  890   3.635   3.126  13.892  0.1539 -0.2370 -0.7143
   58MPD2    H1  891   3.745   2.805  14.149 -0.7087  0.8275  1.2295
   58MPD2    H2  892   3.344   2.943  14.143  0.9115 -5.2313  0.3783
   58MPD2    H3  893   3.502   2.774  14.193  1.0465 -0.4261  1.0634
   58MPD2     N  894   3.835   2.957  13.950  0.2871  0.0242  0.1969
   58MPD2    H5  895   3.901   2.907  14.008  1.7801  1.0832 -0.5934
   58MPD2    N1  896   3.383   3.145  13.958  0.0729  0.3322 -0.6863
   58MPD2    H7  897   3.421   3.217  13.896  1.4334  1.0602  0.9940
   59MPD2     C  898   2.021   3.345  13.293 -0.3092 -0.0290  0.0351
   59MPD2    C1  899   2.077   3.434  13.200 -0.2541  0.3416 -0.1799
   59MPD2    C2  900   2.193   3.518  13.240 -0.4464 -0.0397  0.5808
   59MPD2    C3  901   2.240   3.510  13.374 -0.2321 -0.6544 -0.3904
   59MPD2    C4  902   2.182   3.417  13.457  0.4523  0.8374  0.3157
   59MPD2    C5  903   2.072   3.340  13.417  0.4056 -0.1985 -0.3832
   59MPD2     H  904   2.228   3.591  13.168  0.9787 -0.1942  1.1337
   59MPD2    H1  905   2.215   3.388  13.556  0.5865  0.5969  0.1993
   59MPD2    H2  906   1.945   3.271  13.275  1.2267 -1.2886 -1.3002
   59MPD2    H3  907   2.044   3.257  13.481  3.3919 -1.4249 -0.6325
   59MPD2     N  908   2.348   3.589  13.424  0.2377  0.1331 -0.1803
   59MPD2    H5  909   2.387   3.562  13.514  1.5789 -2.0504 -1.4334
   59MPD2    N1  910   2.023   3.447  13.067 -0.4808  0.0540  0.5217
   59MPD2    H7  911   2.069   3.512  13.003 -2.5870 -1.4422 -2.4853
   60TCq2    C1  912   1.911   3.382  13.013  0.0261 -0.7160 -0.1310
   60TCq2    O2  913   1.834   3.306  13.067 -0.2310 -0.0628  0.5143
   60TCq2    C2  914   1.889   3.399  12.866 -0.5245  1.1595 -0.0008
   60TCq2    C3  915   1.764   3.357  12.831 -0.2783  0.2479 -0.4647
   60TCq2    C4  916   1.725   3.389  12.707 -0.4465 -0.2075 -0.3320
   60TCq2    C5  917   1.805   3.443  12.615 -0.1571  0.1353  0.2986
   60TCq2    C6  918   1.933   3.480  12.662  0.2999 -0.3307 -0.0406
   60TCq2    C7  919   1.981   3.459  12.785 -0.4234  0.6731 -0.1796
   60TCq2    C8  920   2.026   3.552  12.571 -0.1138 -0.2981 -0.0644
   60TCq2    O4  921   2.144   3.524  12.594 -0.8929  0.3043  0.4055
   60TCq2    C9  922   1.582   3.366  12.665  0.1128  0.9149 -0.3540
   60TCq2    O5  923   1.518   3.278  12.726 -0.0690  0.3116  0.0962
   60TCq2    O6  924   1.559   3.395  12.543 -0.2022  0.2349  0.6579
   60TCq2    H2  925   1.683   3.318  12.891  1.0492 -0.2305  1.0039
   60TCq2    H3  926   1.773   3.466  12.514 -1.5155  1.6702  1.0950
   60TCq2    H4  927   2.080   3.485  12.820  0.2879 -1.7947 -0.3985
   61MPD2     C  928   1.236   4.336  14.948  0.0964 -0.4090 -0.3952
   61MPD2    C1  929   1.292   4.462  14.973 -1.1142  0.3748  0.4371
   61MPD2    C2  930   1.393   4.516  14.891 -0.8738  0.3160  0.3867
   61MPD2    C3  931   1.436   4.443  14.782 -0.2652 -0.2312  0.4439
   61MPD2    C4  932   1.379   4.323  14.754 -0.1936  0.3915  0.2447
   61MPD2    C5  933   1.282   4.271  14.835  0.5132 -0.2918  0.4358
   61MPD2     H  934   1.431   4.616  14.910 -2.4992  0.4317  2.9730
   61MPD2    H1  935   1.414   4.272  14.665 -2.0271 -1.7439  0.7520
   61MPD2    H2  936   1.165   4.287  15.014 -0.1543  1.6283  0.8208
   61MPD2    H3  937   1.246   4.171  14.814 -0.1702 -0.2380  1.3675
   61MPD2     N  938   1.520   4.502  14.684 -0.0212  0.4378  0.2912
   61MPD2    H5  939   1.524   4.460  14.591  0.2880 -0.9026  0.9196
   61MPD2    N1  940   1.233   4.539  15.081  0.2954 -0.1313  0.1444
   61MPD2    H7  941   1.278   4.625  15.110  0.5007  0.0371 -0.6487
   62TCq2    C1  942   1.114   4.512  15.150  0.7581  0.0101 -0.8498
   62TCq2    O2  943   1.038   4.413  15.149  0.4424  0.4442 -0.4133
   62TCq2    C2  944   1.079   4.621  15.244  0.3720 -0.1521 -0.3111
   62TCq2    C3  945   0.944   4.648  15.264  0.0598 -0.1447 -0.0818
   62TCq2    C4  946   0.909   0.036  15.318  1.0598  0.9105  0.1030
   62TCq2    C5  947   1.004   0.119  15.372  1.1408  0.4278 -0.2297
   62TCq2    C6  948   1.135   0.081  15.368  0.0921 -0.2817 -0.1971
   62TCq2    C7  949   1.180   4.700  15.302  0.4552  0.1298  0.0632
   62TCq2    C8  950   1.228   0.194  15.386 -0.4045 -0.1938  0.2534
   62TCq2    O4  951   1.179   0.306  15.384 -0.0911  0.8006 -0.4834
   62TCq2    C9  952   0.771   0.069  15.342  0.0165  0.6517 -1.1467
   62TCq2    O5  953   0.684   4.729  15.283 -0.2682  0.2734 -0.0061
   62TCq2    O6  954   0.745   0.170  15.412  0.2098  0.4857  0.3763
   62TCq2    H2  955   0.880   4.577  15.213 -1.2604  0.8236  0.2306
   62TCq2    H3  956   0.975   0.204  15.432  0.0496 -1.0491  1.3245
   62TCq2    H4  957   1.284   4.669  15.299  0.8225  1.3487 -0.1741
   63TMC2    C1  958   0.421   0.327  10.372  0.2598 -0.7141  0.1490
   63TMC2    C2  959   0.545   0.323  10.434  0.6953  0.3331 -0.0501
   63TMC2    C3  960   0.613   0.438  10.454  0.7965  0.2649 -0.0269
   63TMC2    C4  961   0.363   0.440  10.333  0.2851  0.3788 -0.0767
   63TMC2    C5  962   0.446   0.556  10.341  1.0427  0.5570  0.3874
   63TMC2    C6  963   0.568   0.559  10.402 -0.7815  0.0216  0.0562
   63TMC2     C  964   0.364   0.197  10.325  0.5387  0.2631  0.3290
   63TMC2     O  965   0.275   0.185  10.246  0.1504  0.0506  0.7632
   63TMC2     H  966   0.595   0.227  10.447 -3.1167 -1.6739 -0.1303
   63TMC2    H1  967   0.264   0.453  10.290  0.1371 -1.2754 -0.2400
   63TMC2    H2  968   0.623   0.648  10.429  0.0117 -0.7891  1.0900
   63TMC2    C7  969   0.392   0.686  10.306 -0.2039  0.0079  0.7685
   63TMC2    C8  970   0.721   0.445  10.553 -0.2250 -0.0609 -0.6332
   63TMC2    O1  971   0.272   0.706  10.311 -0.3372 -0.0278  0.1518
   63TMC2    O2  972   0.819   0.521  10.546 -0.1815 -0.4842  0.0517
   63TMC2    O5  973   0.698   0.366  10.658 -0.1639  0.5760  0.0004
   63TMC2    H5  974   0.615   0.314  10.653  1.2820 -1.8388  1.2020
   64MPD2     C  975   0.331   4.420  10.402  0.4676  0.0451  0.4868
   64MPD2    C1  976   0.410   4.467  10.505  0.3434  0.0772 -0.2302
   64MPD2    C2  977   0.437   4.606  10.507  0.1430  0.0537  0.1074
   64MPD2    C3  978   0.380   4.685  10.413  0.0906 -0.5687  0.6657
   64MPD2    C4  979   0.296   4.634  10.317 -0.0218  0.3573 -0.6910
   64MPD2    C5  980   0.269   4.500  10.306 -0.0324 -0.3846  0.0821
   64MPD2     H  981   0.513   4.638  10.578  2.2096  0.8384 -2.4864
   64MPD2    H1  982   0.247   4.695  10.241  1.7512  2.6693  0.0550
   64MPD2    H2  983   0.293   4.318  10.400  1.7551 -0.3941 -0.7744
   64MPD2    H3  984   0.200   4.465  10.231 -2.6296 -0.0204  2.2907
   64MPD2     N  985   0.409   0.100  10.411  0.2364 -0.5265  0.0144
   64MPD2    H5  986   0.472   0.124  10.487  0.0303  0.5341 -0.1486
   64MPD2    N1  987   0.468   4.380  10.608 -0.4615  0.0034 -0.2863
   64MPD2    H7  988   0.526   4.428  10.676 -0.6602 -1.8900  1.2287
   65MPD2     C  989   1.784   4.152  15.826 -0.8286  0.2559 -0.4604
   65MPD2    C1  990   1.751   4.103  15.701  1.3816  0.6682  0.9750
   65MPD2    C2  991   1.816   3.990  15.657  0.0218 -0.8842  0.3127
   65MPD2    C3  992   1.914   3.932  15.736  0.1830 -0.0235 -0.6699
   65MPD2    C4  993   1.950   3.986  15.854  0.9045 -0.0225  0.1761
   65MPD2    C5  994   1.883   4.096  15.895 -0.4562  0.2688  0.2358
   65MPD2     H  995   1.791   3.957  15.557 -1.3934 -0.2507  0.4489
   65MPD2    H1  996   2.029   3.949  15.918 -0.4397 -2.0724  0.6386
   65MPD2    H2  997   1.764   4.254  15.858 -2.2471  0.4340 -1.9024
   65MPD2    H3  998   1.926   4.139  15.985  3.6087 -2.5628 -0.3069
   65MPD2     N  999   1.973   3.809  15.690  0.4176 -0.1630  0.1496
   65MPD2    H5 1000   2.040   3.773  15.757  2.2372  0.3577 -1.4123
   65MPD2    N1 1001   1.662   4.167  15.611 -0.0203 -0.4152 -0.3004
   65MPD2    H7 1002   1.637   4.115  15.527  1.6420 -0.4326 -0.7878
   66TCq2    C1 1003   1.595   4.284  15.640  0.8241  0.0443 -0.0365
   66TCq2    O2 1004   1.636   4.370  15.717  0.1224 -0.1791 -0.9545
   66TCq2    C2 1005   1.470   4.301  15.571 -0.1645 -0.7155  0.1828
   66TCq2    C3 1006   1.427   4.236  15.458  0.5663 -0.8939  0.5846
   66TCq2    C4 1007   1.299   4.247  15.412 -0.4300  0.2506  0.4927
   66TCq2    C5 1008   1.214   4.325  15.472 -0.2604  0.1543  0.7496
   66TCq2    C6 1009   1.258   4.406  15.575  0.3571  1.0603 -0.1447
   66TCq2    C7 1010   1.388   4.390  15.623  0.5607  0.1318  0.4516
   66TCq2    C8 1011   1.172   4.512  15.630  0.4102 -0.3499  0.2102
   66TCq2    O4 1012   1.057   4.507  15.599  0.3470 -0.1806 -0.3522
   66TCq2    C9 1013   1.254   4.161  15.307  0.0398 -0.3348 -0.5236
   66TCq2    O5 1014   1.131   4.132  15.310 -0.2427  0.7759  0.0356
   66TCq2    O6 1015   1.328   4.110  15.221 -0.0183  0.3152  0.5153
   66TCq2    H2 1016   1.493   4.163  15.412 -0.9695 -1.8037 -0.1566
   66TCq2    H3 1017   1.116   4.341  15.428 -0.1378  0.9771  0.7734
   66TCq2    H4 1018   1.421   4.458  15.700  0.6358  0.4057  0.1798
   67MPD2     C 1019   2.175   3.582  13.979  0.1952 -0.0905 -0.2476
   67MPD2    C1 1020   2.096   3.623  14.083 -0.5972  0.4404 -0.2016
   67MPD2    C2 1021   1.963   3.626  14.063 -0.6350 -0.0179 -0.0242
   67MPD2    C3 1022   1.906   3.567  13.953 -0.7107 -1.2303 -0.6440
   67MPD2    C4 1023   1.983   3.516  13.852 -0.3351 -0.0435 -0.0045
   67MPD2    C5 1024   2.118   3.520  13.872 -0.2148  0.4313 -0.4382
   67MPD2     H 1025   1.892   3.670  14.133  1.5899 -1.6928  3.2758
   67MPD2    H1 1026   1.936   3.463  13.770  1.3849 -1.1559 -0.2807
   67MPD2    H2 1027   2.283   3.588  13.985  0.2004  0.1317 -0.6029
   67MPD2    H3 1028   2.179   3.477  13.793  1.1905  1.9520 -0.1602
   67MPD2     N 1029   1.766   3.572  13.928  0.1810  0.0527 -0.3795
   67MPD2    H5 1030   1.724   3.572  13.835 -2.4331 -1.3495  0.7888
   67MPD2    N1 1031   2.156   3.684  14.193  0.0004 -0.0194 -0.5728
   67MPD2    H7 1032   2.100   3.724  14.267  0.2780  0.1041 -0.4259
   68TCq2    C1 1033   2.289   3.659  14.226  0.0653  1.0567 -0.2775
   68TCq2    O2 1034   2.371   3.571  14.198  0.2107  0.9125  0.6626
   68TCq2    C2 1035   2.321   3.723  14.357  0.1721 -0.4561 -0.2253
   68TCq2    C3 1036   2.251   3.841  14.382  0.1801  0.0570 -0.8771
   68TCq2    C4 1037   2.256   3.897  14.511  0.2200  0.2589 -0.0694
   68TCq2    C5 1038   2.332   3.841  14.610 -0.1558 -0.3208  0.0141
   68TCq2    C6 1039   2.411   3.729  14.580 -0.4345 -0.5277  0.2239
   68TCq2    C7 1040   2.409   3.674  14.451 -0.5635  0.4917  0.3492
   68TCq2    C8 1041   2.512   3.677  14.679  0.2172 -0.5403 -0.5238
   68TCq2    O4 1042   2.603   3.613  14.637 -0.4212  0.1006  0.0682
   68TCq2    C9 1043   2.186   4.022  14.534 -0.5066 -0.4492 -0.8958
   68TCq2    O5 1044   2.154   4.061  14.651 -0.0643 -0.0012  0.5040
   68TCq2    O6 1045   2.133   4.074  14.432 -0.1452 -0.4080  0.1800
   68TCq2    H2 1046   2.192   3.893  14.307 -2.4202 -1.8555 -0.1663
   68TCq2    H3 1047   2.331   3.890  14.707 -2.9268  0.8424 -0.6031
   68TCq2    H4 1048   2.467   3.591  14.413 -0.6082 -0.5398  2.5265
   69TMC2    C1 1049   4.201   0.503  12.616 -0.6297  0.2478  0.6618
   69TMC2    C2 1050   4.111   0.612  12.589 -1.2074 -0.0873  0.4636
   69TMC2    C3 1051   4.095   0.647  12.454 -0.2901 -0.0687 -0.4928
   69TMC2    C4 1052   4.269   0.444  12.509 -0.0581  0.2080 -0.1886
   69TMC2    C5 1053   4.245   0.490  12.384 -0.3622 -0.2109 -0.3340
   69TMC2    C6 1054   4.156   0.588  12.347 -0.6620  0.5464 -0.3759
   69TMC2     C 1055   4.174   0.446  12.743  0.3734 -0.4955 -0.6784
   69TMC2     O 1056   4.062   0.453  12.796 -0.0397 -0.2315 -0.8208
   69TMC2     H 1057   4.065   0.668  12.669 -1.9753 -1.7055  1.1503
   69TMC2    H1 1058   4.343   0.370  12.538  1.2362  1.0767 -1.2906
   69TMC2    H2 1059   4.182   0.647  12.260  0.4124 -0.1225 -0.5078
   69TMC2    C7 1060   4.268   0.395  12.278  0.0585  0.2675  0.0764
   69TMC2    C8 1061   4.036   0.776  12.438 -0.2182  0.8101  0.1839
   69TMC2    O1 1062   4.364   0.324  12.294 -0.2939  0.2502  0.0805
   69TMC2    O2 1063   4.010   0.847  12.536 -0.3929 -0.6163  0.3365
   69TMC2    O5 1064   3.981   0.796  12.311 -0.1020  0.1796  0.0769
   69TMC2    H5 1065   4.007   0.725  12.248 -1.6355 -0.6829  0.4141
   70MPD2     C 1066   4.429   0.288  12.961 -0.5460 -0.0501  0.3379
   70MPD2    C1 1067   4.309   0.308  12.900 -0.4739  0.2277  0.7896
   70MPD2    C2 1068   4.199   0.233  12.947 -0.6226 -0.2251  0.0095
   70MPD2    C3 1069   4.223   0.133  13.045  0.4036 -0.2121 -0.0243
   70MPD2    C4 1070   4.350   0.109  13.095 -0.2257 -0.1568 -0.2760
   70MPD2    C5 1071   4.450   0.191  13.055  0.1596  0.2698 -0.3589
   70MPD2     H 1072   4.099   0.243  12.907  0.2917  1.7333 -1.7875
   70MPD2    H1 1073   4.372   0.042  13.178 -0.9053 -0.1222 -0.0669
   70MPD2    H2 1074   4.511   0.357  12.944 -2.0757  1.2599 -1.8185
   70MPD2    H3 1075   4.548   0.176  13.098 -1.6388 -4.7861  1.9760
   70MPD2     N 1076   4.114   0.043  13.088  0.9862  0.1523  0.6943
   70MPD2    H5 1077   4.141   4.692  13.144  1.9121  0.6478  0.9524
   70MPD2    N1 1078   4.300   0.400  12.791 -0.0256 -0.2880 -0.0725
   70MPD2    H7 1079   4.389   0.426  12.750 -0.1365  2.5599  1.4616
   71TMC2    C1 1080   0.213   4.155   0.902  0.1229  0.0636  0.2268
   71TMC2    C2 1081   0.270   4.030   0.934 -0.2756 -0.2811 -0.4191
   71TMC2    C3 1082   0.178   3.939   0.977  0.2342  0.2992 -0.5403
   71TMC2    C4 1083   0.080   4.178   0.902  0.1044  0.1345  0.8523
   71TMC2    C5 1084   4.723   4.087   0.944 -0.5272  0.3116 -0.3215
   71TMC2    C6 1085   0.042   3.966   0.984 -1.5651  0.3985  0.1791
   71TMC2     C 1086   0.304   4.271   0.892 -0.1094 -1.0565 -0.1805
   71TMC2     O 1087   0.257   4.359   0.829  0.1770  1.1585  0.2574
   71TMC2     H 1088   0.373   4.003   0.918  0.4247  0.1500  3.3885
   71TMC2    H1 1089   0.048   4.279   0.882 -0.8576 -0.6544 -1.5839
   71TMC2    H2 1090   4.713   3.881   1.017 -0.1162 -0.6190  0.0856
   71TMC2    C7 1091   4.592   4.125   0.999  0.1889 -0.0914  0.8903
   71TMC2    C8 1092   0.227   3.814   1.010 -0.4344  0.5216  0.0801
   71TMC2    O1 1093   4.560   4.058   1.097 -0.0915  0.3944 -0.0683
   71TMC2    O2 1094   0.158   3.715   0.995  0.0045  0.4923 -0.7705
   71TMC2    O5 1095   0.295   3.828   1.122  0.4566  0.2405  0.5270
   71TMC2    H5 1096   0.341   3.914   1.127  0.3286  0.3283  0.1995
   72MPD2     C 1097   0.752   4.518   1.025  0.7469  0.0813  0.2720
   72MPD2    C1 1098   0.657   4.562   0.930 -0.4843 -0.7787  0.5912
   72MPD2    C2 1099   0.540   4.483   0.905 -0.5829 -0.8865  0.0384
   72MPD2    C3 1100   0.522   4.359   0.972  0.4940  0.2293 -0.3965
   72MPD2    C4 1101   0.623   4.316   1.062 -0.8383  0.3324  0.1693
   72MPD2    C5 1102   0.730   4.400   1.086 -0.2774  0.8844 -0.3628
   72MPD2     H 1103   0.467   4.519   0.834 -0.0088 -1.2567 -0.7427
   72MPD2    H1 1104   0.617   4.219   1.111 -0.0666  0.5241  0.6479
   72MPD2    H2 1105   0.849   4.564   1.041  0.9564 -0.1824 -0.2247
   72MPD2    H3 1106   0.805   4.366   1.156 -0.3721  3.4580  0.9767
   72MPD2     N 1107   0.422   4.263   0.961 -0.6172 -0.0435 -0.0069
   72MPD2    H5 1108   0.439   4.173   1.005 -0.0117  0.0919  0.0315
   72MPD2    N1 1109   0.676   4.684   0.866  0.0702 -0.5069 -0.1896
   72MPD2    H7 1110   0.608   4.703   0.792  0.5256 -0.8659 -0.7048
   73TMC2    C1 1111   1.490   2.104  14.028 -0.5052 -0.1180  0.1229
   73TMC2    C2 1112   1.451   2.180  14.137 -0.8325 -0.1806  0.0133
   73TMC2    C3 1113   1.527   2.161  14.256 -0.4585 -0.2309 -0.0235
   73TMC2    C4 1114   1.594   2.017  14.039 -0.2937 -0.7587  0.6530
   73TMC2    C5 1115   1.660   1.998  14.149  0.2332 -0.4101  0.0128
   73TMC2    C6 1116   1.618   2.064  14.260 -0.0339  0.0366  0.0098
   73TMC2     C 1117   1.499   2.187  13.913 -0.1833  0.4542 -0.3971
   73TMC2     O 1118   1.612   2.190  13.866 -0.1016  0.1635  0.2913
   73TMC2     H 1119   1.364   2.245  14.143 -0.8117 -0.1080 -0.4433
   73TMC2    H1 1120   1.635   1.967  13.952 -1.0591 -1.5619  0.7557
   73TMC2    H2 1121   1.667   2.032  14.352 -1.9931 -0.6131  0.8240
   73TMC2    C7 1122   1.807   2.015  14.129 -0.1273  0.0943 -0.3967
   73TMC2    C8 1123   1.494   2.231  14.380  0.1076  0.1081  0.0431
   73TMC2    O1 1124   1.882   1.968  14.214  0.4352  0.3065  0.7421
   73TMC2    O2 1125   1.525   2.189  14.488  0.7431 -0.2671  0.1695
   73TMC2    O5 1126   1.439   2.349  14.347  0.1285  0.3224  0.0772
   73TMC2    H5 1127   1.420   2.364  14.252 -1.1911  2.1836  0.6330
   74MPD2     C 1128   1.380   2.585  13.616  0.2314 -0.1586  0.2706
   74MPD2    C1 1129   1.501   2.554  13.678  0.6449 -0.0584  0.7177
   74MPD2    C2 1130   1.501   2.445  13.768  0.4995  0.4226  0.2628
   74MPD2    C3 1131   1.385   2.376  13.802  0.5013  0.5037 -0.2230
   74MPD2    C4 1132   1.266   2.415  13.747  0.2439 -0.7394 -0.0744
   74MPD2    C5 1133   1.262   2.517  13.654  0.5387 -0.6358 -0.4451
   74MPD2     H 1134   1.594   2.421  13.817  0.6743  0.0027 -0.2729
   74MPD2    H1 1135   1.182   2.353  13.774 -1.5888  2.6589  2.0698
   74MPD2    H2 1136   1.373   2.659  13.538  2.9786  0.7015  0.8541
   74MPD2    H3 1137   1.169   2.549  13.608  0.1218 -0.0215  0.8149
   74MPD2     N 1138   1.385   2.259  13.884  0.2644  0.1945  0.0600
   74MPD2    H5 1139   1.302   2.229  13.935  0.6861 -0.7065  0.2300
   74MPD2    N1 1140   1.614   2.634  13.645  0.2235 -0.1250 -0.1994
   74MPD2    H7 1141   1.600   2.703  13.572 -0.9320  0.7613  0.8537
   75TCq2    C1 1142   1.678   3.576  14.037 -0.3646 -0.3490 -0.5235
   75TCq2    O2 1143   1.697   3.566  14.157 -0.5203 -0.0372 -0.8203
   75TCq2    C2 1144   1.537   3.579  13.998  0.1640  0.3107 -0.8103
   75TCq2    C3 1145   1.437   3.540  14.090 -0.4888  0.2116  0.0650
   75TCq2    C4 1146   1.305   3.572  14.079 -0.8248 -0.2352  0.1739
   75TCq2    C5 1147   1.260   3.640  13.965 -0.0273 -0.0189 -0.2230
   75TCq2    C6 1148   1.353   3.694  13.885 -0.3047  0.5225  0.4167
   75TCq2    C7 1149   1.491   3.662  13.894  0.4145  1.0250  0.0854
   75TCq2    C8 1150   1.297   3.771  13.778  0.3000 -0.0975  0.5127
   75TCq2    O4 1151   1.352   3.771  13.667  0.6668 -0.4031  0.3802
   75TCq2    C9 1152   1.202   3.518  14.171 -0.4281  0.3266  0.4913
   75TCq2    O5 1153   1.239   3.432  14.253 -0.5104  0.6978  0.2652
   75TCq2    O6 1154   1.083   3.558  14.166 -0.0245 -0.1845  0.0565
   75TCq2    H2 1155   1.472   3.478  14.171  0.7486  0.5827 -0.1797
   75TCq2    H3 1156   1.153   3.657  13.951  0.2646  0.1690 -2.2269
   75TCq2    H4 1157   1.560   3.710  13.825  1.4856 -0.0043  0.4271
   76MPD2     C 1158   0.506   4.718  11.924 -0.2515 -0.6178  0.1718
   76MPD2    C1 1159   0.423   4.632  11.858  0.2726 -0.3767 -0.0170
   76MPD2    C2 1160   0.464   4.500  11.854  0.0565  0.1943  0.0731
   76MPD2    C3 1161   0.584   4.457  11.902  0.3815 -0.3735 -0.1731
   76MPD2    C4 1162   0.667   4.547  11.967 -0.4054 -0.5022  0.3499
   76MPD2    C5 1163   0.626   4.680  11.979 -0.2633  0.0585 -0.9062
   76MPD2     H 1164   0.399   4.433  11.800  0.9527 -0.8243  0.2570
   76MPD2    H1 1165   0.759   4.513  12.013 -1.1173 -2.6403  0.1539
   76MPD2    H2 1166   0.494   0.097  11.934  1.4763 -0.4073  0.1031
   76MPD2    H3 1167   0.701   0.025  12.002 -0.0902 -1.0372  2.0969
   76MPD2     N 1168   0.630   4.326  11.929 -0.1778  0.0380 -0.9960
   76MPD2    H5 1169   0.728   4.323  11.955 -0.7993 -1.0855  1.1863
   76MPD2    N1 1170   0.292   4.667  11.801  0.4128 -0.0080 -0.3713
   76MPD2    H7 1171   0.244   4.599  11.744  1.0761  0.4113 -1.4406
   77TCq2    C1 1172   0.560   4.210  11.907 -0.2992 -0.1081  0.2529
   77TCq2    O2 1173   0.456   4.195  11.845 -0.1727 -0.0364 -0.1079
   77TCq2    C2 1174   0.649   4.097  11.938 -0.5331 -0.0624 -0.5538
   77TCq2    C3 1175   0.606   3.978  11.899 -0.0678  1.0378  0.1305
   77TCq2    C4 1176   0.674   3.859  11.922 -0.1780  0.0943 -0.0660
   77TCq2    C5 1177   0.785   3.855  11.996  0.0979 -0.6375 -0.2328
   77TCq2    C6 1178   0.826   3.975  12.051  1.2461 -0.0042  0.3916
   77TCq2    C7 1179   0.763   4.095  12.023  0.6369 -0.1547  0.3641
   77TCq2    C8 1180   0.924   3.973  12.154  0.4041 -0.4004  0.3196
   77TCq2    O4 1181   0.919   4.071  12.235  0.2190  0.0442  0.3521
   77TCq2    C9 1182   0.618   3.729  11.886  0.8389 -0.6447 -0.7795
   77TCq2    O5 1183   0.507   3.738  11.829  0.0559 -0.4440 -0.0188
   77TCq2    O6 1184   0.694   3.628  11.888  0.2844  0.0040  0.5609
   77TCq2    H2 1185   0.512   3.976  11.845  1.0073  3.0580 -1.8421
   77TCq2    H3 1186   0.840   3.763  12.013 -0.6342 -0.7451  1.6116
   77TCq2    H4 1187   0.799   4.185  12.071  0.8150 -0.5359  0.9414
   78MPD1     C 1188   1.152   0.032   0.814  0.4942 -0.0161  0.9708
   78MPD1    C1 1189   1.182   0.134   0.899  0.4730 -0.5966  0.0184
   78MPD1    C2 1190   1.311   0.165   0.933  0.1262  0.2438 -0.0727
   78MPD1    C3 1191   1.416   0.086   0.896 -0.5146 -0.3883 -0.1290
   78MPD1    C4 1192   1.391   4.704   0.823 -0.8708  0.3261  0.1208
   78MPD1    C5 1193   1.258   4.684   0.789 -0.2248 -0.7480  0.2525
   78MPD1     H 1194   1.327   0.265   0.972 -0.0746  0.1421  0.2756
   78MPD1    H1 1195   1.468   4.635   0.791  0.3321  1.3970  0.6979
   78MPD1    H2 1196   1.059   0.008   0.763  1.3905 -0.6687 -0.3451
   78MPD1    H3 1197   1.228   4.594   0.737 -0.3237 -0.8296  0.4509
   78MPD1     N 1198   1.551   0.123   0.915 -0.1123  0.0095 -0.5838
   78MPD1    H5 1199   1.625   0.073   0.867 -0.7750 -1.0781 -0.4708
   78MPD1    N1 1200   1.081   0.224   0.932  0.1584  0.2996 -0.0387
   78MPD1    H6 1201   0.991   0.180   0.948  0.5998 -0.3822  0.6312
   78MPD1    H7 1202   1.105   0.276   1.016  1.0079  2.4257 -1.5970
   79TCq2    C1 1203   1.601   0.235   0.981 -0.0491 -0.3323 -0.9089
   79TCq2    O2 1204   1.537   0.325   1.039 -0.0295  0.0554 -0.1730
   79TCq2    C2 1205   1.745   0.258   0.970  0.4343 -0.0675 -0.0784
   79TCq2    C3 1206   1.824   0.156   0.941  0.1607  0.4752  0.1070
   79TCq2    C4 1207   1.949   0.189   0.916  1.0859  0.3115 -0.1748
   79TCq2    C5 1208   1.992   0.321   0.905  0.5334 -0.6259  0.3640
   79TCq2    C6 1209   1.911   0.424   0.942  0.5417  0.0942  0.2037
   79TCq2    C7 1210   1.785   0.394   0.978 -0.8671  0.2434 -0.1794
   79TCq2    C8 1211   1.971   0.547   0.989 -0.6813  0.0206 -0.0397
   79TCq2    O4 1212   2.086   0.580   0.966 -0.8839 -0.0782 -0.7895
   79TCq2    C9 1213   2.050   0.091   0.899  0.2268  0.4846 -0.6324
   79TCq2    O5 1214   2.160   0.100   0.954 -0.3589  0.5668  0.1966
   79TCq2    O6 1215   2.008   4.706   0.863  0.1140 -0.2658  0.3353
   79TCq2    H2 1216   1.789   0.056   0.959  1.4119 -0.1885 -1.1587
   79TCq2    H3 1217   2.097   0.343   0.891  0.5882 -1.2132 -0.1416
   79TCq2    H4 1218   1.718   0.477   0.996 -0.9472 -0.1403  1.2940
   80MPD2     C 1219   4.532   4.377  12.386 -0.5596  0.0677 -0.7769
   80MPD2    C1 1220   4.431   4.312  12.320  0.7884 -0.1631  0.2069
   80MPD2    C2 1221   4.302   4.329  12.377 -0.9308  0.1400  0.4707
   80MPD2    C3 1222   4.289   4.394  12.496 -0.0386 -0.3261 -0.3150
   80MPD2    C4 1223   4.404   4.439  12.568 -0.4554 -0.8116 -0.1495
   80MPD2    C5 1224   4.523   4.434  12.509  0.3270  0.3564  0.6524
   80MPD2     H 1225   4.218   4.279  12.329 -0.7085 -0.5296  0.7819
   80MPD2    H1 1226   4.387   4.494  12.660 -1.9826  1.5698 -1.8546
   80MPD2    H2 1227   4.626   4.378  12.331 -0.1437  1.7639 -0.0191
   80MPD2    H3 1228   4.614   4.478  12.549  0.2174  1.4034 -0.2469
   80MPD2     N 1229   4.168   4.407  12.568  0.6539  0.3939  0.4138
   80MPD2    H5 1230   4.171   4.434  12.665  2.4141 -0.6394  0.6593
   80MPD2    N1 1231   4.445   4.250  12.193  0.8675 -0.0072  0.6413
   80MPD2    H7 1232   4.362   4.202  12.159  0.1569  0.4679  1.6836
   81TCq2    C1 1233   4.550   4.269  12.108  0.3115  0.4439  0.2304
   81TCq2    O2 1234   4.639   4.348  12.115 -0.2648 -0.3476  0.3947
   81TCq2    C2 1235   4.547   4.193  11.988  0.5079  0.5858  0.0873
   81TCq2    C3 1236   4.638   4.222  11.890 -0.4141 -0.1851 -0.3496
   81TCq2    C4 1237   4.643   4.144  11.775 -0.2188 -0.0739  0.2346
   81TCq2    C5 1238   4.545   4.051  11.738 -0.7663  0.2812 -0.2551
   81TCq2    C6 1239   4.441   4.041  11.827  0.6281 -0.3454  0.4668
   81TCq2    C7 1240   4.436   4.110  11.954 -0.2119  0.6993  0.0785
   81TCq2    C8 1241   4.339   3.945  11.789 -0.1273 -0.2451  0.1624
   81TCq2    O4 1242   4.347   3.910  11.670  0.4057  0.0055 -0.0605
   81TCq2    C9 1243   0.028   4.154  11.691 -0.1720  0.1218 -0.4877
   81TCq2    O5 1244   0.037   4.087  11.587  0.0331 -0.4483 -0.2655
   81TCq2    O6 1245   0.115   4.240  11.721  0.7594 -0.5226 -0.0568
   81TCq2    H2 1246   4.719   4.292  11.908 -0.6279 -0.0132 -0.0591
   81TCq2    H3 1247   4.541   4.010  11.637 -1.7698 -0.1375 -0.0337
   81TCq2    H4 1248   4.351   4.098  12.020 -0.1498 -2.4335 -0.3964
   82MPD2     C 1249   2.843   4.029  10.922 -0.0046 -0.2408 -0.0783
   82MPD2    C1 1250   2.751   3.935  10.870  0.0417  0.2268  0.0986
   82MPD2    C2 1251   2.779   3.803  10.878  0.2864 -0.5694 -0.5437
   82MPD2    C3 1252   2.884   3.756  10.957  0.5383  0.0498 -0.1059
   82MPD2    C4 1253   2.967   3.846  11.008 -0.9086 -0.5125  0.0644
   82MPD2    C5 1254   2.952   3.979  10.985 -0.7254  0.1555  0.7280
   82MPD2     H 1255   2.705   3.734  10.839 -0.3856 -0.6994  0.9496
   82MPD2    H1 1256   3.055   3.807  11.059 -0.8119 -2.6846 -1.7844
   82MPD2    H2 1257   2.838   4.132  10.891  3.3736  0.3523  1.4294
   82MPD2    H3 1258   3.023   4.054  11.019  0.2120  0.1728 -1.2838
   82MPD2     N 1259   2.919   3.620  10.972  0.0958 -0.6902  0.0468
   82MPD2    H5 1260   2.986   3.601  11.045 -1.6451 -0.3033  1.7407
   82MPD2    N1 1261   2.641   3.996  10.801 -0.9459  0.0812 -0.3654
   82MPD2    H7 1262   2.638   4.096  10.785 -0.9567  0.5298  2.4288
   83TCq2    C1 1263   2.873   3.507  10.910 -0.1097 -0.1129  0.0091
   83TCq2    O2 1264   2.803   3.491  10.813 -0.2563  0.0987 -0.6183
   83TCq2    C2 1265   2.916   3.397  10.987  0.0071 -0.1511 -0.0949
   83TCq2    C3 1266   3.032   3.414  11.060  0.5496 -0.0808 -0.5605
   83TCq2    C4 1267   3.047   3.317  11.157 -0.1786 -0.5520  0.3579
   83TCq2    C5 1268   2.945   3.237  11.193 -0.1330 -0.4427  0.1371
   83TCq2    C6 1269   2.836   3.219  11.112 -0.2054 -0.2580  0.4209
   83TCq2    C7 1270   2.814   3.309  11.006 -0.0829  0.9422 -0.8030
   83TCq2    C8 1271   2.727   3.152  11.170  0.4563  0.0459 -0.2551
   83TCq2    O4 1272   2.734   3.152  11.293 -0.4407  0.2239 -0.2332
   83TCq2    C9 1273   3.178   3.304  11.222  0.7257  0.1917 -0.9960
   83TCq2    O5 1274   3.260   3.397  11.201  0.1567 -0.1038 -0.1038
   83TCq2    O6 1275   3.197   3.205  11.294  0.2624 -0.9782  0.1473
   83TCq2    H2 1276   3.114   3.479  11.033  0.0453  0.7952  0.0139
   83TCq2    H3 1277   2.950   3.163  11.272  2.1411 -0.8461 -0.3943
   83TCq2    H4 1278   2.719   3.311  10.955 -1.4907 -0.8956  1.7475
   84TCq2    C1 1279   3.872   2.154  10.506 -0.1531  0.0174  0.6740
   84TCq2    O2 1280   3.763   2.107  10.542 -0.7335 -0.3573  0.0272
   84TCq2    C2 1281   3.949   2.249  10.588  0.4914  0.1171  0.8444
   84TCq2    C3 1282   4.085   2.264  10.567  0.3150 -1.1601  0.0575
   84TCq2    C4 1283   4.143   2.350  10.656 -0.6296 -0.0595  0.0667
   84TCq2    C5 1284   4.071   2.428  10.736 -0.2231 -0.0525  0.7328
   84TCq2    C6 1285   3.934   2.413  10.748  0.5030 -0.2053  0.0844
   84TCq2    C7 1286   3.871   2.315  10.681 -0.5162  0.4295 -0.2127
   84TCq2    C8 1287   3.878   2.487  10.860  0.0830 -0.4704  0.1071
   84TCq2    O4 1288   3.946   2.573  10.914 -0.4041  0.4352  0.4689
   84TCq2    C9 1289   4.287   2.351  10.654  0.6230 -0.2414  0.8504
   84TCq2    O5 1290   4.346   2.261  10.593  0.4102  0.2453 -0.7706
   84TCq2    O6 1291   4.337   2.459  10.695 -0.6423  0.2054 -0.2136
   84TCq2    H2 1292   4.144   2.195  10.508 -1.1382 -0.9378 -1.6375
   84TCq2    H3 1293   4.122   2.505  10.792 -1.2866  0.5558  0.8634
   84TCq2    H4 1294   3.763   2.308  10.679 -0.6676  2.7350 -1.2379
   85MPD2     C 1295   4.286   0.807  16.516  0.1380  0.8674  0.7836
   85MPD2    C1 1296   4.187   0.785  16.420  0.3010 -0.2051 -0.2006
   85MPD2    C2 1297   4.206   0.844  16.292 -0.1379  0.6165  0.0453
   85MPD2    C3 1298   4.319   0.919  16.261 -0.9246 -0.0868  0.4306
   85MPD2    C4 1299   4.418   0.939  16.355 -0.0605 -0.4873  0.2775
   85MPD2    C5 1300   4.393   0.888  16.482 -0.2662  0.4323 -0.7865
   85MPD2     H 1301   4.134   0.815  16.217 -1.5174 -0.9229  1.9587
   85MPD2    H1 1302   4.508   0.999  16.345  0.2581 -1.1983 -1.1024
   85MPD2    H2 1303   4.282   0.764  16.615  4.1948 -0.6416  0.2929
   85MPD2    H3 1304   4.467   0.909  16.559 -0.2975 -2.0469 -0.0825
   85MPD2     N 1305   4.336   0.970  16.123 -0.2656 -0.4755 -0.7744
   85MPD2    H5 1306   4.246   0.963  16.077  0.3578 -0.0370 -2.0461
   85MPD2    N1 1307   4.087   0.692  16.439 -0.1040  1.0417 -0.0344
   85MPD2    H7 1308   4.025   0.679  16.360 -0.3331  1.2363  0.1140
   86TCq2    C1 1309   4.455   1.024  16.074  0.1371 -0.4577 -0.4366
   86TCq2    O2 1310   4.567   1.017  16.114 -0.0487  0.1410 -0.2429
   86TCq2    C2 1311   4.431   1.078  15.947 -0.1861 -0.0581 -0.2419
   86TCq2    C3 1312   4.309   1.135  15.929  1.0868 -0.1017 -0.5956
   86TCq2    C4 1313   4.311   1.234  15.831  0.5467 -0.4439 -0.1273
   86TCq2    C5 1314   4.418   1.256  15.749  0.2102  0.3727  0.1248
   86TCq2    C6 1315   4.535   1.183  15.771 -0.0780  0.3910 -0.0211
   86TCq2    C7 1316   4.542   1.092  15.871 -0.7102  0.0536 -0.0077
   86TCq2    C8 1317   4.645   1.185  15.675  0.0097  0.4574  0.4216
   86TCq2    O4 1318   0.007   1.111  15.706  0.0086 -0.0313  0.0658
   86TCq2    C9 1319   4.185   1.306  15.808  0.5655  0.5223  0.3984
   86TCq2    O5 1320   4.076   1.261  15.857 -0.4802  0.4609  0.0818
   86TCq2    O6 1321   4.195   1.412  15.744 -0.3562  0.2683 -0.0748
   86TCq2    H2 1322   4.226   1.120  15.998  0.3737  2.7884 -0.8260
   86TCq2    H3 1323   4.403   1.326  15.667 -1.1090  0.3081  0.3016
   86TCq2    H4 1324   4.631   1.039  15.904 -1.0888 -0.2938  0.4705
   87MPD2     C 1325   1.297   3.369   0.674  0.1173  0.2987 -0.3974
   87MPD2    C1 1326   1.283   3.496   0.720  0.3944 -0.7956 -0.5723
   87MPD2    C2 1327   1.187   3.577   0.656  0.6141 -0.4606 -0.2512
   87MPD2    C3 1328   1.111   3.529   0.547  0.6757 -0.4608 -1.1962
   87MPD2    C4 1329   1.124   3.397   0.513 -0.5417  0.1393  0.2316
   87MPD2    C5 1330   1.213   3.320   0.581  0.7101 -0.3418 -0.4651
   87MPD2     H 1331   1.183   3.680   0.689 -1.2420 -1.1852  1.8290
   87MPD2    H1 1332   1.061   3.362   0.432  0.1865  0.2730 -0.3901
   87MPD2    H2 1333   1.373   3.303   0.714 -1.3938 -2.0322 -1.4008
   87MPD2    H3 1334   1.218   3.217   0.550 -1.7797 -0.7784  0.5935
   87MPD2     N 1335   1.016   3.612   0.473  0.1356 -0.4672  1.0869
   87MPD2    H5 1336   0.954   3.561   0.410 -0.4049 -0.6617  1.7750
   87MPD2    N1 1337   1.367   3.534   0.832  0.3232 -0.4330  0.4618
   87MPD2    H7 1338   1.447   3.478   0.861 -0.6462 -0.6937  2.5784
   88TCq2    C1 1339   1.331   3.644   0.911 -0.3513 -0.2283  0.0745
   88TCq2    O2 1340   1.218   3.699   0.915  0.4467 -0.5445  0.2646
   88TCq2    C2 1341   1.425   3.701   1.000 -0.0838  0.6533 -0.3703
   88TCq2    C3 1342   1.387   3.798   1.093  0.2492 -0.0156 -0.3304
   88TCq2    C4 1343   1.486   3.865   1.161 -0.3045  0.5195  0.4077
   88TCq2    C5 1344   1.617   3.846   1.131 -0.4870 -0.2860  0.0935
   88TCq2    C6 1345   1.650   3.757   1.026  0.3402 -0.1153  0.0458
   88TCq2    C7 1346   1.555   3.687   0.955 -0.0266  0.3437 -0.1540
   88TCq2    C8 1347   1.792   3.747   0.983 -1.4326  0.1228 -0.1094
   88TCq2    O4 1348   1.865   3.844   0.995  0.2621 -0.0689 -0.4200
   88TCq2    C9 1349   1.447   3.941   1.274 -0.6457 -0.2164 -0.5097
   88TCq2    O5 1350   1.537   3.966   1.364  0.3388  0.9115 -0.5131
   88TCq2    O6 1351   1.330   3.991   1.264 -0.2737 -0.0270  0.6317
   88TCq2    H2 1352   1.283   3.805   1.121  0.5888  0.0328  0.9317
   88TCq2    H3 1353   1.694   3.884   1.198  0.1076 -2.0042  0.3855
   88TCq2    H4 1354   1.577   3.639   0.860 -0.2157 -1.4306  0.7023
   89MPD2     C 1355   1.863   1.317   1.162  0.3865 -0.5729 -0.0246
   89MPD2    C1 1356   1.811   1.386   1.270  0.0054  0.3873  0.4902
   89MPD2    C2 1357   1.845   1.522   1.273 -0.7472  0.4454 -0.0148
   89MPD2    C3 1358   1.914   1.582   1.168  0.3533  0.5231 -0.6061
   89MPD2    C4 1359   1.969   1.512   1.066 -0.0493  0.8019 -0.1614
   89MPD2    C5 1360   1.949   1.382   1.071  0.3533  0.2955  0.6029
   89MPD2     H 1361   1.812   1.586   1.354  0.4815 -0.0926  0.9054
   89MPD2    H1 1362   2.017   1.563   0.983  1.3983  0.9275  0.7521
   89MPD2    H2 1363   1.854   1.210   1.151 -1.4364  0.1190 -5.1292
   89MPD2    H3 1364   2.001   1.316   1.002 -1.5330 -1.2705  0.6808
   89MPD2     N 1365   1.935   1.721   1.183  0.2804  0.3871  0.2017
   89MPD2    H5 1366   1.901   1.761   1.270  1.5666 -1.7683  1.6931
   89MPD2    N1 1367   1.717   1.329   1.367  0.0067 -0.1913 -0.2936
   89MPD2    H7 1368   1.697   1.390   1.445  1.9538  0.3877 -0.2357
   90TCq2    C1 1369   2.011   1.808   1.113 -0.1146 -0.0293 -0.2755
   90TCq2    O2 1370   2.094   1.791   1.018 -0.0021  0.3534 -0.2541
   90TCq2    C2 1371   1.983   1.942   1.164 -0.1332  0.3685 -0.7961
   90TCq2    C3 1372   1.888   1.968   1.264  0.1703  0.7062  0.0753
   90TCq2    C4 1373   1.893   2.095   1.317  0.0403 -0.3220 -0.5271
   90TCq2    C5 1374   1.986   2.185   1.284 -0.0194  0.5243  0.1173
   90TCq2    C6 1375   2.072   2.158   1.185  0.2633 -0.1350  0.1179
   90TCq2    C7 1376   2.069   2.037   1.120 -0.3079 -0.2331  0.4226
   90TCq2    C8 1377   2.159   2.267   1.139  0.5055  0.3670  0.3485
   90TCq2    O4 1378   2.161   2.363   1.212  0.3420 -0.1793  0.4474
   90TCq2    C9 1379   1.813   2.132   1.433  0.8089  0.1078 -0.6038
   90TCq2    O5 1380   1.862   2.231   1.500  0.5966  0.3026  0.2763
   90TCq2    O6 1381   1.721   2.058   1.472 -0.0129 -0.0076  0.2001
   90TCq2    H2 1382   1.811   1.897   1.291  1.0488 -0.1901  0.2015
   90TCq2    H3 1383   1.976   2.286   1.321 -2.9012  1.0574 -2.0767
   90TCq2    H4 1384   2.149   1.998   1.057  1.5761  1.7470  1.6009
   91TMC2    C1 1385   4.458   1.620  16.765  0.6724 -0.7508  0.8512
   91TMC2    C2 1386   4.500   1.701  16.656  0.0925 -0.0880 -0.8884
   91TMC2    C3 1387   4.399   1.786  16.609 -0.7561  0.0563 -0.6199
   91TMC2    C4 1388   4.338   1.638  16.816 -0.1003 -0.8897  0.2121
   91TMC2    C5 1389   4.242   1.722  16.757 -0.2981  0.3508  0.0397
   91TMC2    C6 1390   4.272   1.805  16.654  0.2855  0.0927 -0.5838
   91TMC2     C 1391   4.547   1.520  16.824  0.1678 -0.9394 -0.0325
   91TMC2     O 1392   4.496   1.416  16.862  0.4355 -0.4394  0.2163
   91TMC2     H 1393   4.592   1.676  16.604  0.2133  2.1791 -1.7257
   91TMC2    H1 1394   4.309   1.574  16.899 -0.8355  0.3146  0.8742
   91TMC2    H2 1395   4.202   1.878  16.615 -1.2810 -0.5132  1.0650
   91TMC2    C7 1396   4.099   1.699  16.792  0.2485  0.2046 -0.2422
   91TMC2    C8 1397   4.450   1.874  16.505  0.5054 -0.4864 -0.4890
   91TMC2    O1 1398   4.076   1.647  16.899  0.1198 -0.5112 -0.2823
   91TMC2    O2 1399   4.377   1.931  16.422  0.1114 -0.5933 -0.2138
   91TMC2    O5 1400   4.584   1.900  16.526  0.3279 -0.3262  0.2605
   91TMC2    H5 1401   4.621   1.870  16.612  1.8002  1.6715  0.3309
   92MPD2     C 1402   0.045   1.350  16.910 -0.3100 -0.4868 -0.0698
   92MPD2    C1 1403   0.059   1.476  16.846  0.0271  1.2315 -0.0235
   92MPD2    C2 1404   0.181   1.533  16.836 -0.3345 -0.5035 -1.1155
   92MPD2    C3 1405   0.296   1.467  16.888  1.6595 -0.4995 -0.3390
   92MPD2    C4 1406   0.281   1.356  16.967 -0.7335 -0.4212  0.2684
   92MPD2    C5 1407   0.154   1.299  16.977 -0.2442  0.8147 -0.9856
   92MPD2     H 1408   0.198   1.631  16.791  0.0746 -0.9241 -1.8845
   92MPD2    H1 1409   0.364   1.316  17.024 -0.9424 -0.3716  0.6091
   92MPD2    H2 1410   4.680   1.295  16.920  0.2486 -1.4202  0.0470
   92MPD2    H3 1411   0.133   1.214  17.041 -1.4021  1.0755 -1.0122
   92MPD2     N 1412   0.418   1.526  16.857  0.4175  0.3554  0.4456
   92MPD2    H5 1413   0.420   1.618  16.815 -2.0041  0.2950  0.2181
   92MPD2    N1 1414   4.679   1.554  16.808  0.4488 -0.6994 -0.1519
   92MPD2    H7 1415   4.699   1.639  16.755  0.2335  0.1792  1.1885
   93MPD2     C 1416   0.668   2.186  13.820 -0.0926 -0.2807 -1.3075
   93MPD2    C1 1417   0.673   2.096  13.714 -0.3972 -0.1835 -0.2132
   93MPD2    C2 1418   0.562   2.028  13.682  0.4303 -0.5722  0.4230
   93MPD2    C3 1419   0.441   2.054  13.742 -0.4245  0.0931 -0.3157
   93MPD2    C4 1420   0.431   2.144  13.843  0.1953  0.0381  0.2731
   93MPD2    C5 1421   0.550   2.193  13.887  0.6577 -0.0973 -0.3672
   93MPD2     H 1422   0.570   1.944  13.613 -2.3433 -1.1999  0.8747
   93MPD2    H1 1423   0.339   2.166  13.897 -0.1966 -3.6901  1.0982
   93MPD2    H2 1424   0.759   2.237  13.849 -0.5440  1.9530 -3.8830
   93MPD2    H3 1425   0.554   2.255  13.976 -1.1344 -0.1453 -0.2625
   93MPD2     N 1426   0.342   1.969  13.698 -0.4670 -0.1143 -0.1761
   93MPD2    H5 1427   0.381   1.897  13.639 -0.5528 -0.2515 -0.0633
   93MPD2    N1 1428   0.792   2.053  13.645 -0.8613 -0.4817  0.7688
   93MPD2    H7 1429   0.785   1.977  13.579  2.4672 -0.1778  0.0623
   94TCq2    C1 1430   0.912   2.114  13.651 -0.4115  0.7152  0.1129
   94TCq2    O2 1431   0.948   2.218  13.696  0.7590  0.3304  0.4735
   94TCq2    C2 1432   1.022   2.020  13.611 -0.3584  0.1533 -0.3059
   94TCq2    C3 1433   0.991   1.893  13.571 -0.0368 -0.0812 -0.3914
   94TCq2    C4 1434   1.089   1.812  13.530  0.3834 -0.4559 -0.8330
   94TCq2    C5 1435   1.213   1.859  13.533 -0.3801 -0.3999  1.3654
   94TCq2    C6 1436   1.249   1.983  13.571  0.1562  0.4129 -0.4743
   94TCq2    C7 1437   1.153   2.065  13.608  0.6773 -0.6045 -1.2819
   94TCq2    C8 1438   1.384   2.031  13.554  0.2062 -0.0684 -0.2928
   94TCq2    O4 1439   1.474   1.946  13.560  0.3579 -0.4065  0.4196
   94TCq2    C9 1440   1.060   1.669  13.512 -0.0865 -0.2506 -0.5291
   94TCq2    O5 1441   1.137   1.606  13.432 -0.4428 -0.3414 -0.3232
   94TCq2    O6 1442   0.975   1.618  13.588 -0.0802  0.1114  0.1706
   94TCq2    H2 1443   0.889   1.857  13.566 -0.3742  0.0355  5.3382
   94TCq2    H3 1444   1.283   1.784  13.498 -0.4881 -1.7903  4.0857
   94TCq2    H4 1445   1.174   2.168  13.632  0.3675 -0.8021 -0.1641
   95TMC2    C1 1446   1.784   3.048  16.284 -0.3351  0.4623  0.3842
   95TMC2    C2 1447   1.772   2.915  16.322 -0.5112  0.2082 -0.0804
   95TMC2    C3 1448   1.700   2.892  16.429  0.0153  0.4405  0.1917
   95TMC2    C4 1449   1.725   3.151  16.349  0.4026  0.4896  0.3538
   95TMC2    C5 1450   1.652   3.115  16.461 -0.5317 -0.3681  0.6017
   95TMC2    C6 1451   1.641   2.990  16.501  1.1919 -0.3374 -0.7029
   95TMC2     C 1452   1.880   3.090  16.185 -0.2116 -0.2401  0.2126
   95TMC2     O 1453   1.867   3.204  16.147 -0.1543 -0.2094  0.8680
   95TMC2     H 1454   1.816   2.833  16.265 -0.1733  1.7153 -2.0166
   95TMC2    H1 1455   1.745   3.256  16.329 -0.0804  0.2253 -1.4981
   95TMC2    H2 1456   1.576   2.960  16.582 -1.3106 -0.3612 -2.7233
   95TMC2    C7 1457   1.568   3.214  16.529 -0.4878 -0.2833  0.3385
   95TMC2    C8 1458   1.673   2.762  16.483 -0.0670  0.4908  0.0839
   95TMC2    O1 1459   1.523   3.179  16.637 -0.7437  0.3042  0.2867
   95TMC2    O2 1460   1.565   2.734  16.530 -0.1787  0.3437  0.3666
   95TMC2    O5 1461   1.748   2.675  16.403 -0.6895 -0.2300 -0.5584
   95TMC2    H5 1462   1.828   2.723  16.375 -0.5834  0.1224  0.3305
   96MPD2     C 1463   2.307   3.051  15.900 -0.5364 -0.2530 -0.8057
   96MPD2    C1 1464   2.201   3.145  15.891  0.7588  0.6938  0.4460
   96MPD2    C2 1465   2.093   3.122  15.978  1.0087  0.3193 -0.2327
   96MPD2    C3 1466   2.085   3.020  16.068  1.1504  0.3249  0.3174
   96MPD2    C4 1467   2.188   2.921  16.066  0.9622 -0.2670 -0.0930
   96MPD2    C5 1468   2.296   2.945  15.983  0.5077 -0.4989  0.0937
   96MPD2     H 1469   2.014   3.195  15.964 -1.5396 -1.9480  2.3797
   96MPD2    H1 1470   2.190   2.829  16.123  0.6515 -0.5262 -0.5072
   96MPD2    H2 1471   2.399   3.079  15.850 -0.3717  1.9178  0.7179
   96MPD2    H3 1472   2.377   2.873  15.987 -1.0959 -2.3295 -0.2616
   96MPD2     N 1473   1.973   2.999  16.157  0.1260 -0.2876 -0.4404
   96MPD2    H5 1474   1.979   2.917  16.217 -2.6081 -0.0431  0.1790
   96MPD2    N1 1475   2.219   3.256  15.812  0.0893  0.7602  0.4849
   96MPD2    H7 1476   2.306   3.265  15.760  0.6078  0.6021  1.3205
   97MPD2     C 1477   2.640   0.816   0.528  0.6057 -0.3271 -0.5157
   97MPD2    C1 1478   2.698   0.923   0.468 -0.5048  0.2698  0.2396
   97MPD2    C2 1479   2.804   0.899   0.383 -0.1483  0.0498 -0.4721
   97MPD2    C3 1480   2.858   0.769   0.370  0.0761  0.3669  0.3047
   97MPD2    C4 1481   2.789   0.656   0.418  0.6428 -0.3188  0.1513
   97MPD2    C5 1482   2.678   0.690   0.501  0.1229 -0.2690 -0.7154
   97MPD2     H 1483   2.854   0.980   0.332  0.2443  0.5770  0.7463
   97MPD2    H1 1484   2.837   0.560   0.412 -1.6734 -1.4549 -0.2553
   97MPD2    H2 1485   2.550   0.837   0.584  1.2464  1.9574 -0.3646
   97MPD2    H3 1486   2.630   0.610   0.555 -0.7403  0.3018 -0.6424
   97MPD2     N 1487   2.987   0.743   0.303  0.0502  0.4601 -0.0304
   97MPD2    H5 1488   3.032   0.652   0.300 -0.6490  0.1476 -0.8355
   97MPD2    N1 1489   2.640   1.054   0.498 -0.8281 -0.0827 -0.1110
   97MPD2    H7 1490   2.566   1.052   0.567  0.1339 -0.2042  0.9116
   98TCq2    C1 1491   3.071   0.845   0.267 -0.2706 -0.3191 -1.4596
   98TCq2    O2 1492   3.061   0.964   0.273 -0.5695  0.8975 -0.3649
   98TCq2    C2 1493   3.207   0.789   0.244  0.5925  0.0970  0.1081
   98TCq2    C3 1494   3.217   0.652   0.218  0.3215 -0.4861  0.7363
   98TCq2    C4 1495   3.334   0.587   0.244  0.1378 -1.1435 -0.4148
   98TCq2    C5 1496   3.445   0.649   0.281  0.1887  0.5854  0.1394
   98TCq2    C6 1497   3.434   0.782   0.302 -0.4672  0.0513  0.5699
   98TCq2    C7 1498   3.318   0.859   0.289 -0.7073 -0.0338 -0.6414
   98TCq2    C8 1499   3.551   0.860   0.328 -0.3061  0.4775  0.7833
   98TCq2    O4 1500   3.547   0.984   0.329 -0.1534 -0.4060 -0.0451
   98TCq2    C9 1501   3.337   0.450   0.212  0.6524 -0.1477  0.0243
   98TCq2    O5 1502   3.245   0.416   0.132 -0.2609 -0.0568  0.0628
   98TCq2    O6 1503   3.438   0.386   0.249 -0.0774  0.4080  0.3062
   98TCq2    H2 1504   3.126   0.612   0.175  0.8569 -0.3097 -0.5879
   98TCq2    H3 1505   3.541   0.598   0.287  0.5821  1.0849 -1.9641
   98TCq2    H4 1506   3.313   0.962   0.320  1.2798  0.3492 -1.5696
   99MPD2     C 1507   2.624   3.297   1.634  0.6131  0.0859 -0.4330
   99MPD2    C1 1508   2.543   3.236   1.538  0.5059  0.3947  0.3561
   99MPD2    C2 1509   2.613   3.173   1.439  0.2640 -0.0410 -0.0558
   99MPD2    C3 1510   2.757   3.162   1.438  0.4212  0.0599  0.1929
   99MPD2    C4 1511   2.832   3.227   1.536 -0.0615  0.2910  0.3416
   99MPD2    C5 1512   2.761   3.300   1.626 -0.6316  0.7026 -0.0188
   99MPD2     H 1513   2.566   3.133   1.350  0.5779 -1.1443  0.2766
   99MPD2    H1 1514   2.941   3.229   1.538 -0.0380 -0.1919 -0.3965
   99MPD2    H2 1515   2.578   3.351   1.717  3.8320 -0.5389  1.7626
   99MPD2    H3 1516   2.821   3.348   1.703  1.4192  0.7000 -1.6230
   99MPD2     N 1517   2.822   3.097   1.329 -0.2285  0.4575 -0.2588
   99MPD2    H5 1518   2.767   3.067   1.250 -1.1706 -1.9213  1.3083
   99MPD2    N1 1519   2.400   3.244   1.533 -0.4089  0.1952 -0.2219
   99MPD2    H7 1520   2.361   3.206   1.447 -3.3566  0.8416  0.8109
  100TCq2    C1 1521   2.326   3.303   1.630 -0.3202  1.2068  0.1208
  100TCq2    O2 1522   2.358   3.331   1.745 -1.1008 -0.2361 -0.2947
  100TCq2    C2 1523   2.184   3.291   1.601 -0.5864 -0.1375 -0.4850
  100TCq2    C3 1524   2.102   3.284   1.715  0.0025  0.4705  0.5858
  100TCq2    C4 1525   1.982   3.225   1.698 -0.2577 -0.2051  0.2322
  100TCq2    C5 1526   1.936   3.164   1.583 -1.0447 -0.6427  0.9051
  100TCq2    C6 1527   2.013   3.185   1.473  0.4356  0.4153  0.3318
  100TCq2    C7 1528   2.135   3.254   1.482  0.3925 -0.2271 -0.3093
  100TCq2    C8 1529   1.973   3.123   1.352  0.3049 -0.1286  0.0760
  100TCq2    O4 1530   2.053   3.132   1.261  0.3650 -0.2416 -0.9992
  100TCq2    C9 1531   1.886   3.236   1.807  0.5173  0.6055 -0.1952
  100TCq2    O5 1532   1.763   3.220   1.782 -0.0571 -0.3214  0.2447
  100TCq2    O6 1533   1.934   3.270   1.919 -0.3352  0.3269  0.1294
  100TCq2    H2 1534   2.135   3.325   1.810  0.0504 -0.9574  1.1762
  100TCq2    H3 1535   1.839   3.116   1.571 -1.2674 -0.1389  0.7074
  100TCq2    H4 1536   2.193   3.272   1.392  0.6088  1.2587  0.1306
  101MPD2     C 1537   2.973   4.354  13.074 -0.3630  0.6715  0.1662
  101MPD2    C1 1538   2.839   4.373  13.099  0.4879  0.1333  0.1979
  101MPD2    C2 1539   2.771   4.265  13.160  0.0455 -0.0951 -0.3459
  101MPD2    C3 1540   2.836   4.152  13.210  0.5418  0.3284  0.2365
  101MPD2    C4 1541   2.972   4.141  13.184  0.9897 -0.7618  0.5258
  101MPD2    C5 1542   3.034   4.244  13.119 -0.1835  1.0472 -0.5749
  101MPD2     H 1543   2.663   4.265  13.168  0.2347 -0.4396  2.1583
  101MPD2    H1 1544   3.046   4.071  13.222  1.6143 -0.4987 -0.2020
  101MPD2    H2 1545   3.040   4.421  13.021 -0.3195 -1.1280 -2.0362
  101MPD2    H3 1546   3.140   4.238  13.096  0.0222 -0.6269  0.8582
  101MPD2     N 1547   2.765   4.047  13.284 -0.1611 -0.0410 -0.1111
  101MPD2    H5 1548   2.666   4.065  13.297 -0.2854 -0.8450  0.0444
  101MPD2    N1 1549   2.777   4.493  13.047 -0.3880  0.4122  0.4262
  101MPD2    H7 1550   2.839   4.561  13.005  1.4990 -0.9675  0.9881
  102TCq2    C1 1551   2.811   0.217  12.885 -0.5239 -0.3644  0.4021
  102TCq2    O2 1552   2.922   0.170  12.909 -0.0545  0.7111 -0.7139
  102TCq2    C2 1553   2.698   0.154  12.951  0.3691  0.2280  0.5993
  102TCq2    C3 1554   2.569   0.198  12.929 -0.8257 -0.4139 -0.2585
  102TCq2    C4 1555   2.467   0.106  12.955 -0.4397  0.2093 -0.6459
  102TCq2    C5 1556   2.491   4.700  12.987  0.8849 -0.2191  0.8654
  102TCq2    C6 1557   2.620   4.658  13.008 -0.1976 -0.8728 -0.0079
  102TCq2    C7 1558   2.716   0.028  12.998  0.2514  0.3533  0.1561
  102TCq2    C8 1559   2.642   4.528  13.062 -0.0855 -0.7778 -0.3207
  102TCq2    O4 1560   2.543   4.465  13.091 -0.3159 -0.4328  0.3206
  102TCq2    C9 1561   2.333   0.139  12.947  0.5391  0.1467  0.2389
  102TCq2    O5 1562   2.249   0.044  12.961  0.5571  0.3558  0.3378
  102TCq2    O6 1563   2.299   0.254  12.898  0.0408 -0.3700 -0.3830
  102TCq2    H2 1564   2.536   0.297  12.898  0.0409  0.0067  0.1799
  102TCq2    H3 1565   2.410   4.627  12.991 -0.5563  1.4146  1.3453
  102TCq2    H4 1566   2.820   0.000  13.016  0.8251  0.5005 -3.0442
  103TMC2    C1 1567   1.335   4.151  12.670  0.2668 -0.0947 -0.4008
  103TMC2    C2 1568   1.440   4.223  12.619  0.6950 -0.3680  0.5115
  103TMC2    C3 1569   1.489   4.319  12.699  0.7876  0.2616  0.1541
  103TMC2    C4 1570   1.271   4.177  12.786 -0.4499  0.1258  0.0401
  103TMC2    C5 1571   1.324   4.283  12.854 -0.4468 -0.3289 -0.6600
  103TMC2    C6 1572   1.442   4.341  12.820  0.5229 -0.5485  0.1094
  103TMC2     C 1573   1.258   4.080  12.570  0.7309 -0.5425  0.0963
  103TMC2     O 1574   1.134   4.086  12.571  0.1132 -0.3109 -0.0515
  103TMC2     H 1575   1.483   4.203  12.522 -1.3504  1.8881 -0.8584
  103TMC2    H1 1576   1.190   4.109  12.807 -0.9107 -0.0923 -2.3995
  103TMC2    H2 1577   1.476   4.421  12.885  0.0081  1.0266 -1.5597
  103TMC2    C7 1578   1.266   4.317  12.986 -0.4835  0.5397  0.7811
  103TMC2    C8 1579   1.572   4.429  12.644 -0.4895  0.3735 -0.2442
  103TMC2    O1 1580   1.342   4.377  13.061 -0.7303  0.5125 -0.6739
  103TMC2    O2 1581   1.640   4.500  12.716  0.3429  0.0605  0.1847
  103TMC2    O5 1582   1.493   4.461  12.538  0.3551 -0.5033 -0.0061
  103TMC2    H5 1583   1.422   4.397  12.516  0.0131  0.0638 -0.5722
  104MPD2     C 1584   1.380   3.828  12.334  0.6923 -0.0010  0.4779
  104MPD2    C1 1585   1.297   3.927  12.380  0.4546  0.0544 -0.6016
  104MPD2    C2 1586   1.171   3.943  12.318 -0.3505 -0.4747 -0.1005
  104MPD2    C3 1587   1.139   3.868  12.204  0.0546 -0.3449 -0.3914
  104MPD2    C4 1588   1.231   3.773  12.161 -0.2953  0.0380 -0.2521
  104MPD2    C5 1589   1.353   3.759  12.218  0.3030  0.5502  0.2060
  104MPD2     H 1590   1.101   4.017  12.354 -0.4736 -0.7130  0.1497
  104MPD2    H1 1591   1.212   3.715  12.072  1.1704 -1.3583  0.3465
  104MPD2    H2 1592   1.473   3.796  12.381  0.5709  1.2442  1.5595
  104MPD2    H3 1593   1.412   3.674  12.185 -0.5988  0.3073 -0.7866
  104MPD2     N 1594   1.027   3.889  12.120  0.1117 -0.2842 -0.0419
  104MPD2    H5 1595   1.018   3.841  12.031 -0.0184 -0.6016  0.1407
  104MPD2    N1 1596   1.338   4.011  12.486  0.3474 -0.0225 -0.0624
  104MPD2    H7 1597   1.436   4.007  12.509  0.4191 -0.5842 -0.4454
  105MPD2     C 1598   3.047   3.691   0.127 -0.9087 -0.7324  0.3585
  105MPD2    C1 1599   2.913   3.680   0.099 -0.1883 -0.2509  0.7091
  105MPD2    C2 1600   2.821   3.697   0.200  0.1068  0.2512  0.6099
  105MPD2    C3 1601   2.858   3.758   0.317 -0.2426  0.6259  0.1785
  105MPD2    C4 1602   2.995   3.784   0.333  0.5786  0.0268  0.1024
  105MPD2    C5 1603   3.088   3.746   0.246 -0.2249 -0.9062 -0.0339
  105MPD2     H 1604   2.718   3.672   0.177 -0.2534  2.6505 -0.4377
  105MPD2    H1 1605   3.027   3.837   0.422 -3.7958  2.9726 -0.1040
  105MPD2    H2 1606   3.120   3.694   0.047 -0.2956  0.9212  0.9752
  105MPD2    H3 1607   3.186   3.792   0.248 -0.5709 -0.1970  0.9068
  105MPD2     N 1608   2.758   3.811   0.405 -0.8652 -0.7239 -0.4791
  105MPD2    H5 1609   2.660   3.790   0.388 -1.4977 -1.2562  3.7777
  105MPD2    N1 1610   2.877   3.636  17.685  0.1494 -0.5959  0.3843
  105MPD2    H7 1611   2.779   3.638  17.659 -0.5202  1.1584  3.0854
  106TCq2    C1 1612   2.786   3.885   0.521  0.8334  0.4093 -0.5936
  106TCq2    O2 1613   2.875   3.964   0.543  0.5947 -0.4915  0.2851
  106TCq2    C2 1614   2.658   3.912   0.583  0.4895  0.2426  0.1338
  106TCq2    C3 1615   2.625   4.036   0.639  0.0826 -0.6986  0.3641
  106TCq2    C4 1616   2.500   4.061   0.683  0.6996 -0.1862  0.5333
  106TCq2    C5 1617   2.408   3.958   0.696  0.3432 -0.5740  0.1734
  106TCq2    C6 1618   2.448   3.836   0.651  0.1217 -0.2563 -0.1237
  106TCq2    C7 1619   2.565   3.813   0.587  0.6567 -0.5594 -0.4738
  106TCq2    C8 1620   2.364   3.719   0.668  0.8057 -0.0445 -0.0509
  106TCq2    O4 1621   2.392   3.618   0.605  0.2179 -0.1477 -0.0157
  106TCq2    C9 1622   2.469   4.194   0.725  0.8601  0.0758  0.5518
  106TCq2    O5 1623   2.374   4.222   0.800 -0.3004  0.0370  0.5621
  106TCq2    O6 1624   2.524   4.283   0.651 -0.0796  0.4427  1.1493
  106TCq2    H2 1625   2.696   4.118   0.647 -0.3988 -0.4490  2.1022
  106TCq2    H3 1626   2.313   3.969   0.747  0.9058 -0.7903  1.2698
  106TCq2    H4 1627   2.590   3.716   0.545 -0.6310 -1.0856 -0.0108
  107TMC2    C1 1628   3.509   3.223  11.374  0.6522  0.0326  0.7622
  107TMC2    C2 1629   3.525   3.296  11.263  0.5841  0.2477 -0.0671
  107TMC2    C3 1630   3.553   3.227  11.144 -0.1731 -0.0075 -1.2404
  107TMC2    C4 1631   3.529   3.092  11.384  0.4027  0.4816 -0.4073
  107TMC2    C5 1632   3.565   3.026  11.265  0.0396 -0.0653  0.1630
  107TMC2    C6 1633   3.577   3.089  11.141  0.6989 -0.0922  0.5343
  107TMC2     C 1634   3.436   3.283  11.481 -0.4829 -0.3349  0.1239
  107TMC2     O 1635   3.399   3.205  11.567  0.2630  0.6181 -0.5663
  107TMC2     H 1636   3.504   3.402  11.251 -3.0213 -0.1541  2.8690
  107TMC2    H1 1637   3.484   3.031  11.462 -0.5314  1.5796 -0.0911
  107TMC2    H2 1638   3.601   3.045  11.045 -1.0669  0.0014  0.0334
  107TMC2    C7 1639   3.537   2.888  11.268 -0.3747  0.1640  0.1040
  107TMC2    C8 1640   3.542   3.295  11.017 -0.5185  0.1192  0.0772
  107TMC2    O1 1641   3.449   2.844  11.336  0.3798 -0.2645  0.8789
  107TMC2    O2 1642   3.599   3.257  10.915  0.0945  0.8111 -0.3877
  107TMC2    O5 1643   3.424   3.352  11.012 -0.2602 -0.3277  0.2114
  107TMC2    H5 1644   3.390   3.373  11.101  1.6225 -0.8854  1.0769
  108MPD2     C 1645   3.376   3.637  11.536 -0.1106  0.6478  0.5493
  108MPD2    C1 1646   3.373   3.503  11.571 -0.4775  0.1527 -0.3125
  108MPD2    C2 1647   3.300   3.459  11.680  0.0956  0.5628 -0.0876
  108MPD2    C3 1648   3.217   3.545  11.740  0.4847  0.0650  0.0507
  108MPD2    C4 1649   3.210   3.675  11.699 -0.4012 -0.1461  0.3264
  108MPD2    C5 1650   3.298   3.723  11.599  0.8153 -0.0104  0.2116
  108MPD2     H 1651   3.313   3.360  11.721 -1.8714 -0.4136 -1.8440
  108MPD2    H1 1652   3.139   3.752  11.726 -0.7257 -0.0620 -0.8087
  108MPD2    H2 1653   3.440   3.679  11.459 -1.7901 -0.5576 -1.5059
  108MPD2    H3 1654   3.315   3.827  11.574  0.3700  0.1187  0.4481
  108MPD2     N 1655   3.145   3.512  11.851  0.5988 -0.3016 -0.0445
  108MPD2    H5 1656   3.091   3.589  11.890  3.7637  2.1783 -0.5180
  108MPD2    N1 1657   3.440   3.417  11.484  0.2663 -0.3623  0.0255
  108MPD2    H7 1658   3.475   3.467  11.403 -2.1254 -0.2098 -0.8966
  109MPD2     C 1659   2.166   1.567   1.395 -1.1275  0.6339 -0.5561
  109MPD2    C1 1660   2.264   1.572   1.293 -0.3817 -0.2169 -0.4624
  109MPD2    C2 1661   2.305   1.703   1.264 -0.5147 -0.0636  0.6548
  109MPD2    C3 1662   2.269   1.812   1.339 -0.0627  0.1180 -0.3723
  109MPD2    C4 1663   2.179   1.802   1.441 -0.1299  0.0003  0.2794
  109MPD2    C5 1664   2.130   1.680   1.465  0.0598  0.3233 -0.3922
  109MPD2     H 1665   2.388   1.730   1.200 -1.4531  1.3117 -0.0015
  109MPD2    H1 1666   2.151   1.876   1.515 -1.7221 -1.0697  0.7514
  109MPD2    H2 1667   2.130   1.479   1.447 -0.1307  0.6637  0.1892
  109MPD2    H3 1668   2.080   1.656   1.559 -0.5738 -3.3486 -1.6831
  109MPD2     N 1669   2.342   1.928   1.304  0.4103  0.2944 -0.0005
  109MPD2    H5 1670   2.393   1.923   1.217  0.5662 -1.0418  0.1610
  109MPD2    N1 1671   2.290   1.460   1.210  0.3494  0.3219  0.7287
  109MPD2    H7 1672   2.232   1.377   1.218 -0.1912  0.5405 -1.0510
  110TCq2    C1 1673   2.353   2.043   1.382 -0.5836 -0.0996  0.0907
  110TCq2    O2 1674   2.310   2.068   1.493 -0.1452  0.0691 -0.3079
  110TCq2    C2 1675   2.452   2.139   1.335 -1.1453 -1.2092 -0.1237
  110TCq2    C3 1676   2.473   2.249   1.414 -0.3187 -0.1221  0.0244
  110TCq2    C4 1677   2.570   2.337   1.369 -0.1046  0.3424  0.0955
  110TCq2    C5 1678   2.634   2.316   1.250  0.2428 -0.3221  0.2600
  110TCq2    C6 1679   2.614   2.203   1.182  0.2798 -0.2019 -0.3626
  110TCq2    C7 1680   2.515   2.114   1.221 -0.1115  0.3446  0.1617
  110TCq2    C8 1681   2.702   2.174   1.075  0.0880  0.4444  0.2379
  110TCq2    O4 1682   2.802   2.247   1.074 -0.0294  0.0321 -0.0008
  110TCq2    C9 1683   2.591   2.457   1.449 -0.0833 -0.8115  0.5983
  110TCq2    O5 1684   2.656   2.551   1.390 -0.4163 -0.2786 -0.1905
  110TCq2    O6 1685   2.541   2.462   1.563  0.4334  0.9641  0.0243
  110TCq2    H2 1686   2.428   2.268   1.510  3.0343  4.3190  0.7234
  110TCq2    H3 1687   2.695   2.401   1.222 -0.2347 -0.5537 -1.4873
  110TCq2    H4 1688   2.499   2.023   1.163 -0.0095  0.5370 -0.1700
  111TMC2    C1 1689   3.368   0.680  11.465  0.4850 -0.6679  0.1230
  111TMC2    C2 1690   3.476   0.727  11.400  0.5252 -0.1293 -0.6264
  111TMC2    C3 1691   3.591   0.654  11.408 -0.1794  0.1041 -0.2181
  111TMC2    C4 1692   3.378   0.576  11.550 -0.7739  0.4431  0.0275
  111TMC2    C5 1693   3.500   0.516  11.569  0.9768  0.1859  0.6653
  111TMC2    C6 1694   3.610   0.552  11.490 -0.2476 -0.3390  0.2292
  111TMC2     C 1695   3.243   0.753  11.443  0.1725  0.0324 -0.2957
  111TMC2     O 1696   3.247   0.834  11.351 -0.3235  0.4765 -0.0218
  111TMC2     H 1697   3.469   0.808  11.327  1.2200  0.3432 -0.1621
  111TMC2    H1 1698   3.296   0.552  11.617 -1.2883  0.3543 -0.6310
  111TMC2    H2 1699   3.694   0.484  11.483 -0.9813 -1.4134  1.7634
  111TMC2    C7 1700   3.506   0.422  11.676 -0.3974  0.0442  0.5882
  111TMC2    C8 1701   3.665   0.649  11.288  0.1466  0.1123 -0.8642
  111TMC2    O1 1702   3.412   0.408  11.754  0.1034  0.0518 -0.0237
  111TMC2    O2 1703   3.619   0.676  11.177 -0.6684 -0.0809 -0.0284
  111TMC2    O5 1704   3.792   0.657  11.338  0.4105  0.3163  0.4043
  111TMC2    H5 1705   3.809   0.614  11.424  0.2538  0.8299  0.6921
  112MPD2     C 1706   2.743   0.864  11.502 -0.9846 -0.1285  1.0558
  112MPD2    C1 1707   2.833   0.898  11.402  0.6098 -0.0996  0.0127
  112MPD2    C2 1708   2.966   0.862  11.416 -0.7007 -1.5675  0.0442
  112MPD2    C3 1709   3.007   0.773  11.508  0.1612  0.4414  0.2285
  112MPD2    C4 1710   2.927   0.745  11.608  0.1996 -0.0018 -0.5751
  112MPD2    C5 1711   2.789   0.787  11.603  0.4670 -0.1305  0.0677
  112MPD2     H 1712   3.034   0.896  11.338 -1.5304  2.7901  1.2166
  112MPD2    H1 1713   2.951   0.672  11.684  1.0809 -1.5342 -2.3089
  112MPD2    H2 1714   2.636   0.877  11.491 -0.8582 -0.6105 -0.9380
  112MPD2    H3 1715   2.721   0.742  11.675  1.2463  0.3825  1.1369
  112MPD2     N 1716   3.141   0.730  11.527  0.1427 -0.3661 -0.0706
  112MPD2    H5 1717   3.163   0.672  11.607 -0.6234  1.6404  1.5888
  112MPD2    N1 1718   2.801   0.952  11.275 -0.1228  0.2739 -0.0921
  112MPD2    H7 1719   2.877   0.976  11.212 -1.9764  2.1517 -1.6119
  113MPD2     C 1720   1.024   2.787   0.778  0.0440 -0.3717 -0.0052
  113MPD2    C1 1721   0.905   2.861   0.775  0.7348  0.3492  0.0006
  113MPD2    C2 1722   0.789   2.794   0.748  0.1436  0.3627  0.0925
  113MPD2    C3 1723   0.778   2.659   0.740  0.5077 -0.5888  0.2750
  113MPD2    C4 1724   0.894   2.586   0.742 -0.1939  1.1890 -0.4646
  113MPD2    C5 1725   1.013   2.654   0.749  0.1047 -0.0092 -0.3484
  113MPD2     H 1726   0.698   2.853   0.744  0.6856  1.2488  0.9835
  113MPD2    H1 1727   0.892   2.479   0.722  0.5555  1.6184 -2.7994
  113MPD2    H2 1728   1.123   2.831   0.784  1.1982 -3.0393  0.5341
  113MPD2    H3 1729   1.106   2.599   0.756  0.4359  0.7007  0.7601
  113MPD2     N 1730   0.654   2.586   0.743  0.0823  0.2530 -0.2512
  113MPD2    H5 1731   0.653   2.485   0.753 -1.5041  0.2819  0.0058
  113MPD2    N1 1732   0.898   3.004   0.790  1.2653  0.4408  0.2970
  113MPD2    H7 1733   0.808   3.050   0.781  0.0473 -2.3932 -2.1185
  114TCq2    C1 1734   0.537   2.646   0.704 -0.0746 -0.2688  0.3888
  114TCq2    O2 1735   0.523   2.751   0.637  0.3323 -0.2796  0.4614
  114TCq2    C2 1736   0.422   2.566   0.728 -0.0525  0.5825  1.1501
  114TCq2    C3 1737   0.314   2.591   0.651  0.2127  0.6033  0.2326
  114TCq2    C4 1738   0.200   2.520   0.674  0.6860  0.7049 -1.1610
  114TCq2    C5 1739   0.198   2.416   0.756  0.4431 -1.3073 -0.0170
  114TCq2    C6 1740   0.307   2.389   0.832  0.0162 -0.0158 -0.0961
  114TCq2    C7 1741   0.425   2.464   0.826 -0.0651  0.2282  0.5556
  114TCq2    C8 1742   0.311   2.274   0.914 -0.2512  0.8310  0.7114
  114TCq2    O4 1743   0.405   2.264   0.995  0.8507 -0.2037 -0.4685
  114TCq2    C9 1744   0.081   2.556   0.602  0.3974  0.3699  0.0938
  114TCq2    O5 1745   0.072   2.661   0.536  0.0607 -0.2180 -0.3985
  114TCq2    O6 1746   4.712   2.476   0.626  0.6602  0.1282  0.1373
  114TCq2    H2 1747   0.307   2.666   0.573 -1.1773  1.0582  0.7918
  114TCq2    H3 1748   0.106   2.360   0.763  0.0310 -0.2299  3.1514
  114TCq2    H4 1749   0.509   2.447   0.893  1.0252  3.6756  0.0736
  115TMC2    C1 1750   1.595   0.458   0.249  0.0511 -0.3373 -0.6653
  115TMC2    C2 1751   1.717   0.448   0.308 -0.2683  0.2575 -0.4708
  115TMC2    C3 1752   1.806   0.556   0.293 -0.5151 -0.2881 -0.1617
  115TMC2    C4 1753   1.555   0.570   0.175 -0.0132 -0.0401  0.6275
  115TMC2    C5 1754   1.643   0.674   0.162  0.9952  0.1480 -0.2305
  115TMC2    C6 1755   1.771   0.667   0.213  0.1571  1.0150  0.1627
  115TMC2     C 1756   1.531   0.330   0.223 -0.2568  0.2398 -0.3601
  115TMC2     O 1757   1.602   0.228   0.224 -0.1872 -0.1792  0.1064
  115TMC2     H 1758   1.742   0.357   0.363 -0.4142  0.1518 -0.5790
  115TMC2    H1 1759   1.454   0.582   0.135  1.0550  2.4140 -1.3857
  115TMC2    H2 1760   1.847   0.742   0.199 -2.2858  3.2373 -1.2672
  115TMC2    C7 1761   1.579   0.791   0.096 -0.1204 -0.0934 -0.2949
  115TMC2    C8 1762   1.950   0.553   0.327  0.5198 -0.5818  0.0984
  115TMC2    O1 1763   1.470   0.821   0.142 -0.2049 -0.3867  0.2095
  115TMC2    O2 1764   2.014   0.642   0.369  0.0264 -0.4680  0.4973
  115TMC2    O5 1765   2.000   0.450   0.257 -0.4355 -0.4868  0.4074
  115TMC2    H5 1766   1.932   0.401   0.206 -0.1600 -1.4595  0.9825
  116MPD2     C 1767   1.131   0.055   0.040 -0.4349 -0.6443  0.6676
  116MPD2    C1 1768   1.269   0.048   0.015  0.2384  0.1155  0.0146
  116MPD2    C2 1769   1.358   0.144   0.070 -1.3550  0.1025  0.2061
  116MPD2    C3 1770   1.314   0.241   0.162 -0.1538  0.2330  0.4288
  116MPD2    C4 1771   1.180   0.255   0.179  0.1981 -0.1636  0.2428
  116MPD2    C5 1772   1.095   0.167   0.113  0.6350  0.7496 -0.5875
  116MPD2     H 1773   1.464   0.132   0.048 -1.3513 -0.0477  0.3076
  116MPD2    H1 1774   1.139   0.327   0.249  0.3736 -0.2358  0.4196
  116MPD2    H2 1775   1.056   4.713   0.008 -2.4304  0.6798  2.4577
  116MPD2    H3 1776   0.989   0.176   0.129  0.6833 -1.0608  0.6783
  116MPD2     N 1777   1.398   0.337   0.217  0.1699  0.4673  0.4011
  116MPD2    H5 1778   1.355   0.418   0.261  0.9938  0.6748  0.8227
  116MPD2    N1 1779   1.317   4.665  17.660  0.2748 -0.3800  0.0809
  116MPD2    H7 1780   1.249   4.597  17.627 -2.3315  2.0458  0.4257
  117TMC2    C1 1781   0.828   1.794  13.903  0.1370  0.4295 -0.1604
  117TMC2    C2 1782   0.929   1.703  13.874  0.1100 -0.6206 -0.5557
  117TMC2    C3 1783   1.057   1.737  13.874 -0.1149  0.3821  0.0879
  117TMC2    C4 1784   0.857   1.920  13.933 -0.0714 -0.0560 -0.1509
  117TMC2    C5 1785   0.994   1.939  13.969 -0.7074 -0.5075  0.7579
  117TMC2    C6 1786   1.094   1.853  13.927  0.2609  0.3603 -0.0221
  117TMC2     C 1787   0.692   1.746  13.884 -0.2887 -0.9043 -0.4355
  117TMC2     O 1788   0.674   1.641  13.817  0.6033 -0.4317 -0.5168
  117TMC2     H 1789   0.904   1.600  13.851  2.7698 -0.9671 -1.9245
  117TMC2    H1 1790   0.783   1.998  13.944 -0.2634 -0.2430 -0.1382
  117TMC2    H2 1791   1.197   1.878  13.948  0.8288 -3.2357  1.3032
  117TMC2    C7 1792   1.045   2.063  14.016 -0.0347  0.1161  0.0011
  117TMC2    C8 1793   1.163   1.642  13.857 -0.3413  0.5623  0.3266
  117TMC2    O1 1794   1.162   2.090  13.994  0.8943  0.0465  0.9459
  117TMC2    O2 1795   1.262   1.645  13.929  0.1986 -0.6523  0.2117
  117TMC2    O5 1796   1.116   1.538  13.786  0.2293 -0.0449 -0.7409
  117TMC2    H5 1797   1.045   1.569  13.725  0.9860  0.3287 -1.4402
  118MPD2     C 1798   0.821   2.331  14.106 -0.1248 -0.2471 -1.0021
  118MPD2    C1 1799   0.949   2.274  14.087 -0.2986 -0.5568  0.7535
  118MPD2    C2 1800   1.061   2.356  14.076  0.3082  0.1341 -0.6854
  118MPD2    C3 1801   1.044   2.495  14.082  0.3615  0.6539 -0.2128
  118MPD2    C4 1802   0.919   2.548  14.095  0.4957 -0.2419 -0.5499
  118MPD2    C5 1803   0.813   2.471  14.100  0.8441 -0.7344 -0.0085
  118MPD2     H 1804   1.156   2.306  14.065  1.4686  2.1001  0.3856
  118MPD2    H1 1805   0.904   2.655  14.104 -0.3802 -0.3830 -0.3402
  118MPD2    H2 1806   0.728   2.275  14.119 -0.6878  1.1635  1.0873
  118MPD2    H3 1807   0.718   2.516  14.125  0.8853 -1.0228  0.6681
  118MPD2     N 1808   1.152   2.587  14.070  0.2513 -0.0205  0.8213
  118MPD2    H5 1809   1.125   2.679  14.037  0.4501 -1.2665 -2.7564
  118MPD2    N1 1810   0.944   2.138  14.063  0.1353 -0.7381  0.5152
  118MPD2    H7 1811   0.854   2.091  14.066  0.7319 -2.2687 -5.4703
  119MPD2     C 1812   3.638   3.577  13.941 -0.0816 -0.4211  0.0349
  119MPD2    C1 1813   3.518   3.550  13.887  0.2892 -0.2094  0.6493
  119MPD2    C2 1814   3.507   3.447  13.793  0.3632 -0.2639  0.2029
  119MPD2    C3 1815   3.616   3.371  13.766  0.4950  0.2719  0.2194
  119MPD2    C4 1816   3.736   3.388  13.832  0.8437  0.0176  0.5911
  119MPD2    C5 1817   3.742   3.500  13.907  0.2110  0.1917  0.0808
  119MPD2     H 1818   3.421   3.435  13.728  0.2715  1.1305  0.0613
  119MPD2    H1 1819   3.831   3.336  13.821  0.2458 -0.7056 -1.0762
  119MPD2    H2 1820   3.647   3.655  14.016 -0.8142 -0.4558  0.1589
  119MPD2    H3 1821   3.830   3.516  13.969  1.6765  0.7672 -2.1575
  119MPD2     N 1822   3.609   3.255  13.683 -0.6617 -0.1647  0.1084
  119MPD2    H5 1823   3.695   3.202  13.673  0.4297  1.7366 -0.5988
  119MPD2    N1 1824   3.408   3.635  13.919 -0.3157  0.6358  0.1868
  119MPD2    H7 1825   3.425   3.712  13.983 -0.7340 -0.4868  1.6468
  120TCq2    C1 1826   3.494   3.200  13.637 -0.3795 -0.2466  0.2825
  120TCq2    O2 1827   3.377   3.221  13.647 -0.5112  0.2550 -0.5511
  120TCq2    C2 1828   3.521   3.103  13.533  0.1204  0.5907 -0.8812
  120TCq2    C3 1829   3.616   3.135  13.432 -0.2349 -0.4224 -0.1183
  120TCq2    C4 1830   3.613   3.055  13.321 -0.5370  0.0328 -0.3978
  120TCq2    C5 1831   3.518   2.966  13.300 -0.0520 -0.1217  0.7377
  120TCq2    C6 1832   3.422   2.937  13.399 -0.3774 -0.3643 -0.5064
  120TCq2    C7 1833   3.416   3.009  13.517 -0.1615 -0.5070 -0.1635
  120TCq2    C8 1834   3.307   2.861  13.372 -0.0233  0.8175 -0.1375
  120TCq2    O4 1835   3.263   2.858  13.256  0.1707 -0.4962  0.0498
  120TCq2    C9 1836   3.713   3.076  13.215  0.2885 -0.3331  0.4160
  120TCq2    O5 1837   3.802   3.158  13.238 -0.7085 -0.5902  0.0070
  120TCq2    O6 1838   3.679   3.040  13.095 -0.5613  0.3635 -0.0178
  120TCq2    H2 1839   3.692   3.209  13.453 -1.9928  0.7027  2.2506
  120TCq2    H3 1840   3.507   2.915  13.205  0.3445 -1.0229  1.1822
  120TCq2    H4 1841   3.339   2.993  13.592 -0.9971 -0.9891 -1.1148
  121TMC2    C1 1842   0.594   1.013  14.196  0.4029 -0.0458  0.4057
  121TMC2    C2 1843   0.615   0.949  14.315 -0.1624  0.2404 -0.6409
  121TMC2    C3 1844   0.512   0.878  14.372 -0.2828 -0.1978  0.5465
  121TMC2    C4 1845   0.468   1.019  14.147 -0.4342  0.4673 -0.6112
  121TMC2    C5 1846   0.358   0.959  14.213 -0.4895  0.5301  0.2786
  121TMC2    C6 1847   0.382   0.882  14.322 -0.0020 -0.1237  0.2041
  121TMC2     C 1848   0.704   1.063  14.124  0.2578  0.2051 -0.2613
  121TMC2     O 1849   0.803   1.083  14.188  0.5062  0.4494 -0.3469
  121TMC2     H 1850   0.717   0.957  14.350 -0.9447  4.5498  0.6389
  121TMC2    H1 1851   0.460   1.060  14.047  2.7195 -0.6383 -1.3429
  121TMC2    H2 1852   0.300   0.831  14.373 -0.1804 -0.6439 -0.6049
  121TMC2    C7 1853   0.226   0.966  14.143  0.0669  0.0032  0.2820
  121TMC2    C8 1854   0.531   0.834  14.508 -0.1167  0.2350 -0.2800
  121TMC2    O1 1855   0.216   1.049  14.057 -0.1375  0.2088 -0.6819
  121TMC2    O2 1856   0.593   0.903  14.586 -0.4775  0.0376 -0.1077
  121TMC2    O5 1857   0.436   0.745  14.545  0.0772  0.2350 -0.3277
  121TMC2    H5 1858   0.408   0.692  14.468  0.1280  0.2413 -0.3508
  122MPD2     C 1859   0.890   1.205  13.940 -0.0681 -1.6318  0.4110
  122MPD2    C1 1860   0.783   1.128  13.899 -0.1333  0.0759  0.0498
  122MPD2    C2 1861   0.753   1.125  13.765 -0.4135  0.0830 -0.2732
  122MPD2    C3 1862   0.832   1.185  13.668  0.6851 -1.0134  0.0151
  122MPD2    C4 1863   0.938   1.265  13.713  0.5174  0.1179  0.2481
  122MPD2    C5 1864   0.956   1.285  13.846 -0.6572 -0.0543  0.2650
  122MPD2     H 1865   0.663   1.075  13.730 -1.0661  1.8469 -1.1175
  122MPD2    H1 1866   0.996   1.322  13.642  0.4661 -0.7508 -0.4989
  122MPD2    H2 1867   0.924   1.208  14.043  0.6810  1.0156  0.0968
  122MPD2    H3 1868   1.033   1.351  13.883 -1.0214 -0.1817  1.2350
  122MPD2     N 1869   0.799   1.200  13.534  0.7529  0.0593 -0.8452
  122MPD2    H5 1870   0.838   1.277  13.481  2.8441  0.1294  0.7969
  122MPD2    N1 1871   0.690   1.068  13.986  0.1833  0.8261 -0.3486
  122MPD2    H7 1872   0.606   1.027  13.948  1.1705 -1.3558 -0.1930
  123MPD2     C 1873   3.103   3.980   8.920 -0.7562  0.2912  0.1914
  123MPD2    C1 1874   3.095   3.908   9.036 -0.0715  0.1233 -0.3069
  123MPD2    C2 1875   3.214   3.886   9.111 -0.9085 -0.2018 -0.2454
  123MPD2    C3 1876   3.335   3.942   9.074 -0.4388 -0.1571  0.2121
  123MPD2    C4 1877   3.342   4.018   8.956 -0.1117 -0.1106  0.1591
  123MPD2    C5 1878   3.225   4.036   8.881  0.2509 -0.3466  0.4960
  123MPD2     H 1879   3.206   3.843   9.210  2.2710 -0.6563 -0.2041
  123MPD2    H1 1880   3.434   4.059   8.918  0.0724 -0.2425  0.4596
  123MPD2    H2 1881   3.021   3.991   8.850 -1.4173 -1.7136  0.6429
  123MPD2    H3 1882   3.229   4.100   8.793 -0.2992  0.4993  1.0924
  123MPD2     N 1883   3.449   3.914   9.156  0.2334  0.0964  0.0346
  123MPD2    H5 1884   3.431   3.851   9.234 -2.0667 -0.9720 -1.3543
  123MPD2    N1 1885   2.974   3.838   9.064 -0.0805  0.9980  0.8189
  123MPD2    H7 1886   2.909   3.829   8.986 -0.2612 -0.0812  1.1056
  124TCq2    C1 1887   3.574   3.976   9.150  0.3463 -0.7888  0.2586
  124TCq2    O2 1888   3.610   4.063   9.073  0.1282  0.0968  0.4684
  124TCq2    C2 1889   3.664   3.955   9.261  0.3318 -0.2072  0.0470
  124TCq2    C3 1890   3.771   4.044   9.268  0.0421 -0.3864  0.5304
  124TCq2    C4 1891   3.865   4.007   9.372  0.1138  0.1403  0.1550
  124TCq2    C5 1892   3.863   3.887   9.441 -0.7886  0.0966 -0.1017
  124TCq2    C6 1893   3.753   3.812   9.425 -0.1550  0.9942  0.5300
  124TCq2    C7 1894   3.657   3.836   9.334 -0.3106  0.0656  0.4716
  124TCq2    C8 1895   3.734   3.703   9.519  1.0313 -1.2832 -0.6167
  124TCq2    O4 1896   3.790   3.722   9.627 -0.0378  0.3989  0.0925
  124TCq2    C9 1897   3.971   4.102   9.404 -0.1821 -0.6726  0.0364
  124TCq2    O5 1898   3.965   4.205   9.334 -0.8333  0.2348  0.3912
  124TCq2    O6 1899   4.065   4.055   9.477 -0.0195 -0.6481 -0.1230
  124TCq2    H2 1900   3.773   4.139   9.216  1.5499 -2.1809 -2.6408
  124TCq2    H3 1901   3.939   3.858   9.513 -0.7267 -0.7023 -0.4959
  124TCq2    H4 1902   3.575   3.767   9.318 -0.4251  0.0192  1.2216
  125TMC2    C1 1903   4.390   4.049   9.720 -0.3314 -0.5233 -0.0075
  125TMC2    C2 1904   4.370   4.072   9.589  0.0935 -0.1616 -0.2206
  125TMC2    C3 1905   4.382   4.202   9.544 -0.6790  0.2501  1.2072
  125TMC2    C4 1906   4.445   4.141   9.804  0.4006  0.4742  0.7477
  125TMC2    C5 1907   4.461   4.264   9.754  1.0222  0.0132 -0.3778
  125TMC2    C6 1908   4.435   4.296   9.623  0.3447  0.2386  0.8112
  125TMC2     C 1909   4.430   3.912   9.756  0.3201  0.0301  0.8400
  125TMC2     O 1910   4.484   3.902   9.866  0.2065  1.2161 -0.0625
  125TMC2     H 1911   4.345   3.994   9.518 -0.2520  0.3167 -0.6237
  125TMC2    H1 1912   4.445   4.132   9.912 -0.1703 -0.2897  0.6885
  125TMC2    H2 1913   4.444   4.396   9.581  1.3358 -1.0896 -2.1213
  125TMC2    C7 1914   4.535   4.359   9.839  0.6037  0.3183  0.3574
  125TMC2    C8 1915   4.365   4.239   9.405 -0.0005  0.1762  0.2370
  125TMC2    O1 1916   4.591   4.311   9.938 -0.4676 -0.3756 -0.1744
  125TMC2    O2 1917   4.441   4.301   9.333 -0.1341  0.1665  0.1734
  125TMC2    O5 1918   4.273   4.150   9.348  0.7067  0.0208 -0.3745
  125TMC2    H5 1919   4.212   4.107   9.412  1.0782 -0.0479 -0.0691
  126MPD1     C 1920   4.482   3.405   9.711  0.0740  0.7058 -0.1500
  126MPD1    C1 1921   4.379   3.437   9.626 -0.3216  0.7298  0.2764
  126MPD1    C2 1922   4.355   3.579   9.617 -0.0503 -0.4166 -0.4563
  126MPD1    C3 1923   4.412   3.674   9.697 -0.5576 -0.2838 -0.0234
  126MPD1    C4 1924   4.499   3.628   9.800 -0.1966  0.5067 -0.3759
  126MPD1    C5 1925   4.542   3.496   9.793  0.0611 -0.1863  0.1684
  126MPD1     H 1926   4.279   3.619   9.550  0.6367  0.6218 -0.6081
  126MPD1    H1 1927   4.565   3.686   9.865 -0.7137  0.1079  0.5039
  126MPD1    H2 1928   4.520   3.303   9.707  1.5011  1.2130  0.3518
  126MPD1    H3 1929   4.619   3.468   9.864  0.9529 -1.2104 -1.2076
  126MPD1     N 1930   4.382   3.809   9.678  0.3149 -0.2544 -0.1514
  126MPD1    H5 1931   4.335   3.820   9.588 -1.2575 -1.4360  0.5190
  126MPD1    N1 1932   4.350   3.342   9.523  0.4692  0.1656 -0.0102
  126MPD1    H6 1933   4.358   3.249   9.564 -0.4326 -0.7494 -1.9126
  126MPD1    H7 1934   4.263   3.350   9.471  0.1917 -2.7333  0.0446
  127MPD2     C 1935   0.491   4.534   9.479  0.6715 -0.3633  0.1926
  127MPD2    C1 1936   0.583   4.519   9.581  0.0547 -0.4722 -0.2596
  127MPD2    C2 1937   0.633   4.633   9.638  0.4508 -0.6659 -0.0354
  127MPD2    C3 1938   0.608   0.029   9.581  0.6144 -0.3972  0.1777
  127MPD2    C4 1939   0.532   0.035   9.467 -0.2209  0.6186 -0.7636
  127MPD2    C5 1940   0.467   4.658   9.418 -0.4388  0.2014 -0.1894
  127MPD2     H 1941   0.699   4.618   9.723  0.6023 -1.5230 -0.2991
  127MPD2    H1 1942   0.496   0.130   9.430  1.0212  2.0500  1.6795
  127MPD2    H2 1943   0.434   4.448   9.445 -0.1279  1.0869 -2.1057
  127MPD2    H3 1944   0.389   4.661   9.343 -0.0472 -1.2428 -0.6537
  127MPD2     N 1945   0.669   0.145   9.638 -0.1440 -0.6483  0.1870
  127MPD2    H5 1946   0.734   0.130   9.715 -0.5924  2.0925  1.1112
  127MPD2    N1 1947   0.594   4.391   9.638  0.2155  0.0301  0.4551
  127MPD2    H7 1948   0.530   4.323   9.599 -0.5162  0.0014  1.7432
  128TCq2    C1 1949   0.678   4.351   9.740  0.6755  0.8797  0.1543
  128TCq2    O2 1950   0.758   4.414   9.807 -0.0402 -0.1103  0.1899
  128TCq2    C2 1951   0.647   4.221   9.794  0.3806 -0.3028  0.4905
  128TCq2    C3 1952   0.691   4.191   9.921 -0.0877  0.2505 -0.2273
  128TCq2    C4 1953   0.657   4.071   9.981  0.5542  1.1521 -0.4352
  128TCq2    C5 1954   0.560   3.994   9.918  0.1987 -0.2858  0.0569
  128TCq2    C6 1955   0.508   4.029   9.795 -0.7136  0.3390 -0.5738
  128TCq2    C7 1956   0.559   4.140   9.730  0.5729  0.2997  0.2090
  128TCq2    C8 1957   0.402   3.943   9.731 -1.0231  0.5548 -1.0399
  128TCq2    O4 1958   0.389   3.952   9.611 -0.6271  0.4984  0.2612
  128TCq2    C9 1959   0.708   4.031  10.114  0.3666 -0.2879  0.2157
  128TCq2    O5 1960   0.818   4.080  10.151 -0.1091 -0.1731 -0.4161
  128TCq2    O6 1961   0.672   3.915  10.153 -0.2640  0.3112 -0.3738
  128TCq2    H2 1962   0.762   4.255   9.972  1.3268 -0.9866 -0.6285
  128TCq2    H3 1963   0.531   3.904   9.970  1.7801 -1.7499 -1.5799
  128TCq2    H4 1964   0.533   4.152   9.625 -0.8759  0.1776  0.5492
  129MPD2     C 1965   3.262   0.379   1.184  0.1546  0.2538 -0.3791
  129MPD2    C1 1966   3.388   0.327   1.195 -0.3325 -0.1223 -0.4487
  129MPD2    C2 1967   3.495   0.410   1.194 -0.1005  0.2431  0.1508
  129MPD2    C3 1968   3.480   0.548   1.184 -0.4836  0.6486 -0.4297
  129MPD2    C4 1969   3.350   0.605   1.176  0.3193 -0.2206  0.2431
  129MPD2    C5 1970   3.246   0.519   1.177 -0.1200 -0.8677  0.0111
  129MPD2     H 1971   3.586   0.362   1.229  0.0725  0.1098 -0.4747
  129MPD2    H1 1972   3.341   0.711   1.157  2.2965 -0.1063 -0.0277
  129MPD2    H2 1973   3.169   0.324   1.185 -1.3706  2.8257  0.3436
  129MPD2    H3 1974   3.144   0.555   1.169  0.0313 -0.9494 -2.4444
  129MPD2     N 1975   3.592   0.638   1.188  0.0080 -0.2069 -0.6480
  129MPD2    H5 1976   3.568   0.736   1.197 -0.9438 -0.2756 -2.5023
  129MPD2    N1 1977   3.405   0.188   1.226  0.0025  0.0527  0.9375
  129MPD2    H7 1978   3.497   0.149   1.245  1.7909  1.7051 -4.1223
  130TCq2    C1 1979   3.301   0.099   1.255 -0.2409 -0.1804 -0.2319
  130TCq2    O2 1980   3.181   0.107   1.222 -0.7855  0.0769  0.0932
  130TCq2    C2 1981   3.343   4.705   1.315 -0.1741  0.0418  0.8357
  130TCq2    C3 1982   3.460   4.710   1.385  0.1690  0.6807 -0.9789
  130TCq2    C4 1983   3.496   4.599   1.465 -0.2733  0.6987  0.6034
  130TCq2    C5 1984   3.414   4.489   1.475 -0.6926  0.3114 -0.3231
  130TCq2    C6 1985   3.300   4.483   1.390 -0.1127  0.0555 -0.2190
  130TCq2    C7 1986   3.258   4.593   1.312 -0.5234 -0.2243 -0.2691
  130TCq2    C8 1987   3.187   4.411   1.443  0.6022  0.2847  0.3338
  130TCq2    O4 1988   3.076   4.436   1.393  0.6210  0.6555  0.4712
  130TCq2    C9 1989   3.614   4.608   1.530  0.0215  0.2026 -0.1205
  130TCq2    O5 1990   3.646   4.518   1.613  0.1878 -0.0950  0.0223
  130TCq2    O6 1991   3.694   4.693   1.478 -0.4415  0.0571 -0.5513
  130TCq2    H2 1992   3.512   0.074   1.405  0.3639 -0.2461  2.7645
  130TCq2    H3 1993   3.427   4.413   1.551 -2.7632  0.7843  0.5115
  130TCq2    H4 1994   3.158   4.598   1.272 -1.3767  1.8909  2.1960
  131MPD2     C 1995   3.267   3.456   9.774  0.0689  0.6997 -0.3491
  131MPD2    C1 1996   3.265   3.572   9.700  0.2117 -0.0269 -0.2828
  131MPD2    C2 1997   3.160   3.583   9.604 -0.3435 -0.0938 -0.5578
  131MPD2    C3 1998   3.070   3.484   9.579 -0.2216 -0.9174 -0.1568
  131MPD2    C4 1999   3.086   3.366   9.649  0.2278 -0.2350 -0.4101
  131MPD2    C5 2000   3.187   3.354   9.741 -0.3981 -0.3848  0.8183
  131MPD2     H 2001   3.153   3.674   9.545 -3.2334 -0.3822 -0.6572
  131MPD2    H1 2002   3.015   3.284   9.640  0.2192 -0.1330 -1.3273
  131MPD2    H2 2003   3.339   3.444   9.855  0.1751 -0.5235 -0.6294
  131MPD2    H3 2004   3.192   3.259   9.792  2.9589  0.5688  2.2600
  131MPD2     N 2005   2.984   3.507   9.472  0.0837 -0.3202  0.3238
  131MPD2    H5 2006   2.995   3.596   9.424 -0.0153  1.0214  2.8144
  131MPD2    N1 2007   3.372   3.664   9.717 -0.1235 -0.0322 -0.9332
  131MPD2    H7 2008   3.430   3.667   9.800 -0.9246  1.4298 -0.4389
  132TCq2    C1 2009   3.690   4.166   9.668  0.7314  0.0516 -0.4443
  132TCq2    O2 2010   3.629   4.208   9.567  0.0649  0.3712  0.0060
  132TCq2    C2 2011   3.660   4.030   9.705 -0.4695  0.5635  0.0744
  132TCq2    C3 2012   3.714   3.991   9.824  0.1534  0.2357 -0.8780
  132TCq2    C4 2013   3.647   3.893   9.889  0.6914  0.9625 -0.3323
  132TCq2    C5 2014   3.537   3.839   9.843  0.3447 -0.2089  0.0314
  132TCq2    C6 2015   3.495   3.865   9.716  0.3685 -0.2887 -0.2047
  132TCq2    C7 2016   3.553   3.960   9.650  0.3339  0.2106  0.4467
  132TCq2    C8 2017   3.386   3.792   9.655  0.0592 -0.1468 -0.3201
  132TCq2    O4 2018   3.335   3.829   9.550  0.2519 -0.1236  0.2169
  132TCq2    C9 2019   3.689   3.866  10.028  0.0730  0.1750 -0.4434
  132TCq2    O5 2020   3.597   3.826  10.106  0.2797 -0.6373  0.1352
  132TCq2    O6 2021   3.800   3.912  10.075 -0.3949  0.4287  0.5697
  132TCq2    H2 2022   3.792   4.047   9.874 -1.2242  2.9820 -1.8456
  132TCq2    H3 2023   3.496   3.761   9.905 -1.2918  1.6302  1.2819
  132TCq2    H4 2024   3.517   3.992   9.553 -1.1794 -1.2299  0.5434
  133MPD2     C 2025   2.418   3.278   9.512 -0.0579  0.4463 -0.8189
  133MPD2    C1 2026   2.521   3.277   9.610  0.0053  0.6329 -0.5798
  133MPD2    C2 2027   2.586   3.400   9.637  0.4316  0.4692  0.2035
  133MPD2    C3 2028   2.562   3.517   9.561 -0.1591  0.5033  0.3123
  133MPD2    C4 2029   2.470   3.505   9.460 -0.4321  0.1449  0.8644
  133MPD2    C5 2030   2.394   3.395   9.445 -0.6511  0.4123 -0.3844
  133MPD2     H 2031   2.658   3.394   9.718 -0.0222  0.7269  0.6335
  133MPD2    H1 2032   2.443   3.599   9.412 -1.2357 -0.1408  0.7484
  133MPD2    H2 2033   2.353   3.193   9.495  1.2687 -0.3985 -1.5606
  133MPD2    H3 2034   2.312   3.413   9.377 -0.9334 -0.6995 -0.3321
  133MPD2     N 2035   2.621   3.637   9.588  0.1522 -0.3964  0.1221
  133MPD2    H5 2036   2.601   3.711   9.523 -0.6773 -0.1110  0.7072
  133MPD2    N1 2037   2.549   3.158   9.667  0.2337 -0.3938  0.6075
  133MPD2    H7 2038   2.493   3.075   9.650 -1.0027  0.4830  0.3578
  134TCq2    C1 2039   2.643   3.137   9.767  0.6602  0.3030 -0.3834
  134TCq2    O2 2040   2.714   3.212   9.828  0.0755  0.2091 -1.0099
  134TCq2    C2 2041   2.637   3.006   9.803  0.6839 -0.5977  0.3703
  134TCq2    C3 2042   2.619   2.904   9.708  0.8749 -0.0311 -0.3807
  134TCq2    C4 2043   2.647   2.772   9.746 -0.0918 -0.5442 -0.5754
  134TCq2    C5 2044   2.703   2.745   9.866  0.9852 -0.4757  0.6023
  134TCq2    C6 2045   2.736   2.850   9.947 -0.0210  0.0175  0.4948
  134TCq2    C7 2046   2.701   2.978   9.919 -0.3171  0.3303  0.2031
  134TCq2    C8 2047   2.766   2.812  10.085  0.1935 -0.7605  0.0104
  134TCq2    O4 2048   2.752   2.695  10.119 -0.3121  0.2833 -0.1215
  134TCq2    C9 2049   2.633   2.663   9.651  1.4313  0.0171  0.1160
  134TCq2    O5 2050   2.637   2.545   9.687  0.2647 -0.2012 -0.4997
  134TCq2    O6 2051   2.619   2.701   9.529  0.2090  0.0807 -0.3878
  134TCq2    H2 2052   2.566   2.910   9.613 -2.8594 -0.6412  1.6812
  134TCq2    H3 2053   2.731   2.642   9.885  0.5550 -0.9000 -1.0153
  134TCq2    H4 2054   2.728   3.054   9.991 -2.1647 -0.9084  2.1932
  135MPD2     C 2055   0.749   0.873   9.549  0.4353  0.1721 -0.3847
  135MPD2    C1 2056   0.635   0.846   9.475  0.1713  0.6378 -0.2310
  135MPD2    C2 2057   0.650   0.743   9.384 -0.3317 -0.0503 -0.3049
  135MPD2    C3 2058   0.764   0.669   9.371  0.1532  0.3122  0.0497
  135MPD2    C4 2059   0.869   0.690   9.453 -0.6518 -0.0268 -0.0247
  135MPD2    C5 2060   0.861   0.798   9.533  0.0213  0.0581 -0.3356
  135MPD2     H 2061   0.567   0.734   9.314 -0.6269  0.8428 -0.0659
  135MPD2    H1 2062   0.956   0.626   9.462 -0.4115  0.7032  2.9204
  135MPD2    H2 2063   0.748   0.946   9.629 -1.9632 -0.4079  0.1281
  135MPD2    H3 2064   0.944   0.812   9.601  0.0098 -0.1103 -0.2870
  135MPD2     N 2065   0.770   0.560   9.282 -0.1712 -0.0611 -0.1185
  135MPD2    H5 2066   0.864   0.522   9.277  1.2949  3.2525  2.0089
  135MPD2    N1 2067   0.508   0.904   9.485 -0.4286  0.2340 -0.8521
  135MPD2    H7 2068   0.435   0.894   9.416 -1.2461  0.6335 -0.0315
  136TCq2    C1 2069   0.469   1.002   9.583 -0.2816  0.4797 -0.0319
  136TCq2    O2 2070   0.536   1.059   9.667  0.7796  0.0272  0.0904
  136TCq2    C2 2071   0.332   1.026   9.584  0.3707  0.1882 -0.1767
  136TCq2    C3 2072   0.238   0.940   9.529  0.5712 -0.3391 -0.4087
  136TCq2    C4 2073   0.104   0.952   9.561  0.7071  0.3017 -0.5053
  136TCq2    C5 2074   0.062   1.041   9.653 -0.4983 -0.3085  0.3612
  136TCq2    C6 2075   0.154   1.124   9.710 -0.0382  0.2419 -0.5746
  136TCq2    C7 2076   0.287   1.122   9.672  0.3162  0.4649  0.7854
  136TCq2    C8 2077   0.112   1.215   9.818 -0.5515 -0.3175  0.5853
  136TCq2    O4 2078   0.191   1.298   9.856 -0.3549  0.1940  0.1077
  136TCq2    C9 2079   0.012   0.869   9.493 -0.2412 -0.0124  0.0033
  136TCq2    O5 2080   0.048   0.792   9.403 -0.1556  0.0836 -0.0709
  136TCq2    O6 2081   4.623   0.909   9.509  0.2744 -0.4733  0.5062
  136TCq2    H2 2082   0.259   0.865   9.454 -1.7335 -2.2978  0.9133
  136TCq2    H3 2083   4.686   1.048   9.681 -0.7633  1.6291 -1.0661
  136TCq2    H4 2084   0.357   1.183   9.729 -1.0817  2.0499  0.8306
  137MPD2     C 2085   0.403   4.629  11.358 -0.3167 -0.1768 -0.2843
  137MPD2    C1 2086   0.317   4.616  11.251 -0.3407  0.0958  0.5878
  137MPD2    C2 2087   0.236   4.727  11.224 -0.0316  0.0205  0.3795
  137MPD2    C3 2088   0.241   0.118  11.295  1.1360  0.1202 -0.3043
  137MPD2    C4 2089   0.329   0.123  11.401  0.4071  0.2729  0.6007
  137MPD2    C5 2090   0.406   0.014  11.427  0.6357 -0.0696 -0.0521
  137MPD2     H 2091   0.163   4.727  11.144 -0.4589  1.1205  0.7572
  137MPD2    H1 2092   0.350   0.219  11.447 -2.3751  0.4242  1.5594
  137MPD2    H2 2093   0.468   4.556  11.405 -1.9960 -0.9873  0.7396
  137MPD2    H3 2094   0.482   0.017  11.504  2.2412  1.1491 -1.6768
  137MPD2     N 2095   0.157   0.228  11.266  0.3242 -1.0370  0.3570
  137MPD2    H5 2096   0.111   0.232  11.176  0.3609 -3.5760  0.2306
  137MPD2    N1 2097   0.315   4.495  11.174 -0.0821 -0.0280  0.2479
  137MPD2    H7 2098   0.374   4.420  11.208 -0.6992 -1.3785 -1.6539
  138TCq2    C1 2099   0.231   4.467  11.071 -0.5976 -0.4245  0.5832
  138TCq2    O2 2100   0.179   4.542  10.991 -0.1157 -0.7210 -0.6496
  138TCq2    C2 2101   0.243   4.333  11.020 -0.4100 -0.3013  0.3517
  138TCq2    C3 2102   0.244   4.235  11.115  0.6904  0.1116  0.5298
  138TCq2    C4 2103   0.204   4.108  11.087  0.4620 -0.0082 -0.5566
  138TCq2    C5 2104   0.175   4.075  10.952 -0.4465  0.0618 -0.2186
  138TCq2    C6 2105   0.180   4.181  10.858 -0.1553  0.3424  0.1031
  138TCq2    C7 2106   0.211   4.311  10.889 -0.0505 -0.2071  0.1057
  138TCq2    C8 2107   0.150   4.142  10.723  0.1444 -0.3646 -0.6427
  138TCq2    O4 2108   0.168   4.022  10.701 -0.6746  0.2311 -0.2200
  138TCq2    C9 2109   0.204   4.000  11.183 -0.8542  0.2223  0.0447
  138TCq2    O5 2110   0.265   4.007  11.291  0.2287  0.4834  0.2243
  138TCq2    O6 2111   0.146   3.894  11.143  0.2723  0.2812 -0.2358
  138TCq2    H2 2112   0.247   4.255  11.222 -0.3664 -0.4623  0.6668
  138TCq2    H3 2113   0.141   3.976  10.921  0.0394  0.2218 -1.2785
  138TCq2    H4 2114   0.210   4.389  10.813  1.4345  0.0276  0.3356
  139TMC2    C1 2115   4.649   2.907  13.174 -0.2209  0.4117  0.3819
  139TMC2    C2 2116   4.579   2.950  13.054 -0.9782  0.2001  0.3716
  139TMC2    C3 2117   4.477   3.045  13.068 -0.3555 -0.1716  0.3303
  139TMC2    C4 2118   4.607   2.941  13.306 -0.3424  0.4531  0.0773
  139TMC2    C5 2119   4.495   3.025  13.309 -0.4222 -0.5511  0.1951
  139TMC2    C6 2120   4.434   3.074  13.193  0.4280  0.3430  0.8589
  139TMC2     C 2121   0.022   2.805  13.141  0.5826  0.1374 -0.1168
  139TMC2     O 2122   0.069   2.798  13.027 -0.0053  0.7175  0.1947
  139TMC2     H 2123   4.608   2.901  12.961  0.6242  0.7976  0.5627
  139TMC2    H1 2124   4.663   2.907  13.393 -0.2259 -1.6867 -0.8271
  139TMC2    H2 2125   4.359   3.152  13.207 -1.4656 -1.5171  1.1302
  139TMC2    C7 2126   4.474   3.097  13.434  0.3276  0.9333 -0.5266
  139TMC2    C8 2127   4.414   3.104  12.951  0.1384  0.0864 -0.4615
  139TMC2    O1 2128   4.383   3.178  13.429  0.5958  0.5197 -1.0708
  139TMC2    O2 2129   4.306   3.161  12.959  0.6285 -0.5130 -0.1019
  139TMC2    O5 2130   4.462   3.037  12.836  0.6998  0.2748 -0.0908
  139TMC2    H5 2131   4.555   3.009  12.849  0.1973 -1.0829  0.5983
  140MPD2     C 2132   0.153   2.574  13.388 -0.7448 -0.2732  0.1097
  140MPD2    C1 2133   0.151   2.646  13.270 -0.0234 -0.2340  0.2456
  140MPD2    C2 2134   0.249   2.618  13.177  0.4640 -0.4695 -0.1637
  140MPD2    C3 2135   0.347   2.522  13.194 -0.1533  0.0464 -0.0099
  140MPD2    C4 2136   0.345   2.454  13.308  0.9369 -0.0484  0.2619
  140MPD2    C5 2137   0.252   2.481  13.405  0.6493  0.4786  0.6598
  140MPD2     H 2138   0.235   2.673  13.084  1.7398 -1.0293 -0.6884
  140MPD2    H1 2139   0.415   2.372  13.325 -1.0506 -1.5767  1.0621
  140MPD2    H2 2140   0.069   2.592  13.454 -0.5049 -1.3423  0.7045
  140MPD2    H3 2141   0.248   2.416  13.492 -1.6056 -0.2821 -0.0282
  140MPD2     N 2142   0.436   2.482  13.097 -0.0991 -0.0728  0.0103
  140MPD2    H5 2143   0.477   2.390  13.110  1.5611  0.3249 -2.4495
  140MPD2    N1 2144   0.043   2.730  13.251 -0.0267  0.4306  0.4674
  140MPD2    H7 2145   4.700   2.734  13.323  0.1756 -1.5013  0.7623
  141TCq2    C1 2146   0.947   4.055  14.432  0.3749  0.5364  0.8739
  141TCq2    O2 2147   0.903   4.107  14.330 -0.2230 -0.0868  0.0644
  141TCq2    C2 2148   0.900   4.093  14.559  0.3977 -0.0093  0.3363
  141TCq2    C3 2149   0.941   4.014  14.669 -0.1161  0.2839  0.4779
  141TCq2    C4 2150   0.952   4.065  14.796 -0.1607  0.0635 -0.2126
  141TCq2    C5 2151   0.910   4.189  14.819  0.9611  0.2785 -0.1191
  141TCq2    C6 2152   0.876   4.273  14.711  0.2230  0.1503  0.3963
  141TCq2    C7 2153   0.885   4.230  14.584 -0.3110 -0.1532 -0.2923
  141TCq2    C8 2154   0.873   4.413  14.724 -0.0281 -0.6136 -0.5579
  141TCq2    O4 2155   0.810   4.464  14.816 -0.7377  0.5179  0.3827
  141TCq2    C9 2156   0.998   3.979  14.901  0.0099 -0.8925 -0.0621
  141TCq2    O5 2157   1.030   4.038  15.006 -0.2523 -0.3803  0.3776
  141TCq2    O6 2158   1.020   3.857  14.879 -0.5113  0.1644 -0.1804
  141TCq2    H2 2159   0.963   3.911  14.645  2.0477  0.7606  0.3592
  141TCq2    H3 2160   0.892   4.237  14.914 -2.1618 -0.2945 -0.4185
  141TCq2    H4 2161   0.868   4.290  14.495 -2.8711 -0.2849  0.1375
  142MPD2     C 2162   3.545   2.719  10.661 -0.1402  0.2863  0.0897
  142MPD2    C1 2163   3.568   2.718  10.522 -0.6051  0.5186  0.5305
  142MPD2    C2 2164   3.567   2.845  10.462  0.1295  0.2184  0.3898
  142MPD2    C3 2165   3.562   2.964  10.523 -0.0386  0.3339  0.7284
  142MPD2    C4 2166   3.531   2.955  10.656  0.5582  0.1841  0.4932
  142MPD2    C5 2167   3.513   2.836  10.727  0.4246  0.1638 -0.2944
  142MPD2     H 2168   3.586   2.834  10.356  1.3582 -0.2670  0.6592
  142MPD2    H1 2169   3.526   3.051  10.707 -0.4766  1.2189 -1.5711
  142MPD2    H2 2170   3.532   2.624  10.713  1.2403  0.8381  1.4365
  142MPD2    H3 2171   3.501   2.840  10.834  2.3980 -0.5970 -0.0427
  142MPD2     N 2172   3.564   3.084  10.461 -0.1359 -0.4156  0.2370
  142MPD2    H5 2173   3.539   3.166  10.516  0.0232 -0.0799 -0.1824
  142MPD2    N1 2174   3.565   2.587  10.455 -0.7861  0.4584 -0.0010
  142MPD2    H7 2175   3.544   2.505  10.511 -2.0359 -0.1655 -1.3844
  143TCq2    C1 2176   3.593   3.111  10.331  1.0571 -0.6494 -0.3994
  143TCq2    O2 2177   3.615   3.034  10.236  0.2890 -0.2087 -0.5530
  143TCq2    C2 2178   3.561   3.245  10.291  0.3177  0.1841  0.0203
  143TCq2    C3 2179   3.579   3.344  10.382  0.2216  0.7046 -0.4636
  143TCq2    C4 2180   3.562   3.470  10.329 -0.8566 -0.3369  0.3937
  143TCq2    C5 2181   3.547   3.496  10.196 -0.5983 -0.9144  0.0545
  143TCq2    C6 2182   3.550   3.398  10.104 -0.0828  0.3845 -0.1853
  143TCq2    C7 2183   3.551   3.270  10.152  0.1001 -0.2721 -0.5484
  143TCq2    C8 2184   3.591   3.436   9.971  0.0550 -0.8342 -0.0734
  143TCq2    O4 2185   3.605   3.556   9.947  0.6583 -0.8576  0.7401
  143TCq2    C9 2186   3.570   3.584  10.417  0.6498 -0.6727  0.6225
  143TCq2    O5 2187   3.608   3.568  10.537  0.3672 -0.4685 -0.6209
  143TCq2    O6 2188   3.557   3.697  10.367 -0.2068 -0.5179 -0.1325
  143TCq2    H2 2189   3.614   3.331  10.483  1.7533 -2.3780 -1.3650
  143TCq2    H3 2190   3.550   3.596  10.155  1.4229 -2.0682 -2.6439
  143TCq2    H4 2191   3.544   3.192  10.077  1.7380 -1.1207  0.1722
  144MPD2     C 2192   0.424   1.548   0.481 -0.3030  0.3524 -0.3185
  144MPD2    C1 2193   0.508   1.659   0.469  0.2220  0.2897 -0.2869
  144MPD2    C2 2194   0.613   1.662   0.562  0.5932  0.1120 -0.7317
  144MPD2    C3 2195   0.638   1.573   0.666 -0.1902 -0.4873  0.1562
  144MPD2    C4 2196   0.545   1.470   0.675  0.3574 -0.6236  0.0885
  144MPD2    C5 2197   0.445   1.457   0.583  0.1708  0.5778 -0.1119
  144MPD2     H 2198   0.671   1.754   0.566 -0.5010  0.8580 -2.1361
  144MPD2    H1 2199   0.545   1.410   0.764  0.4204 -2.6824 -1.3068
  144MPD2    H2 2200   0.344   1.534   0.409 -1.4869  1.3987  0.7825
  144MPD2    H3 2201   0.370   1.379   0.589 -0.4064  1.0483 -1.2612
  144MPD2     N 2202   0.740   1.591   0.764 -0.4720 -0.2104  0.1838
  144MPD2    H5 2203   0.764   1.508   0.818 -1.8400 -0.6579  0.1132
  144MPD2    N1 2204   0.503   1.769   0.376 -0.2260  0.6945  0.6671
  144MPD2    H7 2205   0.579   1.835   0.383  1.5034 -1.2635  0.3434
  145TCq2    C1 2206   0.815   1.700   0.789  0.1334 -0.1720  0.0854
  145TCq2    O2 2207   0.783   1.816   0.758  0.0272  0.1074 -0.4011
  145TCq2    C2 2208   0.933   1.678   0.865  0.6766 -0.4839 -0.2430
  145TCq2    C3 2209   0.990   1.551   0.855 -0.3264 -0.9003 -0.1614
  145TCq2    C4 2210   1.105   1.530   0.921  0.0769  0.4166 -0.5972
  145TCq2    C5 2211   1.163   1.630   0.986 -0.2279  0.4366 -0.1661
  145TCq2    C6 2212   1.110   1.758   0.994 -0.0129 -0.0299 -0.4189
  145TCq2    C7 2213   0.992   1.787   0.924 -0.0815 -0.4676 -0.5533
  145TCq2    C8 2214   1.196   1.851   1.068  0.3491  0.8820 -0.0291
  145TCq2    O4 2215   1.252   1.799   1.165  0.4371  0.7149 -0.1332
  145TCq2    C9 2216   1.152   1.391   0.923  0.2196 -0.0462  0.4032
  145TCq2    O5 2217   1.265   1.370   0.977 -0.6622 -0.4049  0.0173
  145TCq2    O6 2218   1.086   1.307   0.858 -0.1027  0.1572 -0.0057
  145TCq2    H2 2219   0.946   1.466   0.805  0.8349 -0.6510 -1.6007
  145TCq2    H3 2220   1.258   1.609   1.033  0.1779  0.5137 -0.9608
  145TCq2    H4 2221   0.948   1.885   0.936 -0.1834 -0.6123  0.2388
  146TMC2    C1 2222   3.309   0.757  12.208 -0.3129  0.6191  0.1769
  146TMC2    C2 2223   3.269   0.764  12.079 -0.1870 -0.6485  0.2916
  146TMC2    C3 2224   3.339   0.696  11.991 -0.1592  0.5658 -0.5179
  146TMC2    C4 2225   3.411   0.680  12.254  0.2596 -0.0883  0.3586
  146TMC2    C5 2226   3.471   0.606  12.159  0.3673  0.4104  0.0986
  146TMC2    C6 2227   3.440   0.616  12.026  0.4392  0.7253 -0.0248
  146TMC2     C 2228   3.220   0.821  12.301 -0.2199  0.3573 -0.1282
  146TMC2     O 2229   3.140   0.901  12.248  0.3588  0.0895  0.1487
  146TMC2     H 2230   3.212   0.850  12.047 -1.1121 -1.3383  0.0788
  146TMC2    H1 2231   3.437   0.678  12.360 -1.1393  1.2773  0.7313
  146TMC2    H2 2232   3.503   0.566  11.955 -1.5949  0.4662 -1.6462
  146TMC2    C7 2233   3.588   0.530  12.184  0.0472 -0.4950  0.1331
  146TMC2    C8 2234   3.316   0.720  11.851 -0.2550  0.2863  0.1660
  146TMC2    O1 2235   3.661   0.511  12.086 -0.1417  0.3596 -0.8296
  146TMC2    O2 2236   3.205   0.723  11.799  0.1303 -0.2586 -0.0269
  146TMC2    O5 2237   3.433   0.775  11.802 -0.5517  0.0948 -0.0165
  146TMC2    H5 2238   3.510   0.740  11.852 -0.0323  0.1258 -0.7990
  147MPD2     C 2239   3.911   0.345  12.544 -0.1603 -0.4843 -0.1641
  147MPD2    C1 2240   3.797   0.390  12.605 -0.1939  1.0312 -0.7090
  147MPD2    C2 2241   3.696   0.446  12.534 -0.2248 -0.1602  0.6410
  147MPD2    C3 2242   3.699   0.446  12.393  0.6654  0.3241 -0.3964
  147MPD2    C4 2243   3.818   0.404  12.329 -0.5222 -0.4988 -0.9138
  147MPD2    C5 2244   3.923   0.354  12.403  0.4339 -0.1954 -0.0477
  147MPD2     H 2245   3.603   0.484  12.573 -0.5153 -0.6287  0.3985
  147MPD2    H1 2246   3.827   0.409  12.221 -1.4052 -0.5868 -0.9899
  147MPD2    H2 2247   3.985   0.303  12.610 -0.5622 -0.2097  0.4660
  147MPD2    H3 2248   4.003   0.298  12.357  0.1015 -1.3805  0.8135
  147MPD2     N 2249   3.593   0.497  12.323 -0.1300  0.4486  0.3260
  147MPD2    H5 2250   3.518   0.526  12.385 -1.7269 -1.2068 -0.8385
  147MPD2    N1 2251   3.786   0.383  12.744 -0.2419 -0.3070  0.2073
  147MPD2    H7 2252   3.872   0.364  12.793  0.2204  0.9094 -0.1248
  148MPD2     C 2253   3.246   0.056  11.090 -0.2073  0.2151  0.3506
  148MPD2    C1 2254   3.161   4.679  11.095  0.5713 -0.4259  0.2910
  148MPD2    C2 2255   3.057   4.677  11.002  0.1215  0.4587 -0.4076
  148MPD2    C3 2256   3.046   0.034  10.894 -0.0085 -0.3217 -0.4516
  148MPD2    C4 2257   3.141   0.134  10.890 -0.0030 -0.4922 -0.1749
  148MPD2    C5 2258   3.228   0.153  10.992 -0.7509 -0.2819  0.2961
  148MPD2     H 2259   2.986   4.596  11.015 -2.0033  2.5809  1.1675
  148MPD2    H1 2260   3.127   0.207  10.811 -0.4539  0.6784  1.0021
  148MPD2    H2 2261   3.324   0.063  11.164 -0.0861 -2.8023  0.5150
  148MPD2    H3 2262   3.285   0.246  10.990 -1.1934 -0.0108  0.1780
  148MPD2     N 2263   2.954   0.027  10.788 -0.3578  0.0560  0.2179
  148MPD2    H5 2264   2.971   0.090  10.711  1.4411  1.5882  1.8706
  148MPD2    N1 2265   3.166   4.575  11.191 -0.3822 -0.6024  0.0712
  148MPD2    H7 2266   3.084   4.515  11.192  0.3175 -1.5612  0.3990
  149TCq2    C1 2267   3.279   4.544  11.267 -0.2140  0.6234  0.6398
  149TCq2    O2 2268   3.398   4.582  11.268  0.3352  0.0912  0.3971
  149TCq2    C2 2269   3.242   4.413  11.319  0.7817  0.2683 -0.4110
  149TCq2    C3 2270   3.119   4.398  11.377 -0.0338 -0.2840 -0.4094
  149TCq2    C4 2271   3.072   4.277  11.386  0.5011  0.2099  0.8467
  149TCq2    C5 2272   3.130   4.173  11.320 -0.3086  0.0417 -1.0941
  149TCq2    C6 2273   3.256   4.190  11.269  0.2364  0.2039 -0.5022
  149TCq2    C7 2274   3.323   4.313  11.273  0.1937 -0.3361  0.0035
  149TCq2    C8 2275   3.301   4.085  11.186 -0.0501 -0.0450 -0.1191
  149TCq2    O4 2276   3.250   3.973  11.197 -0.4103 -0.4386 -0.3190
  149TCq2    C9 2277   2.934   4.256  11.426  0.4948  0.2269  0.4429
  149TCq2    O5 2278   2.871   4.361  11.457 -0.2329  0.3331 -0.1467
  149TCq2    O6 2279   2.881   4.146  11.413 -0.1465  0.2737 -0.0945
  149TCq2    H2 2280   3.061   4.481  11.416 -1.8821 -0.4867 -2.7110
  149TCq2    H3 2281   3.085   4.075  11.306  1.9471 -1.4900  2.1562
  149TCq2    H4 2282   3.424   4.338  11.241  0.5285 -0.5263  0.8974
  150MPD2     C 2283   4.211   3.239  12.025 -0.0630  0.1468  0.1208
  150MPD2    C1 2284   4.236   3.280  11.899 -0.0293 -0.0638 -0.1702
  150MPD2    C2 2285   4.332   3.377  11.877  0.0807  0.4241  0.1014
  150MPD2    C3 2286   4.392   3.438  11.989 -0.8350 -0.9184 -0.1790
  150MPD2    C4 2287   4.361   3.397  12.123 -0.4699  0.1649 -0.0582
  150MPD2    C5 2288   4.267   3.296  12.136 -0.2180 -0.0510 -0.2459
  150MPD2     H 2289   4.357   3.411  11.777 -1.1758 -0.9257 -0.6634
  150MPD2    H1 2290   4.402   3.431  12.217 -1.5870  2.0532 -0.2543
  150MPD2    H2 2291   4.146   3.156  12.045 -0.1654 -0.1990 -1.6366
  150MPD2    H3 2292   4.252   3.249  12.232 -1.2241  0.2786 -0.2449
  150MPD2     N 2293   4.487   3.538  11.960 -0.6900  0.3593 -0.1720
  150MPD2    H5 2294   4.513   3.558  11.864 -0.0105  1.6060  0.2693
  150MPD2    N1 2295   4.185   3.209  11.787 -0.2446  0.5263  0.0410
  150MPD2    H7 2296   4.131   3.126  11.810  0.4041  0.0122 -0.2927
  151TCq2    C1 2297   4.530   3.627  12.053 -0.6095 -0.2661  0.3211
  151TCq2    O2 2298   4.489   3.654  12.165 -0.7480  0.4636 -0.5292
  151TCq2    C2 2299   4.639   3.711  11.998 -0.3812  0.0836  0.3020
  151TCq2    C3 2300   4.692   3.689  11.870 -0.8106 -0.1831 -0.4113
  151TCq2    C4 2301   0.057   3.774  11.823  0.1010 -0.3541  0.1678
  151TCq2    C5 2302   0.104   3.879  11.897  0.3961  0.4512 -0.4963
  151TCq2    C6 2303   0.051   3.897  12.021 -0.5012  0.3874  0.2995
  151TCq2    C7 2304   4.685   3.812  12.077 -0.4395 -0.9331 -0.0595
  151TCq2    C8 2305   0.125   3.975  12.115  0.2226 -0.9294 -0.1092
  151TCq2    O4 2306   0.069   4.046  12.197  0.3300  0.2278  0.5141
  151TCq2    C9 2307   0.109   3.761  11.688 -0.3950  0.3392 -0.1902
  151TCq2    O5 2308   0.203   3.835  11.647 -0.4208  0.4652  0.2342
  151TCq2    O6 2309   0.080   3.648  11.635  0.4277  0.3566  0.4533
  151TCq2    H2 2310   4.666   3.604  11.808  2.9785 -0.4980 -1.5544
  151TCq2    H3 2311   0.168   3.954  11.851  0.5879  0.8804  0.4831
  151TCq2    H4 2312   4.635   3.835  12.170 -1.7561 -0.6472 -0.8427
  152MPD2     C 2313   4.172   3.027  12.645  0.8062 -0.1329 -0.0647
  152MPD2    C1 2314   4.217   3.150  12.596  0.2706 -0.2160  0.7974
  152MPD2    C2 2315   4.124   3.237  12.540 -0.0515  0.6835  0.8401
  152MPD2    C3 2316   3.993   3.203  12.531 -0.3950  0.6033  0.4169
  152MPD2    C4 2317   3.947   3.076  12.575  0.1338  0.4624  0.8394
  152MPD2    C5 2318   4.039   2.989  12.628  0.9692 -0.5880 -0.1305
  152MPD2     H 2319   4.169   3.332  12.514  1.9718 -0.7915 -1.0790
  152MPD2    H1 2320   3.845   3.040  12.573  0.0412  0.7610  0.1369
  152MPD2    H2 2321   4.245   2.950  12.671 -1.3579 -1.7839  1.0925
  152MPD2    H3 2322   4.005   2.887  12.646  0.3398 -0.6559 -1.7189
  152MPD2     N 2323   3.910   3.296  12.468  0.3496 -1.0863  0.2677
  152MPD2    H5 2324   3.956   3.376  12.425 -0.0511 -0.6715  0.6243
  152MPD2    N1 2325   4.360   3.183  12.602  0.5829 -0.0175 -0.3574
  152MPD2    H7 2326   4.422   3.118  12.649  0.3807 -0.4629 -0.6952
  153TCq2    C1 2327   4.419   3.284  12.536 -0.6203 -0.2583  0.0670
  153TCq2    O2 2328   4.383   3.341  12.432 -0.1043 -0.6970 -0.5863
  153TCq2    C2 2329   4.566   3.281  12.542 -0.4488 -0.0832 -0.4338
  153TCq2    C3 2330   4.628   3.189  12.615 -0.6500  1.0639 -0.0163
  153TCq2    C4 2331   0.021   3.209  12.667 -0.1125 -0.7104  0.0946
  153TCq2    C5 2332   0.092   3.319  12.637  0.4041  0.8345  0.2502
  153TCq2    C6 2333   0.025   3.411  12.558  0.1836  0.4020 -1.3578
  153TCq2    C7 2334   4.626   3.397  12.510 -0.4413 -0.0394  0.0093
  153TCq2    C8 2335   0.094   3.536  12.532  0.4857 -0.6013 -0.1974
  153TCq2    O4 2336   0.058   3.590  12.428  0.9030 -0.3456 -0.6165
  153TCq2    C9 2337   0.086   3.101  12.740  0.3852 -0.6268  0.1769
  153TCq2    O5 2338   0.204   3.123  12.773  0.0011 -0.1222 -0.4275
  153TCq2    O6 2339   0.017   3.009  12.792 -0.1634  0.1741  0.4265
  153TCq2    H2 2340   4.582   3.096  12.645  1.8292 -0.1765 -0.0068
  153TCq2    H3 2341   0.194   3.328  12.672 -0.2963  0.3180  2.4310
  153TCq2    H4 2342   4.581   3.475  12.450 -1.5658 -0.5234  0.2164
  154MPD2     C 2343   0.995   2.818   0.410 -0.7331  0.7987  0.4410
  154MPD2    C1 2344   0.993   2.907   0.309  0.3643 -0.5805 -0.2132
  154MPD2    C2 2345   0.883   2.920   0.227  0.1447 -0.2793  0.0613
  154MPD2    C3 2346   0.774   2.834   0.234 -0.2468  0.5112  0.2613
  154MPD2    C4 2347   0.789   2.733   0.319  0.2007 -0.2744  0.4085
  154MPD2    C5 2348   0.901   2.724   0.406  0.4060 -0.5945  0.7662
  154MPD2     H 2349   0.881   3.000   0.154 -0.5442  0.7395  1.2038
  154MPD2    H1 2350   0.721   2.649   0.327  0.5758 -0.7122 -0.9182
  154MPD2    H2 2351   1.078   2.799   0.477  1.4037 -0.6627 -2.6145
  154MPD2    H3 2352   0.885   2.651   0.484 -3.8167 -0.7491 -0.1880
  154MPD2     N 2353   0.660   2.856   0.155 -0.5596  0.2536 -0.3157
  154MPD2    H5 2354   0.664   2.932   0.088  0.7728 -0.8158 -1.4314
  154MPD2    N1 2355   1.114   2.985   0.306  0.1263 -0.0954  0.4285
  154MPD2    H7 2356   1.183   2.965   0.379 -0.0339 -1.1202  0.3017
  155TCq2    C1 2357   1.141   3.084   0.219  0.1890  0.4218  0.3546
  155TCq2    O2 2358   1.068   3.136   0.136 -0.4785 -0.4440  0.4722
  155TCq2    C2 2359   1.274   3.132   0.238 -0.3485 -0.3892 -1.0110
  155TCq2    C3 2360   1.297   3.270   0.212  0.2336 -0.3152 -0.8156
  155TCq2    C4 2361   1.408   3.327   0.271 -0.3142 -0.8352  0.3247
  155TCq2    C5 2362   1.490   3.261   0.360  0.5966 -0.2732  0.2149
  155TCq2    C6 2363   1.467   3.128   0.376  0.1344 -0.1666 -0.3280
  155TCq2    C7 2364   1.359   3.060   0.322 -0.3236  0.0414  0.4359
  155TCq2    C8 2365   1.575   3.042   0.430 -0.0366 -0.2911 -0.3821
  155TCq2    O4 2366   1.559   2.922   0.444  0.0961  0.7469  0.3080
  155TCq2    C9 2367   1.432   3.467   0.253  0.0596  0.7542 -0.9352
  155TCq2    O5 2368   1.502   3.527   0.345  0.3646 -0.2706 -0.7726
  155TCq2    O6 2369   1.366   3.519   0.161 -0.2520  0.1108 -0.2808
  155TCq2    H2 2370   1.229   3.326   0.148  1.4596  0.9560 -1.0036
  155TCq2    H3 2371   1.573   3.317   0.402 -0.4885  1.2763  0.3349
  155TCq2    H4 2372   1.362   2.952   0.314 -0.7124  0.1067 -0.7085
  156MPD2     C 2373   4.396   0.934  12.376 -0.2222  0.0206  0.1592
  156MPD2    C1 2374   4.456   0.856  12.283  0.4091 -0.9079  0.6297
  156MPD2    C2 2375   4.529   0.744  12.329 -0.6838  0.1565 -0.1825
  156MPD2    C3 2376   4.524   0.698  12.457 -0.3127 -0.0439 -0.1140
  156MPD2    C4 2377   4.459   0.782  12.552  0.3345  0.6293  0.5916
  156MPD2    C5 2378   4.400   0.901  12.511  0.2631 -0.3676  0.0497
  156MPD2     H 2379   4.595   0.697  12.257 -1.5449 -1.4575  0.0784
  156MPD2    H1 2380   4.468   0.772  12.659 -1.7180  0.2773  0.7246
  156MPD2    H2 2381   4.337   1.021  12.350 -0.0814  1.2028  3.7651
  156MPD2    H3 2382   4.354   0.970  12.580  0.3316 -1.4377  1.1696
  156MPD2     N 2383   4.606   0.597  12.505 -0.9911 -0.6094  0.0027
  156MPD2    H5 2384   4.674   0.555  12.441  1.4547 -0.0068  2.1981
  156MPD2    N1 2385   4.449   0.899  12.148  0.1261 -0.1516 -0.3005
  156MPD2    H7 2386   4.392   0.980  12.129  1.5178  0.6567 -1.0359
  157TCq2    C1 2387   4.501   0.842  12.035  0.2756 -0.2517 -0.9842
  157TCq2    O2 2388   4.565   0.738  12.019 -0.0695 -0.2720 -0.2076
  157TCq2    C2 2389   4.457   0.905  11.916 -0.1386 -0.0152  0.3529
  157TCq2    C3 2390   4.326   0.938  11.910  0.3126  0.2957 -0.2619
  157TCq2    C4 2391   4.288   1.025  11.811 -0.5979  0.8180 -0.7289
  157TCq2    C5 2392   4.382   1.091  11.736  0.6901  0.6658 -0.2220
  157TCq2    C6 2393   4.513   1.055  11.741  0.5446 -0.3332  0.2397
  157TCq2    C7 2394   4.550   0.960  11.827  0.4500 -0.1864 -0.0665
  157TCq2    C8 2395   4.615   1.120  11.661 -0.8075  0.1133  0.6654
  157TCq2    O4 2396   4.725   1.070  11.642  0.5290  0.1978 -0.1745
  157TCq2    C9 2397   4.154   1.048  11.780 -0.9327  0.3191 -0.0917
  157TCq2    O5 2398   4.127   1.093  11.663  0.2837 -0.0132 -0.4050
  157TCq2    O6 2399   4.079   0.970  11.838 -0.0049 -0.4231  0.1812
  157TCq2    H2 2400   4.255   0.886  11.973  0.4372 -0.4081 -0.7078
  157TCq2    H3 2401   4.346   1.156  11.658  3.4235  5.1675  2.3018
  157TCq2    H4 2402   4.654   0.943  11.849  0.6078 -0.0266 -0.6852
  158TMC2    C1 2403   0.025   4.283  13.599  0.0783 -0.8061  0.3787
  158TMC2    C2 2404   0.090   4.323  13.485 -0.4011  0.3127 -0.2176
  158TMC2    C3 2405   0.013   4.399  13.404  0.2415  0.1345 -0.0850
  158TMC2    C4 2406   4.620   4.308  13.627 -0.3678 -0.4892  0.0978
  158TMC2    C5 2407   4.546   4.367  13.529 -0.4505 -0.1644  0.1257
  158TMC2    C6 2408   4.601   4.402  13.413 -0.7195  0.0978 -0.8259
  158TMC2     C 2409   0.104   4.212  13.696  0.0325 -0.2101 -0.1223
  158TMC2     O 2410   0.048   4.182  13.796  0.2124 -0.7125 -0.3211
  158TMC2     H 2411   0.198   4.326  13.482 -0.4046  0.5769 -0.0160
  158TMC2    H1 2412   4.581   4.286  13.725 -0.1724  0.8739  0.4759
  158TMC2    H2 2413   4.545   4.454  13.337  2.5379  2.0076 -1.9451
  158TMC2    C7 2414   4.400   4.340  13.527  0.6233  0.0617 -0.2056
  158TMC2    C8 2415   0.072   4.425  13.272  0.4378 -0.9398  0.4541
  158TMC2    O1 2416   4.325   4.416  13.471  0.4985  0.4959  0.2199
  158TMC2    O2 2417   0.079   4.339  13.186  0.0243 -0.1263  0.0501
  158TMC2    O5 2418   0.034   4.549  13.240 -0.1069 -0.4029 -0.1717
  158TMC2    H5 2419   0.001   4.602  13.316  1.7126  0.1242  0.2596
  159MPD2     C 2420   0.514   3.952  13.845  0.5261  0.5349 -0.6215
  159MPD2    C1 2421   0.409   4.013  13.917 -0.4117 -0.9252 -0.0910
  159MPD2    C2 2422   0.320   4.092  13.846 -0.9572 -0.2977  0.5406
  159MPD2    C3 2423   0.323   4.089  13.705 -0.0796 -1.0927 -0.4572
  159MPD2    C4 2424   0.425   4.033  13.637 -0.5672 -0.3505  0.4832
  159MPD2    C5 2425   0.516   3.961  13.710  0.0151 -0.1594  0.3985
  159MPD2     H 2426   0.247   4.145  13.906 -2.3219  0.2544 -1.6100
  159MPD2    H1 2427   0.431   4.037  13.529  0.4876 -0.5220  0.5370
  159MPD2    H2 2428   0.607   3.919  13.890 -1.0876 -0.8983  1.6845
  159MPD2    H3 2429   0.593   3.910  13.653 -0.2914 -0.0471 -0.1121
  159MPD2     N 2430   0.218   4.156  13.638  0.2774  0.2925  0.0082
  159MPD2    H5 2431   0.221   4.167  13.537  1.7651  2.7938  0.3324
  159MPD2    N1 2432   0.389   4.001  14.055  0.3437 -0.2930  0.2103
  159MPD2    H7 2433   0.300   4.032  14.094  0.3332  0.0524 -0.0875
  160TMC2    C1 2434   4.181   2.576   0.720 -0.3576 -0.2695 -0.8171
  160TMC2    C2 2435   4.279   2.504   0.788 -0.4579 -0.1307  0.2262
  160TMC2    C3 2436   4.407   2.549   0.789  0.3805 -0.0396  0.4484
  160TMC2    C4 2437   4.214   2.679   0.644 -0.1766  0.0783  0.9152
  160TMC2    C5 2438   4.351   2.714   0.635  0.2813 -0.3107 -0.3537
  160TMC2    C6 2439   4.440   2.658   0.716 -0.3319 -0.5300  0.0862
  160TMC2     C 2440   4.037   2.534   0.723  0.0322 -1.4211  0.3451
  160TMC2     O 2441   4.017   2.413   0.728  0.2480  0.1098 -0.5416
  160TMC2     H 2442   4.255   2.427   0.860 -0.9917  0.7532  0.9817
  160TMC2    H1 2443   4.144   2.738   0.585  0.1864 -1.5702 -1.1624
  160TMC2    H2 2444   4.533   2.711   0.731  0.7662 -2.0405 -1.4192
  160TMC2    C7 2445   4.383   2.843   0.561 -0.1411 -0.3819 -0.4389
  160TMC2    C8 2446   4.488   2.496   0.897 -0.7093  0.2384  0.2408
  160TMC2    O1 2447   4.319   2.865   0.459 -0.3198 -0.2040 -0.1633
  160TMC2    O2 2448   4.437   2.463   1.004  0.1209  0.1597 -0.4926
  160TMC2    O5 2449   4.616   2.516   0.874 -0.0090  0.8495  0.2724
  160TMC2    H5 2450   4.637   2.523   0.778 -1.9624 -0.0751 -0.2339
  161MPD2     C 2451   3.747   2.521   0.771  0.4912  0.1524  0.5799
  161MPD2    C1 2452   3.810   2.636   0.734 -0.4871  0.3822 -0.2793
  161MPD2    C2 2453   3.735   2.749   0.720  0.3808 -0.6463  0.3878
  161MPD2    C3 2454   3.605   2.765   0.761 -0.4212  0.0526 -0.0711
  161MPD2    C4 2455   3.545   2.652   0.817  0.0629  0.2903 -0.0990
  161MPD2    C5 2456   3.616   2.534   0.816  0.1457 -0.3632 -0.1380
  161MPD2     H 2457   3.781   2.838   0.680 -1.0441  0.3434  0.9529
  161MPD2    H1 2458   3.444   2.647   0.856  0.3064  0.5935  0.5622
  161MPD2    H2 2459   3.789   2.422   0.767  0.3075  0.2252 -3.0438
  161MPD2    H3 2460   3.564   2.444   0.847  0.2928  0.2969  2.0319
  161MPD2     N 2461   3.530   2.877   0.744  0.0291 -0.1363  0.2181
  161MPD2    H5 2462   3.441   2.881   0.791 -0.7140 -2.9039 -0.9252
  161MPD2    N1 2463   3.951   2.639   0.713  0.0947  0.3050  0.0354
  161MPD2    H7 2464   4.000   2.727   0.702  0.5871  0.2366  1.7173
  162TMC2    C1 2465   2.630   0.435   1.031 -0.1510 -0.1460  0.0620
  162TMC2    C2 2466   2.626   0.568   0.990 -0.0510 -0.6639 -0.5572
  162TMC2    C3 2467   2.582   0.666   1.077 -0.0622 -0.8873 -0.3139
  162TMC2    C4 2468   2.568   0.396   1.146  0.2352 -0.3708 -0.0049
  162TMC2    C5 2469   2.511   0.492   1.226  0.0949  0.0703 -0.4941
  162TMC2    C6 2470   2.512   0.627   1.190 -0.0277  0.0330 -0.1183
  162TMC2     C 2471   2.682   0.337   0.940  0.5489  0.0201  0.0043
  162TMC2     O 2472   2.722   0.230   0.982  0.4867  0.6011  0.5259
  162TMC2     H 2473   2.667   0.606   0.897 -0.6160 -1.9619 -1.3337
  162TMC2    H1 2474   2.592   0.298   1.186  1.2760 -0.2111 -0.2559
  162TMC2    H2 2475   2.472   0.698   1.262  1.5434  1.0734 -0.2805
  162TMC2    C7 2476   2.459   0.462   1.361  0.7507 -1.3191  0.4621
  162TMC2    C8 2477   2.556   0.802   1.030 -0.4456  0.0064 -0.1519
  162TMC2    O1 2478   2.464   0.551   1.445  0.3070 -0.0634  0.0810
  162TMC2    O2 2479   2.607   0.839   0.927 -0.3866  0.0750 -0.7003
  162TMC2    O5 2480   2.539   0.880   1.140 -0.0413 -0.7811  0.3401
  162TMC2    H5 2481   2.587   0.844   1.218 -2.4563 -2.7613  0.9117
  163MPD2     C 2482   2.746   0.143   0.464  0.2764  0.2081 -0.5405
  163MPD2    C1 2483   2.807   0.111   0.583  0.1817 -0.1367  0.2923
  163MPD2    C2 2484   2.779   0.190   0.694 -0.2110 -0.1560 -0.1064
  163MPD2    C3 2485   2.690   0.296   0.691 -0.7472  1.1341 -0.4488
  163MPD2    C4 2486   2.635   0.332   0.565 -0.3327 -0.2702 -0.2518
  163MPD2    C5 2487   2.667   0.252   0.455  0.7194  0.4497 -0.2826
  163MPD2     H 2488   2.810   0.162   0.794 -1.8719  0.3821  0.5566
  163MPD2    H1 2489   2.557   0.408   0.561  1.8343  1.9055 -1.3330
  163MPD2    H2 2490   2.770   0.079   0.379 -0.4857  1.4154 -1.6699
  163MPD2    H3 2491   2.625   0.283   0.360 -1.5857  3.1281  1.6019
  163MPD2     N 2492   2.648   0.363   0.804 -0.0700 -0.3636  0.4087
  163MPD2    H5 2493   2.586   0.442   0.786  2.6070  1.2589 -1.7709
  163MPD2    N1 2494   2.886   4.722   0.590  0.2141  0.3134  0.1049
  163MPD2    H7 2495   2.867   4.664   0.509 -0.2413 -0.0704  0.4831
  164TCq2    C1 2496   3.424   4.687  11.632 -1.0820 -0.1430  0.0014
  164TCq2    O2 2497   3.359   4.654  11.730 -0.2055 -0.2538  0.6611
  164TCq2    C2 2498   3.387   0.070  11.550  0.6088 -0.3060 -0.7744
  164TCq2    C3 2499   3.463   0.106  11.442 -0.4479 -0.0026  0.3150
  164TCq2    C4 2500   3.432   0.216  11.365  0.1846 -0.8323  1.2425
  164TCq2    C5 2501   3.319   0.287  11.377 -0.6389  0.5858 -0.4429
  164TCq2    C6 2502   3.246   0.252  11.489 -0.1712 -0.0426  0.0337
  164TCq2    C7 2503   3.270   0.140  11.570 -0.7186  0.3738 -0.0383
  164TCq2    C8 2504   3.126   0.337  11.534 -0.5105  0.3112 -0.6893
  164TCq2    O4 2505   3.086   0.415  11.452 -0.0183 -0.3299 -0.2285
  164TCq2    C9 2506   3.517   0.250  11.251  0.5134 -0.0382 -1.0000
  164TCq2    O5 2507   3.497   0.362  11.197 -0.0143 -0.1082  0.4539
  164TCq2    O6 2508   3.626   0.182  11.242 -0.3976  0.3102  0.2190
  164TCq2    H2 2509   3.557   0.059  11.416 -1.0190  0.3354 -2.3829
  164TCq2    H3 2510   3.295   0.374  11.317 -0.9238 -0.4339 -1.7873
  164TCq2    H4 2511   3.196   0.111  11.644 -1.8640  0.9307 -0.9572
  165MPD2     C 2512   3.837   1.491   2.710  0.2204  0.0356 -0.0784
  165MPD2    C1 2513   3.873   1.490   2.574 -0.5809  0.6250 -0.1559
  165MPD2    C2 2514   3.960   1.594   2.532  0.4654  0.4827 -0.9537
  165MPD2    C3 2515   3.996   1.691   2.630 -0.9829 -0.1219 -0.7011
  165MPD2    C4 2516   3.951   1.684   2.760  0.4258  0.5719  0.3216
  165MPD2    C5 2517   3.879   1.583   2.803  0.1245 -0.2750  0.1419
  165MPD2     H 2518   3.989   1.600   2.428  0.3390 -1.8883 -1.1248
  165MPD2    H1 2519   3.993   1.738   2.844  0.6374 -0.5547  0.9474
  165MPD2    H2 2520   3.768   1.413   2.740 -1.6579  1.5102 -0.6013
  165MPD2    H3 2521   3.839   1.565   2.902 -0.1132 -1.2604 -0.1322
  165MPD2     N 2522   4.102   1.789   2.608 -0.4633 -0.1622 -0.2303
  165MPD2    H5 2523   4.129   1.850   2.685  0.6066 -0.0708 -0.6722
  165MPD2    N1 2524   3.805   1.401   2.482 -0.1675  0.0594 -0.3856
  165MPD2    H7 2525   3.742   1.337   2.530 -1.4837  3.1794  1.9910
  166TCq2    C1 2526   4.176   1.813   2.492  0.1848 -0.5038 -0.3216
  166TCq2    O2 2527   4.177   1.756   2.387 -0.3429 -0.0237 -0.1349
  166TCq2    C2 2528   4.276   1.912   2.516 -0.6606  0.5019 -0.0403
  166TCq2    C3 2529   4.274   1.997   2.623  0.0447  0.0470 -0.3665
  166TCq2    C4 2530   4.382   2.073   2.642  0.0749  0.3203 -0.2684
  166TCq2    C5 2531   4.500   2.057   2.567 -0.1029 -0.4678  0.1600
  166TCq2    C6 2532   4.495   1.973   2.463 -0.1406 -0.0434  0.2008
  166TCq2    C7 2533   4.390   1.895   2.439 -0.2910  0.0083  0.0065
  166TCq2    C8 2534   4.602   1.984   2.364 -0.3575  1.1092 -0.5989
  166TCq2    O4 2535   4.624   1.885   2.298 -0.1840  0.0875 -0.1507
  166TCq2    C9 2536   4.389   2.170   2.743 -0.1791 -0.0842 -0.1487
  166TCq2    O5 2537   4.296   2.172   2.826  0.1069  0.4366 -0.1009
  166TCq2    O6 2538   4.480   2.255   2.747  0.0469  0.1018  0.1234
  166TCq2    H2 2539   4.183   2.011   2.681  0.3483 -1.0417  0.3778
  166TCq2    H3 2540   4.592   2.110   2.590  0.7243 -0.9976 -1.9739
  166TCq2    H4 2541   4.396   1.842   2.345  2.0844  0.2758 -0.0023
  167TMC2    C1 2542   2.427   4.256  12.821  0.4614  0.3335 -0.2908
  167TMC2    C2 2543   2.359   4.284  12.935  0.3670 -0.1835  0.3251
  167TMC2    C3 2544   2.345   4.190  13.031 -0.3425 -0.2464 -0.0334
  167TMC2    C4 2545   2.515   4.150  12.821 -0.1518  0.4034  0.8594
  167TMC2    C5 2546   2.511   4.069  12.933 -0.0295 -0.1563 -0.2926
  167TMC2    C6 2547   2.415   4.077  13.036 -0.0585 -0.5710  0.2490
  167TMC2     C 2548   2.429   4.374  12.729 -0.0486  0.1423  0.2730
  167TMC2     O 2549   2.332   4.450  12.727 -0.1651 -0.7282 -0.0335
  167TMC2     H 2550   2.293   4.370  12.934 -0.2431 -0.6907 -2.5536
  167TMC2    H1 2551   2.571   4.127  12.732 -0.1519 -0.0946  0.9852
  167TMC2    H2 2552   2.429   4.024  13.130 -0.0046  1.0153  1.1338
  167TMC2    C7 2553   2.597   3.949  12.937  0.5460  0.0631  0.3073
  167TMC2    C8 2554   2.283   4.221  13.160 -0.0066 -0.3317 -0.9756
  167TMC2    O1 2555   2.574   3.869  13.024  0.0384  0.3131 -0.2844
  167TMC2    O2 2556   2.253   4.127  13.237  0.6419  0.0411 -0.0683
  167TMC2    O5 2557   2.355   4.324  13.212 -0.0081 -0.0199 -0.2669
  167TMC2    H5 2558   2.405   4.380  13.148  0.2685 -0.5378 -0.5057
  168MPD2     C 2559   2.471   4.522  12.457  0.5702  0.3605  0.2655
  168MPD2    C1 2560   2.551   4.426  12.518 -0.0157 -0.0416  0.9619
  168MPD2    C2 2561   2.658   4.373  12.439  0.3921 -0.0016  0.1783
  168MPD2    C3 2562   2.665   4.405  12.300  0.0584  0.2382  0.3766
  168MPD2    C4 2563   2.569   4.484  12.246  0.2615  0.0234 -0.2301
  168MPD2    C5 2564   2.478   4.548  12.322 -0.0664  0.0817  0.1147
  168MPD2     H 2565   2.713   4.289  12.480 -0.1041 -0.6037 -0.3975
  168MPD2    H1 2566   2.576   4.517  12.143  1.1217 -0.3893 -0.3026
  168MPD2    H2 2567   2.394   4.582  12.505  0.1182  0.7903 -1.0069
  168MPD2    H3 2568   2.413   4.627  12.288 -0.6264 -0.2772  0.3521
  168MPD2     N 2569   2.766   4.340  12.222 -0.1686 -0.0981  0.0278
  168MPD2    H5 2570   2.837   4.286  12.272  2.4397  1.3316 -2.1711
  168MPD2    N1 2571   2.535   4.359  12.644  0.1386 -0.4019 -0.6636
  168MPD2    H7 2572   2.608   4.296  12.673 -0.5502 -0.7995  0.2016
  169MPD1     C 2573   0.103   3.566   8.995  0.1538 -0.8293 -0.4120
  169MPD1    C1 2574   0.183   3.673   9.011 -0.0875  0.3825 -0.3123
  169MPD1    C2 2575   0.277   3.671   9.111  0.3666 -0.1939 -0.3961
  169MPD1    C3 2576   0.281   3.568   9.206  0.5787 -0.0480  0.3692
  169MPD1    C4 2577   0.202   3.460   9.183 -0.1565  0.3179  0.4427
  169MPD1    C5 2578   0.108   3.464   9.087  0.4801  0.1996  0.2415
  169MPD1     H 2579   0.348   3.753   9.121 -0.5166  0.2837  1.9694
  169MPD1    H1 2580   0.201   3.379   9.256 -0.6763  0.9443  1.1271
  169MPD1    H2 2581   0.037   3.551   8.910 -1.5376 -1.5238  1.0342
  169MPD1    H3 2582   0.031   3.392   9.063  0.0299  0.9246 -0.4866
  169MPD1     N 2583   0.363   3.573   9.321  0.0803 -0.0084  0.1279
  169MPD1    H5 2584   0.407   3.664   9.327  2.8588 -1.3568  0.2133
  169MPD1    N1 2585   0.202   3.760   8.899  0.0247 -0.7119 -0.0225
  169MPD1    H6 2586   0.233   3.852   8.931 -1.5070 -0.4290  0.6270
  169MPD1    H7 2587   0.118   3.777   8.845  1.3217  0.2671 -1.7418
  170MPD1     C 2588   2.739   1.285  13.258  0.1467  0.4252  0.5198
  170MPD1    C1 2589   2.736   1.283  13.397 -0.2131  0.0088 -0.1899
  170MPD1    C2 2590   2.811   1.376  13.460 -0.3058 -0.1891 -0.3541
  170MPD1    C3 2591   2.876   1.475  13.384  0.0268  0.0762  0.1407
  170MPD1    C4 2592   2.874   1.474  13.246 -0.4990  0.3602  0.1193
  170MPD1    C5 2593   2.805   1.378  13.179 -0.5844 -0.2120  0.1692
  170MPD1     H 2594   2.830   1.365  13.566  0.3854  1.5622 -0.2879
  170MPD1    H1 2595   2.935   1.533  13.179 -2.1261 -1.2724 -2.8002
  170MPD1    H2 2596   2.692   1.209  13.197 -0.3673  2.5682 -1.7600
  170MPD1    H3 2597   2.809   1.375  13.071 -1.8040 -2.0874  0.1857
  170MPD1     N 2598   2.955   1.567  13.449 -0.7261  0.4349 -0.4732
  170MPD1    H5 2599   2.954   1.562  13.550  0.9537  1.4701 -0.4072
  170MPD1    N1 2600   2.679   1.179  13.467 -0.2270  0.2089 -0.0480
  170MPD1    H6 2601   2.597   1.161  13.409 -1.7738  1.5648  1.6916
  170MPD1    H7 2602   2.646   1.208  13.558 -0.6992 -0.6242  0.0390
  171MPD1     C 2603   2.348   2.582  15.691 -0.1930  0.1989 -0.9053
  171MPD1    C1 2604   2.313   2.459  15.662 -0.2043  0.1365  0.9310
  171MPD1    C2 2605   2.362   2.355  15.750 -0.1764  0.0047 -0.0994
  171MPD1    C3 2606   2.422   2.383  15.867 -0.8138 -0.0108 -0.0269
  171MPD1    C4 2607   2.452   2.516  15.895  0.5834  0.9959  0.1330
  171MPD1    C5 2608   2.414   2.609  15.814 -0.4916  0.1378 -0.2302
  171MPD1     H 2609   2.347   2.253  15.718  2.1569 -1.3219  3.0624
  171MPD1    H1 2610   2.490   2.538  15.994  0.1011  0.1192  0.5194
  171MPD1    H2 2611   2.331   2.660  15.618  1.4452  0.4315 -1.0429
  171MPD1    H3 2612   2.433   2.715  15.827 -0.7040 -0.1198  2.0820
  171MPD1     N 2613   2.471   2.288  15.961 -0.0570 -0.0197  0.1122
  171MPD1    H5 2614   2.507   2.325  16.049  0.3980  2.2798 -1.0364
  171MPD1    N1 2615   2.272   2.431  15.531 -0.4389 -0.2800 -0.3382
  171MPD1    H6 2616   2.205   2.354  15.528  0.5967 -1.1637 -0.5905
  171MPD1    H7 2617   2.225   2.511  15.491 -2.7252 -0.4136  2.0643
  172MPD1     C 2618   0.675   1.265   0.311 -0.4696  0.2444  0.1519
  172MPD1    C1 2619   0.750   1.248   0.423 -0.1171  0.4731 -1.2161
  172MPD1    C2 2620   0.845   1.344   0.454  0.3102  0.1541 -0.5433
  172MPD1    C3 2621   0.847   1.471   0.382 -0.4948 -0.0166  0.1398
  172MPD1    C4 2622   0.764   1.486   0.269 -0.3896 -0.6240  0.4936
  172MPD1    C5 2623   0.690   1.379   0.227 -0.9831  0.0726  0.1641
  172MPD1     H 2624   0.911   1.330   0.538 -1.9097  0.9712  1.3300
  172MPD1    H1 2625   0.755   1.579   0.214  1.4495 -0.5502  0.3036
  172MPD1    H2 2626   0.600   1.190   0.288 -0.9128  1.1591 -1.3755
  172MPD1    H3 2627   0.638   1.384   0.132 -1.7021 -0.6059  0.5270
  172MPD1     N 2628   0.930   1.578   0.425 -0.6782  0.4549  0.4730
  172MPD1    H5 2629   0.992   1.545   0.499 -0.2823 -0.3324 -0.1994
  172MPD1    N1 2630   0.763   1.131   0.488  0.7069  0.2692 -0.0876
  172MPD1    H6 2631   0.677   1.077   0.499  0.7495  0.0300 -0.9443
  172MPD1    H7 2632   0.806   1.147   0.578 -0.3150 -1.8354  0.7942
  173MPD1     C 2633   2.495   1.676  14.073 -0.1945 -0.3837 -0.7921
  173MPD1    C1 2634   2.545   1.551  14.100  0.2309 -0.0446  0.0235
  173MPD1    C2 2635   2.616   1.537  14.212  1.2402 -0.1950 -0.4749
  173MPD1    C3 2636   2.629   1.637  14.307 -1.1869  0.4139  0.0311
  173MPD1    C4 2637   2.583   1.762  14.280 -0.5709  0.1952  0.4474
  173MPD1    C5 2638   2.518   1.780  14.159  0.3625 -0.0249 -0.2189
  173MPD1     H 2639   2.664   1.440  14.223  0.2668 -0.7018 -0.6649
  173MPD1    H1 2640   2.590   1.841  14.353 -0.3890  3.0535 -2.6570
  173MPD1    H2 2641   2.446   1.692  13.978  0.4406  1.9784 -0.7114
  173MPD1    H3 2642   2.470   1.874  14.135  1.2255  0.5731  0.3990
  173MPD1     N 2643   2.682   1.608  14.434  0.1840  0.1792 -0.0655
  173MPD1    H5 2644   2.723   1.515  14.441  1.2049  0.6060 -0.3649
  173MPD1    N1 2645   2.543   1.446  14.008 -0.8417 -0.1596 -0.3418
  173MPD1    H6 2646   2.512   1.358  14.050  0.8842 -0.8597 -0.5331
  173MPD1    H7 2647   2.468   1.462  13.940  1.2728 -0.0487 -2.6367
  174MPD1     C 2648   3.539   1.522  14.596  0.2387  0.4781 -0.0468
  174MPD1    C1 2649   3.482   1.410  14.645  0.8314 -0.4309  0.0736
  174MPD1    C2 2650   3.344   1.419  14.673  0.3063 -0.1285  0.2539
  174MPD1    C3 2651   3.265   1.522  14.619  0.7048 -0.4934  0.2636
  174MPD1    C4 2652   3.328   1.626  14.554 -0.0456  0.8454  0.2780
  174MPD1    C5 2653   3.464   1.622  14.550 -0.5377  0.1878  0.4278
  174MPD1     H 2654   3.298   1.328  14.709 -3.0961  2.4129  2.2847
  174MPD1    H1 2655   3.271   1.715  14.531  0.2623  0.4655 -1.9905
  174MPD1    H2 2656   3.646   1.530  14.578  0.2988 -0.1557  0.0298
  174MPD1    H3 2657   3.518   1.701  14.499  1.5274 -0.7251  1.1971
  174MPD1     N 2658   3.124   1.538  14.649 -0.4413  0.1769 -0.3327
  174MPD1    H5 2659   3.075   1.618  14.611  0.3327  0.5632 -0.5168
  174MPD1    N1 2660   3.570   1.308  14.687 -0.5295 -0.1527 -0.4566
  174MPD1    H6 2661   3.516   1.222  14.688 -2.3160  0.9756  0.0475
  174MPD1    H7 2662   3.638   1.295  14.613  0.9659  1.1601  0.6673
  175MPD1     C 2663   2.059   2.186  15.577 -0.2442  0.5607 -0.8954
  175MPD1    C1 2664   1.965   2.279  15.576 -0.7712 -0.7992 -0.2701
  175MPD1    C2 2665   1.897   2.310  15.685 -0.1294 -0.0497 -0.0970
  175MPD1    C3 2666   1.917   2.237  15.800  0.2628  0.0173  0.2508
  175MPD1    C4 2667   2.017   2.140  15.806 -0.5418  0.1120 -0.0260
  175MPD1    C5 2668   2.082   2.115  15.689  0.1784 -0.1338  0.0806
  175MPD1     H 2669   1.821   2.388  15.677 -0.1886 -0.2057 -1.1350
  175MPD1    H1 2670   2.031   2.064  15.882  1.0687 -0.5367 -0.9742
  175MPD1    H2 2671   2.122   2.160  15.493  1.5917  1.2242  0.2666
  175MPD1    H3 2672   2.150   2.031  15.686  1.7048  1.2152 -2.9582
  175MPD1     N 2673   1.838   2.249  15.915 -0.3509 -0.2298  0.7159
  175MPD1    H5 2674   1.871   2.188  15.990 -2.0816  0.6162  2.1695
  175MPD1    N1 2675   1.959   2.373  15.468 -0.0367 -0.2531 -0.4749
  175MPD1    H6 2676   1.983   2.334  15.377 -0.5122  1.9501 -1.5445
  175MPD1    H7 2677   1.868   2.413  15.448 -1.1324 -2.6880 -0.2828
  176MPD1     C 2678   3.266   4.281  16.471  0.0514 -0.0670 -0.3333
  176MPD1    C1 2679   3.204   4.403  16.475  0.8131 -0.6469 -0.1389
  176MPD1    C2 2680   3.154   4.453  16.595  0.2955  0.2916  0.2582
  176MPD1    C3 2681   3.162   4.374  16.705 -0.3628 -0.0044  0.0143
  176MPD1    C4 2682   3.218   4.249  16.701 -0.9692 -0.2052 -0.5310
  176MPD1    C5 2683   3.267   4.198  16.580  0.2080  0.2274 -0.0153
  176MPD1     H 2684   3.118   4.555  16.604  1.4879  0.8531 -1.3756
  176MPD1    H1 2685   3.216   4.180  16.785 -3.2945  0.6774  0.1442
  176MPD1    H2 2686   3.313   4.245  16.380  1.6276 -2.1735  1.3114
  176MPD1    H3 2687   3.313   4.100  16.584 -1.7499 -0.7193 -1.2170
  176MPD1     N 2688   3.107   4.424  16.824  0.4604  0.3309 -0.0734
  176MPD1    H5 2689   3.061   4.515  16.819 -0.5721 -0.3274 -2.4542
  176MPD1    N1 2690   3.231   4.493  16.371  0.4397 -0.2362 -0.5086
  176MPD1    H6 2691   3.256   4.447  16.284  0.8895  0.1391 -0.5767
  176MPD1    H7 2692   3.175   4.576  16.351 -0.6878 -1.3491 -2.0226
  177MPD1     C 2693   1.283   0.108  10.202  0.2434 -0.3554  0.4317
  177MPD1    C1 2694   1.199   0.031  10.132 -0.2341  0.3011 -0.0550
  177MPD1    C2 2695   1.121   0.088  10.033  1.1187 -0.8198  0.5572
  177MPD1    C3 2696   1.111   0.222  10.013 -0.3769 -0.4808 -0.0636
  177MPD1    C4 2697   1.191   0.305  10.087 -0.6435  0.2875 -0.1730
  177MPD1    C5 2698   1.279   0.241  10.174  0.5463 -0.4128 -0.0170
  177MPD1     H 2699   1.054   0.020   9.981  1.1308 -0.5230  0.1552
  177MPD1    H1 2700   1.195   0.413  10.092 -0.3256  0.1914  1.5707
  177MPD1    H2 2701   1.354   0.067  10.273 -0.3942 -0.4825  1.0013
  177MPD1    H3 2702   1.346   0.304  10.232  1.7166 -0.9381 -0.8152
  177MPD1     N 2703   1.016   0.277   9.927 -0.2265 -0.1467 -0.1345
  177MPD1    H5 2704   0.960   0.213   9.871 -2.1297  1.1081  0.3216
  177MPD1    N1 2705   1.201   4.624  10.139  0.0522 -0.5022 -0.3840
  177MPD1    H6 2706   1.110   4.585  10.115 -0.6950  2.1176 -1.9205
  177MPD1    H7 2707   1.228   4.598  10.233  1.0869 -1.2103 -0.8754
  178MPD1     C 2708   3.841   0.131   0.538  0.2924  0.6369  0.3277
  178MPD1    C1 2709   3.933   0.224   0.497  0.0770  0.0310 -0.1416
  178MPD1    C2 2710   3.886   0.315   0.404  0.3022 -0.7347  0.2611
  178MPD1    C3 2711   3.754   0.310   0.353 -0.4675  0.6993 -0.8465
  178MPD1    C4 2712   3.675   0.212   0.405 -0.4734 -0.6092  0.1789
  178MPD1    C5 2713   3.709   0.132   0.508 -0.5038  0.2553  0.1164
  178MPD1     H 2714   3.962   0.383   0.367  1.0809 -1.1860  1.0476
  178MPD1    H1 2715   3.581   0.179   0.362 -0.3513 -0.1995 -0.3991
  178MPD1    H2 2716   3.865   0.060   0.616 -1.5109 -0.7006 -0.3263
  178MPD1    H3 2717   3.636   0.061   0.545  0.2905 -1.0957 -0.9038
  178MPD1     N 2718   3.712   0.393   0.246  0.3897 -0.5586  0.0856
  178MPD1    H5 2719   3.613   0.379   0.225 -0.2251  0.3984  2.3796
  178MPD1    N1 2720   4.051   0.236   0.574 -0.2841  0.0236 -0.0504
  178MPD1    H6 2721   4.127   0.270   0.515 -0.3342 -1.6340 -1.0711
  178MPD1    H7 2722   4.089   0.150   0.611 -2.1425 -0.4933  0.6386
  179MPD1     C 2723   4.138   2.884  15.391 -0.1556 -0.2256  0.2806
  179MPD1    C1 2724   4.024   2.827  15.339  0.3348  0.3766  0.4918
  179MPD1    C2 2725   3.900   2.890  15.357  0.1646 -0.4808  0.1942
  179MPD1    C3 2726   3.892   2.999  15.445  0.5914  0.0490 -0.1400
  179MPD1    C4 2727   4.006   3.048  15.505  0.4971  0.1388  0.1492
  179MPD1    C5 2728   4.123   2.994  15.470  0.1932 -0.0246 -0.6712
  179MPD1     H 2729   3.816   2.852  15.300 -0.3092  1.9604 -0.6946
  179MPD1    H1 2730   4.007   3.132  15.573  0.1437 -1.8404  2.5801
  179MPD1    H2 2731   4.236   2.838  15.387  0.6549  1.3656  1.7172
  179MPD1    H3 2732   4.213   3.046  15.499  0.9637 -1.8001  0.1134
  179MPD1     N 2733   3.773   3.067  15.471  0.3918 -0.7513 -0.1941
  179MPD1    H5 2734   3.772   3.146  15.534  2.2146  0.5926 -1.8411
  179MPD1    N1 2735   4.041   2.717  15.249 -0.2251  0.6302 -0.3763
  179MPD1    H6 2736   3.956   2.663  15.241  0.0457  0.2601 -0.7099
  179MPD1    H7 2737   4.122   2.663  15.278 -2.4966 -1.3774  2.1117
  180MPD1     C 2738   2.489   0.545  14.295 -0.5345  0.1269  0.2610
  180MPD1    C1 2739   2.589   0.623  14.354  0.3848  1.1660 -0.3825
  180MPD1    C2 2740   2.680   0.558  14.432 -0.1311 -0.2760 -0.4694
  180MPD1    C3 2741   2.650   0.430  14.478  1.0753 -0.0773  0.0670
  180MPD1    C4 2742   2.546   0.353  14.426 -0.3563 -0.0118 -0.1018
  180MPD1    C5 2743   2.472   0.414  14.331 -0.2156  0.0414 -0.0894
  180MPD1     H 2744   2.767   0.611  14.467 -1.5495  1.2970  0.6840
  180MPD1    H1 2745   2.528   0.247  14.436  0.9697 -0.1931  0.3082
  180MPD1    H2 2746   2.413   0.578  14.226 -0.3268 -1.4242 -0.7081
  180MPD1    H3 2747   2.384   0.370  14.285 -1.0310  1.7450 -0.1603
  180MPD1     N 2748   2.739   0.376  14.571 -0.0117 -0.4998  0.7615
  180MPD1    H5 2749   2.822   0.433  14.584  0.0440 -0.6803  1.1838
  180MPD1    N1 2750   2.621   0.751  14.310  0.4290  0.2781  0.3023
  180MPD1    H6 2751   2.534   0.800  14.289  0.1154 -1.3678 -2.2223
  180MPD1    H7 2752   2.665   0.816  14.375  1.5887 -0.1258 -0.0710
  181MPD1     C 2753   4.385   1.453   9.626 -0.3971  0.6516 -0.3921
  181MPD1    C1 2754   4.477   1.410   9.526  0.3419  0.7470 -0.1424
  181MPD1    C2 2755   4.616   1.419   9.550 -0.2613  0.2650  0.2201
  181MPD1    C3 2756   4.657   1.496   9.657 -0.2491  0.2428 -0.3575
  181MPD1    C4 2757   4.557   1.556   9.738  0.2030  0.2639  0.5153
  181MPD1    C5 2758   4.426   1.540   9.719  0.0075 -0.5093 -0.2118
  181MPD1     H 2759   4.692   1.361   9.501 -0.0114  1.4079 -0.7469
  181MPD1    H1 2760   4.581   1.629   9.814 -0.4073  0.0547  0.9108
  181MPD1    H2 2761   4.278   1.449   9.605 -0.5681  0.3370  0.5307
  181MPD1    H3 2762   4.358   1.593   9.784  1.1558  1.0226 -0.2638
  181MPD1     N 2763   0.064   1.531   9.681  0.4642 -0.8974 -0.5415
  181MPD1    H5 2764   0.071   1.592   9.762 -0.1859 -0.7256 -0.6186
  181MPD1    N1 2765   4.436   1.327   9.423  0.5199 -0.3016  0.4980
  181MPD1    H6 2766   4.499   1.334   9.343  1.1900  3.8940  1.4409
  181MPD1    H7 2767   4.345   1.354   9.388  1.4428  0.6944 -1.1420
  182MPD1     C 2768   4.711   4.620   0.923 -0.1707  0.0175  0.2109
  182MPD1    C1 2769   4.666   0.004   0.990  0.5228 -0.2453  0.4382
  182MPD1    C2 2770   4.711   0.132   0.941 -0.3708  0.0116  1.0977
  182MPD1    C3 2771   0.052   0.142   0.817  0.2561  0.4557  0.6335
  182MPD1    C4 2772   0.084   0.027   0.753  0.3519  0.1500  0.0897
  182MPD1    C5 2773   0.049   4.632   0.799 -0.0876 -0.1731 -0.1332
  182MPD1     H 2774   4.692   0.216   1.007 -1.8610  0.4225  0.1455
  182MPD1    H1 2775   0.137   0.030   0.659 -1.8205  1.8034 -1.0658
  182MPD1    H2 2776   4.693   4.517   0.952 -2.5412  0.1111 -1.0028
  182MPD1    H3 2777   0.095   4.549   0.746 -0.7511  0.8658 -2.3385
  182MPD1     N 2778   0.080   0.267   0.753 -0.8071  0.2710 -0.0840
  182MPD1    H5 2779   0.122   0.270   0.661 -0.4486 -1.8770  0.0200
  182MPD1    N1 2780   4.595   4.720   1.112  0.0703 -0.4382 -0.8067
  182MPD1    H6 2781   4.534   0.068   1.139  1.9837  1.2000 -1.1816
  182MPD1    H7 2782   4.535   4.637   1.114 -1.3536  0.6825  1.4086
  183MPD1     C 2783   0.470   0.788   8.493 -0.4808  0.3985 -0.6747
  183MPD1    C1 2784   0.576   0.737   8.417 -0.3779 -0.1664  0.6222
  183MPD1    C2 2785   0.704   0.757   8.461 -0.5299  0.8159  0.5383
  183MPD1    C3 2786   0.735   0.834   8.570 -0.2086 -0.4886  0.2045
  183MPD1    C4 2787   0.633   0.908   8.630  0.1894 -0.9237  1.3592
  183MPD1    C5 2788   0.504   0.892   8.581 -0.3016 -0.7539  0.6988
  183MPD1     H 2789   0.790   0.704   8.420 -2.3736 -2.8071  1.3305
  183MPD1    H1 2790   0.648   0.984   8.706  2.2238 -0.7451  0.7763
  183MPD1    H2 2791   0.365   0.767   8.473  0.5374 -2.4388 -3.0291
  183MPD1    H3 2792   0.435   0.952   8.639 -1.2049 -2.3325  1.2559
  183MPD1     N 2793   0.871   0.834   8.617  0.0521  0.1713  0.5476
  183MPD1    H5 2794   0.934   0.767   8.574  0.7097  0.8803  0.3940
  183MPD1    N1 2795   0.546   0.645   8.314  0.3843 -0.2281 -0.0279
  183MPD1    H6 2796   0.464   0.659   8.256 -1.6988  0.5644  3.1262
  183MPD1    H7 2797   0.625   0.628   8.252 -0.7414  2.9051 -2.3253
  184MPD1     C 2798   0.153   3.827  10.136 -0.7395  0.3973 -0.1002
  184MPD1    C1 2799   0.270   3.897  10.159  0.3511 -0.1583  0.6635
  184MPD1    C2 2800   0.286   4.024  10.099 -0.0752  0.1645 -0.4396
  184MPD1    C3 2801   0.188   4.081  10.009  0.6547  0.3384 -0.5446
  184MPD1    C4 2802   0.084   3.997   9.975  0.5531 -0.4290 -0.5807
  184MPD1    C5 2803   0.059   3.880  10.046 -0.2579  0.4470 -0.2604
  184MPD1     H 2804   0.385   4.068  10.102 -0.3306  0.7627 -0.7625
  184MPD1    H1 2805   0.014   4.034   9.901 -0.6708 -2.4890 -0.4283
  184MPD1    H2 2806   0.131   3.733  10.186  1.9176 -1.2575 -2.0203
  184MPD1    H3 2807   4.691   3.838  10.021 -1.9804  3.4535  1.2114
  184MPD1     N 2808   0.201   4.205   9.945  0.2020 -0.2622  0.5385
  184MPD1    H5 2809   0.124   4.228   9.884  1.0163  2.4544  0.5331
  184MPD1    N1 2810   0.374   3.850  10.245 -0.7011  0.0603  0.0941
  184MPD1    H6 2811   0.391   3.752  10.227 -3.1212 -0.5952  1.4401
  184MPD1    H7 2812   0.466   3.890  10.226 -0.7779  0.5315  0.7158
  185MPD1     C 2813   4.428   0.060   9.340 -0.2006  0.2892 -0.0321
  185MPD1    C1 2814   4.448   4.655   9.350 -0.3638  0.1206 -0.6918
  185MPD1    C2 2815   4.557   4.595   9.421 -1.1898 -0.3594 -0.3667
  185MPD1    C3 2816   4.654   4.682   9.472  0.4502  0.5405 -0.1038
  185MPD1    C4 2817   4.631   0.089   9.454  0.4503 -0.6095  0.5473
  185MPD1    C5 2818   4.524   0.138   9.392  0.7272  0.4581  0.1694
  185MPD1     H 2819   4.561   4.487   9.429  2.2463 -0.3288 -1.4910
  185MPD1    H1 2820   4.679   0.164   9.516  0.1853  1.2264 -1.4912
  185MPD1    H2 2821   4.337   0.105   9.301 -0.7442  0.3884  1.3601
  185MPD1    H3 2822   4.506   0.245   9.390  1.5681  0.5785 -1.3061
  185MPD1     N 2823   0.032   4.650   9.555  0.5683  0.2744 -0.1408
  185MPD1    H5 2824   0.095   4.726   9.580 -0.7321  2.0957 -2.5213
  185MPD1    N1 2825   4.351   4.571   9.302  0.0254  0.4143  0.1050
  185MPD1    H6 2826   4.297   4.615   9.227 -1.4498  0.2600  1.0674
  185MPD1    H7 2827   4.375   4.477   9.273 -0.3521  0.6051 -0.8379
  186MPD1     C 2828   3.960   4.319  15.628  0.2671 -0.7102  0.0330
  186MPD1    C1 2829   3.894   4.210  15.684 -0.1980  0.5203 -0.3043
  186MPD1    C2 2830   3.827   4.224  15.805 -0.3403  0.9882 -0.3500
  186MPD1    C3 2831   3.872   4.328  15.896  0.0152 -0.1460  0.0266
  186MPD1    C4 2832   3.947   4.426  15.830 -0.1151 -0.6793  0.5720
  186MPD1    C5 2833   3.982   4.430  15.704  0.5651  0.3802  0.1414
  186MPD1     H 2834   3.765   4.147  15.849  0.0926  1.0377  0.3451
  186MPD1    H1 2835   3.958   4.519  15.885  2.9396 -0.1584 -0.9322
  186MPD1    H2 2836   3.990   4.311  15.524 -0.5290  0.5776 -0.2937
  186MPD1    H3 2837   4.048   4.507  15.667 -0.1948  1.3791  0.8479
  186MPD1     N 2838   3.825   4.353  16.025  0.3960 -0.1880  0.2690
  186MPD1    H5 2839   3.832   4.447  16.064 -0.9374  0.3402 -0.7600
  186MPD1    N1 2840   3.860   4.103  15.609  0.3862  0.9127  0.0920
  186MPD1    H6 2841   3.929   4.074  15.540 -0.7993 -0.4216 -0.5289
  186MPD1    H7 2842   3.833   4.019  15.659 -0.1339 -0.3513 -2.3371
  187MPD1     C 2843   2.118   1.174   0.283 -0.4236 -0.0964  0.4371
  187MPD1    C1 2844   2.059   1.103   0.183  0.4477  0.1045 -0.1508
  187MPD1    C2 2845   2.136   1.086   0.064  0.8605 -0.0724 -0.1847
  187MPD1    C3 2846   2.271   1.122   0.051  0.0411  0.1735  0.5594
  187MPD1    C4 2847   2.328   1.191   0.159  0.2882 -0.8910 -0.5728
  187MPD1    C5 2848   2.251   1.209   0.276  0.5338 -0.1147 -0.2614
  187MPD1     H 2849   2.105   1.027  17.694 -0.2685 -2.6019  1.9637
  187MPD1    H1 2850   2.430   1.226   0.165  0.5096 -1.4461 -1.0813
  187MPD1    H2 2851   2.064   1.191   0.376  1.1486 -0.8184  1.4920
  187MPD1    H3 2852   2.302   1.251   0.361  2.3779 -0.9246 -0.9687
  187MPD1     N 2853   2.356   1.097  17.659  0.0567  0.0035  0.3258
  187MPD1    H5 2854   2.445   1.144  17.658  1.6993 -3.0781  1.9778
  187MPD1    N1 2855   1.926   1.057   0.176  0.4907 -0.3162  0.2111
  187MPD1    H6 2856   1.889   1.033   0.268  0.8906 -2.8634 -0.2896
  187MPD1    H7 2857   1.921   0.981   0.108  0.5898 -0.8172  0.7605
  188MPD1     C 2858   2.662   0.859  10.497 -0.8486  0.2293  0.0969
  188MPD1    C1 2859   2.718   0.741  10.554 -0.0015 -0.2728  0.2329
  188MPD1    C2 2860   2.830   0.685  10.501  0.0099 -0.4202  0.1248
  188MPD1    C3 2861   2.894   0.751  10.392 -0.0492  0.2701  0.0650
  188MPD1    C4 2862   2.839   0.870  10.347 -0.6388  0.9295  0.3469
  188MPD1    C5 2863   2.730   0.928  10.408 -0.3721 -0.0844 -0.4975
  188MPD1     H 2864   2.863   0.592  10.546  0.4619 -0.4882 -0.3401
  188MPD1    H1 2865   2.904   0.930  10.286 -0.3044  0.0835 -0.1287
  188MPD1    H2 2866   2.571   0.907  10.532 -1.3974 -0.7039 -0.0590
  188MPD1    H3 2867   2.692   1.021  10.368  0.6599  0.0304 -1.2162
  188MPD1     N 2868   3.014   0.702  10.333  0.2357 -0.1475 -0.9342
  188MPD1    H5 2869   3.049   0.749  10.250  4.7282 -1.6364  0.1402
  188MPD1    N1 2870   2.651   0.676  10.657 -0.1508  0.0597  0.1758
  188MPD1    H6 2871   2.581   0.733  10.704 -0.4776 -0.3108  0.1382
  188MPD1    H7 2872   2.704   0.611  10.714 -0.9179 -0.8287 -0.1189
  189MPD1     C 2873   0.002   1.082   0.031 -0.1980  0.4491 -0.3823
  189MPD1    C1 2874   4.678   1.043   0.148 -0.2266 -0.3780  0.6929
  189MPD1    C2 2875   4.573   1.119   0.202  0.4837  0.0857 -0.4121
  189MPD1    C3 2876   4.530   1.239   0.139 -0.4586 -0.5228 -0.1942
  189MPD1    C4 2877   4.599   1.284   0.032  0.1440 -0.5561 -0.2243
  189MPD1    C5 2878   4.699   1.209  17.698  0.0488  0.3039  0.3958
  189MPD1     H 2879   4.520   1.084   0.290  1.0915  2.5112  0.9337
  189MPD1    H1 2880   4.579   1.380  17.703 -1.1415  0.5700  2.7088
  189MPD1    H2 2881   0.073   1.019  17.695 -2.0541 -0.4432 -1.8319
  189MPD1    H3 2882   0.024   1.254  17.615 -2.9071  0.5800 -1.3895
  189MPD1     N 2883   4.413   1.307   0.196  0.2408 -0.0663  0.1088
  189MPD1    H5 2884   4.360   1.251   0.263 -1.0054 -0.6542 -1.3470
  189MPD1    N1 2885   4.684   0.911   0.194 -0.0005  0.8009  0.2745
  189MPD1    H6 2886   0.046   0.865   0.186 -1.6132 -2.1663 -1.0085
  189MPD1    H7 2887   4.649   0.900   0.289  2.2124 -1.2635  0.8419
  190MPD1     C 2888   3.104   0.349  15.642  0.1331  0.3916  0.0318
  190MPD1    C1 2889   3.124   0.327  15.777  0.6362  0.6165  0.3826
  190MPD1    C2 2890   3.255   0.347  15.824 -0.5223 -0.5547  0.0686
  190MPD1    C3 2891   3.362   0.375  15.736 -0.1687  0.3037 -0.5704
  190MPD1    C4 2892   3.337   0.382  15.607 -0.7772  0.2551 -0.0932
  190MPD1    C5 2893   3.214   0.366  15.557  0.8776 -0.3831 -0.2665
  190MPD1     H 2894   3.268   0.322  15.929 -1.0274 -1.7095 -0.1411
  190MPD1    H1 2895   3.411   0.400  15.530 -1.4407  0.4768 -0.6883
  190MPD1    H2 2896   3.001   0.350  15.606  0.4365 -0.9577 -0.8899
  190MPD1    H3 2897   3.194   0.387  15.452 -1.0684 -1.5424 -0.1156
  190MPD1     N 2898   3.494   0.400  15.774 -0.4220 -0.2340 -0.4669
  190MPD1    H5 2899   3.552   0.443  15.703  0.8002 -0.0448  0.6263
  190MPD1    N1 2900   3.017   0.323  15.858 -0.3192  0.5758  0.3431
  190MPD1    H6 2901   2.930   0.289  15.816  0.2001  0.3119 -0.5300
  190MPD1    H7 2902   3.036   0.280  15.948 -0.8494  0.6257  0.4797
  191MPD1     C 2903   2.601   1.687  12.934  0.2969 -0.1057  0.4556
  191MPD1    C1 2904   2.682   1.734  12.832 -0.6196 -0.0937  0.2774
  191MPD1    C2 2905   2.625   1.833  12.752 -0.4710 -0.5615 -0.1099
  191MPD1    C3 2906   2.494   1.887  12.783  1.3570 -0.0422 -0.3407
  191MPD1    C4 2907   2.431   1.841  12.897  0.0696 -0.5130 -0.1898
  191MPD1    C5 2908   2.482   1.742  12.964 -0.0174  1.3280  0.1392
  191MPD1     H 2909   2.680   1.881  12.672 -0.5316 -0.1129  0.1166
  191MPD1    H1 2910   2.328   1.867  12.916  0.4445  1.1048 -0.4113
  191MPD1    H2 2911   2.635   1.606  12.998  1.6450  1.1365  1.2965
  191MPD1    H3 2912   2.420   1.691  13.037 -1.7873 -0.3060 -2.4796
  191MPD1     N 2913   2.447   1.988  12.698  0.0331  0.1037  0.8634
  191MPD1    H5 2914   2.505   2.029  12.626 -1.6948  3.0488  1.1262
  191MPD1    N1 2915   2.815   1.699  12.821  0.8551 -0.5540  0.0850
  191MPD1    H6 2916   2.839   1.602  12.838  2.4557  0.2510  2.4955
  191MPD1    H7 2917   2.848   1.717  12.726 -0.4907  0.5036 -0.1796
  192MPD1     C 2918   1.838   2.884  12.679  0.1889 -0.6326 -0.8632
  192MPD1    C1 2919   1.898   2.817  12.777  0.5285  0.2705 -0.1595
  192MPD1    C2 2920   1.957   2.696  12.735 -0.3275 -0.4909  0.6006
  192MPD1    C3 2921   1.956   2.643  12.603  1.0354  0.1067  0.4098
  192MPD1    C4 2922   1.898   2.721  12.505  0.2978  0.3146 -0.6684
  192MPD1    C5 2923   1.839   2.840  12.549  0.1562  0.1601 -0.3612
  192MPD1     H 2924   2.008   2.637  12.811  1.2787  0.2866  0.1366
  192MPD1    H1 2925   1.893   2.690  12.402  0.4498  1.3421 -0.9811
  192MPD1    H2 2926   1.795   2.983  12.694  2.3720  0.2439 -0.4389
  192MPD1    H3 2927   1.800   2.904  12.471 -0.4376 -1.2982 -1.2534
  192MPD1     N 2928   2.018   2.530  12.563  0.1024  0.8576 -0.3934
  192MPD1    H5 2929   2.013   2.499  12.466 -4.3479  2.9378 -0.8107
  192MPD1    N1 2930   1.873   2.845  12.910 -0.4502  0.0080 -0.0674
  192MPD1    H6 2931   1.935   2.810  12.983 -0.3901  0.7791  0.2551
  192MPD1    H7 2932   1.864   2.945  12.928  0.5331  0.3115 -1.2931
  193MPD1     C 2933   2.209   2.131  16.324  0.0034 -0.3576 -0.2582
  193MPD1    C1 2934   2.282   2.012  16.349  0.3011  0.1761 -0.0730
  193MPD1    C2 2935   2.397   2.021  16.429  0.3155  0.1563 -0.4083
  193MPD1    C3 2936   2.443   2.143  16.458 -0.0905 -1.0730 -0.5313
  193MPD1    C4 2937   2.376   2.259  16.432  0.1210 -0.4967 -0.9449
  193MPD1    C5 2938   2.261   2.249  16.365  0.6728 -0.2926  0.0178
  193MPD1     H 2939   2.448   1.934  16.469  1.0047  1.6038  1.8277
  193MPD1    H1 2940   2.413   2.351  16.475  0.5467 -1.7670  1.4201
  193MPD1    H2 2941   2.118   2.134  16.267 -0.0010  0.5337 -0.2002
  193MPD1    H3 2942   2.202   2.340  16.362 -0.3032 -0.9590 -0.9342
  193MPD1     N 2943   2.549   2.173  16.547  0.6506  0.1878 -0.4680
  193MPD1    H5 2944   2.562   2.272  16.563 -0.2341  0.1141  0.7688
  193MPD1    N1 2945   2.233   1.883  16.323 -0.1910 -0.3198 -0.4807
  193MPD1    H6 2946   2.164   1.884  16.248  0.1161 -1.4735 -0.7854
  193MPD1    H7 2947   2.293   1.801  16.331  0.5707  0.3881  0.9204
  194MPD1     C 2948   0.056   4.691  16.614  0.0049 -0.0994  0.6902
  194MPD1    C1 2949   0.189   4.685  16.636 -1.0269 -0.5036 -0.8969
  194MPD1    C2 2950   0.235   4.560  16.681 -0.4768  0.2966 -0.2818
  194MPD1    C3 2951   0.149   4.449  16.697 -0.9932 -0.7986 -0.2074
  194MPD1    C4 2952   0.014   4.460  16.676 -0.8214 -0.3799  0.2922
  194MPD1    C5 2953   4.709   4.581  16.625 -0.3117  0.4334 -0.0830
  194MPD1     H 2954   0.338   4.543  16.711 -0.5562  1.0732  0.4174
  194MPD1    H1 2955   4.677   4.374  16.685  0.0538 -0.8711  1.8925
  194MPD1    H2 2956   0.013   0.059  16.589 -1.0501 -0.3590  1.4934
  194MPD1    H3 2957   4.604   4.604  16.605 -0.6846  0.2064  1.5864
  194MPD1     N 2958   0.193   4.326  16.748 -0.3367  0.5096 -0.0523
  194MPD1    H5 2959   0.124   4.260  16.782 -1.8179  1.4797 -1.1764
  194MPD1    N1 2960   0.266   0.076  16.639 -0.4735 -0.2473  0.3192
  194MPD1    H6 2961   0.237   0.141  16.567  1.0638 -1.4116 -1.3481
  194MPD1    H7 2962   0.367   0.064  16.636 -0.6301 -1.9286  1.4420
  195MPD1     C 2963   2.533   0.901   0.160 -0.0593 -0.4223 -0.2273
  195MPD1    C1 2964   2.621   0.804   0.119  0.1162  0.5864  0.0550
  195MPD1    C2 2965   2.568   0.669   0.129 -0.3411  0.1880 -0.5586
  195MPD1    C3 2966   2.452   0.641   0.199 -0.4105  0.6468  0.3668
  195MPD1    C4 2967   2.377   0.744   0.256  0.0862  0.1984  0.4695
  195MPD1    C5 2968   2.418   0.872   0.232 -0.3565 -0.2213 -0.7092
  195MPD1     H 2969   2.619   0.590   0.074 -1.0952 -0.8462  0.2339
  195MPD1    H1 2970   2.293   0.722   0.321 -0.2762  2.0427  0.6282
  195MPD1    H2 2971   2.560   1.005   0.145 -0.7662 -0.4750 -1.8489
  195MPD1    H3 2972   2.373   0.951   0.291  0.8047  1.1024 -1.5903
  195MPD1     N 2973   2.391   0.508   0.201  0.1981  0.4487 -0.3697
  195MPD1    H5 2974   2.300   0.501   0.244 -0.3736  0.7578 -1.5326
  195MPD1    N1 2975   2.735   0.833   0.038  0.5043 -0.2002 -0.4817
  195MPD1    H6 2976   2.813   0.770   0.055 -0.2344 -1.4708 -1.7923
  195MPD1    H7 2977   2.770   0.928   0.047  0.4256 -0.1935 -0.2226
  196MPD1     C 2978   0.710   0.280  17.675  0.4691  0.2093 -0.1469
  196MPD1    C1 2979   0.618   0.203   0.024 -0.5710  0.1580  0.2487
  196MPD1    C2 2980   0.638   0.194   0.163 -0.3387 -0.3683 -0.4741
  196MPD1    C3 2981   0.723   0.283   0.228 -0.4815  1.0370  0.4571
  196MPD1    C4 2982   0.803   0.370   0.160 -0.0623 -0.1225  0.5085
  196MPD1    C5 2983   0.793   0.367   0.020 -0.8418 -0.0883 -0.3052
  196MPD1     H 2984   0.577   0.125   0.220  0.5661  0.0933  1.0459
  196MPD1    H1 2985   0.876   0.434   0.207 -0.2696 -0.4040  1.2135
  196MPD1    H2 2986   0.692   0.299  17.569  1.4116  0.0613 -0.3302
  196MPD1    H3 2987   0.855   0.436  17.679 -0.9293  0.1908 -0.0619
  196MPD1     N 2988   0.737   0.288   0.373 -0.0981  0.7024  0.2411
  196MPD1    H5 2989   0.803   0.352   0.416  1.4872 -0.7988 -0.0118
  196MPD1    N1 2990   0.525   0.128  17.667  0.0910  0.4738  0.9865
  196MPD1    H6 2991   0.437   0.130   0.003 -0.5053  1.6271 -0.0780
  196MPD1    H7 2992   0.505   0.165  17.574  0.0372  1.9555  1.6005
  197MPD1     C 2993   1.279   2.174  17.684 -0.0229  0.7726  0.2481
  197MPD1    C1 2994   1.342   2.283   0.030  0.2881  1.5068  0.0743
  197MPD1    C2 2995   1.397   2.385  17.667  0.6146 -0.1919 -0.0688
  197MPD1    C3 2996   1.372   2.384  17.533  0.2790 -0.3155 -0.7342
  197MPD1    C4 2997   1.290   2.281  17.476 -0.1976 -0.0900 -0.6369
  197MPD1    C5 2998   1.250   2.177  17.555 -0.2685  0.1602  0.2135
  197MPD1     H 2999   1.455   2.462  17.716 -0.0978 -0.4322  1.1582
  197MPD1    H1 3000   1.241   2.297  17.380  2.9090 -0.0858 -2.2369
  197MPD1    H2 3001   1.250   2.093   0.033 -0.9818  1.1581  0.3086
  197MPD1    H3 3002   1.190   2.094  17.518  1.0444 -1.2869  1.3085
  197MPD1     N 3003   1.405   2.493  17.450  0.3712 -0.8540 -0.4476
  197MPD1    H5 3004   1.365   2.495  17.356  0.0969 -1.0724 -0.3361
  197MPD1    N1 3005   1.389   2.269   0.163 -0.0927  0.3114 -0.5327
  197MPD1    H6 3006   1.397   2.363   0.201 -1.0774  0.2410 -0.1571
  197MPD1    H7 3007   1.317   2.218   0.214  0.6267 -0.1272  0.0423
  198MPD1     C 3008   3.154   0.886  16.265 -0.2802 -0.3740 -0.4814
  198MPD1    C1 3009   3.182   0.929  16.138  0.2610 -0.3442  0.3360
  198MPD1    C2 3010   3.230   1.062  16.119  0.0833 -0.1161  0.1358
  198MPD1    C3 3011   3.228   1.147  16.218 -0.6291 -0.7616  0.8549
  198MPD1    C4 3012   3.216   1.098  16.348  0.5100 -0.3140 -0.0858
  198MPD1    C5 3013   3.174   0.973  16.374 -0.1911 -0.9266  0.5408
  198MPD1     H 3014   3.256   1.097  16.020 -3.8926 -3.1340 -1.9787
  198MPD1    H1 3015   3.240   1.170  16.425 -2.3148 -2.2305  2.6145
  198MPD1    H2 3016   3.127   0.782  16.282 -0.0474 -0.3877 -0.1854
  198MPD1    H3 3017   3.174   0.937  16.477 -1.7250 -1.2561  0.4176
  198MPD1     N 3018   3.267   1.284  16.196  0.0241  0.1274  0.6188
  198MPD1    H5 3019   3.307   1.305  16.106 -3.1709 -0.9644 -1.0635
  198MPD1    N1 3020   3.180   0.837  16.034 -0.0294  0.1282 -0.1698
  198MPD1    H6 3021   3.177   0.886  15.944 -3.0017  0.3536  0.0354
  198MPD1    H7 3022   3.107   0.767  16.047  0.9505 -0.4621  2.1292
  199MPD1     C 3023   3.988   2.592  10.007 -0.7233  0.6159 -0.2976
  199MPD1    C1 3024   4.036   2.713  10.050  0.3601 -0.1651 -0.0200
  199MPD1    C2 3025   4.174   2.728  10.081 -1.2736 -0.1593  0.0035
  199MPD1    C3 3026   4.260   2.630  10.045 -0.0810  0.6558 -0.0527
  199MPD1    C4 3027   4.211   2.510   9.994  0.1050 -0.0511  0.5981
  199MPD1    C5 3028   4.075   2.488   9.977  0.3119  0.4702  0.8809
  199MPD1     H 3029   4.216   2.810  10.138  0.6028 -0.4047 -1.0268
  199MPD1    H1 3030   4.278   2.432   9.961  0.0950 -0.5047  1.6611
  199MPD1    H2 3031   3.884   2.562  10.003 -0.6095  0.3446 -1.4577
  199MPD1    H3 3032   4.055   2.392   9.932 -0.6408  0.9114  0.3626
  199MPD1     N 3033   4.396   2.630  10.076  0.5443 -0.2362 -0.1251
  199MPD1    H5 3034   4.453   2.547  10.063 -0.2183 -1.1132  2.0667
  199MPD1    N1 3035   3.951   2.818  10.091  0.1543 -0.1820 -0.3600
  199MPD1    H6 3036   3.994   2.906  10.064  0.3848  0.2076  1.2385
  199MPD1    H7 3037   3.862   2.815  10.043  0.8016  2.7163 -1.7751
  200MPD1     C 3038   0.650   3.227  15.580  0.4491 -0.7767  0.0886
  200MPD1    C1 3039   0.727   3.316  15.517 -0.4478  0.6007  0.2173
  200MPD1    C2 3040   0.679   3.354  15.392 -0.3033 -0.0058  0.6528
  200MPD1    C3 3041   0.561   3.311  15.337 -0.0428 -0.0330 -0.2971
  200MPD1    C4 3042   0.490   3.217  15.403 -1.1538  0.9369 -0.7478
  200MPD1    C5 3043   0.531   3.180  15.529  0.6488 -0.5868  0.2379
  200MPD1     H 3044   0.738   3.431  15.345  0.2921  0.6293  2.4216
  200MPD1    H1 3045   0.390   3.191  15.368 -1.3732  0.4617  0.2391
  200MPD1    H2 3046   0.687   3.181  15.671 -2.3796  0.2544  1.7668
  200MPD1    H3 3047   0.477   3.106  15.586  0.0909  1.2114  2.0188
  200MPD1     N 3048   0.516   3.368  15.212  0.0067  0.3332  0.2158
  200MPD1    H5 3049   0.561   3.446  15.166  0.6252 -0.7914 -1.0729
  200MPD1    N1 3050   0.827   3.392  15.579 -0.4445  1.1595  0.3503
  200MPD1    H6 3051   0.864   3.334  15.654 -0.9880  0.2827 -0.0694
  200MPD1    H7 3052   0.900   3.419  15.515 -3.0591  2.7664 -1.9436
  201MPD1     C 3053   1.451   1.202  12.443 -0.7102 -0.2740 -0.5727
  201MPD1    C1 3054   1.564   1.117  12.432 -0.4865 -0.8232  0.2419
  201MPD1    C2 3055   1.653   1.114  12.535 -0.4516  0.0060 -0.5606
  201MPD1    C3 3056   1.647   1.204  12.638  0.0931 -0.0487 -0.0351
  201MPD1    C4 3057   1.544   1.291  12.636  0.5290 -0.3302  1.1200
  201MPD1    C5 3058   1.440   1.286  12.551  0.5124 -1.0508 -0.2894
  201MPD1     H 3059   1.736   1.043  12.541 -1.8186 -1.3926  1.8475
  201MPD1    H1 3060   1.527   1.373  12.705  0.6831 -0.6052  1.4836
  201MPD1    H2 3061   1.373   1.206  12.368 -1.0343  1.4967 -0.1429
  201MPD1    H3 3062   1.357   1.356  12.558  0.4057 -1.2595  0.4733
  201MPD1     N 3063   1.746   1.207  12.734 -0.1705  0.5124 -0.0434
  201MPD1    H5 3064   1.797   1.119  12.737 -1.8745 -0.4473  0.6570
  201MPD1    N1 3065   1.569   1.015  12.338  0.2628  0.7908  0.0512
  201MPD1    H6 3066   1.547   1.054  12.246  0.1912 -0.4507 -0.4638
  201MPD1    H7 3067   1.659   0.969  12.322 -0.6628 -1.0700  0.2264
  202MPD1     C 3068   1.464   4.592   9.469 -0.7993 -0.4178  0.2383
  202MPD1    C1 3069   1.408   4.710   9.416 -0.3436  0.1159 -0.0932
  202MPD1    C2 3070   1.469   0.097   9.469 -0.1659  0.4516  0.2605
  202MPD1    C3 3071   1.590   0.092   9.534  0.6470  0.3201 -0.0100
  202MPD1    C4 3072   1.650   4.698   9.568 -0.9096 -0.5728  1.0100
  202MPD1    C5 3073   1.579   4.585   9.544 -0.5737 -0.4167  0.0345
  202MPD1     H 3074   1.407   0.183   9.453  2.1032  1.8886 -0.8389
  202MPD1    H1 3075   1.740   4.682   9.626  1.0217  0.0171 -1.8322
  202MPD1    H2 3076   1.408   4.500   9.458  0.3873 -1.2255  0.9668
  202MPD1    H3 3077   1.608   4.488   9.582 -0.0867  0.0595  0.8715
  202MPD1     N 3078   1.659   0.218   9.570 -0.7549  0.2431  0.1302
  202MPD1    H5 3079   1.754   0.200   9.601 -0.2585  1.6583 -0.5895
  202MPD1    N1 3080   1.273   4.709   9.384  0.1427  0.1447  0.3155
  202MPD1    H6 3081   1.253   0.060   9.324  1.7904  0.6063  0.3680
  202MPD1    H7 3082   1.252   4.625   9.329 -0.2680 -0.6961  1.7742
  203MPD1     C 3083   0.817   2.424  12.029 -0.0958 -0.1464 -0.4549
  203MPD1    C1 3084   0.786   2.315  11.943  0.4838  0.4089  0.6016
  203MPD1    C2 3085   0.777   2.184  12.000  0.9106  0.0422  0.7177
  203MPD1    C3 3086   0.773   2.167  12.139  0.9547  0.6952 -0.3535
  203MPD1    C4 3087   0.787   2.278  12.221 -0.1911  0.6288  0.2794
  203MPD1    C5 3088   0.825   2.396  12.164 -0.0960  0.9462  0.1860
  203MPD1     H 3089   0.786   2.099  11.934 -1.5129  2.5363 -2.8292
  203MPD1    H1 3090   0.780   2.275  12.329  1.7650 -2.5018  0.3040
  203MPD1    H2 3091   0.830   2.527  12.000 -0.4318  0.1767  0.5326
  203MPD1    H3 3092   0.835   2.484  12.226  0.6673  0.4438  0.7804
  203MPD1     N 3093   0.753   2.031  12.194 -0.2618  0.5876 -0.1675
  203MPD1    H5 3094   0.742   1.953  12.129 -3.7359  1.1060 -0.1592
  203MPD1    N1 3095   0.788   2.334  11.802  0.6074  1.3910 -0.0627
  203MPD1    H6 3096   0.730   2.414  11.780 -2.3594 -1.1817 -1.5585
  203MPD1    H7 3097   0.727   2.259  11.770  1.7884  0.6708 -0.6443
  204MPD1     C 3098   4.065   3.469  17.464  0.1684  0.0101 -0.5462
  204MPD1    C1 3099   4.032   3.343  17.436  0.5121 -0.9465  0.2342
  204MPD1    C2 3100   4.128   3.256  17.385  0.0381 -0.0822  0.5854
  204MPD1    C3 3101   4.259   3.292  17.380 -0.8257 -0.6494  0.2102
  204MPD1    C4 3102   4.298   3.416  17.417  0.8209  0.8804  0.7391
  204MPD1    C5 3103   4.198   3.501  17.458  0.0636 -0.2437 -0.5886
  204MPD1     H 3104   4.100   3.153  17.362  1.8436 -0.6660  1.0097
  204MPD1    H1 3105   4.401   3.448  17.420  1.3064 -0.6077 -0.3739
  204MPD1    H2 3106   4.004   3.551  17.499 -0.7572 -1.6844  1.7789
  204MPD1    H3 3107   4.221   3.603  17.486 -1.8519 -0.3197  1.2151
  204MPD1     N 3108   4.355   3.197  17.337  0.6230  0.0323 -0.1111
  204MPD1    H5 3109   4.323   3.106  17.308 -3.4850  1.1665  0.8517
  204MPD1    N1 3110   3.897   3.314  17.448 -0.2996  0.1203 -0.5389
  204MPD1    H6 3111   3.881   3.214  17.458 -0.7778  0.2481 -0.0467
  204MPD1    H7 3112   3.857   3.356  17.531  0.2931  1.4203 -0.9196
  205MPD1     C 3113   0.621   2.043  17.017 -0.2335 -0.3037  0.3271
  205MPD1    C1 3114   0.567   1.918  17.038 -0.8521  0.1171  0.9894
  205MPD1    C2 3115   0.429   1.911  17.056 -0.6775  0.9672 -0.5118
  205MPD1    C3 3116   0.355   2.026  17.048  0.0460 -0.7548 -0.1135
  205MPD1    C4 3117   0.416   2.142  17.019  0.3982 -0.8534  0.3857
  205MPD1    C5 3118   0.550   2.160  17.013  0.7752 -0.2197 -0.5556
  205MPD1     H 3119   0.383   1.813  17.061  1.9374 -0.2270 -0.1228
  205MPD1    H1 3120   0.356   2.232  17.023  0.5919 -0.5933 -2.7793
  205MPD1    H2 3121   0.727   2.050  16.995 -0.3108 -0.7873 -0.1875
  205MPD1    H3 3122   0.596   2.257  16.993 -0.1254  0.2356 -0.4332
  205MPD1     N 3123   0.219   2.033  17.071 -0.3532 -0.0498 -0.3966
  205MPD1    H5 3124   0.174   2.117  17.108  1.2307 -0.0260  1.4276
  205MPD1    N1 3125   0.645   1.804  17.037  0.3212 -0.2451 -0.1636
  205MPD1    H6 3126   0.727   1.817  17.095 -0.9554 -1.1163  1.8257
  205MPD1    H7 3127   0.598   1.727  17.083 -0.5617 -1.1500 -2.5841
  206MPD1     C 3128   0.660   4.521  16.995  0.5707  0.1727 -0.1929
  206MPD1    C1 3129   0.609   4.647  16.958 -0.1349 -0.1961 -0.4472
  206MPD1    C2 3130   0.578   4.680  16.826 -0.4891 -0.5443  0.6618
  206MPD1    C3 3131   0.606   4.592  16.725 -0.9877  0.2526 -0.3524
  206MPD1    C4 3132   0.665   4.473  16.757  0.1262 -0.2722  0.5238
  206MPD1    C5 3133   0.681   4.436  16.889  0.0640 -0.4826  0.4061
  206MPD1     H 3134   0.521   0.040  16.802  0.2517  0.1046  1.3251
  206MPD1    H1 3135   0.679   4.401  16.678 -1.6473 -1.5322  1.3475
  206MPD1    H2 3136   0.674   4.487  17.097 -1.7236 -2.4447 -0.7635
  206MPD1    H3 3137   0.700   4.334  16.918  0.2180  0.0924  2.3567
  206MPD1     N 3138   0.580   4.619  16.586  0.4029 -0.0402  0.3030
  206MPD1    H5 3139   0.606   4.547  16.520  1.0777  0.1492  0.3606
  206MPD1    N1 3140   0.568   0.005  17.063  0.1439  0.5513 -0.2270
  206MPD1    H6 3141   0.556   0.103  17.038  0.1294  0.0622 -2.1912
  206MPD1    H7 3142   0.624   4.720  17.146 -0.4221 -0.4324 -0.0073
  207MPD1     C 3143   3.849   2.018   9.540 -0.1911  0.7693  0.2417
  207MPD1    C1 3144   3.919   2.117   9.604 -0.7475  0.0776  0.1684
  207MPD1    C2 3145   3.854   2.170   9.715 -0.4779 -0.0213  0.6737
  207MPD1    C3 3146   3.731   2.123   9.760 -0.1993  0.2943  0.3781
  207MPD1    C4 3147   3.682   2.009   9.703 -0.1137 -0.3036 -0.6608
  207MPD1    C5 3148   3.731   1.963   9.589 -0.2578  0.5258  0.0678
  207MPD1     H 3149   3.905   2.250   9.767  1.2439 -1.1124  0.6537
  207MPD1    H1 3150   3.594   1.967   9.750  0.6617 -0.8234  0.3163
  207MPD1    H2 3151   3.871   1.993   9.437  2.2142 -0.0883  0.9591
  207MPD1    H3 3152   3.670   1.892   9.533  1.5613 -1.6538  0.8649
  207MPD1     N 3153   3.657   2.169   9.871  1.1282  0.0769  0.1009
  207MPD1    H5 3154   3.573   2.117   9.897 -0.8737  2.3369 -1.9568
  207MPD1    N1 3155   4.032   2.174   9.540  0.2932  0.1261 -0.2653
  207MPD1    H6 3156   4.084   2.103   9.489  0.3055 -2.2056  3.0130
  207MPD1    H7 3157   4.095   2.210   9.611  0.9904 -1.8022  0.0776
  208MPD1     C 3158   0.832   1.169  17.135  0.2656 -0.1715 -0.7578
  208MPD1    C1 3159   0.803   1.036  17.123  0.2532 -0.7876 -0.2938
  208MPD1    C2 3160   0.678   0.995  17.159 -0.1901  0.6257  0.7571
  208MPD1    C3 3161   0.591   1.070  17.234 -0.0460 -0.6119  0.0229
  208MPD1    C4 3162   0.627   1.202  17.252  0.2531  0.2020  0.0466
  208MPD1    C5 3163   0.736   1.255  17.188 -0.4298 -1.1532  0.0236
  208MPD1     H 3164   0.655   0.894  17.127  1.7479 -0.0126  1.3952
  208MPD1    H1 3165   0.557   1.273  17.294 -1.0365 -2.2490  2.0287
  208MPD1    H2 3166   0.926   1.198  17.089 -1.0489  2.1098 -2.0533
  208MPD1    H3 3167   0.755   1.360  17.204  0.0388 -1.2076 -0.1873
  208MPD1     N 3168   0.474   1.005  17.283 -0.3220  0.0595  0.1516
  208MPD1    H5 3169   0.453   0.911  17.252  2.6134 -0.4607 -0.2187
  208MPD1    N1 3170   0.895   0.953  17.055  0.0867  0.2540 -0.0200
  208MPD1    H6 3171   0.993   0.980  17.050  0.1244 -0.2864 -1.9730
  208MPD1    H7 3172   0.887   0.854  17.077 -1.2367  1.0448  2.9939
  209MPD1     C 3173   2.512   1.259  11.192  0.1903 -0.5072  0.0041
  209MPD1    C1 3174   2.626   1.275  11.271  0.6228  0.0153  0.2332
  209MPD1    C2 3175   2.724   1.358  11.221  0.2981  0.2628  0.0740
  209MPD1    C3 3176   2.707   1.430  11.101  0.1430 -0.3205 -0.4418
  209MPD1    C4 3177   2.595   1.405  11.020  0.3886  0.4886  0.5189
  209MPD1    C5 3178   2.498   1.331  11.077  0.2059 -0.7556 -0.0049
  209MPD1     H 3179   2.813   1.381  11.278 -0.1374  0.4741  0.6649
  209MPD1    H1 3180   2.576   1.474  10.939  1.8231 -1.3155 -1.3524
  209MPD1    H2 3181   2.426   1.205  11.229  0.0353  0.1249  0.5852
  209MPD1    H3 3182   2.403   1.323  11.026  1.6391  1.2581 -3.0303
  209MPD1     N 3183   2.801   1.537  11.063 -0.0798  0.0328 -0.9703
  209MPD1    H5 3184   2.864   1.577  11.132  0.6817  0.1472 -1.7346
  209MPD1    N1 3185   2.633   1.216  11.395 -0.1391 -0.2664  0.5114
  209MPD1    H6 3186   2.605   1.118  11.390  0.5992 -0.5216  1.4139
  209MPD1    H7 3187   2.725   1.230  11.436  0.4202  1.0672 -1.2454
  210MPD1     C 3188   3.334   2.261  11.412  0.2414 -0.0563  0.7074
  210MPD1    C1 3189   3.208   2.222  11.438  0.6171  0.3757 -0.2510
  210MPD1    C2 3190   3.148   2.137  11.345 -0.3796 -0.3593 -0.0264
  210MPD1    C3 3191   3.197   2.114  11.219 -0.5414  0.5332  0.2490
  210MPD1    C4 3192   3.321   2.162  11.190 -0.0795  0.0532 -0.0839
  210MPD1    C5 3193   3.388   2.231  11.287 -0.4313  0.2757 -0.1031
  210MPD1     H 3194   3.052   2.096  11.372 -0.1462 -0.5235  0.5747
  210MPD1    H1 3195   3.360   2.156  11.089  0.4157 -0.0362  0.1127
  210MPD1    H2 3196   3.389   2.327  11.479 -3.3869  1.3291  2.3452
  210MPD1    H3 3197   3.488   2.263  11.262 -0.2142 -1.5136 -1.4723
  210MPD1     N 3198   3.134   2.038  11.119 -0.7634  0.1617  0.0160
  210MPD1    H5 3199   3.190   2.028  11.035 -0.0416  0.2131  0.4955
  210MPD1    N1 3200   3.159   2.232  11.571  0.6334  0.0895 -0.0028
  210MPD1    H6 3201   3.059   2.215  11.582  1.0113 -0.2732  2.9992
  210MPD1    H7 3202   3.178   2.324  11.610 -1.7978  1.4183 -1.9921
  211MPD1     C 3203   1.490   1.266  16.675 -0.1174  0.2136 -0.0327
  211MPD1    C1 3204   1.454   1.379  16.604  0.1934  0.1558  0.0795
  211MPD1    C2 3205   1.337   1.450  16.637  0.4070  0.1893  0.5880
  211MPD1    C3 3206   1.244   1.395  16.718 -0.1150 -0.0117  0.1887
  211MPD1    C4 3207   1.273   1.281  16.790  0.1698 -0.1857  0.3047
  211MPD1    C5 3208   1.394   1.213  16.766 -0.3131 -0.0305 -0.7387
  211MPD1     H 3209   1.312   1.539  16.580 -0.9580  0.2572  1.3035
  211MPD1    H1 3210   1.201   1.244  16.863  0.2522  0.7732  0.8630
  211MPD1    H2 3211   1.586   1.217  16.664 -0.9582 -1.3397 -0.3971
  211MPD1    H3 3212   1.426   1.123  16.817 -1.8471 -0.9148 -1.3508
  211MPD1     N 3213   1.120   1.455  16.718 -0.3190  0.3163 -0.1911
  211MPD1    H5 3214   1.116   1.546  16.673  0.9335  0.7930  0.6583
  211MPD1    N1 3215   1.545   1.428  16.507 -0.1081 -0.3402 -0.7838
  211MPD1    H6 3216   1.499   1.474  16.428 -0.6112 -0.2454 -0.4335
  211MPD1    H7 3217   1.612   1.358  16.474 -0.0156 -0.7941  0.3710
  212MPD1     C 3218   0.258   4.703  17.222  0.4359 -0.6400 -0.0632
  212MPD1    C1 3219   0.222   4.661  17.099 -0.0305 -0.7641  0.4339
  212MPD1    C2 3220   0.113   4.582  17.083  0.5689  0.4505  0.2887
  212MPD1    C3 3221   0.031   4.557  17.196  0.2797  0.3414  0.1846
  212MPD1    C4 3222   0.069   4.602  17.323 -0.2362  0.7532 -0.4643
  212MPD1    C5 3223   0.185   4.674  17.331  0.1939  0.6837  0.2035
  212MPD1     H 3224   0.089   4.556  16.981  2.3725  1.1811 -0.3231
  212MPD1    H1 3225   0.008   4.604  17.412 -0.5707 -0.2983 -0.6747
  212MPD1    H2 3226   0.350   0.031  17.231 -0.4102  0.5917  0.9269
  212MPD1    H3 3227   0.220   4.721  17.422 -3.6524 -0.8489  2.4385
  212MPD1     N 3228   4.637   4.483  17.197 -0.0200  0.1875 -0.1770
  212MPD1    H5 3229   4.600   4.461  17.289  1.0755  1.7182  0.6322
  212MPD1    N1 3230   0.292   4.700  16.984  0.4610 -0.2419 -0.2027
  212MPD1    H6 3231   0.392   4.693  16.999  0.6844 -1.9317 -2.5814
  212MPD1    H7 3232   0.263   4.643  16.905 -1.8975  1.9997 -0.9784
  213MPD1     C 3233   2.717   0.230  16.014 -0.6124  0.4102  0.2423
  213MPD1    C1 3234   2.739   0.138  15.911  0.1443  0.1272  0.1859
  213MPD1    C2 3235   2.672   0.163  15.791  0.7680 -0.2151  0.5870
  213MPD1    C3 3236   2.615   0.286  15.757 -0.0185  0.4473  0.5756
  213MPD1    C4 3237   2.626   0.385  15.855 -0.9670 -0.3026  0.3648
  213MPD1    C5 3238   2.677   0.351  15.980 -0.4860  0.3302  1.3081
  213MPD1     H 3239   2.674   0.089  15.712 -1.2617  0.2007  0.1468
  213MPD1    H1 3240   2.578   0.481  15.840  3.8274  2.2796  1.5402
  213MPD1    H2 3241   2.741   0.208  16.118 -0.8072 -1.7083 -0.1710
  213MPD1    H3 3242   2.666   0.433  16.050 -0.8471  1.7573 -0.4277
  213MPD1     N 3243   2.549   0.296  15.629  0.4593  0.0821 -0.4195
  213MPD1    H5 3244   2.554   0.217  15.566  1.1202  1.8998 -2.6843
  213MPD1    N1 3245   2.772   0.002  15.940 -0.7320  0.2792  0.2185
  213MPD1    H6 3246   2.851   4.716  16.002 -1.8517 -0.5362  1.4627
  213MPD1    H7 3247   2.807   4.686  15.856  0.9668  0.6176  0.7500
  214MPD1     C 3248   2.289   4.359  15.145  0.5954  0.7859 -0.1212
  214MPD1    C1 3249   2.330   4.462  15.064  0.2972  0.3721  0.6710
  214MPD1    C2 3250   2.329   4.599  15.100  0.3159 -0.5265  0.3044
  214MPD1    C3 3251   2.294   4.637  15.233  0.1212  0.4578 -0.6014
  214MPD1    C4 3252   2.256   4.529  15.315  0.0440  0.4872 -0.1001
  214MPD1    C5 3253   2.252   4.402  15.272  0.2715  0.1825 -0.4559
  214MPD1     H 3254   2.349   4.676  15.027  0.9530 -2.3431 -1.4366
  214MPD1    H1 3255   2.239   4.538  15.422 -1.5729  2.1428 -0.4864
  214MPD1    H2 3256   2.269   4.255  15.121  1.9630  0.1543  1.4250
  214MPD1    H3 3257   2.218   4.325  15.341  0.4784  0.2194 -0.3130
  214MPD1     N 3258   2.300   0.035  15.288 -0.6019  0.7178  0.5234
  214MPD1    H5 3259   2.259   0.048  15.379  0.0230 -0.1802  0.9306
  214MPD1    N1 3260   2.364   4.438  14.935  0.1145  0.9064 -0.4079
  214MPD1    H6 3261   2.442   4.500  14.916  0.3808  1.0501  1.1796
  214MPD1    H7 3262   2.391   4.341  14.918  1.8087  1.2227  0.4822
  215MPD1     C 3263   2.067   1.899  11.223  0.0022  1.1849 -1.2419
  215MPD1    C1 3264   2.086   1.944  11.358  0.6682  0.3000 -0.5142
  215MPD1    C2 3265   2.202   2.021  11.390 -0.4878  0.2102 -0.3404
  215MPD1    C3 3266   2.283   2.066  11.288  0.1113  0.2612 -0.4578
  215MPD1    C4 3267   2.254   2.029  11.157 -0.0098  0.1211 -0.2209
  215MPD1    C5 3268   2.150   1.947  11.127  0.6512  0.6610 -0.3395
  215MPD1     H 3269   2.233   2.035  11.492 -0.2172  0.2101 -0.4228
  215MPD1    H1 3270   2.328   2.048  11.080  0.7063  0.7061  0.6233
  215MPD1    H2 3271   1.986   1.828  11.210  0.3240  0.9187 -1.7675
  215MPD1    H3 3272   2.130   1.905  11.029 -0.3332  1.4349 -0.4770
  215MPD1     N 3273   2.407   2.126  11.328  0.1770  0.5068  0.7326
  215MPD1    H5 3274   2.418   2.124  11.428  0.2084 -2.6755  0.6535
  215MPD1    N1 3275   2.010   1.873  11.456 -0.1522 -0.7467 -0.0336
  215MPD1    H6 3276   1.908   1.882  11.447 -0.2849 -0.7536  1.5406
  215MPD1    H7 3277   2.038   1.905  11.548  1.7895  0.9410 -1.2233
  216MPD1     C 3278   0.205   4.036  16.302 -0.7336  0.0133 -0.8060
  216MPD1    C1 3279   0.228   3.903  16.341  0.0549 -0.0572 -0.1719
  216MPD1    C2 3280   0.187   3.872  16.471 -0.4391 -0.0444  0.2759
  216MPD1    C3 3281   0.120   3.959  16.555  0.1382  0.2567 -0.0251
  216MPD1    C4 3282   0.113   4.096  16.522  0.7906  0.6942  0.5289
  216MPD1    C5 3283   0.151   4.125  16.396  0.1284 -0.3259  0.0701
  216MPD1     H 3284   0.198   3.769  16.503 -0.8704 -0.0669  0.3565
  216MPD1    H1 3285   0.079   4.182  16.580 -0.0898  0.4831  0.3354
  216MPD1    H2 3286   0.221   4.067  16.199 -1.5961 -0.2538 -1.0180
  216MPD1    H3 3287   0.143   4.229  16.366  0.4264 -0.7752 -1.5533
  216MPD1     N 3288   0.073   3.916  16.682 -0.0780  0.9587 -0.4276
  216MPD1    H5 3289   0.088   3.820  16.712  2.3980  1.9047  1.4275
  216MPD1    N1 3290   0.250   3.811  16.239  0.0487 -0.5220  0.1516
  216MPD1    H6 3291   0.296   3.728  16.278 -1.0376  0.2945  3.1508
  216MPD1    H7 3292   0.305   3.842  16.159  1.3479  1.5885  1.8696
  217MPD1     C 3293   0.078   0.088   8.716  0.3595  0.2594 -0.3568
  217MPD1    C1 3294   0.191   4.728   8.708  0.1500 -0.0477  0.3531
  217MPD1    C2 3295   0.291   0.034   8.792  0.4103 -0.0947 -0.0407
  217MPD1    C3 3296   0.291   0.145   8.872  0.5065 -0.1413 -0.0529
  217MPD1    C4 3297   0.178   0.218   8.875 -0.8517  1.1767  0.7236
  217MPD1    C5 3298   0.073   0.192   8.795  0.4526 -0.5161 -0.5803
  217MPD1     H 3299   0.379   4.700   8.789 -0.3760 -1.1178 -2.6202
  217MPD1    H1 3300   0.169   0.297   8.948 -1.3171  1.9764 -0.1973
  217MPD1    H2 3301   4.721   0.074   8.651 -0.6551  0.1478  1.0286
  217MPD1    H3 3302   4.709   0.246   8.799  0.7425 -0.1847  1.8522
  217MPD1     N 3303   0.398   0.188   8.950  0.3661  0.2910 -0.1384
  217MPD1    H5 3304   0.391   0.278   8.997 -1.0214  0.1242 -0.0494
  217MPD1    N1 3305   0.208   4.635   8.611  0.1067 -0.3976  0.1594
  217MPD1    H6 3306   0.270   4.559   8.637  1.7636  0.4850 -1.2574
  217MPD1    H7 3307   0.120   4.591   8.584 -0.2300  0.7701 -0.6590
  218MPD1     C 3308   1.793   1.767  12.991 -0.0699  0.2587 -0.2296
  218MPD1    C1 3309   1.844   1.865  12.909  0.3278  0.4837  0.1730
  218MPD1    C2 3310   1.960   1.835  12.838 -0.5419 -0.8046 -0.5366
  218MPD1    C3 3311   2.021   1.712  12.856 -0.4702  0.9774  0.6870
  218MPD1    C4 3312   1.968   1.613  12.938  0.2780  0.4193 -0.1716
  218MPD1    C5 3313   1.853   1.646  13.010  0.1822 -0.4359 -0.8275
  218MPD1     H 3314   2.005   1.902  12.766 -0.6007 -1.3341 -1.0626
  218MPD1    H1 3315   2.012   1.515  12.955  0.4437  0.1151 -2.2818
  218MPD1    H2 3316   1.701   1.769  13.049  0.8483 -3.2513  1.2962
  218MPD1    H3 3317   1.805   1.571  13.072  1.1027 -3.2865 -3.5681
  218MPD1     N 3318   2.142   1.699  12.780 -0.4434 -0.4311  0.1710
  218MPD1    H5 3319   2.163   1.775  12.716  0.9347 -2.1673 -1.4329
  218MPD1    N1 3320   1.767   1.981  12.891  0.0188 -0.3039 -0.5744
  218MPD1    H6 3321   1.711   2.011  12.971  0.2975  0.3779 -0.6320
  218MPD1    H7 3322   1.826   2.061  12.867 -0.2970 -0.3988 -1.6664
  219MPD1     C 3323   2.669   1.924  11.972  0.4419 -0.3858 -0.7969
  219MPD1    C1 3324   2.650   1.997  12.091 -0.2160 -0.0331  0.0991
  219MPD1    C2 3325   2.602   1.924  12.199 -0.6930 -0.1925  0.0356
  219MPD1    C3 3326   2.576   1.790  12.192  0.5819  0.6223 -0.3816
  219MPD1    C4 3327   2.600   1.724  12.074  0.5279 -0.4277  0.2861
  219MPD1    C5 3328   2.655   1.790  11.963  0.2929  0.1096 -0.1385
  219MPD1     H 3329   2.580   1.982  12.288  3.5877  2.5381 -0.6964
  219MPD1    H1 3330   2.590   1.616  12.070 -1.3498 -0.2912  1.4924
  219MPD1    H2 3331   2.701   1.971  11.880  1.2338  0.2282 -0.2056
  219MPD1    H3 3332   2.681   1.738  11.871  0.0301 -1.6677  0.7911
  219MPD1     N 3333   2.525   1.711  12.293 -0.1766 -0.3471 -0.5135
  219MPD1    H5 3334   2.514   1.611  12.286  0.9484 -0.6932  2.7802
  219MPD1    N1 3335   2.652   2.134  12.098 -0.1381  0.4012 -0.1525
  219MPD1    H6 3336   2.707   2.174  12.022 -0.1894  0.3602 -0.2114
  219MPD1    H7 3337   2.698   2.167  12.183  1.3605  1.6151 -1.4372
  220MPD1     C 3338   3.340   2.209   9.609 -0.0690  0.2679 -0.1931
  220MPD1    C1 3339   3.230   2.131   9.644 -0.3985  0.1439  0.6890
  220MPD1    C2 3340   3.171   2.157   9.767 -0.1765 -0.1005  0.5504
  220MPD1    C3 3341   3.225   2.242   9.865  0.4622 -0.2528  0.2676
  220MPD1    C4 3342   3.329   2.322   9.824 -0.2419  0.1564  0.6841
  220MPD1    C5 3343   3.383   2.300   9.699 -0.6690 -0.6325 -0.3101
  220MPD1     H 3344   3.080   2.107   9.797  1.3148 -2.0109  1.9602
  220MPD1    H1 3345   3.379   2.389   9.893  1.4663  1.1975 -1.5798
  220MPD1    H2 3346   3.378   2.203   9.507  3.2580 -0.6176  1.1080
  220MPD1    H3 3347   3.464   2.369   9.678 -2.1017  0.7861 -1.1797
  220MPD1     N 3348   3.144   2.261   9.974  0.1388 -0.6945  0.5969
  220MPD1    H5 3349   3.068   2.195   9.983 -1.4025  1.0712  0.6632
  220MPD1    N1 3350   3.166   2.054   9.550  0.3653 -0.4915 -0.3336
  220MPD1    H6 3351   3.121   1.975   9.595  0.1023  0.3400  0.8537
  220MPD1    H7 3352   3.223   2.012   9.477 -0.0774 -0.3776 -0.7546
  221MPD1     C 3353   4.383   1.653  15.999 -0.8373 -0.2453  0.2771
  221MPD1    C1 3354   4.406   1.718  16.120  0.6214  0.6076 -0.3961
  221MPD1    C2 3355   4.505   1.659  16.200 -0.3187 -0.0070  0.3357
  221MPD1    C3 3356   4.573   1.544  16.163  0.1338  0.1849  0.4240
  221MPD1    C4 3357   4.547   1.482  16.044  0.2301  0.1699 -0.6620
  221MPD1    C5 3358   4.455   1.540  15.964 -0.9783  0.3665 -0.6164
  221MPD1     H 3359   4.517   1.701  16.299 -1.3402 -0.1088  0.4979
  221MPD1    H1 3360   4.598   1.394  16.009 -0.1067  0.1536 -1.1021
  221MPD1    H2 3361   4.302   1.688  15.935 -0.4002 -0.2276 -0.2663
  221MPD1    H3 3362   4.426   1.490  15.872  1.7011 -0.5367 -0.9614
  221MPD1     N 3363   4.671   1.487  16.248 -0.8618  0.2944 -0.9107
  221MPD1    H5 3364   4.712   1.399  16.217  0.7764  0.1269  1.7187
  221MPD1    N1 3365   4.348   1.844  16.148 -0.4615  0.5148 -0.0522
  221MPD1    H6 3366   4.259   1.866  16.106 -0.5878 -4.3194 -2.3522
  221MPD1    H7 3367   4.339   1.854  16.249 -0.3168 -1.8685  0.2181
  222MPD1     C 3368   4.612   3.764   0.755 -0.2527  0.5993 -0.4452
  222MPD1    C1 3369   4.651   3.863   0.666 -0.4953  0.3011 -0.2969
  222MPD1    C2 3370   4.566   3.972   0.645  0.2592  0.3889  0.2760
  222MPD1    C3 3371   4.450   3.987   0.719 -0.1520  0.2607  0.5421
  222MPD1    C4 3372   4.419   3.897   0.818 -0.1060 -0.3569  0.2250
  222MPD1    C5 3373   4.500   3.788   0.834 -0.9965  0.6166 -0.0561
  222MPD1     H 3374   4.594   4.054   0.580 -1.0236  0.0013 -0.7494
  222MPD1    H1 3375   4.345   3.912   0.896  0.6744 -1.5844  1.2055
  222MPD1    H2 3376   4.670   3.674   0.771 -1.3831 -0.0540 -0.0040
  222MPD1    H3 3377   4.472   3.720   0.914 -0.6834  1.8012  1.0658
  222MPD1     N 3378   4.351   4.093   0.707 -0.3767 -0.2686 -0.3008
  222MPD1    H5 3379   4.273   4.091   0.772 -0.8646  0.1725 -0.8672
  222MPD1    N1 3380   0.053   3.847   0.601 -0.0958 -0.2353 -0.3769
  222MPD1    H6 3381   0.070   3.929   0.542  0.3776 -0.2193 -0.2149
  222MPD1    H7 3382   0.055   3.757   0.554 -0.7154 -0.9591  0.9987
  223MPD1     C 3383   3.755   4.235   1.326  0.4626  0.6587 -0.0196
  223MPD1    C1 3384   3.803   4.121   1.260 -0.2538  0.2961 -0.6900
  223MPD1    C2 3385   3.868   4.136   1.141  0.1485  0.2739 -0.0401
  223MPD1    C3 3386   3.900   4.260   1.085  0.6172  0.4730  0.4889
  223MPD1    C4 3387   3.875   4.368   1.163  0.7781 -0.7137 -0.1120
  223MPD1    C5 3388   3.806   4.357   1.283 -0.6230 -0.2218 -0.8084
  223MPD1     H 3389   3.897   4.053   1.079 -1.1361 -0.2062 -0.0029
  223MPD1    H1 3390   3.918   4.461   1.129  1.1601 -0.3257  1.4507
  223MPD1    H2 3391   3.700   4.236   1.419  0.3147  1.5150 -0.1177
  223MPD1    H3 3392   3.779   4.449   1.333 -0.2315 -0.4612 -0.1523
  223MPD1     N 3393   3.972   4.267   0.962 -0.5827  0.0401 -0.1107
  223MPD1    H5 3394   4.012   4.183   0.922  2.1243  0.5380  1.5186
  223MPD1    N1 3395   3.763   3.993   1.293  0.7433  0.4692 -0.2363
  223MPD1    H6 3396   3.728   3.989   1.389  1.4266 -2.1889 -0.1142
  223MPD1    H7 3397   3.828   3.919   1.268  0.2824  0.2905 -0.8841
  224MPD1     C 3398   0.823   0.463   8.819  0.7935  0.1150 -0.2210
  224MPD1    C1 3399   0.763   0.593   8.836 -0.3178  0.5214  0.3289
  224MPD1    C2 3400   0.819   0.679   8.930  1.0941  0.9426 -0.5457
  224MPD1    C3 3401   0.926   0.635   9.007  0.3066 -0.3051  0.0939
  224MPD1    C4 3402   0.985   0.512   8.984  0.8159 -0.6079  0.3053
  224MPD1    C5 3403   0.929   0.422   8.889  0.2700  0.4345  0.3584
  224MPD1     H 3404   0.774   0.777   8.945 -1.6265 -0.6441  1.6345
  224MPD1    H1 3405   1.073   0.483   9.041 -0.5409 -2.8355  1.2851
  224MPD1    H2 3406   0.777   0.398   8.746  1.8727  1.1520 -1.8169
  224MPD1    H3 3407   0.967   0.323   8.864 -0.0155  0.2739  0.5589
  224MPD1     N 3408   0.989   0.712   9.109 -0.1247 -0.2920  0.6644
  224MPD1    H5 3409   1.069   0.664   9.149  2.2630  1.3801 -2.0829
  224MPD1    N1 3410   0.638   0.613   8.774 -0.0895  0.0021  0.8554
  224MPD1    H6 3411   0.618   0.712   8.766  2.4526  0.5489  0.9927
  224MPD1    H7 3412   0.632   0.571   8.682  1.8072  0.6067  0.4488
  225MPD1     C 3413   2.244   3.488  11.491  0.1043  0.4165 -0.1669
  225MPD1    C1 3414   2.274   3.359  11.522  0.6461 -0.0793  0.0461
  225MPD1    C2 3415   2.189   3.291  11.613 -0.3700 -0.3050 -0.3926
  225MPD1    C3 3416   2.094   3.366  11.676  0.5058 -0.3727  0.0893
  225MPD1    C4 3417   2.064   3.504  11.643  1.0886  0.2453  0.1736
  225MPD1    C5 3418   2.133   3.561  11.542 -0.4669 -0.3999 -0.4682
  225MPD1     H 3419   2.195   3.184  11.620  1.6910 -0.1481  0.0565
  225MPD1    H1 3420   1.992   3.565  11.697 -1.2882 -1.6503 -0.8119
  225MPD1    H2 3421   2.297   3.548  11.418  0.5358 -0.6752 -0.7422
  225MPD1    H3 3422   2.105   3.663  11.520 -0.8687 -0.0549  1.6530
  225MPD1     N 3423   1.998   3.319  11.767  0.3792  0.0391 -0.0555
  225MPD1    H5 3424   1.958   3.389  11.828 -0.3137  1.1754 -1.8194
  225MPD1    N1 3425   2.369   3.293  11.443  0.7084 -0.6443 -0.6251
  225MPD1    H6 3426   2.393   3.198  11.472  0.5933 -0.6624 -0.5890
  225MPD1    H7 3427   2.443   3.360  11.422  1.4669 -0.0694  3.9355
  226MPD1     C 3428   1.914   0.436   9.300 -0.2380  0.0978 -0.3518
  226MPD1    C1 3429   1.799   0.471   9.231 -0.0042 -0.3166 -0.0250
  226MPD1    C2 3430   1.716   0.362   9.193  0.0434 -0.3378  0.8444
  226MPD1    C3 3431   1.760   0.228   9.208  0.0636  1.3858 -0.5091
  226MPD1    C4 3432   1.878   0.204   9.276 -0.4349 -0.4542 -0.1139
  226MPD1    C5 3433   1.943   0.309   9.333  0.0228  0.0931  0.3841
  226MPD1     H 3434   1.624   0.386   9.141  2.0729 -1.3407 -3.1621
  226MPD1    H1 3435   1.917   0.107   9.304  2.7901 -0.1927 -3.6928
  226MPD1    H2 3436   1.985   0.510   9.336 -2.0956  1.3071  0.8252
  226MPD1    H3 3437   2.028   0.281   9.394  0.4022  0.9959  0.2710
  226MPD1     N 3438   1.676   0.127   9.163  0.9313 -0.2050  0.5158
  226MPD1    H5 3439   1.588   0.165   9.129  0.1715 -0.3261  2.3193
  226MPD1    N1 3440   1.753   0.603   9.223  0.2803 -0.6168  0.0447
  226MPD1    H6 3441   1.841   0.654   9.218  0.9981 -1.7720  1.1059
  226MPD1    H7 3442   1.695   0.613   9.139  0.6591  1.0029 -0.0247
  227MPD1     C 3443   1.208   3.866   9.249  0.3301 -0.0185  0.3339
  227MPD1    C1 3444   1.123   3.965   9.255  0.3475 -0.0354 -1.1494
  227MPD1    C2 3445   1.174   4.087   9.215 -0.1404 -0.3619  0.1991
  227MPD1    C3 3446   1.309   4.113   9.222 -0.7001  0.7085  0.3881
  227MPD1    C4 3447   1.399   4.011   9.258  0.2324 -0.2734  0.2359
  227MPD1    C5 3448   1.350   3.880   9.261 -0.0724  0.1497 -0.0190
  227MPD1     H 3449   1.105   4.170   9.198 -1.6472 -1.9959 -1.6911
  227MPD1    H1 3450   1.504   4.031   9.273  0.4476 -1.4811  0.3907
  227MPD1    H2 3451   1.168   3.766   9.263  1.2870 -0.3283  0.9000
  227MPD1    H3 3452   1.411   3.791   9.271  0.8915  0.9747  1.3255
  227MPD1     N 3453   1.345   4.242   9.189 -0.8797 -0.0725 -0.1328
  227MPD1    H5 3454   1.269   4.307   9.174 -1.0242 -0.0981  0.5243
  227MPD1    N1 3455   0.987   3.944   9.244  0.2203 -0.5006 -0.2795
  227MPD1    H6 3456   0.947   3.864   9.293 -0.0245  0.3619  0.9329
  227MPD1    H7 3457   0.930   4.028   9.253 -1.9471 -1.8977 -1.1225
  228MPD1     C 3458   4.337   0.810  13.220 -0.1318 -0.1937 -0.7123
  228MPD1    C1 3459   4.348   0.726  13.107  0.4530  0.2963 -0.2291
  228MPD1    C2 3460   4.256   0.630  13.101 -0.1486  0.2603  0.2304
  228MPD1    C3 3461   4.147   0.615  13.187 -0.6216 -1.0234 -0.3506
  228MPD1    C4 3462   4.145   0.698  13.298  0.5890 -0.5697 -0.9497
  228MPD1    C5 3463   4.242   0.799  13.312 -0.6443  0.6480  0.0174
  228MPD1     H 3464   4.249   0.573  13.009 -0.2419 -0.1114  0.4647
  228MPD1    H1 3465   4.072   0.687  13.377  0.1746  0.7612 -1.1477
  228MPD1    H2 3466   4.406   0.891  13.239 -0.6703 -0.2975  1.6428
  228MPD1    H3 3467   4.239   0.872  13.392 -0.6175  0.8775 -0.1940
  228MPD1     N 3468   4.048   0.525  13.144  0.0342  0.3536 -0.1493
  228MPD1    H5 3469   4.065   0.482  13.054 -0.4149  0.1499 -0.1370
  228MPD1    N1 3470   4.457   0.725  13.013  0.4529  0.5336  0.3795
  228MPD1    H6 3471   4.435   0.657  12.940  1.5461  1.5646 -0.9005
  228MPD1    H7 3472   4.490   0.813  12.974 -0.7137  1.6564  1.9331
  229MPD1     C 3473   3.168   4.001  14.464  0.2836  0.7945  0.3032
  229MPD1    C1 3474   3.209   3.886  14.393  0.1801 -0.7240  0.5679
  229MPD1    C2 3475   3.302   3.812  14.457  0.0817 -0.4177 -0.3304
  229MPD1    C3 3476   3.349   3.838  14.587  0.4602  0.4163 -0.0221
  229MPD1    C4 3477   3.295   3.940  14.658  0.8601  0.1634  0.2210
  229MPD1    C5 3478   3.207   4.027  14.596 -0.3112 -0.3015 -0.4166
  229MPD1     H 3479   3.330   3.720  14.407  1.4310  0.1847 -0.6962
  229MPD1    H1 3480   3.321   3.969  14.759 -0.5027 -1.2298  0.9607
  229MPD1    H2 3481   3.101   4.073  14.416 -0.6600  2.0192  3.4670
  229MPD1    H3 3482   3.151   4.105  14.647  2.0331  2.2810 -1.7680
  229MPD1     N 3483   3.438   3.754  14.657 -0.1343  0.0952 -0.9363
  229MPD1    H5 3484   3.469   3.788  14.747 -2.7108  0.5186 -0.1973
  229MPD1    N1 3485   3.192   3.873  14.256  0.0428  0.1340 -0.1407
  229MPD1    H6 3486   3.103   3.917  14.232  0.2429  1.2124  1.0873
  229MPD1    H7 3487   3.203   3.777  14.222 -0.8650 -0.2349  0.6188
  230MPD1     C 3488   3.664   3.473  15.581  0.4777  0.1619 -0.0565
  230MPD1    C1 3489   3.762   3.411  15.517 -0.3695 -0.2653  0.0061
  230MPD1    C2 3490   3.755   3.402  15.382 -0.1000  0.1529  0.6960
  230MPD1    C3 3491   3.654   3.460  15.308 -0.1379 -0.0802  0.1911
  230MPD1    C4 3492   3.552   3.521  15.370 -0.1683  0.3772  0.0042
  230MPD1    C5 3493   3.553   3.518  15.511 -0.4598 -0.3074  0.1182
  230MPD1     H 3494   3.833   3.343  15.335 -0.8239  1.4084 -2.0809
  230MPD1    H1 3495   3.469   3.571  15.322 -1.6649 -2.3399 -0.2597
  230MPD1    H2 3496   3.664   3.474  15.689 -0.5772 -0.4062 -0.0533
  230MPD1    H3 3497   3.477   3.573  15.564 -0.6366 -0.5819  0.1504
  230MPD1     N 3498   3.669   3.456  15.165 -0.1510  0.4541  0.0811
  230MPD1    H5 3499   3.717   3.375  15.127  0.8724  0.6848  0.8951
  230MPD1    N1 3500   3.855   3.340  15.600  0.0231 -0.5266 -0.5377
  230MPD1    H6 3501   3.948   3.327  15.563 -0.3412 -2.3241 -0.8245
  230MPD1    H7 3502   3.868   3.390  15.688  2.3544 -0.4045 -0.9511
  231MPD1     C 3503   2.138   0.374  15.858  0.1992  0.3106  0.1376
  231MPD1    C1 3504   2.205   0.496  15.865  0.7954  0.0561 -0.4886
  231MPD1    C2 3505   2.191   0.582  15.765 -0.1366 -0.0029  0.6041
  231MPD1    C3 3506   2.120   0.554  15.649 -0.3760  0.3492  0.1651
  231MPD1    C4 3507   2.057   0.430  15.640  0.1049  0.5177 -0.6739
  231MPD1    C5 3508   2.059   0.346  15.749  0.3451 -0.3590  0.0219
  231MPD1     H 3509   2.248   0.674  15.760 -0.1744 -0.0211 -0.1282
  231MPD1    H1 3510   1.995   0.389  15.562 -0.6738  1.4569 -0.5522
  231MPD1    H2 3511   2.145   0.293  15.930  0.0100 -1.0981 -1.4155
  231MPD1    H3 3512   2.012   0.249  15.741  0.6466 -0.2965 -2.5561
  231MPD1     N 3513   2.119   0.646  15.541 -0.0031  0.7348 -0.6393
  231MPD1    H5 3514   2.162   0.737  15.554 -1.5365  1.3528  0.0271
  231MPD1    N1 3515   2.271   0.534  15.982 -0.4203 -0.0774 -0.9896
  231MPD1    H6 3516   2.291   0.471  16.059  0.9353  1.3018 -0.2064
  231MPD1    H7 3517   2.329   0.616  15.965  1.2488 -1.0081  0.1864
  232MPD1     C 3518   4.266   3.035  17.690 -0.5573  0.0398 -0.7891
  232MPD1    C1 3519   4.193   3.107   0.065 -0.1681  0.0699 -0.3227
  232MPD1    C2 3520   4.055   3.107   0.050  0.3848  1.0933  0.6115
  232MPD1    C3 3521   3.990   3.019  17.679  0.5022 -0.4548  0.1857
  232MPD1    C4 3522   4.062   2.933  17.603 -0.3062 -0.1838 -0.7557
  232MPD1    C5 3523   4.198   2.945  17.607 -0.4572  0.1763 -0.0690
  232MPD1     H 3524   3.995   3.181   0.102 -0.3323  1.1617 -0.3027
  232MPD1    H1 3525   4.017   2.865  17.532  1.0398 -0.4781 -1.3282
  232MPD1    H2 3526   4.374   3.039  17.693 -0.5841  1.6820 -2.4055
  232MPD1    H3 3527   4.247   2.878  17.538 -1.2768 -2.2618  1.7268
  232MPD1     N 3528   3.846   3.024  17.679 -0.2968  0.1224 -0.3140
  232MPD1    H5 3529   3.808   3.087   0.033  0.1523  1.6887 -1.4583
  232MPD1    N1 3530   4.266   3.191   0.149  0.0251 -0.0355 -0.2147
  232MPD1    H6 3531   4.349   3.145   0.185 -0.6839  1.0002  2.6786
  232MPD1    H7 3532   4.208   3.205   0.231 -0.0224  1.0571 -0.4304
  233MPD1     C 3533   4.587   1.812   1.950 -0.4272 -0.3958 -0.5422
  233MPD1    C1 3534   4.563   1.683   1.998 -0.3134 -0.3520 -0.2356
  233MPD1    C2 3535   4.550   1.568   1.915  0.1964 -0.4664 -0.0311
  233MPD1    C3 3536   4.565   1.579   1.778 -0.3221  0.1032  0.2779
  233MPD1    C4 3537   4.583   1.706   1.726  0.5071  0.4049  0.6718
  233MPD1    C5 3538   4.596   1.815   1.809 -0.6198 -0.0017  0.5162
  233MPD1     H 3539   4.528   1.475   1.966  0.4452 -0.4065  0.1842
  233MPD1    H1 3540   4.589   1.715   1.618 -0.0817 -3.6354  0.2880
  233MPD1    H2 3541   4.591   1.902   2.011  0.9202  0.8580 -2.4626
  233MPD1    H3 3542   4.607   1.915   1.768 -0.2997 -0.8450 -1.4606
  233MPD1     N 3543   4.542   1.465   1.691 -0.2882 -0.3494 -0.8343
  233MPD1    H5 3544   4.542   1.486   1.591 -0.5675  0.8171 -0.5879
  233MPD1    N1 3545   4.519   1.681   2.128 -0.2746 -0.7812  0.6569
  233MPD1    H6 3546   4.559   1.755   2.186  0.3916 -0.1726 -0.5878
  233MPD1    H7 3547   4.535   1.590   2.170 -2.4680 -1.2598  0.4201
  234MPD1     C 3548   1.792   4.116   9.988  0.3078  0.5782  0.1326
  234MPD1    C1 3549   1.703   4.128   9.885 -0.4640  0.3940  0.1257
  234MPD1    C2 3550   1.632   4.244   9.876  0.5696  0.0403  0.0695
  234MPD1    C3 3551   1.662   4.358   9.947 -1.1040 -0.0288 -0.4842
  234MPD1    C4 3552   1.756   4.348  10.041  0.3783 -0.3287 -0.6651
  234MPD1    C5 3553   1.814   4.227  10.064 -0.2988  0.5458  0.0086
  234MPD1     H 3554   1.564   4.248   9.791 -2.8019 -0.9195  2.6894
  234MPD1    H1 3555   1.790   4.436  10.095  0.9387  0.2169 -1.9113
  234MPD1    H2 3556   1.841   4.020  10.005  1.3877  0.9552 -0.8352
  234MPD1    H3 3557   1.887   4.214  10.143  0.1387 -0.0942 -0.4985
  234MPD1     N 3558   1.586   4.478   9.925 -0.8338  0.0286  0.0443
  234MPD1    H5 3559   1.527   4.467   9.843 -2.7543  0.2708  1.3852
  234MPD1    N1 3560   1.669   4.014   9.806 -0.2428  0.7680  0.9232
  234MPD1    H6 3561   1.759   3.972   9.784 -2.0366 -0.8497 -3.3244
  234MPD1    H7 3562   1.618   4.035   9.720  0.9584  0.1044  0.0500
  235MPD1     C 3563   2.973   2.933   8.747 -0.3138  0.2201  0.0144
  235MPD1    C1 3564   2.878   2.921   8.843  0.3110 -0.2563  0.5696
  235MPD1    C2 3565   2.838   3.033   8.904  0.6978 -0.6075  0.1670
  235MPD1    C3 3566   2.890   3.157   8.881 -0.0321  0.7014  0.4017
  235MPD1    C4 3567   2.996   3.166   8.790  0.1828  0.6431  0.3452
  235MPD1    C5 3568   3.030   3.051   8.716 -0.0507 -0.1837 -0.4597
  235MPD1     H 3569   2.756   3.024   8.974 -0.4451 -0.9541 -1.2044
  235MPD1    H1 3570   3.040   3.260   8.760  0.2101  0.8340  0.9806
  235MPD1    H2 3571   3.021   2.843   8.709  0.4944 -0.2633  2.1335
  235MPD1    H3 3572   3.114   3.045   8.648  0.1971  0.3485 -0.2014
  235MPD1     N 3573   2.839   3.261   8.959  0.3088  0.3515 -0.6249
  235MPD1    H5 3574   2.760   3.240   9.019  0.3292 -0.5493 -0.9208
  235MPD1    N1 3575   2.805   2.798   8.847  0.5025  0.4774 -0.9850
  235MPD1    H6 3576   2.760   2.785   8.938 -0.4868  1.4333 -1.3416
  235MPD1    H7 3577   2.867   2.719   8.829  0.1002  0.2020 -1.1469
  236MPD1     C 3578   2.808   0.414  10.082  0.2666 -0.5062  0.3382
  236MPD1    C1 3579   2.859   0.300  10.020  0.7637  0.0369 -0.2566
  236MPD1    C2 3580   2.889   0.185  10.098  0.4822 -0.0606  0.0889
  236MPD1    C3 3581   2.884   0.197  10.235 -0.2724  0.8098 -0.5593
  236MPD1    C4 3582   2.846   0.313  10.293 -0.4372  0.4770  0.3425
  236MPD1    C5 3583   2.801   0.417  10.216 -0.4897 -0.6469 -0.4053
  236MPD1     H 3584   2.917   0.092  10.050 -0.4168 -0.7383  0.8984
  236MPD1    H1 3585   2.826   0.319  10.400  0.8505 -0.2454  0.6239
  236MPD1    H2 3586   2.776   0.499  10.023  1.7423 -0.1325  0.0704
  236MPD1    H3 3587   2.776   0.510  10.266 -2.1419 -0.7931 -0.9622
  236MPD1     N 3588   2.901   0.080  10.325 -0.4389  0.3664 -0.4036
  236MPD1    H5 3589   2.904   0.103  10.424 -0.5628  0.6369 -0.4607
  236MPD1    N1 3590   2.862   0.300   9.882 -0.5186  0.4369 -0.0363
  236MPD1    H6 3591   2.931   0.242   9.835 -2.1629 -2.8794  1.6507
  236MPD1    H7 3592   2.868   0.395   9.846 -1.3302  1.0673  1.4899
  237MPD1     C 3593   2.282   1.743  15.626 -0.1921 -0.0484 -0.0638
  237MPD1    C1 3594   2.188   1.687  15.710 -0.6671  0.1396 -0.4974
  237MPD1    C2 3595   2.054   1.704  15.681 -0.1839 -0.2129  0.1670
  237MPD1    C3 3596   2.011   1.746  15.558 -0.4047  0.8491  0.1518
  237MPD1    C4 3597   2.108   1.790  15.474 -0.1436  0.2943 -0.6409
  237MPD1    C5 3598   2.238   1.785  15.501  0.2777 -0.6330  0.1999
  237MPD1     H 3599   1.984   1.665  15.754  0.1171  1.2087  1.2193
  237MPD1    H1 3600   2.087   1.837  15.379  3.7344  0.5400 -1.4027
  237MPD1    H2 3601   2.386   1.751  15.653  0.4467 -0.2993 -2.4488
  237MPD1    H3 3602   2.301   1.834  15.428 -0.3547 -0.5426 -0.2812
  237MPD1     N 3603   1.877   1.753  15.506  0.3541  0.6759  0.0488
  237MPD1    H5 3604   1.868   1.784  15.409  1.8611 -0.2074 -0.3771
  237MPD1    N1 3605   2.231   1.642  15.835  0.0114 -0.2776  0.5451
  237MPD1    H6 3606   2.324   1.602  15.846  0.1637 -0.0217  0.1735
  237MPD1    H7 3607   2.164   1.584  15.886  0.1752 -1.6979 -0.8549
  238MPD1     C 3608   3.532   1.506  15.473 -0.1061 -0.2909  0.0197
  238MPD1    C1 3609   3.462   1.417  15.548 -0.1362  0.3900  0.4831
  238MPD1    C2 3610   3.388   1.324  15.479  0.1802 -0.5946 -0.0089
  238MPD1    C3 3611   3.405   1.311  15.339  0.5978  0.4024  0.4369
  238MPD1    C4 3612   3.480   1.401  15.269 -0.1074 -0.2832  1.1405
  238MPD1    C5 3613   3.538   1.504  15.336  0.0805  0.5916 -0.2705
  238MPD1     H 3614   3.315   1.263  15.529  1.0467 -1.4793  0.1910
  238MPD1    H1 3615   3.491   1.393  15.162 -1.1383 -1.7211  1.1525
  238MPD1    H2 3616   3.596   1.580  15.519  0.2801 -0.5145 -0.1629
  238MPD1    H3 3617   3.599   1.576  15.282  0.3004 -0.3151 -1.2107
  238MPD1     N 3618   3.340   1.215  15.256 -0.5405  0.3837  0.3653
  238MPD1    H5 3619   3.368   1.200  15.160 -1.5929 -2.2904  0.4914
  238MPD1    N1 3620   3.434   1.449  15.683 -0.6512  0.1195  0.7899
  238MPD1    H6 3621   3.396   1.363  15.720 -2.3433  0.3499 -0.4092
  238MPD1    H7 3622   3.513   1.473  15.742 -1.5452  0.1931  1.9450
  239MPD1     C 3623   4.076   2.378  15.265 -0.0082  0.2429  0.2010
  239MPD1    C1 3624   3.976   2.281  15.289  0.0433  0.1223  0.4343
  239MPD1    C2 3625   3.905   2.230  15.185  0.1413  0.8084 -0.3611
  239MPD1    C3 3626   3.934   2.263  15.056 -0.1903  0.1858  0.6772
  239MPD1    C4 3627   4.037   2.353  15.030 -0.2822 -0.4969  1.1286
  239MPD1    C5 3628   4.110   2.405  15.133 -0.0483 -0.3281  0.2260
  239MPD1     H 3629   3.820   2.166  15.206 -0.2127  1.0937 -0.9053
  239MPD1    H1 3630   4.055   2.380  14.926 -1.5741  0.0481  1.0401
  239MPD1    H2 3631   4.134   2.420  15.347 -0.5164  0.9141  0.2206
  239MPD1    H3 3632   4.191   2.474  15.110  0.6493 -0.9074  0.9490
  239MPD1     N 3633   3.869   2.201  14.945  0.0704 -0.0770 -0.1520
  239MPD1    H5 3634   3.897   2.239  14.856 -0.8550  1.2470  0.1283
  239MPD1    N1 3635   3.919   2.267  15.417 -0.4524  0.1438 -0.3901
  239MPD1    H6 3636   3.983   2.279  15.495 -1.1456  1.9136 -0.0903
  239MPD1    H7 3637   3.864   2.181  15.423  1.3765 -1.0339 -0.2543
  240MPD1     C 3638   3.546   1.676  13.307 -0.5225 -0.5328  1.0165
  240MPD1    C1 3639   3.437   1.592  13.324  0.6078 -0.2972  0.2806
  240MPD1    C2 3640   3.427   1.527  13.442 -0.0871  0.0851  0.8656
  240MPD1    C3 3641   3.512   1.547  13.552 -0.0098  0.4913  0.0212
  240MPD1    C4 3642   3.618   1.643  13.534 -0.6531 -0.7667 -0.2472
  240MPD1    C5 3643   3.619   1.713  13.416 -0.4511 -0.2199  0.4497
  240MPD1     H 3644   3.343   1.458  13.447  0.0514 -0.0065  1.8650
  240MPD1    H1 3645   3.695   1.662  13.607 -0.2781  2.0431 -1.4039
  240MPD1    H2 3646   3.578   1.714  13.210 -0.6758  1.6459  1.8150
  240MPD1    H3 3647   3.704   1.775  13.390  0.6040 -1.9827 -0.3250
  240MPD1     N 3648   3.486   1.473  13.671  0.0953 -0.1339 -0.6686
  240MPD1    H5 3649   3.410   1.406  13.663 -2.2441  2.4869 -0.1160
  240MPD1    N1 3650   3.363   1.559  13.204 -0.2762 -0.2924 -0.1199
  240MPD1    H6 3651   3.267   1.543  13.234  0.0306 -0.4526  0.7924
  240MPD1    H7 3652   3.370   1.629  13.131  0.8230 -1.1695 -0.8518
  241MPD1     C 3653   4.072   1.364  14.509  0.6445 -0.0626  0.1995
  241MPD1    C1 3654   3.940   1.360  14.536 -0.1230 -0.1090 -0.3427
  241MPD1    C2 3655   3.850   1.350  14.430 -0.0495  0.3792  0.1930
  241MPD1    C3 3656   3.892   1.323  14.299  1.0574 -0.9327 -0.0159
  241MPD1    C4 3657   4.027   1.322  14.277 -0.4518 -0.1055  0.2941
  241MPD1    C5 3658   4.115   1.339  14.382 -0.2915  0.1094 -0.4036
  241MPD1     H 3659   3.748   1.381  14.451  0.1395  0.2499  1.2886
  241MPD1    H1 3660   4.076   1.293  14.185  0.9129 -0.7395  1.2105
  241MPD1    H2 3661   4.146   1.389  14.584  0.8810  2.3746 -0.8384
  241MPD1    H3 3662   4.221   1.332  14.364 -0.2661 -2.3244  0.7781
  241MPD1     N 3663   3.805   1.301  14.196  0.7392 -0.6678  0.1891
  241MPD1    H5 3664   3.834   1.292  14.100 -1.4900 -1.3964 -0.4136
  241MPD1    N1 3665   3.901   1.391  14.672 -0.1744  0.3690  0.0053
  241MPD1    H6 3666   3.804   1.368  14.689 -0.9124  1.3535 -2.7233
  241MPD1    H7 3667   3.969   1.348  14.734 -0.9523 -0.3904  0.3328
  242MPD1     C 3668   2.309   3.971  16.160  0.1737 -0.3405 -0.1436
  242MPD1    C1 3669   2.400   3.865  16.161 -0.7379 -0.2357 -0.1773
  242MPD1    C2 3670   2.520   3.876  16.092 -0.6878 -0.0428  0.3776
  242MPD1    C3 3671   2.542   3.985  16.013 -0.7174 -0.1163  0.1678
  242MPD1    C4 3672   2.453   4.088  16.011 -0.3165  0.1173  0.5859
  242MPD1    C5 3673   2.340   4.087  16.082  0.1037  0.2258 -0.5264
  242MPD1     H 3674   2.585   3.790  16.092  0.0602  0.5287 -3.5710
  242MPD1    H1 3675   2.475   4.178  15.953  0.0491  0.1493  0.7755
  242MPD1    H2 3676   2.223   3.972  16.226  0.1448 -0.2988 -0.1818
  242MPD1    H3 3677   2.280   4.177  16.081  1.2195  0.9808  1.6871
  242MPD1     N 3678   2.647   4.007  15.925  0.0291 -0.2747  0.2812
  242MPD1    H5 3679   2.663   4.101  15.890 -0.2559  0.3601  1.8207
  242MPD1    N1 3680   2.383   3.762  16.256 -0.3216 -0.1678 -0.1726
  242MPD1    H6 3681   2.283   3.747  16.266 -0.5589  0.6253 -1.5038
  242MPD1    H7 3682   2.435   3.677  16.234  0.5117  0.1940  0.4141
  243MPD1     C 3683   0.259   3.860  17.352 -0.1574  0.4273 -0.2638
  243MPD1    C1 3684   0.332   3.743  17.365  0.4336 -0.1412 -0.8059
  243MPD1    C2 3685   0.362   3.661  17.247 -0.5256 -0.7701  0.1241
  243MPD1    C3 3686   0.330   3.709  17.128 -0.1125  0.9161  0.0144
  243MPD1    C4 3687   0.264   3.833  17.116 -0.1066  0.5670  0.0440
  243MPD1    C5 3688   0.226   3.907  17.230  0.1795 -0.1209 -0.2379
  243MPD1     H 3689   0.403   3.564  17.275  0.7751  0.1725  1.4614
  243MPD1    H1 3690   0.231   3.867  17.018  0.1276  0.0415 -0.2187
  243MPD1    H2 3691   0.232   3.919  17.439 -0.0640  1.9487 -1.2572
  243MPD1    H3 3692   0.166   3.998  17.224  1.6842  0.8476 -0.5159
  243MPD1     N 3693   0.358   3.632  17.010 -0.5626 -0.2561  0.1291
  243MPD1    H5 3694   0.412   3.546  17.019 -0.9792 -0.5417 -0.1007
  243MPD1    N1 3695   0.355   3.690  17.492  0.3946 -0.0472 -0.3101
  243MPD1    H6 3696   0.354   3.749  17.575  1.2272 -0.1629 -0.2158
  243MPD1    H7 3697   0.447   3.648  17.492  0.7656  0.7816  0.4590
  244MPD1     C 3698   0.775   2.908  17.153  0.6319 -0.5112  0.3460
  244MPD1    C1 3699   0.678   2.981  17.213  0.2145 -0.4911 -0.2495
  244MPD1    C2 3700   0.631   3.092  17.149 -0.5288  0.6264 -0.8686
  244MPD1    C3 3701   0.679   3.139  17.025  0.4033 -0.0746  0.5167
  244MPD1    C4 3702   0.783   3.069  16.970 -0.4198 -0.1098 -0.4690
  244MPD1    C5 3703   0.825   2.949  17.032  0.2778  0.5036  0.4537
  244MPD1     H 3704   0.548   3.145  17.195 -1.6198 -0.4572 -1.5881
  244MPD1    H1 3705   0.830   3.094  16.875  1.1273 -0.5593  0.1629
  244MPD1    H2 3706   0.801   2.807  17.180  0.2932 -0.2236  1.7446
  244MPD1    H3 3707   0.909   2.897  16.987 -0.4329  1.4758 -1.9470
  244MPD1     N 3708   0.611   3.237  16.949  0.0244  0.0401 -0.0172
  244MPD1    H5 3709   0.544   3.294  16.998  1.1415  0.2263  1.3024
  244MPD1    N1 3710   0.600   2.925  17.312  0.3837 -0.6831  0.3017
  244MPD1    H6 3711   0.556   2.998  17.368 -2.4916 -0.8691 -1.6809
  244MPD1    H7 3712   0.666   2.873  17.369  0.7836  0.5723  0.9928
  245MPD1     C 3713   1.476   3.416  13.124  0.1857 -0.3852 -0.6375
  245MPD1    C1 3714   1.539   3.387  13.245 -0.6684  0.0466 -0.2027
  245MPD1    C2 3715   1.635   3.481  13.291 -0.0962 -0.1076 -0.4699
  245MPD1    C3 3716   1.658   3.588  13.217 -0.1929 -0.3054  0.7926
  245MPD1    C4 3717   1.611   3.605  13.089  0.1668 -0.3254 -0.0833
  245MPD1    C5 3718   1.520   3.513  13.037 -0.3744  0.7027  0.5180
  245MPD1     H 3719   1.685   3.468  13.386  0.0422  1.0513 -0.3875
  245MPD1    H1 3720   1.648   3.685  13.027 -1.8162  2.1149  1.8999
  245MPD1    H2 3721   1.405   3.345  13.083  0.7403 -0.4943 -1.3997
  245MPD1    H3 3722   1.479   3.516  12.937  3.3355 -0.1508 -1.0378
  245MPD1     N 3723   1.748   3.680  13.267  0.0715 -0.1078  0.3147
  245MPD1    H5 3724   1.781   3.661  13.361 -0.0279  0.0003  0.3704
  245MPD1    N1 3725   1.500   3.280  13.330  0.0467 -0.0342 -0.1424
  245MPD1    H6 3726   1.578   3.253  13.391 -0.2739  0.2134  0.3752
  245MPD1    H7 3727   1.465   3.201  13.276  0.9945 -0.8080  0.3661
  246MPD1     C 3728   3.011   2.829  10.537 -0.4629  0.0630  0.2172
  246MPD1    C1 3729   3.044   2.945  10.469  0.3172  0.4454 -1.1527
  246MPD1    C2 3730   2.991   2.967  10.340  0.3047  0.3471  0.5444
  246MPD1    C3 3731   2.902   2.879  10.286  0.6563 -0.3536 -0.1860
  246MPD1    C4 3732   2.856   2.780  10.364 -0.3402 -0.4877 -0.1730
  246MPD1    C5 3733   2.909   2.754  10.488  0.3605  0.5978 -0.2185
  246MPD1     H 3734   3.031   3.047  10.279  0.6970  0.0742  0.4391
  246MPD1    H1 3735   2.795   2.697  10.331 -0.0211  0.2150 -2.5429
  246MPD1    H2 3736   3.077   2.787  10.613 -0.1059  0.5736  0.1923
  246MPD1    H3 3737   2.884   2.666  10.546 -1.8451 -0.4987 -2.7999
  246MPD1     N 3738   2.851   2.902  10.155  0.4821 -0.1841  0.1044
  246MPD1    H5 3739   2.884   2.985  10.108 -2.7329  1.1856  0.2730
  246MPD1    N1 3740   3.163   3.005  10.504  0.2397 -0.6155 -0.4525
  246MPD1    H6 3741   3.190   2.998  10.602 -2.1826  0.7705  0.3403
  246MPD1    H7 3742   3.181   3.101  10.476 -0.1068 -0.3492  0.2471
  247MPD1     C 3743   1.290   3.640  16.558 -0.5381  0.1915 -0.6432
  247MPD1    C1 3744   1.361   3.578  16.657  0.6366 -0.0082 -0.1047
  247MPD1    C2 3745   1.433   3.463  16.619  0.2258 -0.6254 -0.0845
  247MPD1    C3 3746   1.459   3.428  16.491  0.0638 -0.6531 -0.0048
  247MPD1    C4 3747   1.412   3.511  16.393 -0.0532  0.7136  0.2381
  247MPD1    C5 3748   1.329   3.609  16.430 -0.3662  1.2341 -0.0774
  247MPD1     H 3749   1.480   3.411  16.702 -0.6734  0.9454  1.4176
  247MPD1    H1 3750   1.432   3.504  16.287  2.0661 -0.1403  0.6908
  247MPD1    H2 3751   1.220   3.720  16.578 -2.4673 -1.7751  0.4886
  247MPD1    H3 3752   1.291   3.670  16.349  2.2465  0.7874 -1.6281
  247MPD1     N 3753   1.543   3.322  16.453  0.2238  0.2038 -0.6627
  247MPD1    H5 3754   1.557   3.313  16.353  2.4309  1.3854 -0.4563
  247MPD1    N1 3755   1.337   3.622  16.786 -0.5285 -0.2257  0.2831
  247MPD1    H6 3756   1.318   3.722  16.784 -0.8194 -0.3084 -0.8004
  247MPD1    H7 3757   1.412   3.596  16.850  3.0177  3.8965 -2.1615
  248MPD1     C 3758   2.061   2.986   0.609  0.0556 -1.0239  0.4589
  248MPD1    C1 3759   1.952   2.897   0.617 -0.2863  0.5889  0.1210
  248MPD1    C2 3760   1.827   2.939   0.574  0.2072 -0.1835  0.3530
  248MPD1    C3 3761   1.804   3.066   0.523  0.7477  0.1725 -0.1606
  248MPD1    C4 3762   1.911   3.156   0.531  0.0752  0.0551 -0.7818
  248MPD1    C5 3763   2.037   3.116   0.576  0.6898  0.5135 -0.6581
  248MPD1     H 3764   1.740   2.875   0.574 -0.1511  0.3232 -1.8984
  248MPD1    H1 3765   1.916   3.261   0.502  0.4127 -0.2136 -1.7041
  248MPD1    H2 3766   2.165   2.963   0.627  0.4649 -1.2741 -2.1757
  248MPD1    H3 3767   2.119   3.185   0.562 -0.5801  2.1087 -0.2504
  248MPD1     N 3768   1.686   3.116   0.461  0.6278  0.1767 -0.2683
  248MPD1    H5 3769   1.681   3.215   0.440  1.3798  0.5212  1.2142
  248MPD1    N1 3770   1.980   2.759   0.641 -0.8514  0.2053  0.0856
  248MPD1    H6 3771   1.896   2.712   0.674 -1.3434  1.1804  0.2262
  248MPD1    H7 3772   2.058   2.750   0.707 -1.1736  0.0186  0.4401
  249MPD1     C 3773   3.277   1.668  10.970  0.6326 -0.0630  0.5624
  249MPD1    C1 3774   3.349   1.758  10.900  0.2377  0.5363  0.6041
  249MPD1    C2 3775   3.368   1.748  10.765 -0.2691  0.2526  0.0161
  249MPD1    C3 3776   3.312   1.642  10.698  0.7913  0.0226  0.1027
  249MPD1    C4 3777   3.226   1.555  10.765 -0.1377  0.0408 -0.8070
  249MPD1    C5 3778   3.219   1.562  10.902  0.5684 -0.1127 -0.2361
  249MPD1     H 3779   3.410   1.835  10.716  0.6762 -0.7229 -0.9038
  249MPD1    H1 3780   3.166   1.476  10.722  1.3905  0.0721 -3.0133
  249MPD1    H2 3781   3.262   1.671  11.077  1.0275 -1.4343  0.6564
  249MPD1    H3 3782   3.152   1.502  10.962  0.5076  2.1774  2.0199
  249MPD1     N 3783   3.337   1.633  10.557 -0.7041 -0.4822 -0.6834
  249MPD1    H5 3784   3.395   1.704  10.513 -1.8340  0.6745 -0.2953
  249MPD1    N1 3785   3.395   1.868  10.967  0.5017  0.3122 -0.5743
  249MPD1    H6 3786   3.456   1.930  10.915 -0.0019  1.6832  0.4925
  249MPD1    H7 3787   3.427   1.847  11.061 -0.5428 -1.6432 -0.6517
  250MPD2     C 3788   4.380   1.789  13.001  0.6396 -0.6409  0.0793
  250MPD2    C1 3789   4.495   1.847  12.959 -0.0748 -0.1350 -0.2971
  250MPD2    C2 3790   4.576   1.773  12.876 -0.3160  0.1976 -0.0495
  250MPD2    C3 3791   4.534   1.651  12.818  0.3476 -0.1651 -0.0196
  250MPD2    C4 3792   4.411   1.602  12.863  0.3641 -0.2174  0.7717
  250MPD2    C5 3793   4.337   1.668  12.958 -0.1543 -0.0745  0.0902
  250MPD2     H 3794   4.674   1.810  12.849  0.4350 -0.7869  1.3422
  250MPD2    H1 3795   4.362   1.514  12.824 -0.0536  0.6858 -0.7522
  250MPD2    H2 3796   4.325   1.846  13.076 -1.6855 -0.2188 -1.9387
  250MPD2    H3 3797   4.250   1.625  13.005 -2.2211  0.2851 -3.3649
  250MPD2     N 3798   4.619   1.578  12.732 -0.0248 -0.1633 -0.0750
  250MPD2    H5 3799   4.596   1.481  12.718 -0.5555 -0.0333 -0.0948
  250MPD2    N1 3800   4.521   1.985  13.003 -0.7225  0.4515 -0.5838
  250MPD2    H7 3801   4.451   2.028  13.062 -0.9765  0.3326 -0.7948
  251TMC3    C1 3802   4.647   2.198  12.997  0.1089  0.1122  0.1561
  251TMC3    C2 3803   4.543   2.269  13.041 -0.2823  0.3119  0.4520
  251TMC3    C3 3804   4.556   2.407  13.034 -0.5610 -0.2846 -0.5798
  251TMC3    C4 3805   0.028   2.260  12.941 -0.6701 -0.5010  0.9126
  251TMC3    C5 3806   0.039   2.395  12.932 -0.0821 -0.3188  0.0966
  251TMC3    C6 3807   4.662   2.472  12.970  0.2062 -0.1491  0.5657
  251TMC3     C 3808   4.618   2.062  12.948 -0.2778 -0.5103  0.1568
  251TMC3     O 3809   4.693   2.032  12.856 -0.3219 -0.5705 -0.3700
  251TMC3     H 3810   4.459   2.222  13.091 -1.6999  2.3454  0.0227
  251TMC3    H1 3811   0.109   2.201  12.899 -1.1604 -0.5533  0.0393
  251TMC3    H2 3812   4.674   2.580  12.971  1.3030 -0.2515 -0.5439
  251TMC3    C7 3813   0.145   2.441  12.852 -0.2811 -0.2040  0.2275
  251TMC3    C8 3814   4.461   2.491  13.103 -0.3091 -0.0196  1.3792
  251TMC3    O1 3815   0.233   2.365  12.828 -0.1825  0.4354 -0.1511
  251TMC3    O2 3816   4.402   2.445  13.199  0.3389 -0.3487  0.9349
  252TMC3    C1 3817   0.467   3.530   9.529 -1.0709  0.6531  0.1425
  252TMC3    C2 3818   0.552   3.636   9.510 -0.1436 -0.2913  0.8679
  252TMC3    C3 3819   0.649   3.657   9.608  0.0738  0.3135  0.7283
  252TMC3    C4 3820   0.463   3.452   9.645  0.6126  0.3805  0.9170
  252TMC3    C5 3821   0.563   3.480   9.735 -0.1127  0.5130  0.6051
  252TMC3    C6 3822   0.657   3.578   9.714  0.1467 -0.3059  0.0052
  252TMC3     C 3823   0.372   3.487   9.429  0.1351 -0.5866 -0.6265
  252TMC3     O 3824   0.334   3.370   9.438  0.1185 -0.0113  0.0742
  252TMC3     H 3825   0.559   3.699   9.422 -0.7881 -0.9145  0.3679
  252TMC3    H1 3826   0.395   3.368   9.652  1.7444 -0.5411  0.7435
  252TMC3    H2 3827   0.731   3.603   9.789 -0.5036  0.2525  0.4546
  252TMC3    C7 3828   0.586   3.393   9.851 -0.3565 -0.1118 -1.1130
  252TMC3    C8 3829   0.746   3.763   9.594 -0.2478  0.4289  0.1233
  252TMC3    O1 3830   0.698   3.410   9.902  0.0972  0.9709 -0.0796
  252TMC3    O2 3831   0.768   3.788   9.476  0.1569  0.0762  0.1212
  253MPD2     C 3832   1.691   2.127  15.302 -0.1846 -0.2152  0.1317
  253MPD2    C1 3833   1.565   2.174  15.304  0.5586 -0.2595  0.2411
  253MPD2    C2 3834   1.498   2.189  15.429 -0.6922  0.5104  0.0851
  253MPD2    C3 3835   1.566   2.161  15.555  0.0625  0.4451 -0.3470
  253MPD2    C4 3836   1.686   2.107  15.537 -0.0860 -0.2698 -0.7152
  253MPD2    C5 3837   1.755   2.096  15.418 -0.0022  0.9976 -0.3172
  253MPD2     H 3838   1.392   2.212  15.420 -0.6338  1.3660  1.6115
  253MPD2    H1 3839   1.738   2.076  15.627  2.7707  2.9253 -1.2367
  253MPD2    H2 3840   1.749   2.123  15.210  0.3057 -0.8166  0.4667
  253MPD2    H3 3841   1.857   2.061  15.404 -0.9885 -1.3488 -1.5537
  253MPD2     N 3842   1.505   2.169  15.682  0.6049  0.4870  0.2061
  253MPD2    H5 3843   1.565   2.144  15.760  2.0646  2.1592 -0.3847
  253MPD2    N1 3844   1.501   2.215  15.189  0.2010  0.0105  0.0230
  253MPD2    H7 3845   1.401   2.236  15.196 -0.2604 -2.1496 -0.1671
  254TMC3    C1 3846   1.376   2.264  15.855 -1.0066 -0.0761  0.0449
  254TMC3    C2 3847   1.294   2.368  15.886  0.6212 -0.1974  0.6130
  254TMC3    C3 3848   1.245   2.376  16.017 -0.0419  0.6813  0.4291
  254TMC3    C4 3849   1.403   2.155  15.942 -0.0019 -0.1170  0.4134
  254TMC3    C5 3850   1.346   2.170  16.070 -0.2348 -0.0592  0.0480
  254TMC3    C6 3851   1.268   2.277  16.104 -1.1286 -0.0490 -0.0102
  254TMC3     C 3852   1.402   2.258  15.715  0.0936  0.2985  0.5536
  254TMC3     O 3853   1.335   2.327  15.642  0.3576  0.1376  0.1472
  254TMC3     H 3854   1.256   2.437  15.812  0.6119  1.2712  1.9849
  254TMC3    H1 3855   1.447   2.067  15.897 -0.3606  1.1018 -2.3306
  254TMC3    H2 3856   1.241   2.279  16.209  1.8263 -4.3442  0.8344
  254TMC3    C7 3857   1.370   2.069  16.182 -0.3756  0.0568 -0.3448
  254TMC3    C8 3858   1.209   2.502  16.089 -0.2665 -0.0483 -0.0094
  254TMC3    O1 3859   1.325   2.097  16.293 -0.1887 -0.0417 -0.9032
  254TMC3    O2 3860   1.182   2.487  16.206  0.0185 -0.5319  0.2216
  255MPD2     C 3861   4.081   0.480  10.738 -0.1977 -0.3946  0.7294
  255MPD2    C1 3862   4.145   0.601  10.755  0.0452 -0.2499  0.1230
  255MPD2    C2 3863   4.248   0.613  10.850  0.6160 -0.3029  0.1513
  255MPD2    C3 3864   4.290   0.500  10.926  0.5654 -0.5065 -0.1702
  255MPD2    C4 3865   4.229   0.379  10.900 -0.4322  0.3986 -0.3476
  255MPD2    C5 3866   4.127   0.373  10.807 -0.4340 -0.2487  0.2121
  255MPD2     H 3867   4.299   0.702  10.884 -1.3749  0.9680 -0.1904
  255MPD2    H1 3868   4.253   0.285  10.949 -0.5344  2.2379  3.2411
  255MPD2    H2 3869   3.998   0.463  10.671 -0.0412 -0.4908  0.5603
  255MPD2    H3 3870   4.079   0.277  10.788  1.4316 -1.2579  0.5706
  255MPD2     N 3871   4.404   0.521  11.012 -0.3140  0.2690  0.0616
  255MPD2    H5 3872   4.423   0.619  11.033 -0.3956 -0.0047  1.4348
  255MPD2    N1 3873   4.117   0.698  10.665  0.1916  0.5226 -0.9273
  255MPD2    H7 3874   4.036   0.680  10.606 -0.5925 -1.9830  0.9445
  256TMC3    C1 3875   4.131   0.889  10.546 -0.6232 -0.0509 -1.0966
  256TMC3    C2 3876   4.216   0.986  10.506  0.5284 -0.3957  0.0506
  256TMC3    C3 3877   4.237   1.013  10.371 -0.3248 -0.1331  0.3647
  256TMC3    C4 3878   4.075   0.812  10.447 -0.4549 -0.5074  0.4052
  256TMC3    C5 3879   4.115   0.831  10.316 -0.4610 -0.2096 -0.7549
  256TMC3    C6 3880   4.199   0.933  10.273  0.1815  0.8202  1.2038
  256TMC3     C 3881   4.187   0.818  10.658 -0.0757 -0.3681  0.0742
  256TMC3     O 3882   4.284   0.868  10.711  0.0605 -0.2715  0.0995
  256TMC3     H 3883   4.258   1.052  10.582  0.3138 -0.6343  0.3780
  256TMC3    H1 3884   4.003   0.733  10.465 -3.3116  2.4456  2.0104
  256TMC3    H2 3885   4.208   0.946  10.165  0.4304  1.0966  1.2560
  256TMC3    C7 3886   4.153   0.700  10.260 -0.1177 -0.3236  0.1163
  256TMC3    C8 3887   4.341   1.109  10.347 -0.3820  0.2041 -0.5363
  256TMC3    O1 3888   4.153   0.601  10.333  0.3182 -0.1197 -0.2115
  256TMC3    O2 3889   4.354   1.200  10.429 -0.3028  0.2060  0.5165
  257MPD2     C 3890   3.625   2.309  13.104 -0.0034  0.2835  0.7679
  257MPD2    C1 3891   3.505   2.257  13.051 -0.3850  0.0477  0.1243
  257MPD2    C2 3892   3.437   2.156  13.119 -0.7143  0.3131  0.0194
  257MPD2    C3 3893   3.463   2.121  13.251  0.7270  0.2414  0.4032
  257MPD2    C4 3894   3.564   2.201  13.309 -0.1773  0.2104  0.1230
  257MPD2    C5 3895   3.647   2.283  13.238  0.2960 -1.0519 -0.0091
  257MPD2     H 3896   3.363   2.102  13.061  0.1130 -0.0378 -0.7135
  257MPD2    H1 3897   3.582   2.200  13.415 -1.6220 -0.9409  0.3691
  257MPD2    H2 3898   3.689   2.378  13.050 -0.1226 -0.2177 -0.0171
  257MPD2    H3 3899   3.726   2.343  13.280 -0.3086 -1.9761  2.4046
  257MPD2     N 3900   3.378   2.034  13.326  0.3657  0.5752  0.1228
  257MPD2    H5 3901   3.297   2.004  13.272  1.4066 -0.0421 -1.0906
  257MPD2    N1 3902   3.481   2.294  12.916  0.3090  0.1268 -0.2068
  257MPD2    H7 3903   3.535   2.366  12.868  0.9672  0.4015  0.9696
  258TMC3    C1 3904   3.294   1.897  13.503  0.5780  1.3044 -0.4097
  258TMC3    C2 3905   3.218   1.819  13.427 -0.4337  0.0554 -0.1003
  258TMC3    C3 3906   3.129   1.733  13.484  0.1297 -0.2149 -0.2038
  258TMC3    C4 3907   3.282   1.889  13.641 -0.2073 -0.7465 -0.9845
  258TMC3    C5 3908   3.194   1.799  13.699  0.0604  0.6486 -0.0296
  258TMC3    C6 3909   3.117   1.717  13.621  0.0446 -0.1798 -0.1323
  258TMC3     C 3910   3.397   1.995  13.454  0.8241  0.0126  0.4459
  258TMC3     O 3911   3.490   2.034  13.534 -0.2678  0.5670  0.0347
  258TMC3     H 3912   3.228   1.820  13.319 -0.6458 -0.0098 -0.1206
  258TMC3    H1 3913   3.340   1.965  13.692 -0.7741  0.3591 -1.9801
  258TMC3    H2 3914   3.055   1.641  13.665 -1.5542  1.5282  0.5571
  258TMC3    C7 3915   3.206   1.755  13.834 -0.9625  0.4745  0.6177
  258TMC3    C8 3916   3.045   1.655  13.386  0.6260 -0.3902  0.2658
  258TMC3    O1 3917   3.117   1.682  13.878  0.3368 -0.4025  0.2222
  258TMC3    O2 3918   3.084   1.671  13.270 -0.5192  0.3334  0.3670
  259MPD2     C 3919   2.325   3.831   1.101  0.3778  0.1615  1.0109
  259MPD2    C1 3920   2.295   3.698   1.102  0.0178  0.1612 -0.5329
  259MPD2    C2 3921   2.389   3.618   1.038 -0.5849 -0.8512  0.2694
  259MPD2    C3 3922   2.504   3.668   0.974  0.2093  0.1325 -0.2151
  259MPD2    C4 3923   2.535   3.802   0.991 -0.4654  1.1927 -0.4409
  259MPD2    C5 3924   2.449   3.881   1.056  0.5376 -0.2740  0.2470
  259MPD2     H 3925   2.361   3.515   1.021 -1.7477 -0.6516  0.9563
  259MPD2    H1 3926   2.618   3.849   0.939 -1.1364  0.9114 -1.7887
  259MPD2    H2 3927   2.262   3.905   1.147  0.8303  0.3859  1.2663
  259MPD2    H3 3928   2.473   3.987   1.057 -0.1147 -0.1356  0.9963
  259MPD2     N 3929   2.575   3.583   0.886  0.8855 -0.1997  0.1687
  259MPD2    H5 3930   2.538   3.489   0.878 -2.1389  0.9905  0.2370
  259MPD2    N1 3931   2.179   3.652   1.176  0.6932  0.1429 -0.2442
  259MPD2    H7 3932   2.131   3.716   1.237 -0.2739 -0.6765 -0.1454
  260TMC3    C1 3933   2.742   3.521   0.731  0.0414  0.5206 -0.5488
  260TMC3    C2 3934   2.874   3.546   0.693 -0.1327  0.3220  0.2974
  260TMC3    C3 3935   2.917   3.481   0.584 -0.0382 -0.1030  0.5979
  260TMC3    C4 3936   2.651   3.451   0.651  0.0446  0.0827  0.1429
  260TMC3    C5 3937   2.699   3.394   0.535 -0.1901 -0.2883 -0.5417
  260TMC3    C6 3938   2.833   3.406   0.504  0.5370  0.2928 -0.0161
  260TMC3     C 3939   2.692   3.612   0.837 -0.8728  0.0024 -0.1071
  260TMC3     O 3940   2.767   3.706   0.861  0.2000  0.0692  0.1504
  260TMC3     H 3941   2.936   3.617   0.747  0.3008 -0.7575  1.2225
  260TMC3    H1 3942   2.550   3.419   0.676 -0.7871  1.2811 -1.6849
  260TMC3    H2 3943   2.862   3.356   0.412 -0.8612  0.9752 -0.8367
  260TMC3    C7 3944   2.615   3.353   0.432  0.1736 -0.4231  0.2356
  260TMC3    C8 3945   3.050   3.513   0.547  0.7083 -0.2374  0.6368
  260TMC3    O1 3946   2.659   3.285   0.339  0.6274  0.1300  0.1368
  260TMC3    O2 3947   3.101   3.609   0.608 -0.2604  1.1217 -0.4409
  261MPD2     C 3948   0.152   1.478  11.962  0.1430  0.1714 -0.4543
  261MPD2    C1 3949   0.118   1.568  12.060  0.5262 -0.3369  0.7954
  261MPD2    C2 3950   0.085   1.694  12.014  0.3045  0.3626  0.1379
  261MPD2    C3 3951   0.059   1.736  11.884  0.1201 -0.1154 -0.0130
  261MPD2    C4 3952   0.076   1.642  11.794  0.7008 -0.2185  0.6766
  261MPD2    C5 3953   0.124   1.519  11.834  0.1507  0.3719 -0.1703
  261MPD2     H 3954   0.069   1.774  12.086  1.1637 -0.8686  1.6908
  261MPD2    H1 3955   0.063   1.657  11.687  0.2842  1.2043  0.9309
  261MPD2    H2 3956   0.177   1.375  11.982 -0.4991  0.2538  0.8024
  261MPD2    H3 3957   0.130   1.444  11.756  0.1883 -0.1964  0.3814
  261MPD2     N 3958   0.037   1.868  11.859 -0.4196  0.3558  0.0029
  261MPD2    H5 3959   0.049   1.934  11.936 -0.0856  0.7892 -0.4202
  261MPD2    N1 3960   0.137   1.556  12.199  0.1483  0.1790  0.2550
  261MPD2    H7 3961   0.120   1.641  12.252  0.5642  0.2630  0.2580
  262TMC3    C1 3962   0.009   2.067  11.749  1.0890 -0.1853  0.6198
  262TMC3    C2 3963   4.640   2.132  11.681  0.4266  0.1826 -0.1833
  262TMC3    C3 3964   4.635   2.267  11.690  0.2578  0.3649  0.5683
  262TMC3    C4 3965   0.122   2.119  11.810 -0.0231 -0.8803  0.1949
  262TMC3    C5 3966   0.115   2.257  11.812  0.9117 -0.3329  0.4313
  262TMC3    C6 3967   0.001   2.328  11.769 -0.4431  0.4540 -0.4363
  262TMC3     C 3968   0.018   1.922  11.734  0.5140 -0.0871  0.6102
  262TMC3     O 3969   4.712   1.880  11.625  0.4453 -0.4806  0.8502
  262TMC3     H 3970   4.569   2.076  11.621  1.1828  0.0445 -0.9459
  262TMC3    H1 3971   0.213   2.063  11.828 -0.8000 -3.0231 -2.5011
  262TMC3    H2 3972   4.713   2.430  11.802 -1.4351  0.1719 -0.0628
  262TMC3    C7 3973   0.240   2.326  11.837  0.3623  0.0154 -0.3411
  262TMC3    C8 3974   4.529   2.346  11.630  0.1635  0.6928 -0.1378
  262TMC3    O1 3975   0.338   2.254  11.838 -0.2009 -0.2196  0.4874
  262TMC3    O2 3976   4.553   2.461  11.593 -0.5279 -0.0414 -0.3076
  263MPD2     C 3977   0.974   1.622  11.114  0.0001  0.4095  0.5593
  263MPD2    C1 3978   1.102   1.635  11.159  0.0073  0.8272 -0.4224
  263MPD2    C2 3979   1.189   1.718  11.099 -0.5839  0.0765  0.1894
  263MPD2    C3 3980   1.149   1.791  10.987 -0.3389 -0.4689  0.2851
  263MPD2    C4 3981   1.031   1.754  10.925 -0.3676 -0.1037  0.3721
  263MPD2    C5 3982   0.941   1.681  10.994  0.1974  0.3757 -0.2505
  263MPD2     H 3983   1.287   1.743  11.140  0.6720 -2.1488 -1.4527
  263MPD2    H1 3984   1.004   1.803  10.833  0.9283  1.5875  0.8827
  263MPD2    H2 3985   0.900   1.553  11.153  0.5519  0.0295  0.9312
  263MPD2    H3 3986   0.848   1.668  10.939  0.2848 -0.5378 -0.1879
  263MPD2     N 3987   1.245   1.880  10.929  0.0046 -0.0824 -0.5341
  263MPD2    H5 3988   1.315   1.918  10.991 -0.8075  1.5940 -0.6410
  263MPD2    N1 3989   1.134   1.567  11.278 -0.3227 -0.1551 -0.2253
  263MPD2    H7 3990   1.054   1.518  11.317 -0.4606 -0.4086 -0.8231
  264TMC3    C1 3991   1.342   2.003  10.751 -0.2247  0.6920  0.1901
  264TMC3    C2 3992   1.389   2.091  10.846 -0.2641  0.9322 -0.6089
  264TMC3    C3 3993   1.503   2.156  10.816 -0.1302  0.0764 -0.3162
  264TMC3    C4 3994   1.416   1.978  10.638  0.4062  0.9817  0.0385
  264TMC3    C5 3995   1.517   2.065  10.597  0.1582 -0.1301  0.8694
  264TMC3    C6 3996   1.563   2.147  10.690  0.2026  0.2646  0.3549
  264TMC3     C 3997   1.255   1.897  10.797 -0.0727 -0.7764  0.4089
  264TMC3     O 3998   1.198   1.839  10.702 -0.1491 -0.2227  0.3871
  264TMC3     H 3999   1.328   2.120  10.931 -2.8398  0.7187 -2.3538
  264TMC3    H1 4000   1.374   1.911  10.564 -0.2363  0.8660  0.5084
  264TMC3    H2 4001   1.655   2.201  10.675  1.0271 -0.8228  1.5312
  264TMC3    C7 4002   1.578   2.058  10.464 -0.2030  0.2138 -1.0739
  264TMC3    C8 4003   1.557   2.263  10.902 -0.2453 -0.7324 -0.1812
  264TMC3    O1 4004   1.562   1.954  10.397 -0.2555  0.0392 -0.4402
  264TMC3    O2 4005   1.613   2.347  10.832 -0.1974  0.2032  0.3697
  265MPD2     C 4006   2.558   1.440  15.991 -0.2730 -0.7570 -0.0547
  265MPD2    C1 4007   2.578   1.548  15.903 -0.5763 -0.0491  0.6612
  265MPD2    C2 4008   2.634   1.533  15.773  0.5008 -0.2737 -0.1755
  265MPD2    C3 4009   2.676   1.414  15.732 -0.2136 -0.2678 -0.6972
  265MPD2    C4 4010   2.675   1.310  15.827 -0.1539  0.1135  0.1496
  265MPD2    C5 4011   2.611   1.323  15.946  0.5513 -0.6326 -0.2643
  265MPD2     H 4012   2.649   1.618  15.707  2.0972  0.9043  1.7297
  265MPD2    H1 4013   2.715   1.212  15.803  1.9894  0.5594  1.8949
  265MPD2    H2 4014   2.506   1.452  16.085 -2.1719 -1.8563 -0.9703
  265MPD2    H3 4015   2.594   1.239  16.013 -1.0482  0.1643  0.3154
  265MPD2     N 4016   2.737   1.398  15.604  0.1933 -0.5798 -0.0749
  265MPD2    H5 4017   2.765   1.305  15.573 -1.5245 -1.6513  1.5842
  265MPD2    N1 4018   2.560   1.685  15.947  0.1024 -0.1882  0.0202
  265MPD2    H7 4019   2.568   1.754  15.872  0.2898  1.1054  1.2444
  266TMC3    C1 4020   2.557   1.855  16.115  1.3384  0.1705  0.0961
  266TMC3    C2 4021   2.649   1.900  16.204  0.9007  0.3695  0.6306
  266TMC3    C3 4022   2.671   2.036  16.215 -0.4043  0.0982  0.5061
  266TMC3    C4 4023   2.485   1.942  16.033 -0.2379 -0.9430  0.4542
  266TMC3    C5 4024   2.505   2.072  16.052  0.0218 -0.1994  0.5250
  266TMC3    C6 4025   2.600   2.126  16.139 -0.0792  0.4064 -0.5266
  266TMC3     C 4026   2.553   1.714  16.086 -0.1611 -0.1706  0.0211
  266TMC3     O 4027   2.588   1.640  16.175  0.1932  0.6803  0.2639
  266TMC3     H 4028   2.717   1.832  16.255  0.7394  0.0600  0.4352
  266TMC3    H1 4029   2.410   1.908  15.963  1.0410  0.0765 -1.4359
  266TMC3    H2 4030   2.634   2.228  16.125  1.7202  0.1925  2.2517
  266TMC3    C7 4031   2.461   2.154  15.943  0.0678  0.1851 -0.6071
  266TMC3    C8 4032   2.797   2.080  16.270 -0.7950  0.3804 -0.2784
  266TMC3    O1 4033   2.435   2.090  15.843 -0.6575  0.0877 -0.2777
  266TMC3    O2 4034   2.879   1.995  16.296  0.8359 -0.7146 -0.1355
  267MPD2     C 4035   4.376   3.948  17.695 -0.2293 -0.2831  0.3976
  267MPD2    C1 4036   4.484   4.020  17.643  0.2703 -0.1281  0.2608
  267MPD2    C2 4037   4.522   4.012  17.508  0.6558 -0.3746  0.3882
  267MPD2    C3 4038   4.453   3.927  17.423 -0.4918 -0.3010  0.0078
  267MPD2    C4 4039   4.342   3.861  17.473 -0.1547 -0.5702 -0.6160
  267MPD2    C5 4040   4.305   3.874  17.603  0.2677  0.6717  0.1569
  267MPD2     H 4041   4.603   4.068  17.463  0.2797 -0.9192 -0.9611
  267MPD2    H1 4042   4.284   3.789  17.416 -1.1982  0.1801 -0.4903
  267MPD2    H2 4043   4.351   3.951   0.084  1.8523  1.6941  0.8452
  267MPD2    H3 4044   4.217   3.817  17.632  0.6250 -0.2879 -0.6396
  267MPD2     N 4045   4.483   3.902  17.289  0.5069  0.1489 -0.6202
  267MPD2    H5 4046   4.441   3.825  17.238 -0.6503 -0.1131  0.7181
  267MPD2    N1 4047   4.565   4.091   0.025  0.5241  0.0010  0.1135
  267MPD2    H7 4048   4.538   4.092   0.123  2.2426  1.2111  0.5698
  268TMC3    C1 4049   4.721   4.255   0.116 -0.0406 -0.1449 -0.0910
  268TMC3    C2 4050   0.055   4.367   0.078 -0.0695  0.4657  0.4138
  268TMC3    C3 4051   0.164   4.412   0.146  0.3287 -0.3407  0.0853
  268TMC3    C4 4052   0.024   4.190   0.237  0.2936  0.0404  0.3222
  268TMC3    C5 4053   0.126   4.245   0.313  0.7255 -0.5989 -0.0152
  268TMC3    C6 4054   0.199   4.348   0.261  0.7412  0.4971  0.2895
  268TMC3     C 4055   4.667   4.178   0.006  0.4153 -0.0307 -0.2035
  268TMC3     O 4056   4.723   4.214  17.616 -0.1188  0.2037  0.1066
  268TMC3     H 4057   0.006   4.422  17.716 -1.2012  1.8901  2.1209
  268TMC3    H1 4058   4.709   4.095   0.264 -0.9818  0.1547 -1.3438
  268TMC3    H2 4059   0.294   4.378   0.305  1.4197  0.5465 -1.2256
  268TMC3    C7 4060   0.206   4.152   0.399 -0.0940 -0.0763  0.4617
  268TMC3    C8 4061   0.268   4.452   0.056 -0.4689 -0.1589  0.2789
  268TMC3    O1 4062   0.169   4.036   0.390 -0.1505  0.3514  0.2882
  268TMC3    O2 4063   0.354   4.531   0.099  0.5792  0.2798  0.4620
  269MPD2     C 4064   0.723   2.739  15.813 -0.4124  0.1071  0.4855
  269MPD2    C1 4065   0.645   2.761  15.924  0.6709 -0.5099 -0.1677
  269MPD2    C2 4066   0.644   2.880  15.991  0.4376  0.5591  0.0044
  269MPD2    C3 4067   0.727   2.979  15.934  0.0398 -0.4613  0.9275
  269MPD2    C4 4068   0.801   2.957  15.821 -0.1623 -0.4221  0.7930
  269MPD2    C5 4069   0.797   2.835  15.765 -0.3145  0.8374  0.4189
  269MPD2     H 4070   0.592   2.900  16.084  1.8946 -1.0150  1.1545
  269MPD2    H1 4071   0.859   3.033  15.769 -1.9256  1.3187  1.3705
  269MPD2    H2 4072   0.719   2.645  15.759  0.9930 -0.6346  1.6669
  269MPD2    H3 4073   0.853   2.810  15.675 -0.5317 -0.4818  0.6464
  269MPD2     N 4074   0.720   3.113  15.988  0.0029  0.3351  0.2535
  269MPD2    H5 4075   0.651   3.129  16.061  0.9946  0.1899  1.2234
  269MPD2    N1 4076   0.565   2.655  15.965 -0.3574  0.0957 -0.4260
  269MPD2    H7 4077   0.559   2.577  15.900 -1.4507  2.3617 -3.0482
  270TMC3    C1 4078   0.400   2.538  16.055 -0.2137  0.0199  0.2819
  270TMC3    C2 4079   0.347   2.537  15.932  0.1388 -1.0145  0.1874
  270TMC3    C3 4080   0.235   2.455  15.917 -0.2252  0.6822  0.5916
  270TMC3    C4 4081   0.369   2.456  16.156 -0.2834  0.4612 -0.2210
  270TMC3    C5 4082   0.276   2.363  16.137 -0.1318  0.2662  0.1867
  270TMC3    C6 4083   0.201   2.375  16.021 -0.2448  0.8187  0.0837
  270TMC3     C 4084   0.496   2.638  16.080 -0.5382 -0.0607  0.0671
  270TMC3     O 4085   0.523   2.688  16.185 -0.1536 -0.6430 -0.0899
  270TMC3     H 4086   0.377   2.603  15.851 -2.0313  1.3015  1.2999
  270TMC3    H1 4087   0.429   2.450  16.246 -0.9309  1.2454  0.2633
  270TMC3    H2 4088   0.106   2.324  16.014 -0.2864  0.5606  2.5394
  270TMC3    C7 4089   0.239   2.288  16.251 -0.3295  0.8139 -0.3253
  270TMC3    C8 4090   0.198   2.427  15.785 -0.1186  0.1425 -0.6074
  270TMC3    O1 4091   0.259   2.348  16.355 -0.1160  0.1441  0.1864
  270TMC3    O2 4092   0.263   2.488  15.706  0.0939  0.3070 -0.0700
  271MPD2     C 4093   4.462   1.962  14.086 -0.2035 -0.2486 -0.1653
  271MPD2    C1 4094   4.430   2.045  14.188 -1.1564 -0.0283 -0.0245
  271MPD2    C2 4095   4.357   2.155  14.165 -0.6059 -0.4444 -0.9366
  271MPD2    C3 4096   4.308   2.183  14.043  0.0525 -0.5817 -0.2603
  271MPD2    C4 4097   4.348   2.110  13.932  0.2251 -0.2087 -0.3265
  271MPD2    C5 4098   4.430   2.004  13.960  0.4769  0.0427  0.3198
  271MPD2     H 4099   4.342   2.216  14.253  0.2461 -2.0973  0.3618
  271MPD2    H1 4100   4.313   2.123  13.830 -1.3689 -0.5869  0.1801
  271MPD2    H2 4101   4.527   1.876  14.082 -0.5266 -0.5559  1.3095
  271MPD2    H3 4102   4.469   1.957  13.871 -2.4483 -0.5476 -0.6573
  271MPD2     N 4103   4.217   2.286  14.024  0.3297  0.8364  0.0214
  271MPD2    H5 4104   4.199   2.308  13.926 -1.8104 -2.0332 -0.2412
  271MPD2    N1 4105   4.474   2.032  14.328  0.5919  0.5734 -0.2719
  271MPD2    H7 4106   4.443   2.097  14.399 -0.3956 -1.3265  1.0442
  272TMC3    C1 4107   4.612   1.942  14.501  0.0900  0.0471  1.0777
  272TMC3    C2 4108   0.016   1.936  14.525  0.6303 -0.6229 -0.4482
  272TMC3    C3 4109   0.076   1.976  14.646 -0.4059  0.4211  0.0996
  272TMC3    C4 4110   4.541   1.997  14.600  0.4769 -0.0875 -0.2757
  272TMC3    C5 4111   4.597   2.026  14.720  0.1074 -0.3882  0.2143
  272TMC3    C6 4112   0.002   2.015  14.750  0.1639  0.3612 -0.2756
  272TMC3     C 4113   4.562   1.929  14.363 -0.1365  0.0531  0.4991
  272TMC3     O 4114   4.631   1.862  14.291  0.3026  0.2212 -0.3062
  272TMC3     H 4115   0.079   1.908  14.442  1.4536 -0.5324  0.1442
  272TMC3    H1 4116   4.438   2.023  14.583  0.2374 -2.1114 -1.9631
  272TMC3    H2 4117   0.045   2.035  14.847  1.6393 -0.1324 -0.8303
  272TMC3    C7 4118   4.511   2.094  14.821  0.1537  0.0857 -0.6944
  272TMC3    C8 4119   0.223   1.973  14.659  0.1550  0.0243 -0.4027
  272TMC3    O1 4120   4.394   2.072  14.832  0.2381 -0.1392 -0.1275
  272TMC3    O2 4121   0.283   1.979  14.554  0.4716 -0.1465 -0.7357
  273MPD2     C 4122   0.661   0.356  11.759  0.3370  0.9911  0.5445
  273MPD2    C1 4123   0.772   0.434  11.729 -0.0430 -0.2249 -0.1978
  273MPD2    C2 4124   0.804   0.455  11.599  0.0771  0.6989  0.7096
  273MPD2    C3 4125   0.708   0.409  11.501  0.1964  0.1231  0.4643
  273MPD2    C4 4126   0.594   0.354  11.532  0.5140  0.3321 -0.2393
  273MPD2    C5 4127   0.582   0.308  11.660  0.3409 -0.0456  0.2736
  273MPD2     H 4128   0.892   0.506  11.562  0.3712 -1.9024 -2.1287
  273MPD2    H1 4129   0.511   0.331  11.466  1.7381 -2.1597 -0.9023
  273MPD2    H2 4130   0.627   0.345  11.861 -1.6486 -0.3308 -0.2491
  273MPD2    H3 4131   0.487   0.265  11.687  0.8285 -1.7229 -0.6885
  273MPD2     N 4132   0.736   0.443  11.362 -0.9494 -0.0586  0.1180
  273MPD2    H5 4133   0.824   0.492  11.347 -1.6565  1.4768  0.9091
  273MPD2    N1 4134   0.841   0.487  11.841 -0.8258  0.2529 -0.0235
  273MPD2    H7 4135   0.813   0.454  11.933  1.8946  0.5152  0.8787
  274TMC3    C1 4136   0.701   0.477  11.132  0.4780  0.3743  0.0326
  274TMC3    C2 4137   0.615   0.514  11.033 -0.4565  0.0315 -0.1169
  274TMC3    C3 4138   0.666   0.563  10.920 -0.4163  0.7650  0.1071
  274TMC3    C4 4139   0.841   0.479  11.127  0.0082  0.0840  0.5336
  274TMC3    C5 4140   0.892   0.520  11.005  0.4475  0.5367  0.7740
  274TMC3    C6 4141   0.806   0.568  10.907  0.4439  0.3602  1.0022
  274TMC3     C 4142   0.646   0.433  11.257  0.0186 -1.0899  0.5227
  274TMC3     O 4143   0.524   0.416  11.257 -0.1408  0.5053  0.1815
  274TMC3     H 4144   0.508   0.501  11.049 -0.3965 -1.0647 -0.5991
  274TMC3    H1 4145   0.910   0.435  11.199 -0.3235  1.0534  1.4470
  274TMC3    H2 4146   0.856   0.628  10.831 -0.8145  0.3389  0.1649
  274TMC3    C7 4147   1.029   0.552  10.990 -0.2542  0.1729 -0.0394
  274TMC3    C8 4148   0.590   0.660  10.843  1.2409  0.3095 -0.1217
  274TMC3    O1 4149   1.081   0.532  10.880  0.3450  0.3469 -0.2820
  274TMC3    O2 4150   0.473   0.667  10.877  0.4800 -0.2655 -0.6220
  275MPD2     C 4151   1.713   2.780  14.478  0.1315  0.5016  0.4653
  275MPD2    C1 4152   1.656   2.900  14.429  0.2731  0.2126  0.1141
  275MPD2    C2 4153   1.525   2.896  14.407 -0.0437  0.6216 -0.1854
  275MPD2    C3 4154   1.447   2.780  14.412  0.0624 -1.0608  0.5865
  275MPD2    C4 4155   1.509   2.662  14.441 -0.0374 -0.3312  0.6147
  275MPD2    C5 4156   1.643   2.660  14.482  0.1758  0.3245 -0.2222
  275MPD2     H 4157   1.489   2.998  14.397 -2.0879  0.0676  1.3530
  275MPD2    H1 4158   1.446   2.575  14.430 -0.1710 -0.4035  1.9131
  275MPD2    H2 4159   1.820   2.772  14.497 -0.0055  2.7528  2.1340
  275MPD2    H3 4160   1.693   2.570  14.516  1.1509  0.9031 -0.1311
  275MPD2     N 4161   1.309   2.786  14.384  0.0440 -0.5165  0.3993
  275MPD2    H5 4162   1.253   2.707  14.416  0.4876  0.1486  2.7950
  275MPD2    N1 4163   1.708   3.028  14.451  0.0901  0.1209  0.0040
  275MPD2    H7 4164   1.644   3.107  14.451  1.2626  1.0674  1.3028
  276TMC3    C1 4165   1.822   3.187  14.570 -0.8430 -0.4181  0.4731
  276TMC3    C2 4166   1.704   3.250  14.555  0.1258  0.1288 -0.3352
  276TMC3    C3 4167   1.654   3.318  14.665 -0.4264 -0.4350 -0.1724
  276TMC3    C4 4168   1.900   3.193  14.677  0.3768 -0.1246 -0.3320
  276TMC3    C5 4169   1.858   3.257  14.786  0.7017 -0.3352  0.1747
  276TMC3    C6 4170   1.735   3.316  14.776 -0.2100 -0.5825 -0.1139
  276TMC3     C 4171   1.830   3.057  14.500 -0.2032  0.1117 -0.1678
  276TMC3     O 4172   1.919   2.977  14.533 -0.0620  0.0632 -0.1437
  276TMC3     H 4173   1.646   3.262  14.464 -0.1472 -0.6380 -0.2639
  276TMC3    H1 4174   1.999   3.149  14.681 -0.6513 -2.3554  0.1729
  276TMC3    H2 4175   1.695   3.362  14.866  0.1505 -1.4381  0.4894
  276TMC3    C7 4176   1.943   3.311  14.890 -0.3256  0.2142  0.0040
  276TMC3    C8 4177   1.521   3.279  14.691  0.1850  0.0406  0.1930
  276TMC3    O1 4178   1.889   3.375  14.983  0.3963  0.4441  0.4155
  276TMC3    O2 4179   1.436   3.347  14.641 -0.2797 -0.4934  0.0281
  277MPD2     C 4180   2.693   2.167  12.929  0.5174 -0.3047  0.4709
  277MPD2    C1 4181   2.584   2.253  12.930 -0.0988  0.0715 -0.0268
  277MPD2    C2 4182   2.506   2.237  13.041 -0.6400  0.4576  0.4851
  277MPD2    C3 4183   2.517   2.134  13.134  0.7169  0.3134  0.0306
  277MPD2    C4 4184   2.643   2.072  13.135 -0.6333 -0.0515  0.8019
  277MPD2    C5 4185   2.726   2.078  13.027 -0.0628  0.0179  0.8008
  277MPD2     H 4186   2.421   2.304  13.044 -1.0448  0.0277 -1.3175
  277MPD2    H1 4187   2.666   2.007  13.220 -1.4385  0.3643  1.3370
  277MPD2    H2 4188   2.763   2.162  12.846 -0.4789  2.2878 -0.5109
  277MPD2    H3 4189   2.827   2.037  13.029 -0.1803 -0.2942  0.3681
  277MPD2     N 4190   2.434   2.132  13.240  0.0649  0.7323 -0.7418
  277MPD2    H5 4191   2.359   2.200  13.228  0.5633  1.0189 -2.2351
  277MPD2    N1 4192   2.541   2.337  12.828  0.8276 -0.0866 -0.4985
  277MPD2    H7 4193   2.465   2.399  12.856  0.0686 -1.8263  1.3107
  278TMC3    C1 4194   2.324   2.063  13.435 -0.0221 -0.1879  0.8528
  278TMC3    C2 4195   2.315   1.972  13.536  0.4913  0.7575 -0.0648
  278TMC3    C3 4196   2.215   1.981  13.630 -0.8607 -0.1026 -0.2602
  278TMC3    C4 4197   2.231   2.160  13.416 -0.1390 -0.4508 -0.3429
  278TMC3    C5 4198   2.125   2.162  13.504 -0.0080 -1.1783 -0.4590
  278TMC3    C6 4199   2.114   2.071  13.609  0.0427 -1.1716 -0.7754
  278TMC3     C 4200   2.438   2.041  13.345 -0.6480  0.8165 -0.0966
  278TMC3     O 4201   2.499   1.937  13.363  0.1421 -0.5380 -0.2408
  278TMC3     H 4202   2.387   1.893  13.553 -0.1835  0.2600  0.5058
  278TMC3    H1 4203   2.242   2.242  13.345  0.0367  1.7754  2.2712
  278TMC3    H2 4204   2.027   2.061  13.673  0.4483 -0.8680 -0.1867
  278TMC3    C7 4205   2.017   2.258  13.473  0.1542 -0.6291  0.1866
  278TMC3    C8 4206   2.159   1.856  13.679 -0.1220  0.0083  1.4109
  278TMC3    O1 4207   2.042   2.353  13.399  0.3307  0.1861 -0.3283
  278TMC3    O2 4208   2.089   1.865  13.778  0.3677  0.0212 -0.3318
  279MPD2     C 4209   1.489   1.402   0.559 -0.0856 -0.0712 -0.4024
  279MPD2    C1 4210   1.485   1.536   0.554 -0.2472 -0.6175 -0.0188
  279MPD2    C2 4211   1.587   1.607   0.503 -0.3461 -0.6486 -0.4182
  279MPD2    C3 4212   1.690   1.547   0.444 -0.1593 -0.4739  0.4653
  279MPD2    C4 4213   1.696   1.409   0.446 -0.0161  0.4142  0.1445
  279MPD2    C5 4214   1.595   1.339   0.501 -0.4213 -0.0163  0.6910
  279MPD2     H 4215   1.586   1.715   0.502  1.2425 -0.6385 -0.9503
  279MPD2    H1 4216   1.789   1.360   0.419 -1.0630  0.6895 -3.9586
  279MPD2    H2 4217   1.409   1.341   0.601  1.8268 -0.6372  2.3808
  279MPD2    H3 4218   1.601   1.231   0.508 -0.1632  0.1076  2.4173
  279MPD2     N 4219   1.794   1.638   0.392 -0.2362  0.0181  0.0998
  279MPD2    H5 4220   1.789   1.737   0.412  1.1540  0.0122  0.4538
  279MPD2    N1 4221   1.368   1.587   0.607 -0.5080  0.1989  0.1855
  279MPD2    H7 4222   1.290   1.523   0.617 -0.6752  0.5551  1.1358
  280TMC3    C1 4223   1.207   1.760   0.615 -0.2109 -0.1815 -0.0511
  280TMC3    C2 4224   1.122   1.701   0.533 -0.2406 -0.0001 -0.9097
  280TMC3    C3 4225   1.034   1.783   0.468 -0.5633 -0.2449  0.1312
  280TMC3    C4 4226   1.187   1.891   0.661  0.7588 -0.2528  0.5333
  280TMC3    C5 4227   1.097   1.972   0.596  0.6205 -0.9411 -0.7316
  280TMC3    C6 4228   1.021   1.918   0.492 -0.8705 -0.3218 -0.2928
  280TMC3     C 4229   1.350   1.724   0.612  0.1917  0.6822 -0.0462
  280TMC3     O 4230   1.427   1.813   0.638 -0.1989  0.2100  0.0345
  280TMC3     H 4231   1.159   1.612   0.483 -1.5429 -0.0324 -1.8130
  280TMC3    H1 4232   1.247   1.940   0.737  0.7592 -1.4462  1.2958
  280TMC3    H2 4233   0.948   1.976   0.437 -0.5051  0.9786  0.5949
  280TMC3    C7 4234   1.117   2.112   0.611  0.2311  0.1654 -0.1602
  280TMC3    C8 4235   0.939   1.708   0.391 -0.2440 -0.3138 -0.8280
  280TMC3    O1 4236   1.159   2.148   0.721  0.3517 -0.5858  0.4542
  280TMC3    O2 4237   0.874   1.766   0.307 -0.1492  0.7519  0.8157
  281TMC3    C1 4238   0.554   2.494  12.900 -0.4903  0.0669 -0.1102
  281TMC3    C2 4239   0.607   2.564  12.796 -0.7074  0.4722 -0.6377
  281TMC3    C3 4240   0.622   2.495  12.679 -0.2198  0.0937  0.6974
  281TMC3    C4 4241   0.539   2.355  12.892 -0.0152 -0.2249  0.3426
  281TMC3    C5 4242   0.555   2.292  12.774 -0.1737  0.5076 -0.6106
  281TMC3    C6 4243   0.608   2.361  12.663 -0.2026  1.3029  0.0876
  281TMC3     C 4244   0.481   2.568  13.000 -0.1883 -0.4242 -0.0064
  281TMC3     O 4245   0.460   2.679  12.966  0.6164 -0.6694 -0.0296
  281TMC3     H 4246   0.617   2.672  12.789 -1.9602  0.7388  1.8300
  281TMC3    H1 4247   0.502   2.302  12.979 -2.7188  2.3740  0.7694
  281TMC3    H2 4248   0.613   2.318  12.563  0.0888 -0.1633  0.7452
  281TMC3    C7 4249   0.505   2.157  12.750 -0.3930 -0.9254  0.2226
  281TMC3    C8 4250   0.628   2.573  12.559  0.9477 -0.4855 -0.1785
  281TMC3    O1 4251   0.545   2.097  12.649 -0.0437 -1.5378  0.6913
  281TMC3    O2 4252   0.734   2.558  12.502 -0.4793 -0.1903 -0.0432
  282MPD2     C 4253   2.705   3.658  15.162  0.3082  0.1450 -0.2990
  282MPD2    C1 4254   2.581   3.720  15.164  0.1970  0.4032 -0.0643
  282MPD2    C2 4255   2.511   3.726  15.044  0.1679  0.2168 -0.6266
  282MPD2    C3 4256   2.560   3.684  14.921 -0.1488  0.3921  0.0435
  282MPD2    C4 4257   2.691   3.640  14.922  0.2551 -1.0853 -0.0477
  282MPD2    C5 4258   2.759   3.621  15.040 -0.2024  0.1017  0.5728
  282MPD2     H 4259   2.408   3.759  15.038 -0.8786 -2.7630  1.0453
  282MPD2    H1 4260   2.731   3.594  14.832  0.8563 -1.5306  0.4497
  282MPD2    H2 4261   2.768   3.643  15.249 -0.2129  1.6081  0.3207
  282MPD2    H3 4262   2.859   3.581  15.036  0.2925  0.9588  4.1010
  282MPD2     N 4263   2.470   3.696  14.806 -0.5999  0.2724 -0.2588
  282MPD2    H5 4264   2.388   3.754  14.820 -0.7745 -0.5474  2.0594
  282MPD2    N1 4265   2.516   3.764  15.283 -0.0928  0.5312 -0.4079
  282MPD2    H7 4266   2.431   3.817  15.264  0.2300  0.7069 -1.3621
  283TMC3    C1 4267   2.475   3.806  15.513  0.2645 -0.2457  0.2428
  283TMC3    C2 4268   2.404   3.921  15.501  0.1683 -0.7387  0.0231
  283TMC3    C3 4269   2.338   3.969  15.605  0.0450 -0.5682 -0.1145
  283TMC3    C4 4270   2.487   3.740  15.633  0.6018  0.1594  0.3001
  283TMC3    C5 4271   2.414   3.789  15.740 -0.7965  0.5368  0.3998
  283TMC3    C6 4272   2.336   3.898  15.726  0.1763  0.4221 -0.1564
  283TMC3     C 4273   2.570   3.776  15.407 -0.9190 -0.6353 -0.4442
  283TMC3     O 4274   2.675   3.737  15.454  0.2826  0.1131 -0.3399
  283TMC3     H 4275   2.381   3.943  15.397  4.1612 -2.8003 -1.2656
  283TMC3    H1 4276   2.549   3.651  15.641 -0.7036 -0.7758 -0.0365
  283TMC3    H2 4277   2.281   3.934  15.812 -0.1239 -1.2727  0.3661
  283TMC3    C7 4278   2.365   3.700  15.840  0.2041 -0.7420 -0.9534
  283TMC3    C8 4279   2.300   4.111  15.624  0.0876  0.0107 -0.0964
  283TMC3    O1 4280   2.246   3.704  15.876 -0.6482  0.8432 -0.5692
  283TMC3    O2 4281   2.207   4.140  15.700 -0.2278 -0.2860 -0.1662
  284MPD2     C 4282   0.611   3.284  11.275  0.1541 -0.6564 -0.1720
  284MPD2    C1 4283   0.735   3.305  11.323 -0.7194  0.0339  0.3639
  284MPD2    C2 4284   0.775   3.215  11.412 -0.4009  0.6058  0.2731
  284MPD2    C3 4285   0.705   3.108  11.453 -0.1644  0.3793 -0.5418
  284MPD2    C4 4286   0.579   3.083  11.397  0.4070 -0.2337 -0.0682
  284MPD2    C5 4287   0.531   3.179  11.312  0.3684  0.0504 -0.4293
  284MPD2     H 4288   0.873   3.231  11.456 -0.6785 -0.7627  1.4001
  284MPD2    H1 4289   0.530   2.988  11.416 -1.6430  0.6816 -0.7258
  284MPD2    H2 4290   0.578   3.359  11.204 -3.0113 -0.0200  2.0130
  284MPD2    H3 4291   0.433   3.174  11.267  0.6217 -1.6408 -0.7821
  284MPD2     N 4292   0.780   3.007  11.516 -0.0190  0.2731  0.1348
  284MPD2    H5 4293   0.874   3.040  11.540 -0.1610  0.3138  0.6377
  284MPD2    N1 4294   0.820   3.409  11.281  0.6437 -0.6490  0.7829
  284MPD2    H7 4295   0.916   3.399  11.313  1.1450 -2.6199 -1.3127
  285TMC3    C1 4296   0.891   3.582  11.148  0.7200  0.2554  0.1199
  285TMC3    C2 4297   1.011   3.523  11.161  0.3088  0.3743  1.2226
  285TMC3    C3 4298   1.130   3.594  11.151 -0.1279  0.1161 -0.4840
  285TMC3    C4 4299   0.886   3.717  11.135 -0.0478 -0.2824  0.1353
  285TMC3    C5 4300   1.002   3.788  11.129 -0.5893 -0.2249 -0.2391
  285TMC3    C6 4301   1.126   3.732  11.152 -0.1957 -0.4082 -0.0503
  285TMC3     C 4302   0.780   3.514  11.204  0.6446 -0.2568 -0.0654
  285TMC3     O 4303   0.667   3.566  11.198 -0.2702 -0.4272  0.0929
  285TMC3     H 4304   1.006   3.415  11.148  0.6313  0.4216  0.7153
  285TMC3    H1 4305   0.784   3.749  11.115  0.3069 -0.4128 -1.8277
  285TMC3    H2 4306   1.216   3.786  11.129 -0.1730 -0.4020  0.0537
  285TMC3    C7 4307   1.008   3.936  11.106 -0.0587 -0.4166  0.3992
  285TMC3    C8 4308   1.257   3.521  11.142 -0.2047 -0.1369 -0.8011
  285TMC3    O1 4309   1.123   3.984  11.113  0.2192  0.6246  0.1961
  285TMC3    O2 4310   1.243   3.402  11.122  0.2461 -0.0142 -0.7730
  286MPD2     C 4311   0.172   1.332   1.717 -0.0368  0.2288 -0.2210
  286MPD2    C1 4312   0.237   1.399   1.614 -0.3099 -0.0513 -0.1819
  286MPD2    C2 4313   0.287   1.324   1.511 -1.3579 -0.3600 -0.4799
  286MPD2    C3 4314   0.280   1.185   1.518 -0.5020  0.5627 -0.3884
  286MPD2    C4 4315   0.213   1.125   1.626  0.3718  0.2391  0.4374
  286MPD2    C5 4316   0.151   1.196   1.724 -0.2253  0.5749 -0.2513
  286MPD2     H 4317   0.346   1.370   1.433 -0.9386 -2.3247 -1.3217
  286MPD2    H1 4318   0.186   1.020   1.621  1.3650  0.0631 -0.9896
  286MPD2    H2 4319   0.143   1.380   1.810  2.0344 -0.3047  0.7031
  286MPD2    H3 4320   0.107   1.149   1.811 -0.7500 -0.2967 -0.9909
  286MPD2     N 4321   0.335   1.094   1.423 -0.4401 -0.6819 -0.2238
  286MPD2    H5 4322   0.327   0.994   1.442 -5.2186 -0.2111  0.2702
  286MPD2    N1 4323   0.244   1.540   1.604 -0.4960  0.1982  0.1102
  286MPD2    H7 4324   0.285   1.578   1.519 -0.8107  0.6476  0.1614
  287TMC3    C1 4325   0.457   1.018   1.252 -0.2958 -0.0428 -0.9593
  287TMC3    C2 4326   0.468   1.013   1.117  0.4459  0.2269  1.2069
  287TMC3    C3 4327   0.557   0.924   1.067  0.5824 -0.2234 -0.3139
  287TMC3    C4 4328   0.543   0.949   1.334 -0.7561 -0.5367  0.2570
  287TMC3    C5 4329   0.640   0.871   1.276 -0.0912 -0.4202 -0.0652
  287TMC3    C6 4330   0.653   0.859   1.141  0.1431  0.8931 -0.3368
  287TMC3     C 4331   0.385   1.127   1.307 -0.1390  0.2376 -0.7587
  287TMC3     O 4332   0.402   1.232   1.246  1.0640  0.2634 -0.0900
  287TMC3     H 4333   0.383   1.051   1.061 -0.3507 -0.4833  1.9218
  287TMC3    H1 4334   0.543   0.956   1.442 -0.6724 -1.4363  0.3150
  287TMC3    H2 4335   0.715   0.788   1.088  0.5952 -0.1709  1.6081
  287TMC3    C7 4336   0.750   0.833   1.366  0.1968  0.0285  0.3364
  287TMC3    C8 4337   0.541   0.892   0.930 -0.7152 -0.2888 -0.2895
  287TMC3    O1 4338   0.776   0.897   1.465  0.1447  0.2813  0.8378
  287TMC3    O2 4339   0.595   0.792   0.897 -0.4082 -0.6366 -0.1679
  288TMC3    C1 4340   2.911   1.489  14.736 -0.1113  0.2314 -0.1040
  288TMC3    C2 4341   2.855   1.475  14.857 -0.6601  0.6208  0.9931
  288TMC3    C3 4342   2.733   1.535  14.876 -0.9578  0.6871  0.3346
  288TMC3    C4 4343   2.853   1.564  14.631 -0.2161 -0.2888 -0.2560
  288TMC3    C5 4344   2.736   1.622  14.659  0.2519 -0.2404 -0.7393
  288TMC3    C6 4345   2.675   1.616  14.783  0.0236  0.4930 -0.5684
  288TMC3     C 4346   3.048   1.449  14.727 -0.0649 -0.6014 -0.6420
  288TMC3     O 4347   3.086   1.369  14.809  0.1715 -0.1047  0.0829
  288TMC3     H 4348   2.897   1.422  14.942  2.2566  0.2261 -0.6676
  288TMC3    H1 4349   2.907   1.582  14.539 -2.4074  1.6340 -1.1554
  288TMC3    H2 4350   2.583   1.664  14.814  1.1833  1.7780  0.8861
  288TMC3    C7 4351   2.656   1.678  14.552 -0.0666 -0.9289  0.1816
  288TMC3    C8 4352   2.678   1.555  15.011  0.1910 -0.1634  0.5825
  288TMC3    O1 4353   2.584   1.772  14.582  0.5441 -0.1885 -0.0713
  288TMC3    O2 4354   2.741   1.624  15.091  0.0465 -0.4874  0.6071
  289MPD2     C 4355   3.092   0.945  14.269  0.1863 -0.1808  0.3832
  289MPD2    C1 4356   3.117   1.001  14.145  0.1383 -0.6914 -0.6619
  289MPD2    C2 4357   3.039   0.950  14.045 -0.6913 -0.4830  0.2475
  289MPD2    C3 4358   2.934   0.857  14.070 -0.6845  0.0495 -0.2138
  289MPD2    C4 4359   2.915   0.800  14.195  0.0055  0.0313 -0.0533
  289MPD2    C5 4360   2.989   0.858  14.296  0.4347  0.4208  0.1596
  289MPD2     H 4361   3.052   0.983  13.943  2.5050  1.3379  1.2425
  289MPD2    H1 4362   2.861   0.709  14.216  0.6532 -0.7024 -1.5654
  289MPD2    H2 4363   3.148   0.977  14.355 -1.3395  1.2817  0.8438
  289MPD2    H3 4364   2.978   0.812  14.394 -2.2854 -0.1141 -0.4143
  289MPD2     N 4365   2.854   0.800  13.970 -0.1436  0.2905  0.7296
  289MPD2    H5 4366   2.793   0.723  13.994  2.2606 -2.6311 -2.4706
  289MPD2    N1 4367   3.221   1.098  14.125 -0.6200  0.2140  0.5226
  289MPD2    H7 4368   3.268   1.119  14.212  2.9756 -0.8515 -1.1748
  290TMC3    C1 4369   2.739   0.802  13.760 -0.5055  0.4000 -0.2414
  290TMC3    C2 4370   2.642   0.872  13.700  0.4391 -0.1280  0.5475
  290TMC3    C3 4371   2.522   0.809  13.663  0.0635  0.1666  0.9289
  290TMC3    C4 4372   2.737   0.665  13.757 -0.2607 -0.0514 -0.0320
  290TMC3    C5 4373   2.618   0.605  13.722  0.2923  0.2548 -0.2616
  290TMC3    C6 4374   2.508   0.674  13.666 -0.4061  0.1400  0.8126
  290TMC3     C 4375   2.830   0.868  13.849 -0.1611  0.3823  0.3222
  290TMC3     O 4376   2.869   0.978  13.815  0.0954  0.1809 -0.4225
  290TMC3     H 4377   2.646   0.980  13.697 -0.2391 -0.1353 -0.4755
  290TMC3    H1 4378   2.810   0.597  13.800 -1.8021 -0.9307  1.1906
  290TMC3    H2 4379   2.414   0.629  13.637  0.3250 -1.0571  0.2960
  290TMC3    C7 4380   2.591   0.480  13.786  0.6256  0.2015  0.2206
  290TMC3    C8 4381   2.399   0.884  13.687  0.3631  0.1658 -0.3803
  290TMC3    O1 4382   2.671   0.387  13.789  0.0570  0.0984 -0.1682
  290TMC3    O2 4383   2.296   0.850  13.631  0.3657  1.1507  0.1348
  291MPD2     C 4384   1.689   0.345   0.624 -1.0328 -0.9856 -0.1019
  291MPD2    C1 4385   1.710   0.220   0.567 -0.2377  0.3964 -0.8837
  291MPD2    C2 4386   1.836   0.191   0.530 -0.4006  0.3593 -0.3383
  291MPD2    C3 4387   1.951   0.270   0.545 -0.4125 -0.6554  0.2638
  291MPD2    C4 4388   1.930   0.393   0.600 -0.7245  0.1747  0.2322
  291MPD2    C5 4389   1.800   0.424   0.639 -0.2023  0.1318 -0.4024
  291MPD2     H 4390   1.849   0.101   0.472 -0.9693  0.1044 -0.0718
  291MPD2    H1 4391   2.007   0.469   0.592  0.9668 -1.5086  0.4384
  291MPD2    H2 4392   1.591   0.377   0.657 -0.9202  0.0425 -0.7873
  291MPD2    H3 4393   1.793   0.519   0.690  2.0119  1.1956 -2.0590
  291MPD2     N 4394   2.081   0.255   0.486 -0.7166  0.0671 -0.3222
  291MPD2    H5 4395   2.146   0.333   0.494 -0.6115 -0.1986  1.3574
  291MPD2    N1 4396   1.610   0.129   0.530 -0.0982  0.5355 -0.2797
  291MPD2    H7 4397   1.651   0.040   0.502  0.5180  0.6671  0.2241
  292TMC3    C1 4398   1.396   0.039   0.468 -0.1636 -0.1228  0.0047
  292TMC3    C2 4399   1.260   0.054   0.472 -0.2531 -0.1002  0.8062
  292TMC3    C3 4400   1.188   4.693   0.400  0.6573 -0.1116 -0.0634
  292TMC3    C4 4401   1.461   4.667   0.399  0.0928  0.3945  0.7230
  292TMC3    C5 4402   1.380   4.580   0.333 -0.3085 -0.0846 -0.2659
  292TMC3    C6 4403   1.245   4.590   0.332 -0.3481 -0.5454  0.5535
  292TMC3     C 4404   1.472   0.148   0.528 -0.4028 -0.6864 -0.3350
  292TMC3     O 4405   1.411   0.241   0.579 -0.1594  0.8693  0.1849
  292TMC3     H 4406   1.209   0.120   0.541 -0.6084  0.0453  0.4022
  292TMC3    H1 4407   1.569   4.666   0.395  0.1149  1.4795  1.1086
  292TMC3    H2 4408   1.184   4.540   0.258 -0.6491  1.0824 -0.3029
  292TMC3    C7 4409   1.443   4.467   0.255 -0.3825  0.3044 -0.2904
  292TMC3    C8 4410   1.041   4.716   0.406  0.3042  0.3138 -0.0359
  292TMC3    O1 4411   1.559   4.450   0.289  0.1304 -0.2202 -0.5738
  292TMC3    O2 4412   0.997   0.099   0.435 -0.2576  0.0879  0.2076
  293MPD2     C 4413   3.844   1.823  12.869 -0.0640  0.3337 -0.2235
  293MPD2    C1 4414   3.718   1.867  12.913  0.5151 -0.1140 -0.2710
  293MPD2    C2 4415   3.715   1.915  13.046  0.3123 -0.6567 -0.3520
  293MPD2    C3 4416   3.831   1.906  13.132 -0.1010  0.2673  0.2061
  293MPD2    C4 4417   3.940   1.850  13.085  0.3149  0.6448 -0.2000
  293MPD2    C5 4418   3.943   1.808  12.958  1.1278 -0.4280 -0.2254
  293MPD2     H 4419   3.622   1.952  13.088  0.0725 -0.4045 -1.1006
  293MPD2    H1 4420   4.030   1.830  13.143 -0.8524 -2.5267  0.5266
  293MPD2    H2 4421   3.870   1.804  12.766 -0.9441  0.0739 -0.3970
  293MPD2    H3 4422   4.033   1.755  12.930  2.2392  1.0605  0.5469
  293MPD2     N 4423   3.827   1.974  13.254  0.4497 -0.0190  0.2580
  293MPD2    H5 4424   3.742   2.023  13.280  0.7453  1.9914 -2.6770
  293MPD2    N1 4425   3.614   1.874  12.818  0.8586  0.2850  0.2231
  293MPD2    H7 4426   3.633   1.861  12.719 -2.2232 -1.3096 -0.1450
  294TMC3    C1 4427   3.398   1.917  12.739  0.6600 -0.3833  0.4170
  294TMC3    C2 4428   3.278   1.847  12.752 -0.0094 -0.4279 -0.1058
  294TMC3    C3 4429   3.200   1.821  12.644  0.0819  0.4051 -0.7256
  294TMC3    C4 4430   3.438   1.975  12.621  0.4863  0.2658 -0.2347
  294TMC3    C5 4431   3.345   1.962  12.515 -0.3579 -0.5367  0.2269
  294TMC3    C6 4432   3.226   1.881  12.522  0.0496  0.0059  0.5196
  294TMC3     C 4433   3.481   1.892  12.850 -0.4234  0.0493  0.1297
  294TMC3     O 4434   3.432   1.871  12.961 -0.2725  0.5162 -0.9017
  294TMC3     H 4435   3.270   1.785  12.841  1.0871 -0.0115  0.2841
  294TMC3    H1 4436   3.517   2.048  12.608  0.5879  0.0057 -1.0389
  294TMC3    H2 4437   3.147   1.869  12.449  1.8145  0.4910 -1.4709
  294TMC3    C7 4438   3.371   2.021  12.385 -0.2229  0.3958 -0.1637
  294TMC3    C8 4439   3.158   1.680  12.634 -0.0195 -0.2187 -0.3043
  294TMC3    O1 4440   3.279   2.053  12.310  0.4711 -0.0975 -0.1114
  294TMC3    O2 4441   3.117   1.629  12.735 -0.1297 -0.0175  0.1158
  295MPD2     C 4442   4.471   0.974   0.702  0.3295 -0.6347 -0.3015
  295MPD2    C1 4443   4.393   0.863   0.694  0.4062  0.1031  0.2864
  295MPD2    C2 4444   4.306   0.848   0.795  0.6549  0.1138  0.1511
  295MPD2    C3 4445   4.296   0.934   0.905 -0.5958 -0.3064  0.5271
  295MPD2    C4 4446   4.373   1.046   0.910  0.2791 -0.7224 -0.8149
  295MPD2    C5 4447   4.477   1.066   0.807 -0.5069 -0.4731  0.3579
  295MPD2     H 4448   4.237   0.764   0.793  1.7334 -0.7728  0.3487
  295MPD2    H1 4449   4.361   1.116   0.992  0.8433  0.4393 -1.7153
  295MPD2    H2 4450   4.542   1.001   0.624 -1.2830  0.9040 -1.2376
  295MPD2    H3 4451   4.550   1.147   0.813 -1.2988  0.4567 -2.6048
  295MPD2     N 4452   4.191   0.919   0.999  0.1901  0.5201 -0.0189
  295MPD2    H5 4453   4.185   0.990   1.071 -2.5527 -0.9147  1.1892
  295MPD2    N1 4454   4.379   0.775   0.580  0.3868  0.6132  0.5653
  295MPD2    H7 4455   4.299   0.713   0.585  0.1969  0.9663  1.8176
  296TMC3    C1 4456   3.984   0.818   1.089 -0.0538 -0.4897  0.2221
  296TMC3    C2 4457   3.946   0.941   1.138  0.1032 -0.2388 -0.2844
  296TMC3    C3 4458   3.844   0.943   1.232 -0.1445  0.2575 -0.3960
  296TMC3    C4 4459   3.915   0.706   1.117 -0.3632 -0.4870  0.4410
  296TMC3    C5 4460   3.808   0.716   1.204 -0.3621  0.5743 -0.5714
  296TMC3    C6 4461   3.763   0.837   1.255 -0.4637  0.3314 -0.5275
  296TMC3     C 4462   4.106   0.810   1.008  0.2887 -0.2927  0.1684
  296TMC3     O 4463   4.100   0.702   0.950 -0.3105  0.7653 -0.4375
  296TMC3     H 4464   4.006   1.031   1.124  2.1624 -1.1359  2.7223
  296TMC3    H1 4465   3.941   0.609   1.075 -3.6068 -1.9007  1.6987
  296TMC3    H2 4466   3.666   0.850   1.302 -0.4231  0.9372 -0.6103
  296TMC3    C7 4467   3.724   0.598   1.195  0.0234 -0.0390 -0.4134
  296TMC3    C8 4468   3.815   1.075   1.285 -0.2908  0.4191  0.0848
  296TMC3    O1 4469   3.776   0.487   1.189 -0.2677 -0.0188 -0.5406
  296TMC3    O2 4470   3.867   1.172   1.232  0.0764  0.3672 -0.5379
  297MPD2     C 4471   1.915   2.255  16.616 -0.2843 -0.2166 -0.6900
  297MPD2    C1 4472   1.918   2.346  16.507 -0.3239 -0.1702 -0.6534
  297MPD2    C2 4473   2.021   2.436  16.496 -0.5177  0.1278  0.4827
  297MPD2    C3 4474   2.119   2.449  16.589  0.7310 -0.1177  0.6025
  297MPD2    C4 4475   2.117   2.362  16.696  0.1341  0.2245  0.2688
  297MPD2    C5 4476   2.020   2.262  16.706 -0.1674  0.5876 -0.4490
  297MPD2     H 4477   2.019   2.500  16.409  0.1334 -0.9219 -0.2998
  297MPD2    H1 4478   2.198   2.372  16.768  0.5679  0.6897 -0.2907
  297MPD2    H2 4479   1.853   2.168  16.630 -1.1672  0.5533  0.1489
  297MPD2    H3 4480   2.019   2.191  16.787 -0.1494  0.0923 -0.8828
  297MPD2     N 4481   2.220   2.545  16.577 -0.1901 -0.1881  0.3784
  297MPD2    H5 4482   2.235   2.581  16.483  1.7958  1.8907  1.4883
  297MPD2    N1 4483   1.824   2.346  16.400 -0.3924 -0.1864 -0.4760
  297MPD2    H7 4484   1.850   2.405  16.321  0.0613  1.8243  1.1526
  298TMC3    C1 4485   1.632   2.298  16.277 -0.0186  0.6497  0.1727
  298TMC3    C2 4486   1.702   2.277  16.161 -0.1337 -0.3526 -0.1543
  298TMC3    C3 4487   1.668   2.344  16.048 -0.4519 -0.1575 -0.4177
  298TMC3    C4 4488   1.532   2.392  16.283 -0.2114  0.6045  0.2631
  298TMC3    C5 4489   1.530   2.482  16.183  0.8551 -0.4658 -0.0161
  298TMC3    C6 4490   1.583   2.450  16.062  0.2265 -0.6651  0.6813
  298TMC3     C 4491   1.709   2.275  16.402 -0.2527 -0.2865  0.3319
  298TMC3     O 4492   1.636   2.233  16.491 -0.6810 -0.0316 -0.4792
  298TMC3     H 4493   1.774   2.196  16.164 -1.0656 -1.1300  1.3334
  298TMC3    H1 4494   1.480   2.404  16.377 -1.0192  1.6020 -0.3260
  298TMC3    H2 4495   1.580   2.521  15.980 -2.1164  0.7725  1.9908
  298TMC3    C7 4496   1.471   2.614  16.214 -0.4957 -0.5766  0.5636
  298TMC3    C8 4497   1.728   2.332  15.922 -0.1581  0.9959  0.2630
  298TMC3    O1 4498   1.413   2.609  16.323  0.2498  0.7166 -0.4742
  298TMC3    O2 4499   1.677   2.398  15.833 -0.5069 -0.0053 -0.1477
  299MPD2     C 4500   2.417   2.215  10.819 -0.3863 -0.0523  0.4605
  299MPD2    C1 4501   2.477   2.340  10.791 -0.1949  0.7198 -0.9359
  299MPD2    C2 4502   2.471   2.390  10.660  0.2888  0.2954  0.5174
  299MPD2    C3 4503   2.424   2.312  10.556 -0.0329  0.3593  1.3925
  299MPD2    C4 4504   2.379   2.185  10.579 -0.4415 -0.0710 -0.0641
  299MPD2    C5 4505   2.371   2.149  10.710  0.3426  0.2631  0.3114
  299MPD2     H 4506   2.494   2.492  10.631  0.0675  0.5847  1.3659
  299MPD2    H1 4507   2.341   2.128  10.495  0.3633 -0.6312 -0.0500
  299MPD2    H2 4508   2.391   2.181  10.918  3.1522 -1.8840  0.7635
  299MPD2    H3 4509   2.325   2.051  10.724 -0.1670  0.4312 -0.1468
  299MPD2     N 4510   2.409   2.362  10.424  0.0588  0.3007  0.6288
  299MPD2    H5 4511   2.360   2.302  10.358 -0.1786 -0.3262  1.3740
  299MPD2    N1 4512   2.503   2.422  10.903 -0.7102  0.2028  0.3559
  299MPD2    H7 4513   2.490   2.382  10.996 -0.0099  0.4602  0.5628
  300TMC3    C1 4514   2.380   2.519  10.256 -0.0445  0.1676 -0.3858
  300TMC3    C2 4515   2.440   2.608  10.169 -0.1586 -0.3523  0.1712
  300TMC3    C3 4516   2.383   2.677  10.064  0.4039  0.0987  0.1475
  300TMC3    C4 4517   2.246   2.515  10.257 -0.7000 -0.1015  0.6042
  300TMC3    C5 4518   2.188   2.575  10.150 -0.1142  0.7308 -0.7324
  300TMC3    C6 4519   2.255   2.642  10.047 -0.0199  0.0195  0.8238
  300TMC3     C 4520   2.453   2.478  10.378 -0.2149  0.3366 -0.0640
  300TMC3     O 4521   2.544   2.553  10.420 -0.2446  0.6409 -0.4036
  300TMC3     H 4522   2.546   2.615  10.188 -0.6624 -1.1085  3.2242
  300TMC3    H1 4523   2.191   2.459  10.333  0.1909 -1.9325 -0.1104
  300TMC3    H2 4524   2.193   2.701   9.980  1.3357  1.9717  1.2920
  300TMC3    C7 4525   2.063   2.649  10.174 -0.4702  1.4377 -0.1108
  300TMC3    C8 4526   2.382   2.822  10.072 -0.0477 -0.1233 -0.0581
  300TMC3    O1 4527   1.982   2.666  10.081 -0.4951  0.3701  0.4225
  300TMC3    O2 4528   2.418   2.869  10.177  0.4208 -0.0828 -0.1386
  301MPD2     C 4529   3.823   3.874   0.683 -0.0946  0.5939  0.5924
  301MPD2    C1 4530   3.697   3.863   0.736 -0.1154  0.5302  0.3944
  301MPD2    C2 4531   3.618   3.743   0.743 -0.2704 -0.5770  0.0867
  301MPD2    C3 4532   3.676   3.632   0.679  0.4942  0.2042 -1.0596
  301MPD2    C4 4533   3.798   3.647   0.613 -0.7066  0.1510 -0.0976
  301MPD2    C5 4534   3.873   3.765   0.622  0.7214 -0.1044  0.7037
  301MPD2     H 4535   3.528   3.737   0.802 -2.1630 -0.2611 -2.7453
  301MPD2    H1 4536   3.848   3.563   0.565 -1.0597 -0.9754  1.4816
  301MPD2    H2 4537   3.892   3.958   0.673  0.1470  0.4575  1.1599
  301MPD2    H3 4538   3.963   3.773   0.562  0.1372 -1.6689 -0.3803
  301MPD2     N 4539   3.612   3.503   0.669  0.4456  0.3939  0.4302
  301MPD2    H5 4540   3.649   3.434   0.604  0.4588  2.9787 -2.3089
  301MPD2    N1 4541   3.648   3.969   0.809 -0.0567 -0.1141  0.1956
  301MPD2    H7 4542   3.561   3.951   0.858 -1.1527 -0.6745 -1.9854
  302TMC3    C1 4543   3.442   3.340   0.701 -0.0538  0.3049 -0.2100
  302TMC3    C2 4544   3.522   3.233   0.675  0.0486  0.4159  0.7361
  302TMC3    C3 4545   3.468   3.107   0.679  0.3171 -0.9719  0.0512
  302TMC3    C4 4546   3.308   3.325   0.743  0.0962 -0.1068  0.2103
  302TMC3    C5 4547   3.265   3.195   0.766 -0.0247  0.1568  0.2535
  302TMC3    C6 4548   3.340   3.088   0.735  0.4148  0.3906 -0.0773
  302TMC3     C 4549   3.503   3.468   0.738 -0.9820 -0.2958 -0.0002
  302TMC3     O 4550   3.440   3.535   0.819  0.0112  0.2753  0.1427
  302TMC3     H 4551   3.628   3.253   0.661  0.7459 -2.2935  2.0826
  302TMC3    H1 4552   3.243   3.412   0.746 -1.9905 -1.6642  0.3488
  302TMC3    H2 4553   3.295   2.991   0.752  1.0764  0.3695  1.5467
  302TMC3    C7 4554   3.129   3.180   0.798 -0.5474 -0.6001 -0.2468
  302TMC3    C8 4555   3.570   2.999   0.682 -0.3242 -0.4664  0.1813
  302TMC3    O1 4556   3.073   3.093   0.739  0.0699  0.4733  0.2959
  302TMC3    O2 4557   3.679   3.037   0.643 -0.4047 -0.5630  0.1168
  303MPD2     C 4558   4.561   1.679  11.125  0.4127  0.6359  0.1408
  303MPD2    C1 4559   4.500   1.570  11.069  0.1864 -0.5831  0.3596
  303MPD2    C2 4560   4.466   1.566  10.931  0.3517  0.0598  0.4977
  303MPD2    C3 4561   4.489   1.680  10.854  0.2477 -0.7570 -0.1078
  303MPD2    C4 4562   4.541   1.786  10.922  0.2429 -0.1892 -0.3463
  303MPD2    C5 4563   4.578   1.793  11.059 -0.6778 -0.0532 -0.3450
  303MPD2     H 4564   4.423   1.477  10.888  0.1530  0.7064 -0.6406
  303MPD2    H1 4565   4.564   1.870  10.857  1.2389 -1.0927 -1.1589
  303MPD2    H2 4566   4.600   1.690  11.226 -0.6181  1.1198  0.4908
  303MPD2    H3 4567   4.630   1.879  11.100  0.1844 -0.5194 -0.4731
  303MPD2     N 4568   4.472   1.689  10.714  0.0292 -0.3748  0.2690
  303MPD2    H5 4569   4.485   1.778  10.666 -0.7670 -1.0712 -1.2549
  303MPD2    N1 4570   4.464   1.466  11.154 -0.4316  0.4010  0.2286
  303MPD2    H7 4571   4.498   1.483  11.248 -1.3759 -1.6493  0.9470
  304TMC3    C1 4572   4.375   1.263  11.238  0.0989  0.2120 -0.5183
  304TMC3    C2 4573   4.292   1.319  11.331 -0.0803 -0.2379 -0.1577
  304TMC3    C3 4574   4.217   1.233  11.410 -0.5068  0.3464  0.7146
  304TMC3    C4 4575   4.397   1.127  11.225  1.3773 -0.1222  0.1398
  304TMC3    C5 4576   4.340   1.050  11.317  0.3056  0.5764 -0.2616
  304TMC3    C6 4577   4.243   1.097  11.403  0.0156  0.2667 -0.2786
  304TMC3     C 4578   4.411   1.343  11.125 -0.0174 -0.1616  0.1678
  304TMC3     O 4579   4.383   1.289  11.022  0.0849  0.3745  0.2389
  304TMC3     H 4580   4.257   1.420  11.317  0.8595 -0.0678 -1.2560
  304TMC3    H1 4581   4.460   1.083  11.149  0.3675  1.4582 -1.6024
  304TMC3    H2 4582   4.170   1.029  11.447  1.1185  0.1815  1.3977
  304TMC3    C7 4583   4.317   0.913  11.277 -0.7502  0.6159  0.2220
  304TMC3    C8 4584   4.079   1.250  11.367 -0.1006  0.2884  0.2759
  304TMC3    O1 4585   4.323   0.831  11.365  0.2088 -0.7163  0.2604
  304TMC3    O2 4586   4.063   1.307  11.257 -0.5527  0.1725  0.3065
  305MPD2     C 4587   2.686   3.386  14.179 -0.2609 -0.5891  0.2723
  305MPD2    C1 4588   2.731   3.517  14.172 -0.2900  0.3593  0.5506
  305MPD2    C2 4589   2.724   3.573  14.046 -0.3316  0.2588 -0.0315
  305MPD2    C3 4590   2.670   3.515  13.927 -0.4351  0.0060 -0.5254
  305MPD2    C4 4591   2.621   3.387  13.945  0.2677  0.7880 -0.4742
  305MPD2    C5 4592   2.634   3.323  14.065  0.1607 -0.3981  0.2871
  305MPD2     H 4593   2.759   3.675  14.040  1.6394 -0.3750  0.3242
  305MPD2    H1 4594   2.588   3.337  13.854 -1.0637 -0.5863  0.7618
  305MPD2    H2 4595   2.690   3.326  14.269  2.3610  0.4076  0.8148
  305MPD2    H3 4596   2.597   3.221  14.070 -1.1796 -0.0263 -2.2849
  305MPD2     N 4597   2.655   3.580  13.797 -0.3849 -0.0415 -0.1196
  305MPD2    H5 4598   2.609   3.522  13.728  0.3519 -0.1500 -0.5169
  305MPD2    N1 4599   2.780   3.587  14.284  0.3963  0.2613 -0.2334
  305MPD2    H7 4600   2.794   3.527  14.366 -0.6385  1.8433  1.0933
  306TMC3    C1 4601   2.856   3.745  14.427  0.2547 -0.4852  0.1312
  306TMC3    C2 4602   2.957   3.664  14.469 -0.7881  0.8024 -0.3739
  306TMC3    C3 4603   2.990   3.660  14.600 -0.7367 -0.2651  0.1074
  306TMC3    C4 4604   2.797   3.838  14.512  0.2366 -0.4282 -0.7596
  306TMC3    C5 4605   2.837   3.835  14.643  0.7060 -0.5130 -1.1756
  306TMC3    C6 4606   2.935   3.746  14.688  0.5238  0.6286 -0.4533
  306TMC3     C 4607   2.798   3.720  14.294 -0.7149  0.2295  0.5349
  306TMC3     O 4608   2.754   3.814  14.227  0.1233  0.1850 -0.3153
  306TMC3     H 4609   3.007   3.597  14.400 -0.3292 -0.8840  1.6031
  306TMC3    H1 4610   2.705   3.888  14.484 -0.1128 -1.6942 -1.8950
  306TMC3    H2 4611   2.955   3.737  14.794  2.2004  1.1509 -0.7230
  306TMC3    C7 4612   2.763   3.922  14.726 -0.2982  0.6787 -0.8078
  306TMC3    C8 4613   3.091   3.560  14.653  0.6956 -0.2059  0.3560
  306TMC3    O1 4614   2.668   3.975  14.674 -0.2477  0.8884 -0.1030
  306TMC3    O2 4615   3.106   3.462  14.581 -0.0042  0.1907 -0.2824
  307MPD2     C 4616   0.447   1.377  17.654  0.0817 -0.1524  0.5214
  307MPD2    C1 4617   0.419   1.509  17.681  0.5342  0.8139  0.7247
  307MPD2    C2 4618   0.327   1.535   0.065  0.2578  0.1141  0.1839
  307MPD2    C3 4619   0.269   1.438   0.138 -0.0028  0.2697 -0.2595
  307MPD2    C4 4620   0.307   1.304   0.111 -0.0629  0.8009  0.1709
  307MPD2    C5 4621   0.389   1.277   0.010  0.3700  0.3618 -0.4195
  307MPD2     H 4622   0.302   1.638   0.086 -1.1836  0.1846 -1.8780
  307MPD2    H1 4623   0.255   1.231   0.171  0.4374  2.0041  2.0473
  307MPD2    H2 4624   0.511   1.349  17.571  0.6314 -2.1170  1.5947
  307MPD2    H3 4625   0.420   1.175  17.709 -0.7666  0.3247 -2.2564
  307MPD2     N 4626   0.172   1.480   0.238 -0.3997 -0.0594 -0.6025
  307MPD2    H5 4627   0.158   1.581   0.237 -0.5138 -0.0965 -2.7133
  307MPD2    N1 4628   0.469   1.617  17.609  0.4337  0.3142  0.1495
  307MPD2    H7 4629   0.427   1.708  17.625  1.4071  0.6277  0.8952
  308TMC3    C1 4630   4.575   1.513   0.543 -0.2613  0.2857  0.7315
  308TMC3    C2 4631   4.607   1.626   0.606  0.0306  0.2076  0.5449
  308TMC3    C3 4632   0.003   1.674   0.576 -0.4086 -0.1118  0.3022
  308TMC3    C4 4633   4.660   1.436   0.481 -0.2336  0.7454 -0.1475
  308TMC3    C5 4634   0.048   1.492   0.442  0.6348  0.5312  0.3105
  308TMC3    C6 4635   0.086   1.610   0.491  0.1741 -0.1242 -0.4837
  308TMC3     C 4636   4.443   1.458   0.544  0.6453 -0.0722  0.4556
  308TMC3     O 4637   4.445   1.343   0.587 -0.3383  0.4347  0.2451
  308TMC3     H 4638   4.527   1.680   0.656  1.0025  1.9216  0.2589
  308TMC3    H1 4639   4.630   1.336   0.454  1.4138 -0.5740  2.8533
  308TMC3    H2 4640   0.179   1.659   0.466  0.4607 -0.9740 -1.1018
  308TMC3    C7 4641   0.125   1.413   0.345  0.0349  0.2402 -0.2580
  308TMC3    C8 4642   0.003   1.818   0.564 -0.2038 -0.0851  0.2645
  308TMC3    O1 4643   0.158   1.301   0.378  0.0090 -0.3164 -0.2598
  308TMC3    O2 4644   4.621   1.868   0.548  0.1353  0.0218  0.0226
  309MPD2     C 4645   4.234   2.073  16.885  0.3592 -0.3783 -0.0424
  309MPD2    C1 4646   4.271   2.203  16.890  0.1119 -0.1439  0.3510
  309MPD2    C2 4647   4.177   2.299  16.932  0.7566  0.4478 -0.2109
  309MPD2    C3 4648   4.055   2.265  16.976  1.1622  0.2993  0.4622
  309MPD2    C4 4649   4.011   2.136  16.961 -0.0001 -0.0461  0.1037
  309MPD2    C5 4650   4.101   2.039  16.922  0.0216 -0.0170 -0.1323
  309MPD2     H 4651   4.214   2.400  16.944 -1.6952  1.3495 -0.3070
  309MPD2    H1 4652   3.917   2.102  17.001  1.2047 -0.8973  2.2298
  309MPD2    H2 4653   4.301   1.990  16.863  0.0943 -0.3375 -1.0234
  309MPD2    H3 4654   4.070   1.935  16.920 -0.5593  0.0907  3.4291
  309MPD2     N 4655   3.958   2.358  17.025  0.0080 -0.0494  0.4667
  309MPD2    H5 4656   3.867   2.324  17.056 -0.1705  2.0302  2.2026
  309MPD2    N1 4657   4.399   2.248  16.856  0.2253 -0.1421 -0.1282
  309MPD2    H7 4658   4.428   2.340  16.888 -1.3131  0.3543 -0.1629
  310TMC3    C1 4659   4.609   2.244  16.763  0.1038 -0.1066 -0.0366
  310TMC3    C2 4660   4.594   2.365  16.706 -0.0702  0.3654 -0.0956
  310TMC3    C3 4661   4.701   2.431  16.652 -1.0300  0.0315 -0.1898
  310TMC3    C4 4662   4.728   2.182  16.767 -0.2375 -0.6948  0.0690
  310TMC3    C5 4663   0.100   2.238  16.703  0.5425  0.2699 -0.4011
  310TMC3    C6 4664   0.090   2.363  16.648  0.1859  0.3348  0.0886
  310TMC3     C 4665   4.497   2.162  16.801  0.0390  0.2909 -0.1451
  310TMC3     O 4666   4.507   2.041  16.796  0.0077 -0.2099  0.9855
  310TMC3     H 4667   4.494   2.404  16.694 -0.9913 -2.4610 -1.6181
  310TMC3    H1 4668   0.004   2.085  16.814 -1.3740 -0.4056  0.7898
  310TMC3    H2 4669   0.172   2.407  16.593  1.6686 -4.9942 -1.9857
  310TMC3    C7 4670   0.216   2.157  16.695  0.5914 -0.2105 -0.0209
  310TMC3    C8 4671   4.673   2.519  16.540  0.6966 -0.6100 -0.4714
  310TMC3    O1 4672   0.214   2.048  16.739  0.6626  0.2967 -0.3419
  310TMC3    O2 4673   4.577   2.491  16.474 -0.0561 -0.0007  0.3103
  311MPD2     C 4674   1.469   3.724  12.718  0.0835  0.0156 -0.4679
  311MPD2    C1 4675   1.485   3.827  12.815 -0.1403  0.0865 -0.5629
  311MPD2    C2 4676   1.373   3.849  12.895  0.6917  0.4208 -0.1363
  311MPD2    C3 4677   1.245   3.797  12.866  0.0343 -0.2175 -0.6195
  311MPD2    C4 4678   1.236   3.699  12.764  0.2878 -0.7144  0.7906
  311MPD2    C5 4679   1.352   3.656  12.700  0.5342 -0.3698  0.0088
  311MPD2     H 4680   1.392   3.926  12.970 -1.9140  1.7545 -0.8464
  311MPD2    H1 4681   1.143   3.648  12.744  0.2337 -0.0996 -0.5145
  311MPD2    H2 4682   1.552   3.686  12.659  1.1958 -0.9155  1.6801
  311MPD2    H3 4683   1.350   3.568  12.635  0.2117  1.3008 -2.2410
  311MPD2     N 4684   1.131   3.847  12.936  0.2315  0.1253 -0.1902
  311MPD2    H5 4685   1.147   3.915  13.009 -1.1587  1.4592 -1.1182
  311MPD2    N1 4686   1.609   3.886  12.858 -0.2190  0.2869  0.1351
  311MPD2    H7 4687   1.606   3.928  12.950  1.5285 -2.5011  1.4694
  312TMC3    C1 4688   0.897   3.873  12.985 -0.4694 -0.5637  0.0709
  312TMC3    C2 4689   0.776   3.863  12.924 -0.4780  0.4292  0.7341
  312TMC3    C3 4690   0.668   3.854  13.000 -0.3770 -0.3457  0.0177
  312TMC3    C4 4691   0.913   3.884  13.120 -0.3539  0.4260  0.4526
  312TMC3    C5 4692   0.806   3.862  13.198 -0.2630 -0.4229  0.0393
  312TMC3    C6 4693   0.681   3.849  13.136  0.5490 -0.3557 -0.0306
  312TMC3     C 4694   0.999   3.816  12.898 -0.2199  0.0850 -0.3435
  312TMC3     O 4695   0.960   3.756  12.798  0.0206 -0.5389  0.1188
  312TMC3     H 4696   0.765   3.849  12.817  2.2135  2.1151  0.2485
  312TMC3    H1 4697   1.012   3.866  13.162 -0.5047 -2.9756 -0.6939
  312TMC3    H2 4698   0.590   3.846  13.194  0.1556 -0.4997 -0.6563
  312TMC3    C7 4699   0.819   3.867  13.343 -0.5735  0.2382 -0.2400
  312TMC3    C8 4700   0.549   3.806  12.932 -0.0610 -0.2588  0.5769
  312TMC3    O1 4701   0.712   3.862  13.399 -0.3791 -0.1609  0.0939
  312TMC3    O2 4702   0.474   3.734  12.995 -0.0296  0.2172 -0.4558
  313MPD2     C 4703   1.467   3.114  10.166  0.0161 -0.6635  0.7516
  313MPD2    C1 4704   1.417   3.079  10.295 -0.0510 -0.1374 -0.6812
  313MPD2    C2 4705   1.331   2.974  10.303  1.2296 -0.1056  0.1339
  313MPD2    C3 4706   1.303   2.898  10.194 -1.3041  0.4321 -0.2425
  313MPD2    C4 4707   1.354   2.926  10.065 -0.6757  0.4340  0.3332
  313MPD2    C5 4708   1.441   3.034  10.049  0.6303 -0.1274  0.4271
  313MPD2     H 4709   1.306   2.943  10.404  2.1792  0.6801  0.6149
  313MPD2    H1 4710   1.335   2.873   9.972  2.1784 -0.8132  0.4586
  313MPD2    H2 4711   1.526   3.203  10.151 -0.7412 -0.2623  0.1380
  313MPD2    H3 4712   1.491   3.068   9.960  1.5999  0.4463  1.1859
  313MPD2     N 4713   1.223   2.783  10.218  0.2163  0.0964  0.7967
  313MPD2    H5 4714   1.198   2.754  10.312  1.0172  0.4236  1.1182
  313MPD2    N1 4715   1.442   3.148  10.418 -0.1025 -0.2583 -0.1253
  313MPD2    H7 4716   1.404   3.107  10.503 -1.4364  2.2887  0.4939
  314TMC3    C1 4717   1.531   3.290  10.571 -0.1655 -0.2078  0.4759
  314TMC3    C2 4718   1.626   3.382  10.605 -0.7713  0.3618  0.5202
  314TMC3    C3 4719   1.604   3.449  10.722  0.1076 -0.7652 -0.1881
  314TMC3    C4 4720   1.414   3.284  10.645  0.5124  0.7014  0.0080
  314TMC3    C5 4721   1.396   3.352  10.762  0.4293  0.0847  0.0871
  314TMC3    C6 4722   1.499   3.423  10.806  0.0817 -0.2941 -0.1575
  314TMC3     C 4723   1.537   3.243  10.433 -0.7279 -0.4433  0.5207
  314TMC3     O 4724   1.620   3.277  10.358 -0.2158 -0.2731 -0.0839
  314TMC3     H 4725   1.700   3.422  10.537  0.4136  0.6047  1.9624
  314TMC3    H1 4726   1.333   3.228  10.600  0.0761 -0.2995  2.0345
  314TMC3    H2 4727   1.489   3.480  10.898 -0.4006  0.2809 -0.5662
  314TMC3    C7 4728   1.264   3.396  10.806  1.0709  0.2102 -0.4676
  314TMC3    C8 4729   1.679   3.568  10.755  0.2250  0.1597  0.0655
  314TMC3    O1 4730   1.166   3.319  10.786  0.1992  0.1137  0.4854
  314TMC3    O2 4731   1.605   3.661  10.784  0.1516 -0.0128 -0.4099
  315MPD2     C 4732   0.394   2.509  17.683 -0.2979  0.3939 -0.3948
  315MPD2    C1 4733   0.499   2.444   0.030 -0.8970 -0.6774  0.2937
  315MPD2    C2 4734   0.624   2.494   0.012  0.2108  0.7325 -0.4013
  315MPD2    C3 4735   0.652   2.590  17.635  0.3425  0.5373 -0.1333
  315MPD2    C4 4736   0.549   2.655  17.572  0.3697 -0.4943  0.3806
  315MPD2    C5 4737   0.426   2.612  17.600  0.7825 -0.6950 -0.7286
  315MPD2     H 4738   0.710   2.437   0.044  0.4881  1.7908  0.7299
  315MPD2    H1 4739   0.554   2.736  17.499  0.9366 -0.0836  0.8736
  315MPD2    H2 4740   0.290   2.492  17.708  0.2657  1.0911  2.4099
  315MPD2    H3 4741   0.343   2.665  17.553  0.0630 -1.9596 -0.8762
  315MPD2     N 4742   0.792   2.628  17.613  0.0651 -0.3770  0.5634
  315MPD2    H5 4743   0.861   2.573  17.663 -0.1993 -1.3451 -0.1467
  315MPD2    N1 4744   0.483   2.328   0.101 -0.4300 -0.1022 -0.5393
  315MPD2    H7 4745   0.568   2.290   0.141 -0.3946 -0.2375 -0.7441
  316TMC3    C1 4746   0.987   2.753  17.590  0.5009  0.5089  0.5521
  316TMC3    C2 4747   1.039   2.692  17.705  0.7702 -0.3595  0.2894
  316TMC3    C3 4748   1.169   2.726   0.024 -0.1856  0.2555  0.4366
  316TMC3    C4 4749   1.043   2.867  17.529  0.5254 -0.4702  0.1512
  316TMC3    C5 4750   1.171   2.883  17.565 -0.2273  0.3831 -0.1917
  316TMC3    C6 4751   1.229   2.830  17.676 -0.0054  1.0584 -0.0260
  316TMC3     C 4752   0.849   2.735  17.553 -0.1728  0.2682  0.0363
  316TMC3     O 4753   0.791   2.827  17.498  0.2194  0.0236 -0.4280
  316TMC3     H 4754   0.983   2.625   0.052  2.8496 -1.5153  0.9163
  316TMC3    H1 4755   0.992   2.907  17.442  0.2663  0.2181  0.6227
  316TMC3    H2 4756   1.324   2.864  17.715 -0.1175  2.1225 -0.7093
  316TMC3    C7 4757   1.241   2.987  17.497 -0.3150 -0.2986 -0.0808
  316TMC3    C8 4758   1.234   2.666   0.137 -0.1035 -0.0579  0.1918
  316TMC3    O1 4759   1.327   3.042  17.571  0.1090  0.1115  0.3804
  316TMC3    O2 4760   1.331   2.729   0.182  0.5636  0.0504 -0.4179
  317MPD2     C 4761   3.031   0.866  12.524 -0.7030 -0.2304 -0.3231
  317MPD2    C1 4762   3.157   0.808  12.541  0.4872  0.2411 -0.7749
  317MPD2    C2 4763   3.194   0.758  12.668  0.1193 -0.2159 -0.9434
  317MPD2    C3 4764   3.104   0.762  12.767 -0.0229  0.6114 -0.7128
  317MPD2    C4 4765   2.978   0.812  12.745  0.0304 -0.4847  0.4195
  317MPD2    C5 4766   2.938   0.864  12.626 -0.5563 -0.3777  0.1231
  317MPD2     H 4767   3.297   0.725  12.681 -0.6006 -1.5597  1.2823
  317MPD2    H1 4768   2.903   0.800  12.822 -0.4335  0.2616  0.0937
  317MPD2    H2 4769   2.993   0.893  12.425 -3.4129  0.1415  0.8079
  317MPD2    H3 4770   2.845   0.915  12.606  1.1045  1.8581 -1.8427
  317MPD2     N 4771   3.141   0.694  12.886  0.4184  0.2366 -0.1236
  317MPD2    H5 4772   3.237   0.663  12.902  1.0095  1.6621 -0.9387
  317MPD2    N1 4773   3.247   0.782  12.431  0.0151 -0.1774  0.1935
  317MPD2    H7 4774   3.316   0.713  12.458  2.6938  3.2132  2.0880
  318TMC3    C1 4775   3.109   0.577  13.091  0.3143 -0.5331 -0.0676
  318TMC3    C2 4776   3.055   0.459  13.125 -0.2537  0.2329  0.5678
  318TMC3    C3 4777   3.135   0.387  13.217  0.3615  0.2081  0.2260
  318TMC3    C4 4778   3.230   0.621  13.137  0.2139 -0.5393  1.2264
  318TMC3    C5 4779   3.290   0.561  13.240 -0.1261 -0.9193 -0.1718
  318TMC3    C6 4780   3.254   0.434  13.275  0.4793 -0.1541 -0.4852
  318TMC3     C 4781   3.053   0.645  12.978  0.2685 -0.0564 -0.2254
  318TMC3     O 4782   2.931   0.633  12.969  0.2177 -0.0540  0.5913
  318TMC3     H 4783   2.967   0.422  13.074  0.3609 -1.7876  0.9834
  318TMC3    H1 4784   3.256   0.723  13.112 -0.6507 -0.4372  0.7553
  318TMC3    H2 4785   3.294   0.366  13.350 -0.7139  1.7580  1.8693
  318TMC3    C7 4786   3.396   0.628  13.307 -0.3671 -0.4333 -0.4147
  318TMC3    C8 4787   3.064   0.286  13.296 -0.1479  0.2305 -0.4716
  318TMC3    O1 4788   3.414   0.742  13.267  0.2761  0.8647  0.1684
  318TMC3    O2 4789   3.121   0.210  13.370 -0.5996  0.3048  0.3363
  319MPD2     C 4790   3.217   1.543  16.917  0.2235  0.1276 -0.7801
  319MPD2    C1 4791   3.095   1.479  16.946  0.2830 -0.4798  0.4369
  319MPD2    C2 4792   3.036   1.398  16.846 -0.2343 -0.0100 -0.2312
  319MPD2    C3 4793   3.091   1.393  16.719  0.5636 -1.2236 -0.5306
  319MPD2    C4 4794   3.211   1.456  16.693 -0.2668 -0.5630  0.0352
  319MPD2    C5 4795   3.278   1.524  16.792  0.5487  0.2112  0.6473
  319MPD2     H 4796   2.947   1.346  16.878  1.6912 -3.1356  0.0136
  319MPD2    H1 4797   3.254   1.447  16.594 -1.9067  5.1338 -1.2446
  319MPD2    H2 4798   3.258   1.615  16.987 -1.7990 -0.6355  1.1672
  319MPD2    H3 4799   3.381   1.556  16.784  0.1573  1.2473 -0.2882
  319MPD2     N 4800   3.041   1.317  16.615 -0.0183  0.1335  0.4908
  319MPD2    H5 4801   3.064   1.347  16.521 -1.9991 -2.4104 -0.7957
  319MPD2    N1 4802   3.030   1.503  17.067 -0.2387  0.1150 -0.0956
  319MPD2    H7 4803   2.964   1.433  17.099  1.2816 -0.5426  1.6029
  320TMC3    C1 4804   2.864   1.242  16.501  0.1073  0.6633  0.7370
  320TMC3    C2 4805   2.876   1.361  16.436  0.0511  0.1728  0.1677
  320TMC3    C3 4806   2.865   1.368  16.292 -0.7902 -0.3778  0.2135
  320TMC3    C4 4807   2.843   1.130  16.437 -0.2752  0.8211 -0.4015
  320TMC3    C5 4808   2.825   1.141  16.298 -0.3586 -0.7951 -0.9946
  320TMC3    C6 4809   2.836   1.260  16.223  0.0726  0.2767  0.4979
  320TMC3     C 4810   2.936   1.229  16.625  0.0881 -0.0491 -0.1986
  320TMC3     O 4811   2.902   1.152  16.715  0.3723 -0.2853 -0.1277
  320TMC3     H 4812   2.887   1.451  16.495  2.6346 -0.2488  0.3341
  320TMC3    H1 4813   2.857   1.042  16.498  0.2014  1.9608  1.1457
  320TMC3    H2 4814   2.818   1.254  16.116 -1.4456  0.5886  0.7452
  320TMC3    C7 4815   2.833   1.017  16.211  0.4460 -0.6760  0.3772
  320TMC3    C8 4816   2.879   1.498  16.231  0.1891  0.5726  0.5928
  320TMC3    O1 4817   2.822   1.029  16.089  0.0492 -0.7867 -0.5454
  320TMC3    O2 4818   2.901   1.593  16.302 -0.0023 -0.2115 -0.6151
  321TMC3    C1 4819   2.940   1.633  17.247  0.2405  0.6791  0.1007
  321TMC3    C2 4820   2.908   1.515  17.301  0.2948  0.1517  0.5429
  321TMC3    C3 4821   2.855   1.514  17.426 -0.1443  0.3757 -0.1213
  321TMC3    C4 4822   2.917   1.754  17.301 -0.1303 -0.1609 -1.0958
  321TMC3    C5 4823   2.872   1.745  17.432  0.1266 -0.4669 -0.2575
  321TMC3    C6 4824   2.843   1.628  17.490  0.2022 -0.3070  0.0049
  321TMC3     C 4825   3.026   1.627  17.126  0.6752  0.1717 -0.2372
  321TMC3     O 4826   3.070   1.735  17.086 -0.5630 -0.1431  0.3476
  321TMC3     H 4827   2.929   1.419  17.253 -1.2283 -0.2929  0.7549
  321TMC3    H1 4828   2.955   1.843  17.253  2.0214 -0.3090  0.3357
  321TMC3    H2 4829   2.791   1.632  17.585  0.0539  0.1444 -0.0964
  321TMC3    C7 4830   2.940   1.835  17.512 -0.7933 -0.6843 -1.4780
  321TMC3    C8 4831   2.912   1.417  17.521 -0.0478  0.0637  0.1112
  321TMC3    O1 4832   2.955   1.949  17.477 -0.6264  0.0045 -0.4206
  321TMC3    O2 4833   2.973   1.467  17.613 -0.2557 -0.4179  0.4267
  322MPD2     C 4834   2.691   2.865  12.936  0.3952  0.1672  0.4630
  322MPD2    C1 4835   2.665   2.787  13.042 -0.5736  1.4018  0.2530
  322MPD2    C2 4836   2.746   2.676  13.066 -0.3532 -0.2056  0.5335
  322MPD2    C3 4837   2.859   2.651  12.985 -0.0457  0.2939  0.2018
  322MPD2    C4 4838   2.882   2.737  12.879  0.1182 -0.7368  0.0158
  322MPD2    C5 4839   2.801   2.844  12.858  0.3398 -0.3885 -1.2844
  322MPD2     H 4840   2.722   2.613  13.151 -2.6583  0.0427  0.0489
  322MPD2    H1 4841   2.956   2.723  12.801  0.6335  1.4812  0.1032
  322MPD2    H2 4842   2.623   2.945  12.906 -0.7891 -0.6119  1.0648
  322MPD2    H3 4843   2.832   2.912  12.779 -0.6449  1.5743  0.0300
  322MPD2     N 4844   2.947   2.546  13.034  0.1364  0.2771 -0.6393
  322MPD2    H5 4845   2.922   2.499  13.120 -2.0123  2.5550 -0.0125
  322MPD2    N1 4846   2.557   2.829  13.129  0.6895 -0.2801  0.8148
  322MPD2    H7 4847   2.510   2.913  13.097  2.0370 -0.5562 -1.8778
  323TMC3    C1 4848   2.424   2.856  13.333 -0.3803 -0.4732 -0.1634
  323TMC3    C2 4849   2.427   2.994  13.315 -0.0814  0.9707  0.1433
  323TMC3    C3 4850   2.395   3.067  13.421  0.6112 -0.1627  0.5847
  323TMC3    C4 4851   2.386   2.794  13.452  0.4445  0.3012  0.1946
  323TMC3    C5 4852   2.350   2.877  13.551  0.0895 -0.6272  0.4501
  323TMC3    C6 4853   2.344   3.013  13.533 -0.5644  0.0877  0.1534
  323TMC3     C 4854   2.520   2.773  13.250  0.5487  0.3724  0.1198
  323TMC3     O 4855   2.574   2.678  13.304 -0.0659 -0.0736  0.2409
  323TMC3     H 4856   2.472   3.038  13.226  1.1925  2.7112  1.6618
  323TMC3    H1 4857   2.401   2.686  13.457 -1.4574  0.0458  0.1219
  323TMC3    H2 4858   2.324   3.075  13.620 -0.3344 -2.8273  2.2674
  323TMC3    C7 4859   2.432   2.836  13.664 -0.3970  0.2665 -0.2616
  323TMC3    C8 4860   2.490   3.168  13.454 -0.1426 -0.1467  0.1373
  323TMC3    O1 4861   2.446   2.714  13.670  0.4124  0.1567 -0.1669
  323TMC3    O2 4862   2.512   3.187  13.571  0.4150  0.2223  0.0509
  324MPD2     C 4863   4.099   4.657  15.124 -0.0652 -1.0984 -1.1986
  324MPD2    C1 4864   4.180   4.710  15.022  0.2613 -0.0924  0.4071
  324MPD2    C2 4865   4.154   0.101  14.960 -0.0279  0.0832 -0.2588
  324MPD2    C3 4866   4.040   0.174  14.995  0.4787 -0.2140 -0.1669
  324MPD2    C4 4867   3.963   0.128  15.102 -0.1932  0.3113 -0.6407
  324MPD2    C5 4868   3.995   0.009  15.165 -1.0326  0.3611  0.5166
  324MPD2     H 4869   4.218   0.138  14.881 -0.3946 -1.0973 -1.1195
  324MPD2    H1 4870   3.868   0.174  15.125  0.8185  0.5615  2.9679
  324MPD2    H2 4871   4.114   4.558  15.164 -0.4591  0.7062  3.3875
  324MPD2    H3 4872   3.921   4.709  15.240  0.8823  1.2856  2.7642
  324MPD2     N 4873   4.000   0.298  14.935  0.0313  0.2668 -0.1549
  324MPD2    H5 4874   3.919   0.342  14.979  0.9393  0.1619  1.6311
  324MPD2    N1 4875   4.280   4.637  14.959  0.5533 -0.1565 -0.1109
  324MPD2    H7 4876   4.330   4.672  14.878 -0.4892  2.3089  0.3096
  325TMC3    C1 4877   3.975   0.464  14.777  0.1459  0.2119 -0.3075
  325TMC3    C2 4878   3.954   0.470  14.642 -0.2634 -1.0713 -0.1693
  325TMC3    C3 4879   3.863   0.569  14.603 -0.0462  0.4533  0.2240
  325TMC3    C4 4880   3.926   0.556  14.870 -1.0757  1.4861  0.4949
  325TMC3    C5 4881   3.846   0.651  14.815 -0.0766  0.6060  0.0620
  325TMC3    C6 4882   3.810   0.656  14.688 -0.7248 -0.6381 -0.1114
  325TMC3     C 4883   4.051   0.349  14.823 -0.1750  0.8069 -0.2086
  325TMC3     O 4884   4.140   0.313  14.744  0.4283 -0.2682 -0.3597
  325TMC3     H 4885   3.984   0.390  14.576 -1.1121  0.4794 -2.4411
  325TMC3    H1 4886   3.962   0.553  14.972  3.4673  0.1830 -1.1109
  325TMC3    H2 4887   3.743   0.732  14.650 -0.1423  0.2628  0.6534
  325TMC3    C7 4888   3.754   0.697  14.906 -0.2995  0.0222  0.7604
  325TMC3    C8 4889   3.771   0.531  14.499  0.6435 -0.0555  0.9449
  325TMC3    O1 4890   3.795   0.707  15.020  0.3879  0.0570  0.2228
  325TMC3    O2 4891   3.652   0.531  14.533 -0.0319  0.2988 -0.5226
  326MPD2     C 4892   0.859   1.247  11.120 -0.5308  0.1106  0.1394
  326MPD2    C1 4893   0.817   1.309  11.006 -0.1524 -0.2574 -0.4479
  326MPD2    C2 4894   0.897   1.345  10.903 -0.2919 -0.5205 -0.0055
  326MPD2    C3 4895   1.031   1.350  10.923 -0.8431 -0.1704  0.6915
  326MPD2    C4 4896   1.078   1.287  11.038  0.2074  0.0030  0.7451
  326MPD2    C5 4897   0.997   1.230  11.135  0.0346  0.0197  0.8433
  326MPD2     H 4898   0.854   1.387  10.813 -0.7611  0.6005  0.7343
  326MPD2    H1 4899   1.185   1.277  11.056 -0.1898  1.7134  4.2298
  326MPD2    H2 4900   0.787   1.203  11.187 -0.7946  0.1069 -0.1470
  326MPD2    H3 4901   1.038   1.184  11.224 -0.7782  2.1089  2.2893
  326MPD2     N 4902   1.129   1.393  10.833 -0.2361  0.0765  0.2640
  326MPD2    H5 4903   1.222   1.407  10.870  0.8712 -0.4786 -2.3229
  326MPD2    N1 4904   0.682   1.341  10.994 -0.0161 -0.0927  0.3877
  326MPD2    H7 4905   0.647   1.373  10.904 -2.1809 -0.6441  1.0168
  327TMC3    C1 4906   0.462   1.375  11.024 -0.3180 -0.4206  0.4999
  327TMC3    C2 4907   0.447   1.511  11.007  0.1019  0.3040  0.1412
  327TMC3    C3 4908   0.374   1.550  10.902 -0.1773 -0.4478  0.5806
  327TMC3    C4 4909   0.416   1.283  10.933 -0.0059 -0.2136  0.4311
  327TMC3    C5 4910   0.343   1.324  10.827 -0.2398 -0.0311  0.0204
  327TMC3    C6 4911   0.332   1.461  10.808  0.7335  0.3066 -0.0618
  327TMC3     C 4912   0.589   1.339  11.094 -0.1764  0.4222 -0.3457
  327TMC3     O 4913   0.599   1.313  11.211  0.7439  0.6784  0.4085
  327TMC3     H 4914   0.511   1.572  11.070 -0.1819  0.6026  0.1379
  327TMC3    H1 4915   0.433   1.178  10.951 -0.5647 -0.4634 -0.4775
  327TMC3    H2 4916   0.281   1.508  10.724  0.4185  0.4327  0.2036
  327TMC3    C7 4917   0.385   1.257  10.710 -0.9544  0.1966  0.4844
  327TMC3    C8 4918   0.335   1.685  10.881 -0.1773 -0.0355 -0.5042
  327TMC3    O1 4919   0.412   1.337  10.617  0.6520  0.2529 -0.4308
  327TMC3    O2 4920   0.320   1.733  10.768 -0.3301 -0.7170 -0.6600
  328MPD2     C 4921   2.965   0.415  17.285  0.9302  0.2187 -0.4822
  328MPD2    C1 4922   2.943   0.320  17.188  0.2698  0.0157  0.4128
  328MPD2    C2 4923   2.846   0.346  17.096 -0.2308  0.2727  0.1116
  328MPD2    C3 4924   2.765   0.461  17.106 -0.3343 -0.5156 -0.3398
  328MPD2    C4 4925   2.804   0.561  17.193  0.3081  0.1764 -0.2467
  328MPD2    C5 4926   2.899   0.534  17.293 -0.5639  0.4214  0.3332
  328MPD2     H 4927   2.825   0.277  17.015 -1.1614  0.2864  0.3461
  328MPD2    H1 4928   2.750   0.653  17.209  0.9056  0.6384 -0.8896
  328MPD2    H2 4929   3.040   0.394  17.361  0.0884  0.7898  0.4918
  328MPD2    H3 4930   2.917   0.602  17.375 -0.3695 -3.3419  3.4351
  328MPD2     N 4931   2.656   0.483  17.021  0.2935 -0.5058  0.5194
  328MPD2    H5 4932   2.607   0.572  17.014  1.1283 -0.1051 -0.1763
  328MPD2    N1 4933   3.006   0.194  17.198 -0.3190  0.0171  0.0186
  328MPD2    H7 4934   3.051   0.181  17.288 -2.1775 -0.1865  0.9208
  329TMC3    C1 4935   3.068   4.698  17.138  0.0747 -0.5076  0.2234
  329TMC3    C2 4936   3.033   4.647  17.266  0.2843  0.0633  0.1494
  329TMC3    C3 4937   3.038   4.512  17.283 -0.2070  0.3530 -0.2104
  329TMC3    C4 4938   3.093   4.618  17.035  0.6257 -0.2569 -0.4378
  329TMC3    C5 4939   3.086   4.485  17.055  0.1462  0.1196  0.0517
  329TMC3    C6 4940   3.067   4.433  17.177 -0.5000  0.3540  0.2304
  329TMC3     C 4941   3.019   0.101  17.099 -0.1220 -0.3362 -0.2355
  329TMC3     O 4942   3.008   0.116  16.980 -0.1113  0.2672 -0.6960
  329TMC3     H 4943   3.009   4.714  17.348  0.9117  0.5694 -0.0862
  329TMC3    H1 4944   3.120   4.660  16.939 -1.0243 -1.1025 -1.2708
  329TMC3    H2 4945   3.065   4.325  17.188 -2.1650  0.2758 -0.7685
  329TMC3    C7 4946   3.132   4.384  16.954  1.0266  0.3430  0.0949
  329TMC3    C8 4947   2.966   4.449  17.395  0.5914  0.8102  0.0240
  329TMC3    O1 4948   3.207   4.293  16.984  0.5027  0.1685  0.5320
  329TMC3    O2 4949   2.988   4.328  17.407 -0.1422  0.0169  0.0311
  330TMC3    C1 4950   0.728   0.596   9.753  0.4119 -0.0246 -0.4127
  330TMC3    C2 4951   0.671   0.508   9.666 -0.2430  0.1473  0.1329
  330TMC3    C3 4952   0.725   0.380   9.670 -0.5209  0.1816 -0.3031
  330TMC3    C4 4953   0.829   0.567   9.842  0.1848 -0.0607  0.0241
  330TMC3    C5 4954   0.880   0.437   9.837  1.0392  0.8247  0.8481
  330TMC3    C6 4955   0.825   0.336   9.758 -0.8487 -0.5870 -0.6215
  330TMC3     C 4956   0.644   0.693   9.810  0.5076  0.4681  0.0702
  330TMC3     O 4957   0.688   0.759   9.904  0.0776  0.1366 -0.7239
  330TMC3     H 4958   0.591   0.530   9.596  0.5253 -0.4454 -0.9328
  330TMC3    H1 4959   0.876   0.643   9.902 -0.2312 -2.0676  2.8605
  330TMC3    H2 4960   0.873   0.243   9.730  0.4204  0.0358 -0.4882
  330TMC3    C7 4961   0.974   0.411   9.936  0.6854  1.0747  0.8133
  330TMC3    C8 4962   0.647   0.278   9.594 -0.4276 -0.1801 -0.2322
  330TMC3    O1 4963   1.017   0.504  10.008  0.4560 -0.1865  0.0224
  330TMC3    O2 4964   0.581   0.320   9.500  0.6060  0.3305  0.1615
  331MPD2     C 4965   3.506   4.060  12.892 -0.3281 -0.6020 -0.1355
  331MPD2    C1 4966   3.636   4.072  12.844  0.2505  0.1650 -0.7753
  331MPD2    C2 4967   3.690   3.973  12.765 -0.1987  0.2066 -0.6975
  331MPD2    C3 4968   3.606   3.868  12.719 -0.7442 -0.5065  0.3228
  331MPD2    C4 4969   3.482   3.851  12.785  0.5794 -0.2885 -0.4838
  331MPD2    C5 4970   3.429   3.949  12.864  0.7527  0.7391  0.8680
  331MPD2     H 4971   3.785   3.978  12.712  0.0882 -0.8152 -0.2708
  331MPD2    H1 4972   3.414   3.774  12.751  2.2900 -1.4449 -1.2687
  331MPD2    H2 4973   3.458   4.131  12.958 -1.7542 -1.2431 -0.4777
  331MPD2    H3 4974   3.328   3.938  12.902  0.0669  1.1535 -0.8154
  331MPD2     N 4975   3.646   3.789  12.610  0.3492 -0.0818  1.0271
  331MPD2    H5 4976   3.736   3.812  12.569 -1.0097 -0.6023 -2.2813
  331MPD2    N1 4977   3.702   4.192  12.872 -0.3020  0.4461  0.1353
  331MPD2    H7 4978   3.642   4.265  12.910 -2.0708 -1.0013  0.0868
  332TMC3    C1 4979   3.635   3.615  12.445  0.5416  0.9124 -0.2310
  332TMC3    C2 4980   3.707   3.687  12.358 -0.1059 -0.9456 -0.0769
  332TMC3    C3 4981   3.795   3.616  12.285  0.1784 -0.3458  0.3885
  332TMC3    C4 4982   3.634   3.480  12.458 -0.1284  0.2366  0.6794
  332TMC3    C5 4983   3.731   3.413  12.389  0.4495  0.0555  0.8384
  332TMC3    C6 4984   3.817   3.482  12.306  0.2436 -0.9575 -0.5329
  332TMC3     C 4985   3.575   3.684  12.554  0.1444 -0.0005  0.4902
  332TMC3     O 4986   3.470   3.632  12.595 -0.1193  0.3630 -0.1136
  332TMC3     H 4987   3.707   3.795  12.355  0.5746 -0.8975  1.3442
  332TMC3    H1 4988   3.576   3.432  12.536  0.2047  0.2347  0.9222
  332TMC3    H2 4989   3.902   3.435  12.259 -0.1340  0.1369 -2.3010
  332TMC3    C7 4990   3.772   3.289  12.450  0.2206 -0.1294 -0.6067
  332TMC3    C8 4991   3.878   3.692  12.196 -0.1321 -0.4471  0.1980
  332TMC3    O1 4992   3.692   3.220  12.510  0.8950  0.2654 -0.9068
  332TMC3    O2 4993   3.884   3.815  12.207 -0.6885 -0.9195  0.0436
  333MPD2     C 4994   4.544   3.594  11.136 -0.8599  0.2700  0.0337
  333MPD2    C1 4995   4.475   3.500  11.057  0.0160  0.1038  0.4832
  333MPD2    C2 4996   4.349   3.462  11.097  0.2259  0.1710 -0.5853
  333MPD2    C3 4997   4.293   3.531  11.202  0.4036 -0.8375  0.4852
  333MPD2    C4 4998   4.358   3.628  11.274 -0.1302 -0.1414  0.4692
  333MPD2    C5 4999   4.486   3.651  11.250  0.1273 -0.6290 -0.8174
  333MPD2     H 5000   4.287   3.389  11.046  2.1902 -1.8249 -0.1175
  333MPD2    H1 5001   4.315   3.679  11.359 -0.7530  0.4141 -0.1889
  333MPD2    H2 5002   4.636   3.632  11.092 -0.8929 -0.1787 -0.4300
  333MPD2    H3 5003   4.534   3.730  11.307 -0.9839 -0.8638  0.4328
  333MPD2     N 5004   4.168   3.474  11.241 -0.0136 -0.5697 -0.0487
  333MPD2    H5 5005   4.136   3.390  11.194 -1.4576 -0.0162 -0.0715
  333MPD2    N1 5006   4.527   3.460  10.927 -0.1199  0.1033 -0.0573
  333MPD2    H7 5007   4.628   3.468  10.928  0.0481 -2.1311  0.6873
  334TMC3    C1 5008   4.529   3.384  10.714 -0.1451  0.3999  0.1139
  334TMC3    C2 5009   4.652   3.338  10.742 -0.8081  0.1876  0.0391
  334TMC3    C3 5010   0.027   3.365  10.655  0.1591 -0.3545  0.0830
  334TMC3    C4 5011   4.504   3.465  10.611 -0.6905 -0.3293 -0.6443
  334TMC3    C5 5012   4.608   3.499  10.531  0.4181  0.2740  1.0570
  334TMC3    C6 5013   0.004   3.450  10.554  0.0174 -0.4116 -0.4636
  334TMC3     C 5014   4.449   3.401  10.835  0.2693 -0.7403  0.0728
  334TMC3     O 5015   4.324   3.409  10.823 -0.3298 -0.4287 -0.0630
  334TMC3     H 5016   4.680   3.291  10.836 -1.3195  0.0459  0.1177
  334TMC3    H1 5017   4.405   3.506  10.594 -0.5224  0.5693  0.5132
  334TMC3    H2 5018   0.089   3.474  10.491 -0.3532  4.7422  0.9520
  334TMC3    C7 5019   4.588   3.604  10.429  0.5658 -0.3401  0.5866
  334TMC3    C8 5020   0.163   3.341  10.704 -0.2776  0.3916 -0.0083
  334TMC3    O1 5021   4.613   3.575  10.312 -0.3983 -0.0644 -0.1503
  334TMC3    O2 5022   0.195   3.243  10.765 -0.2510 -0.0945 -0.4848
  335TMC3    C1 5023   3.711   0.552   0.072  0.3198  0.2583 -0.3678
  335TMC3    C2 5024   3.609   0.489   0.012  0.5246 -0.4674  0.4292
  335TMC3    C3 5025   3.525   0.557  17.645 -0.3076 -0.1704  0.1256
  335TMC3    C4 5026   3.744   0.687   0.049  0.8173  0.3702 -0.6485
  335TMC3    C5 5027   3.668   0.749  17.671 -0.0983  0.0749 -0.4343
  335TMC3    C6 5028   3.559   0.686  17.611 -0.1017  0.3395  0.4442
  335TMC3     C 5029   3.789   0.475   0.169 -0.2243  0.4187 -0.5964
  335TMC3     O 5030   3.910   0.487   0.156 -0.3613  0.2403 -0.1230
  335TMC3     H 5031   3.594   0.382   0.021 -1.2087 -0.3571 -1.1549
  335TMC3    H1 5032   3.840   0.726   0.080  0.5723 -0.8203  1.6692
  335TMC3    H2 5033   3.492   0.742  17.547  0.3716  0.2559 -0.1298
  335TMC3    C7 5034   3.754   0.819  17.573 -0.5249 -0.4900  0.3839
  335TMC3    C8 5035   3.437   0.490  17.547  0.9472 -0.6949  0.3455
  335TMC3    O1 5036   3.866   0.774  17.549  0.2061  0.4606  0.1157
  335TMC3    O2 5037   3.387   0.569  17.464  0.2009  0.2160  0.1394
  336MPD2     C 5038   3.513   3.047  16.129  0.1857 -0.2544 -0.6325
  336MPD2    C1 5039   3.523   2.973  16.012 -0.2693 -0.3276  0.1385
  336MPD2    C2 5040   3.563   2.840  16.017  0.0581  0.0907  0.0726
  336MPD2    C3 5041   3.583   2.784  16.140 -0.5142  1.1793  0.2237
  336MPD2    C4 5042   3.581   2.856  16.257  0.2224 -0.4802  0.3344
  336MPD2    C5 5043   3.543   2.988  16.250 -0.3893 -0.0101  0.4305
  336MPD2     H 5044   3.560   2.777  15.929  1.4744 -0.1953  0.2235
  336MPD2    H1 5045   3.592   2.800  16.349  2.0800  1.8978  1.5380
  336MPD2    H2 5046   3.490   3.153  16.125 -1.2716 -0.5983 -1.4857
  336MPD2    H3 5047   3.550   3.050  16.339 -0.9514  1.6445 -0.6700
  336MPD2     N 5048   3.613   2.650  16.169 -0.5069  0.0697 -0.0358
  336MPD2    H5 5049   3.658   2.631  16.258 -1.3455 -2.9155 -0.2354
  336MPD2    N1 5050   3.488   3.022  15.881  0.3711 -0.8553 -0.2578
  336MPD2    H7 5051   3.506   2.969  15.797 -0.9798 -3.0112  0.8023
  337TMC3    C1 5052   3.449   3.171  15.700 -0.6434 -0.0538  0.6847
  337TMC3    C2 5053   3.335   3.205  15.639  0.5017  0.2699  0.3027
  337TMC3    C3 5054   3.319   3.189  15.495 -0.4048 -0.1358  0.4291
  337TMC3    C4 5055   3.558   3.134  15.626  0.0868 -0.1818 -0.5243
  337TMC3    C5 5056   3.540   3.116  15.489  0.5957 -0.3947 -0.0995
  337TMC3    C6 5057   3.421   3.137  15.422 -0.7517 -0.3147 -0.4237
  337TMC3     C 5058   3.450   3.150  15.847 -0.1949  0.0392  0.3517
  337TMC3     O 5059   3.411   3.240  15.922  0.2967 -0.0693  0.3084
  337TMC3     H 5060   3.248   3.231  15.698 -0.3167  0.1739 -0.8871
  337TMC3    H1 5061   3.645   3.101  15.681 -1.5525 -0.9382  1.6133
  337TMC3    H2 5062   3.422   3.121  15.315 -1.2476  1.6957 -0.7221
  337TMC3    C7 5063   3.649   3.050  15.415 -0.1983 -0.2179  0.3333
  337TMC3    C8 5064   3.182   3.210  15.453  0.1447 -0.1923  0.0453
  337TMC3    O1 5065   3.615   2.996  15.310  0.3650  0.0752 -0.0867
  337TMC3    O2 5066   3.105   3.258  15.533  0.0008 -0.2924  0.2716
  338MPD2     C 5067   3.339   1.819   0.462  0.2629  0.2596 -0.1486
  338MPD2    C1 5068   3.350   1.958   0.466  0.2882  0.6593  0.0127
  338MPD2    C2 5069   3.232   2.029   0.457  0.1541  0.0806  0.0451
  338MPD2    C3 5070   3.107   1.975   0.448  0.1548  0.4956  0.7972
  338MPD2    C4 5071   3.101   1.839   0.431  0.1997 -0.1993 -0.0609
  338MPD2    C5 5072   3.212   1.764   0.439 -0.7630  0.1009  0.0365
  338MPD2     H 5073   3.225   2.138   0.456  2.7030  0.2485  1.4282
  338MPD2    H1 5074   3.008   1.785   0.418 -0.0661  0.3025 -0.2433
  338MPD2    H2 5075   3.423   1.753   0.445  0.7585  0.4442  1.6064
  338MPD2    H3 5076   3.200   1.659   0.413  0.1138  0.4653 -1.8594
  338MPD2     N 5077   2.997   2.066   0.428 -0.5784 -0.4213 -0.0990
  338MPD2    H5 5078   3.026   2.163   0.424  0.1375 -0.6277  0.1932
  338MPD2    N1 5079   3.473   2.024   0.468  0.0811 -0.1898  0.0395
  338MPD2    H7 5080   3.476   2.122   0.490  0.4705 -0.1581 -0.1502
  339TMC3    C1 5081   2.787   2.159   0.382  0.6043 -0.5704 -0.0653
  339TMC3    C2 5082   2.729   2.209   0.495  0.2698 -0.7419 -0.2190
  339TMC3    C3 5083   2.707   2.349   0.500 -0.4271 -0.6946  0.0187
  339TMC3    C4 5084   2.816   2.244   0.279  0.6867  0.7716 -0.3852
  339TMC3    C5 5085   2.788   2.379   0.284  0.1497  0.8573 -0.4437
  339TMC3    C6 5086   2.732   2.437   0.391 -0.1968  0.4719  0.0933
  339TMC3     C 5087   2.867   2.036   0.408 -0.3127 -0.1188  0.1246
  339TMC3     O 5088   2.819   1.925   0.379 -0.7781  0.0586 -0.0178
  339TMC3     H 5089   2.715   2.140   0.578  0.9551  1.6177  1.8591
  339TMC3    H1 5090   2.866   2.204   0.191  2.6982  0.1773  1.0387
  339TMC3    H2 5091   2.694   2.539   0.394 -0.2763  0.3643  2.4813
  339TMC3    C7 5092   2.835   2.470   0.184 -0.8103 -1.1445  0.7662
  339TMC3    C8 5093   2.661   2.408   0.627 -0.5330  0.6286  0.4108
  339TMC3    O1 5094   2.850   2.586   0.220  0.1450  0.6256 -0.0050
  339TMC3    O2 5095   2.691   2.528   0.638  0.2602  0.3858  0.1267
  340MPD2     C 5096   4.098   0.394   9.866  0.3294 -0.1638  0.0013
  340MPD2    C1 5097   4.169   0.366   9.985 -0.0487  0.3034  0.0883
  340MPD2    C2 5098   4.184   0.474  10.074  0.7127 -0.4825  0.5205
  340MPD2    C3 5099   4.123   0.593  10.042 -0.9810 -0.3117  0.0719
  340MPD2    C4 5100   4.058   0.620   9.927 -0.1147  0.6326  0.4058
  340MPD2    C5 5101   4.032   0.512   9.847 -0.1186  0.2846  0.2532
  340MPD2     H 5102   4.245   0.470  10.163  1.2460 -1.6021  0.1054
  340MPD2    H1 5103   4.014   0.718   9.913  0.6279  0.5020 -2.7021
  340MPD2    H2 5104   4.096   0.322   9.784 -1.2444  2.2971 -2.1375
  340MPD2    H3 5105   3.977   0.524   9.755 -1.1945 -1.5349  0.6546
  340MPD2     N 5106   4.135   0.706  10.123 -0.5703  0.2032 -0.4576
  340MPD2    H5 5107   4.092   0.788  10.080 -1.2820  0.6044  1.0177
  340MPD2    N1 5108   4.225   0.234  10.001  0.9032  0.5804  0.1044
  340MPD2    H7 5109   4.208   0.167   9.927  0.2859  1.2712 -0.3768
  341TMC3    C1 5110   4.316   0.055  10.122 -0.4936 -0.2158  1.0833
  341TMC3    C2 5111   4.238   4.703  10.042 -0.0437 -0.5351  0.5783
  341TMC3    C3 5112   4.267   4.567  10.033 -0.3266 -0.3638 -0.3898
  341TMC3    C4 5113   4.412   0.002  10.201  0.2321 -0.6558 -0.2113
  341TMC3    C5 5114   4.436   4.592  10.208 -0.2156  0.5757 -0.0984
  341TMC3    C6 5115   4.358   4.511  10.129 -0.8611  0.1557  0.0088
  341TMC3     C 5116   4.300   0.199  10.112  0.4276  0.0170  0.5200
  341TMC3     O 5117   4.351   0.277  10.191  0.3505 -0.4340  0.6254
  341TMC3     H 5118   4.151   0.015   9.992 -0.4637 -0.6203  1.2464
  341TMC3    H1 5119   4.464   0.069  10.269  1.5519 -0.6833 -1.1877
  341TMC3    H2 5120   4.362   4.404  10.144  1.0106  0.4642  1.7564
  341TMC3    C7 5121   4.522   4.527  10.297 -0.1432 -1.2757  0.2442
  341TMC3    C8 5122   4.191   4.473   9.951 -0.1679  0.1577  0.4468
  341TMC3    O1 5123   4.538   4.575  10.406  0.0763  0.1345  0.2962
  341TMC3    O2 5124   4.168   4.360   9.993  0.1172  0.4615  0.7235
  342MPD2     C 5125   1.857   3.033  17.708  0.1392  0.5199  0.3126
  342MPD2    C1 5126   1.937   3.099  17.609 -1.4017  0.1941  0.5919
  342MPD2    C2 5127   1.952   3.236  17.628  0.0672 -0.8617  0.3925
  342MPD2    C3 5128   1.895   3.301   0.017  0.2616 -0.0655 -0.0727
  342MPD2    C4 5129   1.816   3.234   0.109  0.0108  0.1868 -0.3651
  342MPD2    C5 5130   1.804   3.096   0.104  0.5375 -0.1867  0.9767
  342MPD2     H 5131   2.009   3.285  17.551 -1.0204 -1.2621 -0.6679
  342MPD2    H1 5132   1.781   3.288   0.196  3.1106 -0.1659  1.1100
  342MPD2    H2 5133   1.842   2.926  17.704 -0.4365  0.5998  0.2648
  342MPD2    H3 5134   1.736   3.052   0.177  0.6761 -0.1830  1.1080
  342MPD2     N 5135   1.908   3.440   0.047  0.0092 -0.2478 -0.3680
  342MPD2    H5 5136   1.860   3.466   0.132 -0.7307 -0.4615 -0.7185
  342MPD2    N1 5137   1.974   3.042  17.485  0.2423 -0.0534  0.2906
  342MPD2    H7 5138   2.008   3.109  17.416  1.8142  0.7374  1.8035
  343TMC3    C1 5139   1.953   2.896  17.297 -0.0987  0.0580  0.2502
  343TMC3    C2 5140   2.075   2.919  17.247 -0.2751  0.2792  0.3176
  343TMC3    C3 5141   2.128   2.821  17.168 -0.2836 -0.0205  0.1980
  343TMC3    C4 5142   1.882   2.788  17.265 -0.3340 -0.4474  0.4433
  343TMC3    C5 5143   1.945   2.691  17.190  0.1969  0.5191  0.3383
  343TMC3    C6 5144   2.069   2.707  17.131  0.5781  0.4105  0.2765
  343TMC3     C 5145   1.941   2.916  17.442  0.4744  0.2038 -0.0512
  343TMC3     O 5146   1.884   2.832  17.509 -0.4529  0.1538 -0.3715
  343TMC3     H 5147   2.128   3.008  17.279  0.9813 -0.2228 -0.3707
  343TMC3    H1 5148   1.786   2.778  17.315  0.2634  0.1695  1.7222
  343TMC3    H2 5149   2.113   2.624  17.077  0.4398  0.7234 -0.3130
  343TMC3    C7 5150   1.900   2.556  17.216  0.0867  0.3345 -0.1228
  343TMC3    C8 5151   2.263   2.854  17.127  0.5246 -0.2234 -0.0599
  343TMC3    O1 5152   1.895   2.486  17.118 -0.3436 -0.3605  0.4655
  343TMC3    O2 5153   2.308   2.962  17.159  0.6664  0.2265  0.0496
  344MPD2     C 5154   3.184   2.884  11.031 -0.3944  0.4060  0.1856
  344MPD2    C1 5155   3.062   2.922  10.974 -0.2811 -0.5181  0.5861
  344MPD2    C2 5156   3.067   3.029  10.886  0.6470 -0.5791 -0.9280
  344MPD2    C3 5157   3.188   3.088  10.844  0.0683  0.2059 -0.4322
  344MPD2    C4 5158   3.300   3.057  10.909 -0.6159 -0.1816  0.4283
  344MPD2    C5 5159   3.298   2.948  10.992 -0.5812 -0.0274 -0.0231
  344MPD2     H 5160   2.976   3.066  10.841  0.3110  1.5156  1.5020
  344MPD2    H1 5161   3.397   3.098  10.882 -0.4296 -0.4922  0.6113
  344MPD2    H2 5162   3.187   2.819  11.117 -1.3384  0.7599  0.4799
  344MPD2    H3 5163   3.385   2.926  11.053 -1.8779 -0.4303  1.7025
  344MPD2     N 5164   3.199   3.199  10.759  0.2137 -0.2090 -0.6349
  344MPD2    H5 5165   3.288   3.247  10.748 -0.3478  0.9796  0.1597
  344MPD2    N1 5166   2.935   2.879  11.016  0.0247 -0.2917  0.2541
  344MPD2    H7 5167   2.865   2.907  10.949  0.7528  0.3881 -0.2294
  345TMC3    C1 5168   3.137   3.408  10.684  0.4886 -0.0537  0.5669
  345TMC3    C2 5169   3.230   3.459  10.767  0.7924 -0.5578 -0.2240
  345TMC3    C3 5170   3.293   3.570  10.722  0.3165  0.7456  0.1926
  345TMC3    C4 5171   3.111   3.458  10.555 -0.2414 -0.3017 -0.7103
  345TMC3    C5 5172   3.187   3.559  10.503  0.0861 -0.3225  0.6000
  345TMC3    C6 5173   3.280   3.618  10.587 -0.1455 -0.9497 -0.3751
  345TMC3     C 5174   3.088   3.276  10.716  0.5600 -0.9555  0.1481
  345TMC3     O 5175   2.977   3.245  10.687 -0.3898  0.6638  0.5834
  345TMC3     H 5176   3.235   3.417  10.867  2.0114 -0.6411 -0.3268
  345TMC3    H1 5177   3.029   3.406  10.506 -0.3518  0.1240 -0.9741
  345TMC3    H2 5178   3.322   3.713  10.557 -0.6622 -0.6213 -0.0596
  345TMC3    C7 5179   3.158   3.629  10.386  0.0377 -0.5800 -0.2880
  345TMC3    C8 5180   3.338   3.672  10.818  0.1023 -0.0693  0.0793
  345TMC3    O1 5181   3.234   3.718  10.351 -0.3670 -0.0190  0.0516
  345TMC3    O2 5182   3.287   3.669  10.929  0.4049  0.5957  0.3354
  346MPD2     C 5183   3.096   4.390  14.244  0.1581  0.4754 -0.3015
  346MPD2    C1 5184   3.006   4.494  14.228 -0.2168 -0.0618 -0.0755
  346MPD2    C2 5185   2.989   4.583  14.333  0.7022  1.2762  0.3628
  346MPD2    C3 5186   3.060   4.575  14.447  0.4102 -0.1449 -0.4011
  346MPD2    C4 5187   3.144   4.464  14.462 -0.1706 -0.5907 -0.5164
  346MPD2    C5 5188   3.161   4.371  14.365  0.3027  0.3069  0.5654
  346MPD2     H 5189   2.920   4.666  14.324 -1.7395 -0.7049  0.7730
  346MPD2    H1 5190   3.183   4.440  14.560 -0.0728  3.4052  0.4258
  346MPD2    H2 5191   3.114   4.330  14.156  0.8931  1.6998 -0.9824
  346MPD2    H3 5192   3.232   4.290  14.373  1.9852  1.7158  0.0884
  346MPD2     N 5193   3.042   4.674  14.543  0.2734 -0.1619 -0.2767
  346MPD2    H5 5194   2.982   0.022  14.513 -0.3875  0.0792  1.6673
  346MPD2    N1 5195   2.950   4.531  14.105  0.1813 -0.2017  0.3753
  346MPD2    H7 5196   2.891   4.614  14.107  0.7674  0.2905 -2.6774
  347TMC3    C1 5197   3.027   0.064  14.735 -0.8236 -0.1685 -0.7524
  347TMC3    C2 5198   3.108   0.161  14.798  0.3361 -0.0919 -1.0256
  347TMC3    C3 5199   3.054   0.291  14.819 -0.6162 -0.3902 -0.6065
  347TMC3    C4 5200   2.894   0.085  14.697  0.6378  0.6302 -0.0243
  347TMC3    C5 5201   2.855   0.218  14.709  0.1359  0.0603  0.0646
  347TMC3    C6 5202   2.925   0.309  14.777 -0.5962 -0.1164 -0.2103
  347TMC3     C 5203   3.094   4.681  14.672 -0.1342 -0.1743  0.8476
  347TMC3     O 5204   3.191   4.629  14.725  0.6323 -0.9330 -0.2602
  347TMC3     H 5205   3.214   0.142  14.810  0.1724 -0.6505 -0.4176
  347TMC3    H1 5206   2.837   0.001  14.659  1.2796  1.3757 -2.6507
  347TMC3    H2 5207   2.875   0.402  14.799 -0.3914 -0.1436  0.3765
  347TMC3    C7 5208   2.734   0.254  14.634 -0.2128 -0.7080  0.3548
  347TMC3    C8 5209   3.107   0.379  14.913  0.1160 -0.0287 -0.6660
  347TMC3    O1 5210   2.642   0.169  14.621 -0.2325  0.2950  0.1978
  347TMC3    O2 5211   3.028   0.443  14.982 -0.0925 -0.5583  0.4327
  348MPD2     C 5212   1.370   4.610  12.261 -0.4850  0.4187  0.4811
  348MPD2    C1 5213   1.367   4.569  12.132  0.7662  0.0816  0.2130
  348MPD2    C2 5214   1.326   4.658  12.037  0.1202 -0.4314 -0.3928
  348MPD2    C3 5215   1.264   0.053  12.060 -0.3728  0.5730  1.3445
  348MPD2    C4 5216   1.257   0.083  12.192  0.0391  0.8943  0.8540
  348MPD2    C5 5217   1.309   4.729  12.292 -0.1185  0.0926 -0.7693
  348MPD2     H 5218   1.342   4.614  11.940  1.3435  0.2737 -0.5060
  348MPD2    H1 5219   1.213   0.178  12.221  1.4516  1.9098 -0.3326
  348MPD2    H2 5220   1.425   4.560  12.341  1.2615 -0.4321 -1.2517
  348MPD2    H3 5221   1.314   0.045  12.390  1.6400 -0.8609 -0.4265
  348MPD2     N 5222   1.247   0.154  11.968 -0.9094  0.5217 -0.2860
  348MPD2    H5 5223   1.235   0.253  11.991  1.7200  0.9078 -0.5316
  348MPD2    N1 5224   1.411   4.444  12.085  0.6043 -0.6023 -0.3518
  348MPD2    H7 5225   1.408   4.428  11.984 -1.0646 -0.2568 -0.3619
  349TMC3    C1 5226   1.546   4.253  12.081 -0.9465 -0.8928  0.2471
  349TMC3    C2 5227   1.602   4.150  12.144  0.0305 -0.0679 -0.4711
  349TMC3    C3 5228   1.702   4.079  12.087 -0.8326 -0.2487 -0.2683
  349TMC3    C4 5229   1.594   4.301  11.962 -0.7815  0.2867 -0.2422
  349TMC3    C5 5230   1.693   4.226  11.909  0.7382 -0.2431  0.1382
  349TMC3    C6 5231   1.751   4.126  11.966 -0.2260 -0.6837 -0.2436
  349TMC3     C 5232   1.467   4.345  12.162  0.3369 -0.0223  0.5104
  349TMC3     O 5233   1.457   4.318  12.279  0.7492  0.3938  0.2728
  349TMC3     H 5234   1.575   4.121  12.245 -1.8976 -0.0296 -0.9689
  349TMC3    H1 5235   1.543   4.383  11.913  2.0166  2.1933  0.0537
  349TMC3    H2 5236   1.832   4.072  11.919  1.4746  2.8536 -1.3964
  349TMC3    C7 5237   1.750   4.284  11.787  1.0302  0.3147 -0.5369
  349TMC3    C8 5238   1.763   3.974  12.167  1.0141  0.1448  0.0830
  349TMC3    O1 5239   1.750   4.211  11.689  0.3072 -0.1415 -0.2927
  349TMC3    O2 5240   1.688   3.911  12.244 -0.2063 -0.1921  0.0931
  350MPD2     C 5241   0.423   2.182   9.825  0.1223 -0.3184 -0.1381
  350MPD2    C1 5242   0.507   2.090   9.880  0.2092  0.7759 -0.1562
  350MPD2    C2 5243   0.610   2.145   9.956  0.6020  0.2299 -0.5141
  350MPD2    C3 5244   0.631   2.281   9.979 -0.0363  0.9832 -0.5906
  350MPD2    C4 5245   0.546   2.366   9.916 -0.4944 -0.1800  1.0044
  350MPD2    C5 5246   0.438   2.322   9.843 -0.0576 -0.7217 -0.9657
  350MPD2     H 5247   0.683   2.077   9.998 -0.7505 -0.6027  0.5164
  350MPD2    H1 5248   0.541   2.473   9.933 -2.2818 -0.2762  1.0772
  350MPD2    H2 5249   0.343   2.155   9.758  0.7288  0.9833 -1.3940
  350MPD2    H3 5250   0.374   2.400   9.805 -1.9197 -1.9625 -0.3603
  350MPD2     N 5251   0.743   2.324  10.054 -0.4744  0.3720  0.2150
  350MPD2    H5 5252   0.785   2.257  10.118 -0.7686 -0.2427 -0.2313
  350MPD2    N1 5253   0.503   1.955   9.845  0.5178  0.6827 -0.1418
  350MPD2    H7 5254   0.562   1.881   9.882  0.8582  1.6096  1.1657
  351TMC3    C1 5255   0.408   1.759   9.756 -1.1150  0.9518 -0.6463
  351TMC3    C2 5256   0.532   1.703   9.728  0.2621 -0.1202 -0.1140
  351TMC3    C3 5257   0.528   1.586   9.653  0.0845  0.6191 -0.0749
  351TMC3    C4 5258   0.296   1.689   9.731  0.4894 -0.9436 -0.7371
  351TMC3    C5 5259   0.298   1.577   9.655 -1.3205 -0.3931 -0.2300
  351TMC3    C6 5260   0.415   1.523   9.620 -0.6964 -0.3437 -0.4660
  351TMC3     C 5261   0.393   1.900   9.779 -0.0520 -0.1508  0.7821
  351TMC3     O 5262   0.284   1.942   9.749 -0.0823 -0.2220 -0.0788
  351TMC3     H 5263   0.622   1.763   9.728  0.8716 -1.0230 -3.3906
  351TMC3    H1 5264   0.201   1.735   9.752  0.2419 -2.3200  1.1770
  351TMC3    H2 5265   0.421   1.439   9.552 -1.4035 -0.4153 -0.4443
  351TMC3    C7 5266   0.182   1.500   9.616 -0.5398 -0.6064 -0.1111
  351TMC3    C8 5267   0.651   1.509   9.647  0.0140 -0.4453 -0.2982
  351TMC3    O1 5268   0.190   1.424   9.520 -0.4120 -0.5807 -0.4010
  351TMC3    O2 5269   0.636   1.390   9.613  0.4860 -0.2030 -0.5602
  352MPD2     C 5270   3.652   0.278   0.864  0.3041 -0.1837  0.6807
  352MPD2    C1 5271   3.532   0.221   0.882  0.0758 -0.3704 -0.0588
  352MPD2    C2 5272   3.526   0.081   0.895  0.5001  1.0372 -0.1412
  352MPD2    C3 5273   3.647   0.008   0.914  0.0245  0.0126  0.1290
  352MPD2    C4 5274   3.766   0.071   0.890  0.8758  0.2341 -0.1795
  352MPD2    C5 5275   3.770   0.207   0.865  0.4170 -0.7302 -0.1973
  352MPD2     H 5276   3.436   0.020   0.893  0.3862  1.2974 -2.8256
  352MPD2    H1 5277   3.861   0.018   0.889  0.3492 -0.7070 -0.2703
  352MPD2    H2 5278   3.657   0.381   0.831  2.5847 -0.7412 -0.7307
  352MPD2    H3 5279   3.866   0.252   0.844  0.3574  0.5205  2.1655
  352MPD2     N 5280   3.647   4.598   0.925 -0.2299 -0.4636 -0.2803
  352MPD2    H5 5281   3.734   4.547   0.915  0.3022  0.4818 -0.5289
  352MPD2    N1 5282   3.420   0.309   0.855  0.2420 -0.7748  1.0298
  352MPD2    H7 5283   3.444   0.402   0.823  0.1784 -0.8093  0.8837
  353TMC3    C1 5284   3.556   4.391   0.973 -0.2781  0.5250  0.4126
  353TMC3    C2 5285   3.622   4.317   0.881 -0.1272 -0.4147 -0.1637
  353TMC3    C3 5286   3.637   4.180   0.908 -0.2065 -0.2061 -0.0132
  353TMC3    C4 5287   3.470   4.336   1.064  0.4136  0.4043 -0.1222
  353TMC3    C5 5288   3.480   4.201   1.085 -0.2268  0.3744  1.2793
  353TMC3    C6 5289   3.556   4.123   1.003 -0.1133 -0.0098  0.0371
  353TMC3     C 5290   3.537   4.528   0.954  0.4306 -0.0807  0.2976
  353TMC3     O 5291   3.432   4.571   1.002  0.0645  0.2534  0.0982
  353TMC3     H 5292   3.671   4.369   0.800  0.7513 -0.3544  0.4127
  353TMC3    H1 5293   3.412   4.401   1.129  0.0694 -0.8988  0.8810
  353TMC3    H2 5294   3.553   4.018   1.026 -2.9332  0.4161  1.5708
  353TMC3    C7 5295   3.400   4.145   1.192 -0.2373  0.0237  0.2143
  353TMC3    C8 5296   3.704   4.099   0.809  0.2939  0.2376  0.1609
  353TMC3    O1 5297   3.306   4.206   1.241 -0.7048 -1.0854 -0.2081
  353TMC3    O2 5298   3.777   4.155   0.725  0.0646  0.1222 -0.2141
  354TMC3    C1 5299   0.673   1.156  13.346 -0.1483 -0.1208  0.3058
  354TMC3    C2 5300   0.637   1.282  13.312 -0.0265 -0.1933  0.4664
  354TMC3    C3 5301   0.561   1.293  13.201  0.4922 -0.0967  0.3460
  354TMC3    C4 5302   0.612   1.049  13.285  0.1830 -0.0690 -0.3996
  354TMC3    C5 5303   0.553   1.064  13.166 -0.0444 -0.5607  0.3896
  354TMC3    C6 5304   0.516   1.190  13.128  0.2938 -0.3827 -0.8533
  354TMC3     C 5305   0.702   1.126  13.474  0.3500  0.8580 -0.3707
  354TMC3     O 5306   0.636   1.034  13.521  0.2633  0.4881  0.6991
  354TMC3     H 5307   0.673   1.371  13.364  0.0095  0.0838 -0.0246
  354TMC3    H1 5308   0.669   0.957  13.292  0.0614 -0.0595  0.7471
  354TMC3    H2 5309   0.461   1.212  13.037  0.4811 -1.0707 -1.1351
  354TMC3    C7 5310   0.592   0.984  13.058  0.5785  0.1228 -0.6702
  354TMC3    C8 5311   0.597   1.398  13.107  0.2333  0.7446  0.8913
  354TMC3    O1 5312   0.591   0.865  13.073  0.0896 -0.5276  0.2846
  354TMC3    O2 5313   0.648   1.349  13.009 -0.1833 -0.4872 -0.0657
  355MPD2     C 5314   1.332   1.776  11.663 -0.3525 -0.6244 -0.1085
  355MPD2    C1 5315   1.466   1.812  11.641 -0.1784 -0.4133 -0.4315
  355MPD2    C2 5316   1.543   1.820  11.753 -0.5081  0.2287 -0.2739
  355MPD2    C3 5317   1.497   1.805  11.885  0.1458 -0.1188 -0.1128
  355MPD2    C4 5318   1.372   1.754  11.898 -0.0260  0.1013 -0.2447
  355MPD2    C5 5319   1.290   1.740  11.788  0.5092 -0.5725  0.4128
  355MPD2     H 5320   1.647   1.849  11.746 -0.3502 -0.4122 -0.5791
  355MPD2    H1 5321   1.332   1.743  11.999 -0.1113 -2.9304 -0.6275
  355MPD2    H2 5322   1.270   1.756  11.577  0.8650 -0.6354 -0.9979
  355MPD2    H3 5323   1.187   1.708  11.793  0.7846 -1.5482 -0.1343
  355MPD2     N 5324   1.589   1.839  11.986 -0.4461  0.5138  0.0800
  355MPD2    H5 5325   1.677   1.883  11.961 -0.3359 -0.6063 -1.4886
  355MPD2    N1 5326   1.504   1.858  11.517  0.0706 -0.6449 -0.0816
  355MPD2    H7 5327   1.436   1.875  11.444 -1.0394  0.2834  1.1688
  356TMC3    C1 5328   1.653   1.921  12.186  0.3622  0.5409  0.1674
  356TMC3    C2 5329   1.774   1.923  12.124 -0.1540  0.5149  0.0703
  356TMC3    C3 5330   1.848   2.038  12.106 -0.7393 -0.0227 -0.9863
  356TMC3    C4 5331   1.615   2.043  12.239  1.3805 -0.2540 -0.5167
  356TMC3    C5 5332   1.684   2.162  12.223 -0.3804 -0.3252 -0.7538
  356TMC3    C6 5333   1.799   2.156  12.151 -0.1494  0.1604  0.0947
  356TMC3     C 5334   1.552   1.843  12.120 -0.0991 -0.0325 -0.3584
  356TMC3     O 5335   1.445   1.825  12.178 -0.5141  0.3947  0.7487
  356TMC3     H 5336   1.811   1.826  12.092  1.7773  0.6814  1.8033
  356TMC3    H1 5337   1.512   2.049  12.272  1.6929  1.1145  0.2204
  356TMC3    H2 5338   1.866   2.241  12.142 -1.2086  1.1460  1.5222
  356TMC3    C7 5339   1.637   2.276  12.304 -0.2902  0.5348  0.3859
  356TMC3    C8 5340   1.891   2.045  11.965 -0.0876 -0.1042  0.6124
  356TMC3    O1 5341   1.565   2.246  12.402  0.9085 -0.1365 -0.3297
  356TMC3    O2 5342   1.833   1.978  11.881  0.5635 -0.1974 -0.1580
  357MPD2     C 5343   0.074   1.197   0.779  0.3500  0.1122  0.2070
  357MPD2    C1 5344   0.084   1.075   0.842 -0.0966  0.3023  0.2757
  357MPD2    C2 5345   0.064   1.071   0.982 -0.4241 -0.0421 -0.3391
  357MPD2    C3 5346   0.040   1.181   1.060  0.1035  0.4388 -0.0750
  357MPD2    C4 5347   0.052   1.300   0.995 -0.1715  0.4936  0.0624
  357MPD2    C5 5348   0.062   1.308   0.861 -0.2218 -0.2954  0.1033
  357MPD2     H 5349   0.063   0.976   1.033 -0.5847 -0.3342 -0.8907
  357MPD2    H1 5350   0.029   1.391   1.050 -1.0138 -0.9827  2.1853
  357MPD2    H2 5351   0.102   1.200   0.674 -2.9243  1.5681 -0.6396
  357MPD2    H3 5352   0.043   1.403   0.812  2.0017 -1.3038 -2.7098
  357MPD2     N 5353   4.729   1.167   1.192 -0.0647 -0.7316  0.3514
  357MPD2    H5 5354   4.721   1.071   1.223 -1.2691 -0.2457  1.5680
  357MPD2    N1 5355   0.117   0.958   0.772 -0.1047  0.4942  0.4851
  357MPD2    H7 5356   0.120   0.962   0.670 -0.0499  0.5333  0.4885
  358TMC3    C1 5357   0.155   0.733   0.743 -0.7961  0.4588  0.9171
  358TMC3    C2 5358   0.160   0.745   0.608 -0.1416  0.5568  0.1317
  358TMC3    C3 5359   0.117   0.631   0.537  0.2457 -0.3174 -0.5613
  358TMC3    C4 5360   0.153   0.612   0.805 -0.3738  0.1330  0.5264
  358TMC3    C5 5361   0.112   0.502   0.729  0.2913 -0.1751  0.8577
  358TMC3    C6 5362   0.098   0.507   0.594  0.2913 -0.1677 -0.1981
  358TMC3     C 5363   0.155   0.842   0.834  0.7279  0.4878 -0.3661
  358TMC3     O 5364   0.195   0.819   0.946  0.2865  0.5203  0.0751
  358TMC3     H 5365   0.171   0.839   0.556  1.5750 -0.1450 -0.7814
  358TMC3    H1 5366   0.172   0.602   0.911 -0.8484 -0.7474  0.5296
  358TMC3    H2 5367   0.055   0.423   0.540 -1.1084  0.8180 -0.6326
  358TMC3    C7 5368   0.068   0.391   0.813  1.0479 -0.3894 -0.0000
  358TMC3    C8 5369   0.100   0.644   0.400  0.8201  0.4067  1.2730
  358TMC3    O1 5370   0.031   0.411   0.925 -0.2145 -0.6071  0.7230
  358TMC3    O2 5371   0.142   0.741   0.343 -0.1887  0.2811 -0.2600
  359MPD2     C 5372   0.682   0.636  12.545  0.0777  0.0588 -0.1900
  359MPD2    C1 5373   0.718   0.546  12.452 -0.4727 -0.1767  0.6106
  359MPD2    C2 5374   0.715   0.408  12.484  0.1667  0.7588 -0.6146
  359MPD2    C3 5375   0.666   0.363  12.607  0.5025 -0.6897  0.4786
  359MPD2    C4 5376   0.624   0.460  12.692  0.6605  0.3295 -0.2128
  359MPD2    C5 5377   0.629   0.594  12.658 -0.0046  0.1225  0.3292
  359MPD2     H 5378   0.744   0.336  12.409 -0.8644  0.2150 -0.4923
  359MPD2    H1 5379   0.584   0.437  12.790  0.6486  0.9834 -0.0640
  359MPD2    H2 5380   0.676   0.742  12.521 -4.3031 -0.1354  0.0637
  359MPD2    H3 5381   0.584   0.658  12.733 -0.6426  0.9955 -0.7971
  359MPD2     N 5382   0.668   0.227  12.642 -0.4233  0.6790  0.0249
  359MPD2    H5 5383   0.632   0.204  12.734 -1.0323  1.6432  0.0343
  359MPD2    N1 5384   0.783   0.576  12.328  0.2234 -0.2225 -0.9052
  359MPD2    H7 5385   0.825   0.494  12.285  2.1119 -0.0977  0.6914
  360TMC3    C1 5386   0.921   0.693  12.178  0.1769 -0.3898 -0.9699
  360TMC3    C2 5387   1.010   0.790  12.177  0.3965 -0.1797 -0.2249
  360TMC3    C3 5388   1.114   0.775  12.087  0.1400  0.8001 -0.8554
  360TMC3    C4 5389   0.897   0.607  12.079 -0.0392  0.1119  0.0549
  360TMC3    C5 5390   0.992   0.610  11.973 -0.5971 -0.4356 -0.2164
  360TMC3    C6 5391   1.105   0.686  11.981 -0.2518 -0.4606 -0.2292
  360TMC3     C 5392   0.831   0.703  12.296  0.3864 -0.7468 -0.0156
  360TMC3     O 5393   0.818   0.807  12.352 -0.2591  0.0111  0.3439
  360TMC3     H 5394   1.025   0.853  12.265 -0.2556 -0.1977 -0.0974
  360TMC3    H1 5395   0.812   0.540  12.085  1.7840 -2.2653 -0.7691
  360TMC3    H2 5396   1.170   0.700  11.895 -0.2330  4.4193  0.6090
  360TMC3    C7 5397   0.949   0.575  11.838  0.5794 -0.4649 -0.0372
  360TMC3    C8 5398   1.209   0.883  12.079 -0.7263 -0.8751 -0.0996
  360TMC3    O1 5399   1.020   0.613  11.747 -0.5955  0.0340  0.4745
  360TMC3    O2 5400   1.177   0.992  12.129 -0.3947  0.0381  0.3159
  361MPD2     C 5401   2.773   4.068  16.640 -0.0451  0.2818 -0.4380
  361MPD2    C1 5402   2.742   4.011  16.756 -0.1601 -0.1504  0.1222
  361MPD2    C2 5403   2.840   3.948  16.827  0.0319  0.3642  0.5567
  361MPD2    C3 5404   2.973   3.941  16.774 -0.3537  0.1995 -0.1836
  361MPD2    C4 5405   2.997   3.999  16.653 -0.3959  0.0489  0.2993
  361MPD2    C5 5406   2.893   4.060  16.586  0.2688  0.3615  0.3671
  361MPD2     H 5407   2.817   3.897  16.920  0.2711  0.0520  0.4429
  361MPD2    H1 5408   3.089   3.990  16.596  1.2425  1.9305  2.6287
  361MPD2    H2 5409   2.695   4.131  16.598  1.0100  0.8079 -1.6123
  361MPD2    H3 5410   2.911   4.097  16.486 -0.0754 -0.3640  0.0271
  361MPD2     N 5411   3.076   3.862  16.828 -0.6425 -0.0118 -0.2227
  361MPD2    H5 5412   3.156   3.840  16.769 -1.7974 -3.0624 -0.6569
  361MPD2    N1 5413   2.603   4.008  16.791  0.2627  0.2560  0.5199
  361MPD2    H7 5414   2.546   4.050  16.718  0.8858  0.3102  0.0601
  362TMC3    C1 5415   2.411   3.971  16.919 -0.1171 -0.2006  0.6844
  362TMC3    C2 5416   2.355   3.951  17.038 -0.0427  0.6554  0.3426
  362TMC3    C3 5417   2.236   4.001  17.072  0.3735  1.5765  0.5821
  362TMC3    C4 5418   2.332   4.027  16.822 -0.3310 -0.4968 -0.6745
  362TMC3    C5 5419   2.210   4.077  16.863  0.2659 -0.5449  0.4408
  362TMC3    C6 5420   2.153   4.066  16.988  0.4657  0.0058 -0.1627
  362TMC3     C 5421   2.550   3.970  16.908  0.8894  0.3121 -0.4362
  362TMC3     O 5422   2.608   3.957  17.013  0.0500 -0.6433  0.4302
  362TMC3     H 5423   2.412   3.896  17.112  1.1773  1.9715  0.3617
  362TMC3    H1 5424   2.362   4.045  16.719 -0.7945  0.9686 -0.5428
  362TMC3    H2 5425   2.051   4.102  16.999  0.7775  0.5119  1.0404
  362TMC3    C7 5426   2.116   4.104  16.755 -0.6058 -0.0286  0.2149
  362TMC3    C8 5427   2.177   3.934  17.182 -0.6904  0.3183 -0.1913
  362TMC3    O1 5428   2.037   4.192  16.783 -0.7363 -0.2763  0.2243
  362TMC3    O2 5429   2.223   3.827  17.220 -0.0851  0.0369 -0.3181
  363TMC3    C1 5430   1.053   0.866   8.756  0.2213 -0.2015 -0.6122
  363TMC3    C2 5431   1.135   0.957   8.806 -0.0139  0.2324  0.1598
  363TMC3    C3 5432   1.252   0.915   8.859  0.3817  0.2898  0.2949
  363TMC3    C4 5433   1.090   0.737   8.733 -0.5104 -0.4502 -0.3579
  363TMC3    C5 5434   1.217   0.696   8.769  0.4803 -0.7370 -0.6657
  363TMC3    C6 5435   1.296   0.784   8.831  0.2598  0.2530  0.1939
  363TMC3     C 5436   0.919   0.915   8.724  0.4557  0.3719  0.2091
  363TMC3     O 5437   0.870   1.001   8.790  0.3213  0.1616  0.0753
  363TMC3     H 5438   1.086   1.052   8.825 -0.1111  0.4260 -1.0553
  363TMC3    H1 5439   1.010   0.669   8.705 -1.3122  0.5298 -0.4547
  363TMC3    H2 5440   1.391   0.746   8.867 -0.0886  1.3407  2.2937
  363TMC3    C7 5441   1.267   0.564   8.753  0.5391  0.0305  0.1470
  363TMC3    C8 5442   1.297   0.995   8.970 -0.4186 -0.2748 -0.1675
  363TMC3    O1 5443   1.378   0.539   8.797 -0.1404 -0.1207 -0.6834
  363TMC3    O2 5444   1.261   1.110   8.976  0.2097 -0.1453 -0.5299
  364MPD2     C 5445   0.112   2.112  11.084  1.0207  0.7210  0.5496
  364MPD2    C1 5446   0.151   2.085  10.958  0.3256  0.8548 -0.4655
  364MPD2    C2 5447   0.223   1.973  10.929 -0.0402 -0.5354 -0.2617
  364MPD2    C3 5448   0.236   1.876  11.027 -0.5588  0.1525  0.2998
  364MPD2    C4 5449   0.203   1.906  11.159 -0.3014 -0.2367  0.5766
  364MPD2    C5 5450   0.143   2.025  11.180  0.4298 -0.2207 -0.1143
  364MPD2     H 5451   0.254   1.950  10.828  1.1371 -2.9175  0.6620
  364MPD2    H1 5452   0.226   1.842  11.243  0.5563  0.6573  1.0182
  364MPD2    H2 5453   0.050   2.200  11.101  0.5995  0.7152 -0.9415
  364MPD2    H3 5454   0.127   2.061  11.281 -2.9265 -0.6380 -0.4992
  364MPD2     N 5455   0.295   1.747  11.005  0.0926  1.1157 -0.9288
  364MPD2    H5 5456   0.288   1.689  11.087 -0.1356  1.6980 -0.5378
  364MPD2    N1 5457   0.126   2.190  10.865  0.3498  0.1619  0.3160
  364MPD2    H7 5458   0.090   2.278  10.900 -2.3919 -0.9133  0.2109
  365TMC3    C1 5459   0.189   2.311  10.680  0.2536  0.5245  0.9216
  365TMC3    C2 5460   0.224   2.297  10.553 -0.1302  0.7691 -0.4875
  365TMC3    C3 5461   0.348   2.341  10.512  0.5246 -0.4062  0.9594
  365TMC3    C4 5462   0.266   2.372  10.768  0.1609  0.5573 -0.0525
  365TMC3    C5 5463   0.378   2.429  10.733  0.9552  0.1015 -0.0878
  365TMC3    C6 5464   0.424   2.410  10.600 -0.4248 -0.9683 -0.0603
  365TMC3     C 5465   0.138   2.188  10.728 -0.0607 -0.5522  0.4057
  365TMC3     O 5466   0.151   2.089  10.658  0.7403 -0.0005 -0.0101
  365TMC3     H 5467   0.165   2.249  10.477  0.1878 -1.1633  0.4977
  365TMC3    H1 5468   0.228   2.397  10.866  1.8718 -0.9119  0.9765
  365TMC3    H2 5469   0.522   2.444  10.567 -0.4900 -0.3829  0.3590
  365TMC3    C7 5470   0.488   2.434  10.829 -0.6369 -0.4798  0.3655
  365TMC3    C8 5471   0.412   2.227  10.442  0.1726  0.1882  0.1296
  365TMC3    O1 5472   0.589   2.498  10.793 -0.5188 -0.1441  0.2750
  365TMC3    O2 5473   0.512   2.252  10.376  0.4478  0.3266  0.4383
  366MPD2     C 5474   2.819   2.680  15.643 -0.1095 -0.3424  0.8377
  366MPD2    C1 5475   2.939   2.624  15.612 -0.3098 -0.5089  0.5754
  366MPD2    C2 5476   2.941   2.491  15.582  0.5212 -0.4347  0.2476
  366MPD2    C3 5477   2.827   2.416  15.574  0.1237  0.0123  0.8204
  366MPD2    C4 5478   2.706   2.480  15.593 -0.0729 -0.7229 -0.0967
  366MPD2    C5 5479   2.703   2.612  15.629 -0.0773 -0.0293 -0.3970
  366MPD2     H 5480   3.035   2.448  15.549  0.4582 -0.5562  0.2266
  366MPD2    H1 5481   2.614   2.424  15.589 -0.8850  0.7359 -2.0505
  366MPD2    H2 5482   2.817   2.787  15.663  0.5856  0.2870 -2.5523
  366MPD2    H3 5483   2.607   2.660  15.642 -0.1517 -0.6831  1.4196
  366MPD2     N 5484   2.845   2.284  15.526 -0.1228  0.4502  0.4817
  366MPD2    H5 5485   2.943   2.259  15.511 -0.6585 -2.1166  1.2848
  366MPD2    N1 5486   3.061   2.699  15.612 -0.3548  0.2658 -0.2559
  366MPD2    H7 5487   3.058   2.800  15.602  5.2466  0.3065 -1.3723
  367TMC3    C1 5488   3.293   2.714  15.591  0.0711  0.3445 -0.5053
  367TMC3    C2 5489   3.412   2.667  15.636  0.3283 -0.7057  0.0170
  367TMC3    C3 5490   3.521   2.671  15.555 -0.0385 -0.0864  0.1257
  367TMC3    C4 5491   3.281   2.771  15.468 -0.1799 -0.2354  0.6597
  367TMC3    C5 5492   3.386   2.770  15.386 -0.3060 -0.1020  0.1624
  367TMC3    C6 5493   3.506   2.729  15.431 -0.8913  0.6263  0.7936
  367TMC3     C 5494   3.177   2.636  15.640  0.3323  0.1282 -0.3910
  367TMC3     O 5495   3.192   2.533  15.705 -0.1861  0.2458  0.3024
  367TMC3     H 5496   3.418   2.629  15.737 -1.4629 -0.9854  0.0220
  367TMC3    H1 5497   3.182   2.779  15.426  0.3203  0.2247 -0.4401
  367TMC3    H2 5498   3.597   2.738  15.373 -1.4140  2.7607  0.3288
  367TMC3    C7 5499   3.362   2.790  15.240  0.4056  0.4412  0.1542
  367TMC3    C8 5500   3.615   2.755  15.631  0.4979 -0.2323 -0.1848
  367TMC3    O1 5501   3.266   2.858  15.209 -0.4595  0.2511  0.0354
  367TMC3    O2 5502   3.569   2.854  15.688 -0.9250  0.4509  1.0872
  368MPD2     C 5503   4.096   4.007  13.317  0.0077 -0.2205 -0.1256
  368MPD2    C1 5504   4.136   4.122  13.259 -0.0619 -0.4039  0.2485
  368MPD2    C2 5505   4.269   4.138  13.232 -0.4244 -0.3975  0.2704
  368MPD2    C3 5506   4.351   4.029  13.251 -0.8900 -0.4041  0.3580
  368MPD2    C4 5507   4.307   3.906  13.297  0.0535  0.0998 -0.1361
  368MPD2    C5 5508   4.172   3.897  13.337 -0.1734 -0.4089  0.2438
  368MPD2     H 5509   4.304   4.223  13.175 -1.7785 -0.5205 -0.7448
  368MPD2    H1 5510   4.371   3.819  13.310  0.0580  0.2199  0.6293
  368MPD2    H2 5511   3.997   4.000  13.361  0.3032  4.2672  1.3055
  368MPD2    H3 5512   4.129   3.806  13.376  2.6462  0.1346  4.6142
  368MPD2     N 5513   4.487   4.026  13.207 -0.4611  0.4304  0.2386
  368MPD2    H5 5514   4.549   3.957  13.249 -0.6987 -0.6238 -1.1351
  368MPD2    N1 5515   4.031   4.218  13.240 -0.5837  0.2846 -0.6436
  368MPD2    H7 5516   3.940   4.194  13.277  0.0172  0.4826  0.9513
  369TMC3    C1 5517   3.943   4.437  13.171 -0.2885  0.2971  0.9542
  369TMC3    C2 5518   3.964   4.542  13.081  0.1168 -0.2743  0.3967
  369TMC3    C3 5519   3.905   4.664  13.108  0.8592 -0.3507  0.4114
  369TMC3    C4 5520   3.871   4.451  13.285  0.0975 -0.0271 -0.2546
  369TMC3    C5 5521   3.806   4.577  13.307 -0.4712  0.7362  0.3343
  369TMC3    C6 5522   3.828   4.684  13.223  0.0481 -0.6489 -0.3726
  369TMC3     C 5523   4.046   4.337  13.167  0.4040 -0.4724 -0.3407
  369TMC3     O 5524   4.139   4.354  13.094  0.0508 -0.0974 -0.8442
  369TMC3     H 5525   4.021   4.522  12.991 -3.9261 -1.3725 -1.9012
  369TMC3    H1 5526   3.886   4.377  13.363 -0.8033  0.0757  0.0208
  369TMC3    H2 5527   3.791   0.054  13.248 -0.2662 -0.7334 -0.5053
  369TMC3    C7 5528   3.720   4.593  13.423  0.7177 -0.1641 -0.5908
  369TMC3    C8 5529   3.982   0.052  13.059 -0.5749  0.5407 -0.2810
  369TMC3    O1 5530   3.686   4.710  13.452  0.3777  0.0075 -0.8790
  369TMC3    O2 5531   3.921   0.147  13.022  0.3604 -0.2020 -0.5866
  370TMC3    C1 5532   4.011   0.479  16.507  0.0938 -0.3347  0.1515
  370TMC3    C2 5533   3.935   0.404  16.594 -0.0096  0.4921  0.3284
  370TMC3    C3 5534   3.892   0.277  16.546  0.0349 -0.9593 -0.1408
  370TMC3    C4 5535   4.043   0.438  16.379  0.0994 -0.0313  0.4177
  370TMC3    C5 5536   3.993   0.316  16.340 -0.6581 -0.3464 -0.8600
  370TMC3    C6 5537   3.916   0.232  16.415 -0.4383  0.0617  0.6148
  370TMC3     C 5538   4.066   0.606  16.548 -0.4423  0.4293 -0.2853
  370TMC3     O 5539   4.076   0.618  16.671 -0.5880 -0.4032 -0.4877
  370TMC3     H 5540   3.912   0.440  16.694  1.9758  0.7523  0.6806
  370TMC3    H1 5541   4.086   0.495  16.297  0.3386  1.6530  1.7098
  370TMC3    H2 5542   3.867   0.143  16.376  0.8531 -0.4802  0.2274
  370TMC3    C7 5543   4.029   0.271  16.211  0.2685 -0.3939 -0.2306
  370TMC3    C8 5544   3.802   0.195  16.631 -0.2566  0.2800 -0.1242
  370TMC3    O1 5545   4.030   0.357  16.125  0.0009  0.6394 -0.2871
  370TMC3    O2 5546   3.760   0.086  16.590 -0.5348 -0.2058  0.2169
  371TMC3    C1 5547   0.717   3.349  15.965 -0.0208  0.1912 -0.1610
  371TMC3    C2 5548   0.578   3.353  15.981  0.0498  0.8880  0.7581
  371TMC3    C3 5549   0.518   3.469  15.939  0.0064 -0.3474  0.4141
  371TMC3    C4 5550   0.792   3.459  15.947 -0.9623  0.5533 -0.0808
  371TMC3    C5 5551   0.728   3.575  15.920 -0.2611 -0.1083  0.6799
  371TMC3    C6 5552   0.594   3.586  15.928 -0.0055  0.2821  0.5119
  371TMC3     C 5553   0.785   3.224  15.936 -0.0350  0.0537 -1.0721
  371TMC3     O 5554   0.871   3.230  15.850 -0.1509 -0.4014 -0.3034
  371TMC3     H 5555   0.518   3.264  15.992 -0.4524  1.2567  0.9560
  371TMC3    H1 5556   0.899   3.441  15.943 -1.1277 -0.3635 -0.4777
  371TMC3    H2 5557   0.564   3.670  15.867  2.1661  1.1308  0.6107
  371TMC3    C7 5558   0.795   3.686  15.860  0.3691  0.6809 -0.6254
  371TMC3    C8 5559   0.385   3.465  15.884 -0.9281  0.4975 -0.1400
  371TMC3    O1 5560   0.735   3.792  15.867  0.2784 -0.4722  0.8667
  371TMC3    O2 5561   0.344   3.352  15.852 -0.1624 -0.6681 -0.3417
  372MPD2     C 5562   4.135   4.228  13.599  0.1548  0.1959 -0.4310
  372MPD2    C1 5563   4.261   4.155  13.622 -0.2576 -0.1124  0.8221
  372MPD2    C2 5564   4.258   4.030  13.680  0.3082  0.3808  0.1305
  372MPD2    C3 5565   4.143   3.968  13.719  0.0453  0.4368  0.4337
  372MPD2    C4 5566   4.023   4.039  13.698 -0.1826  0.3198  0.8535
  372MPD2    C5 5567   4.018   4.164  13.631 -0.4530  0.2146  0.5623
  372MPD2     H 5568   4.349   3.975  13.703  0.6996 -0.1813 -2.7735
  372MPD2    H1 5569   3.929   4.005  13.739  0.9686 -0.2272  3.0468
  372MPD2    H2 5570   4.127   4.323  13.547 -0.5884  1.5643  2.1912
  372MPD2    H3 5571   3.924   4.214  13.608 -0.0522  0.6832 -0.0355
  372MPD2     N 5572   4.141   3.848  13.785  0.3941  0.4723  0.1414
  372MPD2    H5 5573   4.232   3.810  13.809 -0.6061 -1.2364  1.2149
  372MPD2    N1 5574   4.383   4.218  13.599  0.7291  0.3042  0.2124
  372MPD2    H7 5575   4.463   4.157  13.615 -1.0494 -2.5228 -1.7742
  373TMC3    C1 5576   4.088   3.659  13.902  0.5149 -0.3557  0.5019
  373TMC3    C2 5577   4.156   3.704  14.011 -0.1808  0.1951 -0.0641
  373TMC3    C3 5578   4.227   3.611  14.082  0.4443 -0.6736  0.0626
  373TMC3    C4 5579   4.094   3.533  13.850  0.1977  0.2517  0.3263
  373TMC3    C5 5580   4.180   3.450  13.913 -0.1746  0.0387 -0.1780
  373TMC3    C6 5581   4.244   3.486  14.030  0.3657 -0.2712 -0.3102
  373TMC3     C 5582   4.037   3.765  13.813 -0.1879 -0.0777 -1.1658
  373TMC3     O 5583   3.923   3.764  13.769  0.3417 -0.0653  0.4714
  373TMC3     H 5584   4.159   3.809  14.039  0.2246  0.7246 -2.0277
  373TMC3    H1 5585   4.047   3.505  13.756 -0.8043  3.1380 -0.0434
  373TMC3    H2 5586   4.297   3.415  14.092 -0.7172 -0.7325  0.0727
  373TMC3    C7 5587   4.229   3.342  13.836 -0.0390 -1.1751 -0.2691
  373TMC3    C8 5588   4.327   3.667  14.170  0.6574  0.0911 -0.6752
  373TMC3    O1 5589   4.188   3.345  13.724 -0.0391 -0.4276  0.1551
  373TMC3    O2 5590   4.429   3.602  14.177 -0.5211  0.1798  0.1822
  374TMC3    C1 5591   0.270   4.419   9.881 -0.9416 -1.3655  0.0499
  374TMC3    C2 5592   0.342   4.534   9.910 -0.7565 -0.3994 -0.0670
  374TMC3    C3 5593   0.334   4.634   9.820 -0.5894  0.1521  0.1616
  374TMC3    C4 5594   0.182   4.412   9.770  0.1899  0.2893  0.1654
  374TMC3    C5 5595   0.170   4.523   9.700 -0.6898  0.0613 -0.6749
  374TMC3    C6 5596   0.248   4.630   9.714 -0.0583  0.0997  0.0623
  374TMC3     C 5597   0.297   4.302   9.963 -0.4837 -0.0787 -0.4942
  374TMC3     O 5598   0.405   4.283  10.018 -0.1374 -0.6608  0.0574
  374TMC3     H 5599   0.411   4.532   9.994 -0.9841  0.3844  0.1409
  374TMC3    H1 5600   0.121   4.326   9.747  2.0804 -1.6560  2.4120
  374TMC3    H2 5601   0.239   4.719   9.653  0.9352 -0.5934 -1.0943
  374TMC3    C7 5602   0.064   4.527   9.600 -0.2216 -0.2390  0.1490
  374TMC3    C8 5603   0.359   0.041   9.870 -0.4091 -0.5921  0.8948
  374TMC3    O1 5604   4.721   4.432   9.578 -0.0281 -0.2767  0.0401
  374TMC3    O2 5605   0.278   0.127   9.831 -0.0871 -0.1035  0.2071
  375MPD2     C 5606   4.622   0.555  17.258  0.0040  0.1397 -0.2336
  375MPD2    C1 5607   4.660   0.624  17.142 -0.6591 -0.1970 -0.0676
  375MPD2    C2 5608   0.050   0.598  17.086  1.0614 -0.2907  0.0046
  375MPD2    C3 5609   0.141   0.512  17.139 -0.3896  0.1606  0.0767
  375MPD2    C4 5610   0.098   0.435  17.249 -0.2977  0.6834 -0.9725
  375MPD2    C5 5611   4.707   0.456  17.303 -0.4916  0.1364  0.3650
  375MPD2     H 5612   0.079   0.653  16.997 -2.0658  0.2515 -0.7018
  375MPD2    H1 5613   0.157   0.358  17.298  0.4921  1.0139 -1.4028
  375MPD2    H2 5614   4.521   0.560  17.297  0.7430  1.4496  1.5516
  375MPD2    H3 5615   4.674   0.394  17.385  1.2189  0.7444  1.5022
  375MPD2     N 5616   0.257   0.488  17.065 -0.5311 -0.4063 -0.1058
  375MPD2    H5 5617   0.268   0.536  16.977  0.1991  0.2913  0.3652
  375MPD2    N1 5618   4.594   0.738  17.101  0.1885 -0.3148  0.4099
  375MPD2    H7 5619   4.645   0.800  17.039  0.9667 -0.4730  0.8819
  376TMC3    C1 5620   0.446   0.381  16.997 -0.1009  0.4912  0.2001
  376TMC3    C2 5621   0.568   0.325  17.032  0.2266  0.2781  0.0822
  376TMC3    C3 5622   0.659   0.320  16.929 -0.1859 -0.4354 -0.0188
  376TMC3    C4 5623   0.409   0.418  16.871 -0.3414  0.3553 -0.1471
  376TMC3    C5 5624   0.496   0.390  16.775 -0.0479 -0.1827 -0.0182
  376TMC3    C6 5625   0.621   0.341  16.804  0.5254 -0.5093  0.0927
  376TMC3     C 5626   0.352   0.397  17.100  0.7561  0.7186 -0.4307
  376TMC3     O 5627   0.369   0.325  17.197 -0.0502 -0.0106  0.4052
  376TMC3     H 5628   0.598   0.306  17.134  0.8077 -3.7876 -0.8302
  376TMC3    H1 5629   0.312   0.458  16.846  0.0985  0.9987 -0.8395
  376TMC3    H2 5630   0.686   0.318  16.720 -0.0748 -1.5181 -0.1000
  376TMC3    C7 5631   0.496   0.479  16.658  0.3783 -0.9728  0.0788
  376TMC3    C8 5632   0.798   0.286  16.959  0.7842  0.0745 -0.0882
  376TMC3    O1 5633   0.448   0.589  16.683 -0.4380 -0.8607 -0.7258
  376TMC3    O2 5634   0.829   0.247  17.072  0.1274  0.9064 -0.4836
  377MPD2     C 5635   3.008   0.472  12.500  0.0934 -0.2953  0.2598
  377MPD2    C1 5636   3.053   0.359  12.566  0.2271 -0.9216 -0.0890
  377MPD2    C2 5637   2.986   0.318  12.679 -0.2513  0.1700  0.4746
  377MPD2    C3 5638   2.872   0.382  12.722 -0.8531 -0.6503 -0.0077
  377MPD2    C4 5639   2.831   0.486  12.649 -0.1489 -0.8435  0.0005
  377MPD2    C5 5640   2.894   0.532  12.536 -0.7131 -0.4098 -0.5618
  377MPD2     H 5641   3.014   0.221  12.716  0.5158 -0.6160 -2.1287
  377MPD2    H1 5642   2.738   0.541  12.662 -0.0092 -0.4008 -0.8415
  377MPD2    H2 5643   3.056   0.518  12.414 -1.7349 -0.0832 -0.6427
  377MPD2    H3 5644   2.849   0.608  12.471  0.2892  0.7509  0.1102
  377MPD2     N 5645   2.780   0.329  12.816  0.2485 -0.6701 -0.1706
  377MPD2    H5 5646   2.703   0.388  12.845  0.2785 -1.2651  1.1186
  377MPD2    N1 5647   3.167   0.300  12.515  0.4599  0.0653  0.8100
  377MPD2    H7 5648   3.200   0.341  12.428  0.3061 -4.0179 -1.1589
  378TMC3    C1 5649   3.482   0.186  12.307  0.8376 -0.2319 -0.3965
  378TMC3    C2 5650   3.362   0.208  12.376 -0.6655 -0.3762 -0.1765
  378TMC3    C3 5651   3.359   0.169  12.503 -0.1709 -0.0783  0.8793
  378TMC3    C4 5652   3.594   0.138  12.369 -0.3373 -0.2340  0.6133
  378TMC3    C5 5653   3.581   0.098  12.500  0.2036 -0.2586  0.3639
  378TMC3    C6 5654   3.466   0.114  12.569 -0.4153 -0.0601  0.2982
  378TMC3     C 5655   3.481   0.208  12.162 -0.2503  0.2830 -0.5409
  378TMC3     O 5656   3.389   0.277  12.112 -0.2555 -0.0628  0.1081
  378TMC3     H 5657   3.274   0.237  12.320 -1.8685 -2.6275  0.5424
  378TMC3    H1 5658   3.690   0.130  12.321 -0.0845  1.9855  0.7731
  378TMC3    H2 5659   3.460   0.081  12.672  1.3691 -2.8652 -0.5115
  378TMC3    C7 5660   3.700   0.058  12.575  0.3082  0.3529 -0.0661
  378TMC3    C8 5661   3.240   0.198  12.580  0.0272  0.4355  0.4231
  378TMC3    O1 5662   3.682   0.053  12.693 -0.4305  1.0900 -0.0805
  378TMC3    O2 5663   3.223   0.142  12.684 -0.1786  0.4951  0.3581
  379MPD2     C 5664   0.130   2.816  16.167  0.2532  0.3909  0.2870
  379MPD2    C1 5665   0.034   2.718  16.159  0.1437  0.7382  0.5045
  379MPD2    C2 5666   0.010   2.642  16.275 -0.6863  0.1672  0.0334
  379MPD2    C3 5667   0.074   2.678  16.392 -0.3633 -0.0124 -0.0497
  379MPD2    C4 5668   0.169   2.781  16.401  0.0346  0.6212 -0.2062
  379MPD2    C5 5669   0.187   2.852  16.283 -0.1288  0.2300  0.3897
  379MPD2     H 5670   4.668   2.560  16.274  0.0387 -0.4210 -1.8749
  379MPD2    H1 5671   0.227   2.815  16.485 -1.3576 -1.9407  1.8265
  379MPD2    H2 5672   0.141   2.882  16.081 -2.0807  0.5486  0.1023
  379MPD2    H3 5673   0.256   2.936  16.279 -0.6842  0.4645 -3.5061
  379MPD2     N 5674   0.045   2.606  16.514  0.5446 -0.2820  1.0990
  379MPD2    H5 5675   0.114   2.622  16.587  0.6535 -1.0852  1.1778
  379MPD2    N1 5676   4.701   2.699  16.035  0.0801 -0.1002 -0.3036
  379MPD2    H7 5677   0.003   2.749  15.952 -1.1179  2.2589  0.6443
  380TMC3    C1 5678   4.562   2.590  15.859 -0.6008 -0.2071  0.0759
  380TMC3    C2 5679   4.655   2.593  15.751  0.2878 -0.6234 -0.2046
  380TMC3    C3 5680   4.604   2.571  15.625 -0.6273  0.3811 -0.4237
  380TMC3    C4 5681   4.430   2.557  15.837  0.6635  0.7322  0.0344
  380TMC3    C5 5682   4.390   2.529  15.708  0.4771 -0.2822  0.1245
  380TMC3    C6 5683   4.472   2.535  15.607 -0.0985 -0.2372  0.2983
  380TMC3     C 5684   4.606   2.601  16.002 -0.8040 -0.2467  0.0144
  380TMC3     O 5685   4.541   2.530  16.075 -0.0166 -0.6165 -0.2247
  380TMC3     H 5686   0.030   2.616  15.769  0.3907 -0.2940 -1.2130
  380TMC3    H1 5687   4.354   2.559  15.914  0.3851  1.4564 -0.2621
  380TMC3    H2 5688   4.430   2.503  15.512  0.8603 -0.4893 -0.0346
  380TMC3    C7 5689   4.260   2.561  15.682  0.4932 -0.1501  0.0842
  380TMC3    C8 5690   4.679   2.628  15.510 -0.4607 -0.5775 -0.2274
  380TMC3    O1 5691   4.204   2.495  15.595  0.3082  0.4807  0.0275
  380TMC3    O2 5692   4.604   2.655  15.416 -0.1823 -0.1001 -0.7154
  381TMC3    C1 5693   3.718   4.305  16.228 -0.1709  0.4025  0.1648
  381TMC3    C2 5694   3.776   4.421  16.278  0.1084  0.4495 -0.0852
  381TMC3    C3 5695   3.798   4.434  16.411 -0.1642  0.0413  0.0506
  381TMC3    C4 5696   3.693   4.203  16.310 -0.7472 -0.3630  0.6170
  381TMC3    C5 5697   3.734   4.209  16.444  0.3503 -0.6197 -0.4260
  381TMC3    C6 5698   3.789   4.325  16.496  0.4552 -0.2367  0.1120
  381TMC3     C 5699   3.751   4.259  16.098  0.8157  0.5271  0.2233
  381TMC3     O 5700   3.716   4.146  16.070 -0.7802 -0.1454  0.1366
  381TMC3     H 5701   3.773   4.507  16.211 -1.8454  1.3918  1.2125
  381TMC3    H1 5702   3.625   4.124  16.282 -2.2027  0.7444  1.0449
  381TMC3    H2 5703   3.807   4.327  16.602 -0.0963 -2.6653  0.2575
  381TMC3    C7 5704   3.674   4.108  16.521  0.4411 -0.0244 -0.5376
  381TMC3    C8 5705   3.916   4.506  16.420  0.0968 -0.6849  0.4162
  381TMC3    O1 5706   3.631   4.010  16.461  0.0149 -0.4235  0.1059
  381TMC3    O2 5707   3.965   4.546  16.316 -0.0630 -0.5039  0.0889
  382MPD2     C 5708   2.689   1.581  16.866 -0.0129 -0.0930 -0.2084
  382MPD2    C1 5709   2.673   1.594  17.000 -0.0063 -0.7613  0.1660
  382MPD2    C2 5710   2.650   1.481  17.078  0.8297 -0.0072  0.0032
  382MPD2    C3 5711   2.631   1.356  17.025 -0.9031  0.6002  0.1993
  382MPD2    C4 5712   2.633   1.344  16.885  0.2842  0.7017 -0.0077
  382MPD2    C5 5713   2.663   1.455  16.813 -0.0602 -0.4469 -0.4051
  382MPD2     H 5714   2.634   1.492  17.184 -0.7316  0.9019 -0.3309
  382MPD2    H1 5715   2.610   1.251  16.834 -2.1251  2.0563 -1.4203
  382MPD2    H2 5716   2.719   1.662  16.801 -1.6619  1.2432  0.6729
  382MPD2    H3 5717   2.664   1.447  16.705 -0.6629 -1.3215 -0.3472
  382MPD2     N 5718   2.612   1.236  17.103 -0.5679 -0.5570 -0.7438
  382MPD2    H5 5719   2.618   1.147  17.055 -0.9489 -0.4959 -0.9061
  382MPD2    N1 5720   2.684   1.719  17.062 -0.2520 -0.2957  0.0944
  382MPD2    H7 5721   2.670   1.720  17.162 -1.7373  0.2329 -0.1265
  383TMC3    C1 5722   2.578   1.098  17.297  0.9278 -0.7246 -0.6416
  383TMC3    C2 5723   2.560   0.985  17.224  0.7623 -0.1328 -0.3556
  383TMC3    C3 5724   2.488   0.882  17.273 -0.2279  0.2910  0.0692
  383TMC3    C4 5725   2.525   1.101  17.428  0.7167  0.0642 -0.0451
  383TMC3    C5 5726   2.443   0.993  17.467  0.1762 -0.0644 -0.2647
  383TMC3    C6 5727   2.422   0.889  17.392 -0.1498 -0.1897 -0.1046
  383TMC3     C 5728   2.611   1.229  17.242 -0.6785  0.1640 -0.3147
  383TMC3     O 5729   2.642   1.315  17.323 -0.2845  0.0215 -0.6161
  383TMC3     H 5730   2.628   0.966  17.142 -0.1358 -3.2398 -0.3637
  383TMC3    H1 5731   2.521   1.195  17.481 -0.3492 -0.4264  0.7457
  383TMC3    H2 5732   2.344   0.817  17.417 -0.5091  0.7126  1.3644
  383TMC3    C7 5733   2.325   1.019  17.549 -0.4458  0.1665 -0.6458
  383TMC3    C8 5734   2.467   0.758  17.191  0.3312  0.5634 -0.4606
  383TMC3    O1 5735   2.219   0.965  17.523 -0.8450  0.3594 -0.2099
  383TMC3    O2 5736   2.437   0.760  17.070 -0.2156 -0.8819 -0.2301
  384MPD2     C 5737   4.713   2.705  12.052 -0.4334 -0.1914  0.0066
  384MPD2    C1 5738   4.690   2.576  12.087  0.8008 -0.1537  0.8724
  384MPD2    C2 5739   0.056   2.496  12.158 -0.1060 -0.8417  0.2000
  384MPD2    C3 5740   0.166   2.552  12.215  0.1177 -0.3417  0.0458
  384MPD2    C4 5741   0.181   2.689  12.197 -0.3494  0.1352  0.2168
  384MPD2    C5 5742   0.095   2.756  12.111  0.0085 -0.5017  0.0511
  384MPD2     H 5743   0.032   2.394  12.185 -0.5935 -0.1871  2.2116
  384MPD2    H1 5744   0.263   2.739  12.247 -1.0417 -0.9996  2.5313
  384MPD2    H2 5745   4.647   2.775  12.002 -0.2905 -0.6140 -0.7787
  384MPD2    H3 5746   0.106   2.862  12.090 -0.9894 -0.2991  0.5445
  384MPD2     N 5747   0.251   2.477  12.305  0.5300  0.2971  0.2737
  384MPD2    H5 5748   0.309   2.530  12.369  0.5761 -2.1841  2.2711
  384MPD2    N1 5749   4.568   2.517  12.048  0.1941 -0.4455 -0.4332
  384MPD2    H7 5750   4.561   2.418  12.072  1.3549 -0.1646  1.0811
  385TMC3    C1 5751   0.324   2.275  12.412  0.0802  0.0303 -0.2066
  385TMC3    C2 5752   0.372   2.155  12.367 -0.0842 -0.6368 -0.5233
  385TMC3    C3 5753   0.320   2.044  12.413 -0.3665  0.2056 -0.2018
  385TMC3    C4 5754   0.234   2.283  12.512  0.5022  0.0848  0.0290
  385TMC3    C5 5755   0.179   2.161  12.560 -1.1437 -0.3231 -0.3602
  385TMC3    C6 5756   0.231   2.043  12.515  0.3850  0.8316  0.2434
  385TMC3     C 5757   0.267   2.342  12.299 -0.7026  0.3151 -0.0802
  385TMC3     O 5758   0.225   2.262  12.215  0.2994 -0.2150  0.7342
  385TMC3     H 5759   0.428   2.168  12.275  0.9199 -1.3080 -0.0072
  385TMC3    H1 5760   0.184   2.377  12.531 -0.0271 -0.1503 -0.1982
  385TMC3    H2 5761   0.176   1.951  12.534 -0.9870  1.6158  0.1072
  385TMC3    C7 5762   0.036   2.182  12.551 -0.1878  0.2806  0.4493
  385TMC3    C8 5763   0.360   1.914  12.360  0.1433  0.0750 -0.7398
  385TMC3    O1 5764   4.724   2.281  12.494 -0.3501  0.1000  0.0888
  385TMC3    O2 5765   0.331   1.818  12.433 -0.0719 -0.0535  0.4119
  386TMC3    C1 5766   0.118   0.085  11.740  0.5732  1.0297  1.0990
  386TMC3    C2 5767   0.095   0.028  11.616  1.3320 -0.0549  0.1421
  386TMC3    C3 5768   4.700   0.062  11.559 -0.6037  0.3590 -0.6928
  386TMC3    C4 5769   0.031   0.171  11.793  0.0601 -0.5246 -0.1471
  386TMC3    C5 5770   4.638   0.196  11.735  0.3307 -0.2578  0.2549
  386TMC3    C6 5771   4.603   0.141  11.613  0.0394 -0.7421 -0.9421
  386TMC3     C 5772   0.229   0.058  11.829  0.2048  0.4522 -0.1512
  386TMC3     O 5773   0.266   0.140  11.915  0.3176 -0.5826 -0.6424
  386TMC3     H 5774   0.160   4.681  11.576  1.0542  0.5557 -1.4698
  386TMC3    H1 5775   0.043   0.219  11.890  0.5616 -0.0537 -0.4426
  386TMC3    H2 5776   4.513   0.167  11.559 -1.1350 -1.8540  0.5010
  386TMC3    C7 5777   4.541   0.249  11.830 -0.1647 -0.1959 -0.2476
  386TMC3    C8 5778   4.665   4.722  11.438  0.0125 -0.2250 -0.0316
  386TMC3    O1 5779   4.582   0.329  11.915  0.4989  0.1953  0.6872
  386TMC3    O2 5780   4.581   0.046  11.364 -0.1305  0.5972  0.0349
  387MPD2     C 5781   3.147   0.260   9.789  0.7030 -0.4187 -0.1896
  387MPD2    C1 5782   3.186   0.236   9.912 -0.5138  0.7091 -0.5898
  387MPD2    C2 5783   3.172   0.107   9.966  0.1043 -0.4706 -0.5711
  387MPD2    C3 5784   3.114   0.007   9.888 -0.8037  0.7384  0.2054
  387MPD2    C4 5785   3.071   0.037   9.760 -0.0591  0.9562 -0.6001
  387MPD2    C5 5786   3.087   0.164   9.712  0.8150 -0.1551  0.7122
  387MPD2     H 5787   3.198   0.086  10.070 -0.5105 -2.4467 -0.8239
  387MPD2    H1 5788   3.019   4.695   9.697 -1.8716  1.3877  0.4142
  387MPD2    H2 5789   3.173   0.345   9.727 -4.9986  1.5251  0.1198
  387MPD2    H3 5790   3.065   0.185   9.608 -0.3931 -0.9887  0.7976
  387MPD2     N 5791   3.097   4.609   9.949 -0.5733  0.1980  0.2991
  387MPD2    H5 5792   3.131   4.590  10.042  0.5892  0.7446 -0.0185
  387MPD2    N1 5793   3.257   0.320   9.993  0.3574  0.1407  0.0231
  387MPD2    H7 5794   3.291   0.291  10.085 -0.3352  1.9710  0.8636
  388TMC3    C1 5795   3.292   0.506  10.112  0.0268  0.5972 -0.1944
  388TMC3    C2 5796   3.195   0.569  10.183 -0.0674 -0.3716 -0.0432
  388TMC3    C3 5797   3.194   0.556  10.319  0.0809 -0.3671  0.1967
  388TMC3    C4 5798   3.390   0.441  10.174  0.0407  0.6272 -0.3339
  388TMC3    C5 5799   3.383   0.425  10.311 -0.4226 -0.0137 -0.1122
  388TMC3    C6 5800   3.293   0.492  10.384  0.2438  0.1128 -0.1101
  388TMC3     C 5801   3.248   0.456   9.981  0.2771  0.7862 -0.4426
  388TMC3     O 5802   3.197   0.530   9.896  0.2222 -0.1975  0.0742
  388TMC3     H 5803   3.105   0.591  10.127 -1.5816 -0.0638  2.5323
  388TMC3    H1 5804   3.480   0.408  10.124  0.2185 -0.0735  0.4506
  388TMC3    H2 5805   3.296   0.502  10.492 -0.9458  1.7046 -0.2261
  388TMC3    C7 5806   3.365   0.282  10.333 -0.4027  0.8723 -0.6040
  388TMC3    C8 5807   3.075   0.591  10.382  0.3887 -0.5694 -0.0723
  388TMC3    O1 5808   3.371   0.219  10.231  0.3147  0.2461 -0.0704
  388TMC3    O2 5809   3.056   0.514  10.474 -0.4200 -0.0461  0.5951
  389MPD2     C 5810   2.509   3.521  10.897  1.0648  0.4164 -0.2097
  389MPD2    C1 5811   2.398   3.463  10.837 -0.4759 -0.1647  0.3621
  389MPD2    C2 5812   2.297   3.403  10.909  0.0942  0.6375  0.1936
  389MPD2    C3 5813   2.326   3.375  11.043 -0.1883 -0.2831 -0.2124
  389MPD2    C4 5814   2.438   3.415  11.095 -0.3722  0.6593 -0.9383
  389MPD2    C5 5815   2.527   3.487  11.025  0.3131 -0.8309  1.0346
  389MPD2     H 5816   2.209   3.355  10.869 -0.0931  1.0308  0.1307
  389MPD2    H1 5817   2.471   3.398  11.197  3.4279 -0.2755 -2.3205
  389MPD2    H2 5818   2.581   3.579  10.839  1.5831 -1.4482 -1.4474
  389MPD2    H3 5819   2.615   3.529  11.073 -0.0768  1.6888 -0.4813
  389MPD2     N 5820   2.234   3.316  11.134  0.0207  0.0291 -0.7886
  389MPD2    H5 5821   2.273   3.296  11.226 -1.2286 -1.2859 -0.5403
  389MPD2    N1 5822   2.393   3.473  10.695  0.2138 -0.3687  0.6231
  389MPD2    H7 5823   2.469   3.529  10.658 -0.9013  1.1788  0.6718
  390TMC3    C1 5824   2.041   3.255  11.235  0.2770 -0.0383 -0.2759
  390TMC3    C2 5825   2.055   3.119  11.265  0.0197  0.2979 -0.1916
  390TMC3    C3 5826   2.001   3.068  11.385  1.5905  0.9319  0.6991
  390TMC3    C4 5827   1.970   3.334  11.322 -0.2624  0.3382  0.0474
  390TMC3    C5 5828   1.895   3.269  11.419  0.7533 -0.5114 -0.8005
  390TMC3    C6 5829   1.908   3.138  11.451  0.4725  0.2129 -0.7342
  390TMC3     C 5830   2.098   3.306  11.116 -0.8260 -0.5542 -1.1322
  390TMC3     O 5831   2.028   3.340  11.022 -0.0828  0.0897 -0.4441
  390TMC3     H 5832   2.117   3.052  11.207  1.1597  1.0969  0.0959
  390TMC3    H1 5833   1.948   3.438  11.299 -2.6126 -0.1495  0.0421
  390TMC3    H2 5834   1.845   3.102  11.532 -1.1103 -0.8142 -2.4493
  390TMC3    C7 5835   1.770   3.333  11.450 -1.0509  0.2394  0.2198
  390TMC3    C8 5836   1.981   2.925  11.401  0.0759 -0.0334 -0.3396
  390TMC3    O1 5837   1.765   3.456  11.456  1.3379 -0.3398 -0.5650
  390TMC3    O2 5838   1.975   2.856  11.298  0.0055  0.5235 -0.2408
  391MPD2     C 5839   0.802   0.078  11.313  1.1994  0.2534  0.1009
  391MPD2    C1 5840   0.924   0.136  11.289 -0.5922 -1.0424 -0.1176
  391MPD2    C2 5841   0.967   0.151  11.159 -0.2389  0.3561  0.0494
  391MPD2    C3 5842   0.884   0.121  11.052  0.2991 -1.1769  0.2094
  391MPD2    C4 5843   0.758   0.074  11.083 -1.2079 -0.5710 -0.1025
  391MPD2    C5 5844   0.716   0.046  11.209 -0.9030  0.2048 -0.0867
  391MPD2     H 5845   1.066   0.187  11.136  0.0623 -0.5867 -0.1178
  391MPD2    H1 5846   0.686   0.052  11.005 -0.1104 -2.3929 -0.5926
  391MPD2    H2 5847   0.770   0.073  11.416 -0.9909  0.2941 -0.5806
  391MPD2    H3 5848   0.612   0.020  11.226 -0.4506 -2.5402 -1.5583
  391MPD2     N 5849   0.935   0.121  10.921 -0.3659 -0.3768  0.3431
  391MPD2    H5 5850   1.030   0.156  10.913 -0.9222  0.7521 -1.5243
  391MPD2    N1 5851   1.009   0.161  11.397 -0.1697 -0.5723 -0.2201
  391MPD2    H7 5852   0.967   0.140  11.486 -0.4047 -0.3883 -0.2876
  392TMC3    C1 5853   0.917   0.127  10.684 -0.1901  0.8366  0.0045
  392TMC3    C2 5854   0.849   0.093  10.573  0.2278  0.7995 -0.1360
  392TMC3    C3 5855   0.893   0.147  10.453 -0.3382  0.5962 -0.6684
  392TMC3    C4 5856   1.014   0.226  10.689 -0.5843  0.4786 -0.0552
  392TMC3    C5 5857   1.056   0.268  10.565 -0.5453 -1.0351 -0.5023
  392TMC3    C6 5858   1.003   0.233  10.450  0.0792  0.1991  0.9076
  392TMC3     C 5859   0.875   0.065  10.811 -0.2597  0.7067  0.3463
  392TMC3     O 5860   0.783   4.712  10.809  0.4067 -1.0343 -0.0589
  392TMC3     H 5861   0.766   0.024  10.580  1.0662 -0.2120 -0.2512
  392TMC3    H1 5862   1.054   0.271  10.779  0.7783  0.5453 -0.7007
  392TMC3    H2 5863   1.042   0.272  10.356 -1.1913  0.2496  0.3996
  392TMC3    C7 5864   1.161   0.364  10.568  0.1396 -0.6675 -0.5916
  392TMC3    C8 5865   0.802   0.132  10.341  0.6123  0.3206 -0.3492
  392TMC3    O1 5866   1.243   0.357  10.663 -0.9129 -0.7279  0.0731
  392TMC3    O2 5867   0.726   0.042  10.351 -0.3240  0.6933 -0.0288
  393TMC3    C1 5868   0.593   2.954  11.055  0.0596 -0.1919  0.4269
  393TMC3    C2 5869   0.488   2.903  11.122 -0.5016  0.5877  0.3328
  393TMC3    C3 5870   0.523   2.793  11.209 -0.0001 -0.0915 -0.0823
  393TMC3    C4 5871   0.719   2.899  11.044 -0.0553  0.2278  0.2767
  393TMC3    C5 5872   0.748   2.805  11.135 -0.2864 -0.1340  0.1144
  393TMC3    C6 5873   0.654   2.745  11.220  0.1834  0.3390 -0.2275
  393TMC3     C 5874   0.559   3.032  10.937 -0.5559  0.5945  0.8111
  393TMC3     O 5875   0.442   3.032  10.900 -0.1126 -0.0946  0.2168
  393TMC3     H 5876   0.387   2.937  11.105 -0.4804  0.4125 -0.1339
  393TMC3    H1 5877   0.802   2.939  10.988 -0.2346 -1.6418 -1.3230
  393TMC3    H2 5878   0.683   2.654  11.271  0.8598  0.0736 -1.1047
  393TMC3    C7 5879   0.861   2.721  11.105 -0.9606  0.8985 -0.0712
  393TMC3    C8 5880   0.415   2.717  11.254 -1.4623 -0.2892 -0.2163
  393TMC3    O1 5881   0.914   2.665  11.202  0.0742 -0.1820 -0.0715
  393TMC3    O2 5882   0.302   2.758  11.219 -0.9145  0.2933 -0.2431
  394TMC3    C1 5883   2.310   3.498  10.479 -0.3148  0.3202  0.7160
  394TMC3    C2 5884   2.262   3.433  10.365  0.7300 -0.4007 -0.6521
  394TMC3    C3 5885   2.285   3.503  10.254  0.5585  0.0558  0.1569
  394TMC3    C4 5886   2.392   3.606  10.472 -0.3431  0.3616 -0.0766
  394TMC3    C5 5887   2.412   3.667  10.351 -0.0262  0.0801  0.3009
  394TMC3    C6 5888   2.362   3.619  10.243 -0.6552  0.3341 -0.8847
  394TMC3     C 5889   2.291   3.430  10.609 -0.0065  0.4646  0.9108
  394TMC3     O 5890   2.207   3.344  10.627 -0.0602  0.0588  0.3029
  394TMC3     H 5891   2.204   3.343  10.373  0.1848  0.2223  2.1873
  394TMC3    H1 5892   2.412   3.667  10.560  0.0553 -0.0438  0.1167
  394TMC3    H2 5893   2.365   3.678  10.152  1.5045 -2.4864 -2.6617
  394TMC3    C7 5894   2.499   3.784  10.341 -0.1190  0.5886  0.2288
  394TMC3    C8 5895   2.257   3.444  10.124 -0.3279  0.5114  0.4986
  394TMC3    O1 5896   2.470   3.868  10.257 -0.0941  0.1039  0.2260
  394TMC3    O2 5897   2.259   3.512  10.025  0.0659 -0.9725 -0.0549
  395TMC3    C1 5898   1.647   4.674  14.606 -0.6423 -0.4270  0.1775
  395TMC3    C2 5899   1.545   4.701  14.522  0.1163 -0.4201 -0.2158
  395TMC3    C3 5900   1.515   0.105  14.506  0.0687 -0.1676  0.4778
  395TMC3    C4 5901   1.729   0.043  14.656  0.0839  0.0398  0.9618
  395TMC3    C5 5902   1.709   0.168  14.613 -0.4144 -0.0343 -0.7410
  395TMC3    C6 5903   1.593   0.203  14.544  0.2925  0.0898 -0.1526
  395TMC3     C 5904   1.612   4.598  14.721  0.7137 -1.1301  0.1474
  395TMC3     O 5905   1.640   4.643  14.825 -0.5410 -0.2964  0.7910
  395TMC3     H 5906   1.486   4.620  14.480 -0.9222  0.1290  0.1982
  395TMC3    H1 5907   1.824   0.021  14.702  0.7335 -0.0171 -0.3956
  395TMC3    H2 5908   1.572   0.308  14.523  4.7172  1.0456  0.0465
  395TMC3    C7 5909   1.808   0.268  14.640  0.0413  0.0921  1.2234
  395TMC3    C8 5910   1.375   0.140  14.496 -0.4758  1.1008  0.4153
  395TMC3    O1 5911   1.871   0.236  14.739 -0.3591  0.0709 -0.3484
  395TMC3    O2 5912   1.350   0.261  14.497 -0.0708  0.0707 -0.0218
  396MPD2     C 5913   1.029   1.289  17.405  0.7622 -0.3456 -0.4977
  396MPD2    C1 5914   1.135   1.224  17.347 -0.4774 -0.1901 -0.1796
  396MPD2    C2 5915   1.207   1.282  17.241 -0.0386  0.4521 -0.2290
  396MPD2    C3 5916   1.186   1.413  17.210 -0.5464  0.7301 -1.0096
  396MPD2    C4 5917   1.101   1.483  17.288  1.1955  1.0643  0.6404
  396MPD2    C5 5918   1.016   1.418  17.371  0.0161  0.4578  0.6736
  396MPD2     H 5919   1.273   1.218  17.183 -3.0089  1.6222 -4.8401
  396MPD2    H1 5920   1.078   1.587  17.268  0.8941  0.9001  0.0995
  396MPD2    H2 5921   0.956   1.237  17.465  2.7440 -0.3269  1.9324
  396MPD2    H3 5922   0.932   1.468  17.418  0.7829  0.9507  1.5239
  396MPD2     N 5923   1.252   1.472  17.093  0.5495  0.6414  0.7196
  396MPD2    H5 5924   1.322   1.417  17.045 -1.4791 -0.2152 -1.2209
  396MPD2    N1 5925   1.151   1.084  17.370  0.1649 -0.3616  0.1731
  396MPD2    H7 5926   1.096   1.038  17.443  0.6582 -3.4268 -1.3779
  397TMC3    C1 5927   1.221   0.857  17.346  1.2831 -0.2028 -0.2922
  397TMC3    C2 5928   1.305   0.775  17.273 -0.2387 -0.1592  1.0205
  397TMC3    C3 5929   1.259   0.679  17.184  0.3474 -0.7205 -0.0263
  397TMC3    C4 5930   1.094   0.819  17.351  0.1378  0.0569  0.4157
  397TMC3    C5 5931   1.042   0.718  17.278  0.8122  0.2858  0.5855
  397TMC3    C6 5932   1.127   0.656  17.183  0.0774  0.0039  0.7888
  397TMC3     C 5933   1.247   1.002  17.326 -0.6004 -0.1629 -0.8129
  397TMC3     O 5934   1.350   1.028  17.261 -0.2074 -0.2048 -0.2077
  397TMC3     H 5935   1.406   0.811  17.260 -0.3700 -1.0285 -2.4101
  397TMC3    H1 5936   1.022   0.885  17.398 -0.1260 -0.5183  0.8194
  397TMC3    H2 5937   1.074   0.584  17.122  0.4798 -0.7599  1.3504
  397TMC3    C7 5938   0.902   0.683  17.269 -0.4740 -0.1421 -0.5848
  397TMC3    C8 5939   1.320   0.667  17.052 -0.7002  0.1596  0.1882
  397TMC3    O1 5940   0.855   0.692  17.157  0.9500 -0.0452 -0.5476
  397TMC3    O2 5941   1.249   0.623  16.965  0.7902  0.1153  0.0130
  398MPD2     C 5942   3.893   1.973   0.026  0.3149 -0.7495  0.2441
  398MPD2    C1 5943   4.020   1.931   0.054 -0.5375 -0.3090 -0.1219
  398MPD2    C2 5944   4.126   2.008   0.037 -0.0511  0.0925 -0.3022
  398MPD2    C3 5945   4.110   2.139   0.011 -0.6098  0.3589  0.3622
  398MPD2    C4 5946   3.981   2.191  17.708 -0.1408 -0.1844 -0.6725
  398MPD2    C5 5947   3.875   2.107  17.715  0.1196 -0.1819 -0.6894
  398MPD2     H 5948   4.226   1.980   0.067 -0.1449 -0.1498 -0.2159
  398MPD2    H1 5949   3.973   2.297  17.688  0.2631 -0.2575 -1.2197
  398MPD2    H2 5950   3.802   1.913   0.027 -0.3587  0.2655 -0.0331
  398MPD2    H3 5951   3.773   2.138  17.697  0.9055  2.4599 -0.5897
  398MPD2     N 5952   4.233   2.206   0.011 -1.0807 -0.0450 -0.1666
  398MPD2    H5 5953   4.319   2.155   0.029 -1.6048 -0.5816  0.8293
  398MPD2    N1 5954   4.045   1.798   0.093 -0.1285  0.6523 -0.3618
  398MPD2    H7 5955   4.143   1.774   0.095 -0.4734 -0.5665  1.5967
  399TMC3    C1 5956   4.034   1.583   0.197  1.1042  0.4685  0.6232
  399TMC3    C2 5957   4.171   1.567   0.175 -0.2927  0.6064 -0.0388
  399TMC3    C3 5958   4.228   1.445   0.203  0.0057  0.5074 -0.0147
  399TMC3    C4 5959   3.959   1.488   0.250 -0.5283  0.2683 -0.3457
  399TMC3    C5 5960   4.017   1.363   0.267 -0.2489 -0.9882  0.4694
  399TMC3    C6 5961   4.155   1.340   0.238 -0.1579  0.1608  0.2645
  399TMC3     C 5962   3.964   1.709   0.160 -0.8015 -0.8465  0.4929
  399TMC3     O 5963   3.848   1.733   0.194 -0.3169 -0.3361  0.8324
  399TMC3     H 5964   4.231   1.652   0.145  1.7096  0.6856  4.2255
  399TMC3    H1 5965   3.853   1.500   0.271 -0.5600  0.3571 -0.5623
  399TMC3    H2 5966   4.188   1.237   0.227 -1.0959 -0.0015 -0.9781
  399TMC3    C7 5967   3.928   1.253   0.308 -0.2828 -0.3243  0.1608
  399TMC3    C8 5968   4.359   1.423   0.143 -0.2883 -0.5973  0.0766
  399TMC3    O1 5969   3.807   1.268   0.289 -0.4744  0.1788  0.8090
  399TMC3    O2 5970   4.408   1.508   0.071 -0.2188 -0.0420 -0.7171
  400TMC3    C1 5971   2.477   0.423  16.877  0.0602 -0.4536 -0.2699
  400TMC3    C2 5972   2.397   0.324  16.823 -0.1473 -0.0483  0.4927
  400TMC3    C3 5973   2.293   0.359  16.736 -0.3341 -0.6000  0.2105
  400TMC3    C4 5974   2.462   0.552  16.841  0.2448 -0.3026  0.1916
  400TMC3    C5 5975   2.361   0.583  16.752 -0.3200 -0.0574  0.3306
  400TMC3    C6 5976   2.279   0.489  16.702 -0.0614  0.2579  0.9994
  400TMC3     C 5977   2.593   0.380  16.956 -0.0111 -0.2485 -0.0733
  400TMC3     O 5978   2.617   0.264  16.963  0.2551  0.2333  0.3444
  400TMC3     H 5979   2.435   0.222  16.821 -4.5087 -1.6413 -1.7658
  400TMC3    H1 5980   2.521   0.630  16.888  0.0450  1.4750 -2.5520
  400TMC3    H2 5981   2.196   0.509  16.635  1.0921 -1.6020 -1.0003
  400TMC3    C7 5982   2.309   0.721  16.726 -0.3641 -0.0865  0.3554
  400TMC3    C8 5983   2.195   0.262  16.700  0.5546 -0.2721 -0.0809
  400TMC3    O1 5984   2.232   0.741  16.637 -0.2270  0.2891  0.3568
  400TMC3    O2 5985   2.134   0.285  16.595 -0.3872 -0.3985 -0.7363
  401MPD2     C 5986   0.692   3.605  17.561 -0.5160 -0.0860  0.1956
  401MPD2    C1 5987   0.691   3.575  17.697  0.6679 -0.1146  0.4454
  401MPD2    C2 5988   0.615   3.467   0.021 -0.6150 -0.2866 -0.5152
  401MPD2    C3 5989   0.555   3.381  17.644  0.2616  0.6605  0.6394
  401MPD2    C4 5990   0.553   3.410  17.507  0.7415  0.2254 -0.5777
  401MPD2    C5 5991   0.630   3.520  17.467  1.5463 -0.4386 -0.2129
  401MPD2     H 5992   0.602   3.458   0.128 -0.2271  0.5951 -0.3982
  401MPD2    H1 5993   0.519   3.347  17.426 -0.3690  2.0094 -1.4940
  401MPD2    H2 5994   0.747   3.691  17.524 -2.4238 -0.0867 -2.6149
  401MPD2    H3 5995   0.642   3.533  17.360 -0.4228  0.8999 -0.2678
  401MPD2     N 5996   0.506   3.257  17.693 -0.2057 -0.2263 -0.2606
  401MPD2    H5 5997   0.509   3.234   0.076 -0.8907  0.4548 -0.0841
  401MPD2    N1 5998   0.742   3.656   0.081 -0.1575 -0.0386  0.8882
  401MPD2    H7 5999   0.755   3.614   0.172  1.4302 -0.4800  0.4622
  402TMC3    C1 6000   0.390   3.062  17.698  0.6320 -0.9557 -0.3631
  402TMC3    C2 6001   0.326   3.122   0.083 -0.4820 -0.0489 -1.1095
  402TMC3    C3 6002   0.310   3.056   0.201 -0.6570 -0.4297 -0.1336
  402TMC3    C4 6003   0.466   2.948   0.012  0.3870  0.5538 -0.3279
  402TMC3    C5 6004   0.436   2.882   0.125  0.0445 -0.2391 -0.9996
  402TMC3    C6 6005   0.354   2.931   0.221  0.2558  0.0582 -0.0112
  402TMC3     C 6006   0.461   3.154  17.610  0.2162 -0.6536  0.3885
  402TMC3     O 6007   0.487   3.117  17.498  0.0445 -0.5002  0.0989
  402TMC3     H 6008   0.266   3.209   0.058 -0.6057  0.0316 -0.5295
  402TMC3    H1 6009   0.514   2.900  17.645  0.3591 -1.2064  0.6813
  402TMC3    H2 6010   0.354   2.888   0.320 -0.2664  0.2886  0.0907
  402TMC3    C7 6011   0.541   2.790   0.173 -0.8393 -0.5450 -0.4481
  402TMC3    C8 6012   0.379   3.142   0.296 -0.2465  0.6152 -0.9393
  402TMC3    O1 6013   0.508   2.724   0.268 -0.5144  0.3577 -0.4127
  402TMC3    O2 6014   0.446   3.086   0.382 -0.0280  0.7176  0.6854
  403MPD2     C 6015   4.466   2.256  13.432  0.2884  0.4020  0.6172
  403MPD2    C1 6016   4.377   2.295  13.536 -0.5117  0.0271  0.7693
  403MPD2    C2 6017   4.439   2.313  13.656  0.9019  0.7928 -0.3219
  403MPD2    C3 6018   4.581   2.290  13.672 -0.0186 -0.1839  0.4152
  403MPD2    C4 6019   4.662   2.249  13.560 -0.0176 -0.0901 -0.3541
  403MPD2    C5 6020   4.598   2.232  13.444 -0.4459  1.1165  0.3051
  403MPD2     H 6021   4.389   2.335  13.750 -0.2566  1.1755 -1.0305
  403MPD2    H1 6022   0.032   2.211  13.581 -1.2115 -1.6376  2.6215
  403MPD2    H2 6023   4.426   2.227  13.336  2.2501  0.5790 -0.2577
  403MPD2    H3 6024   4.653   2.202  13.355 -1.2344 -2.4496  1.0447
  403MPD2     N 6025   4.640   2.290  13.799 -0.3439  0.0358 -0.7267
  403MPD2    H5 6026   0.010   2.265  13.802  0.4899  3.3579  0.3113
  403MPD2    N1 6027   4.238   2.288  13.513 -0.2257 -0.0288  0.2145
  403MPD2    H7 6028   4.207   2.279  13.416 -2.4541 -0.1287  0.9308
  404TMC3    C1 6029   4.016   2.263  13.561 -0.1190 -0.1861  0.1335
  404TMC3    C2 6030   3.923   2.246  13.666  0.1642  0.3303 -0.1097
  404TMC3    C3 6031   3.825   2.151  13.637 -0.0107 -0.5146 -0.1213
  404TMC3    C4 6032   4.006   2.200  13.447  0.4963  0.1362  0.8157
  404TMC3    C5 6033   3.906   2.110  13.424  0.7008  0.3200  0.0630
  404TMC3    C6 6034   3.811   2.092  13.517  0.0472 -0.6281 -0.2364
  404TMC3     C 6035   4.141   2.293  13.607  0.6309 -0.3056  0.0455
  404TMC3     O 6036   4.152   2.314  13.725 -0.9961  0.1428  0.2554
  404TMC3     H 6037   3.938   2.293  13.762  0.4188  1.1094 -0.5351
  404TMC3    H1 6038   4.074   2.216  13.364 -0.7881 -0.8191 -0.4183
  404TMC3    H2 6039   3.739   2.013  13.500  3.1451 -3.2668 -1.0137
  404TMC3    C7 6040   3.937   2.009  13.327  0.2689  0.7056 -0.4976
  404TMC3    C8 6041   3.804   2.055  13.740 -0.5372 -0.9000  0.0425
  404TMC3    O1 6042   4.057   2.000  13.303 -0.0369  1.0310 -0.7779
  404TMC3    O2 6043   3.817   1.935  13.720 -0.1016 -0.7845  0.1134
  405MPD2     C 6044   4.677   3.762  14.969  0.1888 -0.2570  0.1724
  405MPD2    C1 6045   0.004   3.693  14.869 -0.0664  0.6755  0.4770
  405MPD2    C2 6046   4.653   3.665  14.757  0.2648  0.2642 -0.2789
  405MPD2    C3 6047   4.519   3.698  14.759 -0.7628  0.1954 -0.8717
  405MPD2    C4 6048   4.465   3.779  14.854  0.1945  0.2403 -0.2100
  405MPD2    C5 6049   4.544   3.809  14.963 -0.4152  0.0435 -0.1436
  405MPD2     H 6050   4.691   3.609  14.672  0.9748 -0.8206  0.7402
  405MPD2    H1 6051   4.361   3.811  14.846 -0.6766 -2.5347  0.0767
  405MPD2    H2 6052   0.009   3.795  15.052 -0.1997  1.7650 -0.3197
  405MPD2    H3 6053   4.514   3.882  15.036  1.0215  0.5035 -0.0078
  405MPD2     N 6054   4.451   3.656  14.648 -0.3856  0.6827 -0.7767
  405MPD2    H5 6055   4.494   3.602  14.574 -0.5301  1.6814 -1.5826
  405MPD2    N1 6056   0.137   3.648  14.858 -0.9678  0.5405  0.4544
  405MPD2    H7 6057   0.155   3.592  14.775 -0.5180 -0.7820  1.4564
  406TMC3    C1 6058   4.128   3.487  14.371  0.2447  0.8348  0.1225
  406TMC3    C2 6059   4.186   3.365  14.381  0.0907 -0.5730 -0.5112
  406TMC3    C3 6060   4.280   3.344  14.476  0.1644 -0.1241 -0.7121
  406TMC3    C4 6061   4.157   3.586  14.466 -0.4863 -0.1367 -0.4076
  406TMC3    C5 6062   4.264   3.565  14.548 -0.0499 -0.1416 -0.6848
  406TMC3    C6 6063   4.329   3.445  14.553  0.1334  0.1443  0.3162
  406TMC3     C 6064   3.992   3.484  14.318 -0.2147 -0.3586 -0.0963
  406TMC3     O 6065   3.940   3.582  14.268 -0.1247 -0.1039 -0.0282
  406TMC3     H 6066   4.171   3.285  14.308 -3.2789  2.0136 -2.6248
  406TMC3    H1 6067   4.107   3.683  14.465 -1.3402 -0.5707  1.9111
  406TMC3    H2 6068   4.385   3.429  14.644 -2.2548 -1.9150  1.4118
  406TMC3    C7 6069   4.315   3.673  14.628 -0.0175 -0.0799 -0.0280
  406TMC3    C8 6070   4.357   3.220  14.481 -1.0022 -0.0020  0.2386
  406TMC3    O1 6071   4.234   3.748  14.678 -0.0518 -0.2372 -0.3772
  406TMC3    O2 6072   4.308   3.116  14.437 -0.3056 -0.1266  0.9123
  407MPD2     C 6073   2.459   4.396   9.694 -0.0296  1.1177  0.2082
  407MPD2    C1 6074   2.540   4.356   9.798  0.0869  0.0632  0.3375
  407MPD2    C2 6075   2.558   4.447   9.904 -0.9090 -0.3675  0.0824
  407MPD2    C3 6076   2.472   4.559   9.913  0.0134  0.0987  0.1829
  407MPD2    C4 6077   2.372   4.577   9.818  0.7766 -0.0198 -0.4409
  407MPD2    C5 6078   2.374   4.501   9.709  1.0350 -0.2023 -0.9899
  407MPD2     H 6079   2.641   4.433   9.972  0.4481 -2.5890 -2.0500
  407MPD2    H1 6080   2.299   4.657   9.828  1.9370  1.0815 -0.7017
  407MPD2    H2 6081   2.452   4.348   9.597  0.2858  0.7689  0.3556
  407MPD2    H3 6082   2.303   4.521   9.630  1.0011 -0.1016 -0.9326
  407MPD2     N 6083   2.479   4.652  10.016  0.0753 -0.0185 -0.8241
  407MPD2    H5 6084   2.422   0.007  10.012 -1.3955 -1.0903 -1.9721
  407MPD2    N1 6085   2.612   4.237   9.800 -0.4523 -0.7338 -0.1097
  407MPD2    H7 6086   2.673   4.213   9.877  0.1357 -0.3477 -0.4571
  408TMC3    C1 6087   2.699   4.039   9.710 -0.7299  0.0112 -0.4545
  408TMC3    C2 6088   2.826   4.067   9.750 -0.0960  0.3655 -0.8146
  408TMC3    C3 6089   2.904   3.960   9.761 -0.4739  0.2073  1.0220
  408TMC3    C4 6090   2.659   3.913   9.671  0.4812  0.5402  0.6137
  408TMC3    C5 6091   2.747   3.806   9.689  0.1465  0.1707  0.0543
  408TMC3    C6 6092   2.873   3.830   9.741 -0.4084  0.0888  0.1815
  408TMC3     C 6093   2.604   4.144   9.697 -0.4887 -0.4310 -0.0787
  408TMC3     O 6094   2.520   4.129   9.606 -0.1240  0.3785  0.6380
  408TMC3     H 6095   2.851   4.168   9.782 -0.2552 -0.0184  0.5465
  408TMC3    H1 6096   2.558   3.881   9.650  0.5562  0.1704  0.8058
  408TMC3    H2 6097   2.947   3.752   9.756 -0.7116  0.0023  1.2249
  408TMC3    C7 6098   2.709   3.671   9.691  0.0004  0.5531 -0.0145
  408TMC3    C8 6099   3.040   3.977   9.797 -0.2273 -0.2696 -0.0593
  408TMC3    O1 6100   2.768   3.592   9.759 -0.0905  0.5976 -0.6361
  408TMC3    O2 6101   3.113   3.881   9.832  0.5850  0.0385  0.8226
  409MPD2     C 6102   1.411   4.507  16.924 -0.4431  0.2081 -0.3656
  409MPD2    C1 6103   1.451   4.582  17.031  0.1983  0.2008 -0.4470
  409MPD2    C2 6104   1.525   4.697  17.012 -0.9832  0.3987  0.2541
  409MPD2    C3 6105   1.563   0.007  16.883 -0.4072  0.4893 -0.4188
  409MPD2    C4 6106   1.516   4.659  16.778 -0.0631  0.0041 -0.7993
  409MPD2    C5 6107   1.450   4.539  16.795  0.3910  0.5646  0.1460
  409MPD2     H 6108   1.561   0.024  17.098 -0.1545 -0.7646  0.6591
  409MPD2    H1 6109   1.540   4.691  16.677 -1.4741 -0.5916 -1.3387
  409MPD2    H2 6110   1.365   4.410  16.933 -1.5987  0.7685 -0.2134
  409MPD2    H3 6111   1.416   4.473  16.717  1.4969  0.7399 -0.4903
  409MPD2     N 6112   1.645   0.118  16.847 -0.0072  0.1215 -0.1104
  409MPD2    H5 6113   1.664   0.140  16.749 -1.6837  0.5040 -0.3397
  409MPD2    N1 6114   1.425   4.548  17.159 -0.1649  0.0276 -0.0562
  409MPD2    H7 6115   1.458   4.614  17.229  0.1063 -0.4506  0.2732
  410TMC3    C1 6116   1.785   0.310  16.884  0.1612 -0.4892 -0.3203
  410TMC3    C2 6117   1.888   0.360  16.956  0.5898  0.3269  0.0629
  410TMC3    C3 6118   1.946   0.474  16.909  0.1521 -0.0372  0.5801
  410TMC3    C4 6119   1.735   0.376  16.765  0.3535  0.2891 -0.4286
  410TMC3    C5 6120   1.803   0.492  16.726 -0.1287 -0.2732 -0.3995
  410TMC3    C6 6121   1.910   0.540  16.800  0.1982  0.3321  0.1038
  410TMC3     C 6122   1.717   0.193  16.940 -0.8433 -0.4465 -0.3824
  410TMC3     O 6123   1.730   0.186  17.061  0.2298  0.5184  0.1432
  410TMC3     H 6124   1.933   0.307  17.040  3.2567  2.3286 -0.0888
  410TMC3    H1 6125   1.649   0.347  16.706 -0.1109 -0.8532  0.8222
  410TMC3    H2 6126   1.957   0.632  16.769  2.3552 -0.5274  0.8737
  410TMC3    C7 6127   1.743   0.566  16.609  0.1466  0.6747 -0.6112
  410TMC3    C8 6128   2.062   0.519  16.976  0.1249 -0.5427  0.0271
  410TMC3    O1 6129   1.655   0.507  16.549  0.3954 -0.0127  0.6613
  410TMC3    O2 6130   2.082   0.637  16.984 -0.3736  0.2225  0.8287
  411MPD2     C 6131   2.242   0.852  14.726  0.0559 -0.0658  0.6179
  411MPD2    C1 6132   2.170   0.921  14.632 -0.5637 -0.1645  0.1943
  411MPD2    C2 6133   2.162   0.866  14.502  0.1584 -0.0500 -0.9729
  411MPD2    C3 6134   2.193   0.730  14.493  0.2849 -0.3333  0.3927
  411MPD2    C4 6135   2.266   0.663  14.586 -0.1042 -0.0760 -0.6363
  411MPD2    C5 6136   2.289   0.726  14.703 -0.1319  0.0225  0.4694
  411MPD2     H 6137   2.105   0.915  14.424  0.4954  0.5941 -0.8097
  411MPD2    H1 6138   2.297   0.559  14.582 -0.0640 -0.0829 -0.1820
  411MPD2    H2 6139   2.259   0.905  14.819 -1.2958  0.9697  0.2946
  411MPD2    H3 6140   2.348   0.676  14.779  0.3707 -1.1235 -0.6769
  411MPD2     N 6141   2.152   0.651  14.388  0.2109  0.2339 -0.0262
  411MPD2    H5 6142   2.158   0.550  14.381  1.7635  0.2559  1.0586
  411MPD2    N1 6143   2.131   1.053  14.663  0.1509 -0.1459  0.3423
  411MPD2    H7 6144   2.158   1.095  14.752  3.4452  0.1575 -0.8045
  412TMC3    C1 6145   2.037   0.602  14.188  0.0997 -0.4522  0.1830
  412TMC3    C2 6146   1.953   0.506  14.240  0.0151 -0.1910  0.0524
  412TMC3    C3 6147   1.842   0.460  14.173 -0.1258 -0.0315 -0.1237
  412TMC3    C4 6148   2.029   0.631  14.055 -0.5129 -0.2078  0.4337
  412TMC3    C5 6149   1.923   0.585  13.987 -0.1136  1.2246 -0.5566
  412TMC3    C6 6150   1.834   0.493  14.044 -0.2572  0.3407  0.8903
  412TMC3     C 6151   2.092   0.705  14.271  0.2872  0.3407  0.0995
  412TMC3     O 6152   2.102   0.816  14.219  0.0956  0.2001 -0.5458
  412TMC3     H 6153   1.948   0.505  14.349 -0.6278 -0.0558  0.0238
  412TMC3    H1 6154   2.091   0.710  14.014 -1.0495  0.0644  0.1568
  412TMC3    H2 6155   1.747   0.462  13.987 -2.2126  1.8425  3.0447
  412TMC3    C7 6156   1.850   0.684  13.911 -0.3994 -0.0129 -0.3616
  412TMC3    C8 6157   1.713   0.459  14.237 -0.6291  0.3396  0.4447
  412TMC3    O1 6158   1.741   0.700  13.963 -0.5935  0.1086 -0.3629
  412TMC3    O2 6159   1.676   0.369  14.309 -0.2301  0.3679 -0.6121
  413MPD2     C 6160   3.419   3.869  15.897  0.1188  0.5014  0.3830
  413MPD2    C1 6161   3.372   3.898  15.774  0.1651 -0.1961 -0.4849
  413MPD2    C2 6162   3.459   3.883  15.666  0.2763 -0.6382  0.9723
  413MPD2    C3 6163   3.591   3.863  15.681  0.5252  0.5460 -0.3382
  413MPD2    C4 6164   3.643   3.857  15.806  0.4364  0.0032 -0.0023
  413MPD2    C5 6165   3.554   3.853  15.914  0.2268  0.1050 -0.3760
  413MPD2     H 6166   3.413   3.889  15.568  0.5751  1.3883  0.9604
  413MPD2    H1 6167   3.747   3.835  15.827  0.6535  0.2204 -0.8663
  413MPD2    H2 6168   3.352   3.866  15.982 -1.4619 -2.0871 -0.9338
  413MPD2    H3 6169   3.594   3.838  16.014  0.0618  0.9737 -0.1737
  413MPD2     N 6170   3.663   3.843  15.561  0.4279  0.3790  0.0770
  413MPD2    H5 6171   3.615   3.842  15.471 -1.3819 -0.3338  1.0423
  413MPD2    N1 6172   3.232   3.910  15.761  0.3556  0.7376  0.1761
  413MPD2    H7 6173   3.188   3.897  15.852 -0.0826  0.2353 -0.1088
  414TMC3    C1 6174   3.835   3.784  15.411 -0.6724  0.0239 -0.4499
  414TMC3    C2 6175   3.922   3.688  15.367 -0.1265 -0.4445 -0.0658
  414TMC3    C3 6176   3.948   3.677  15.235  0.3631 -0.6708 -0.1504
  414TMC3    C4 6177   3.778   3.878  15.329 -0.2070 -0.2782 -0.1753
  414TMC3    C5 6178   3.827   3.877  15.200  0.4166 -0.5957  0.1397
  414TMC3    C6 6179   3.890   3.767  15.146  0.5040 -0.7254  0.3944
  414TMC3     C 6180   3.792   3.792  15.552 -0.1180 -0.5145  0.1862
  414TMC3     O 6181   3.860   3.749  15.644  0.1424  0.0910  0.4528
  414TMC3     H 6182   3.954   3.610  15.435  0.4483 -0.0690  0.0957
  414TMC3    H1 6183   3.728   3.965  15.371 -1.8764 -2.0253  1.4775
  414TMC3    H2 6184   3.951   3.767  15.056 -1.3959 -1.7019 -0.8712
  414TMC3    C7 6185   3.879   4.009  15.160  0.3012 -0.8429  0.2797
  414TMC3    C8 6186   4.084   3.644  15.204  0.4115 -0.2197  0.4318
  414TMC3    O1 6187   3.895   4.095  15.248  0.1290  0.4017  0.5689
  414TMC3    O2 6188   4.111   3.596  15.095  0.3901 -0.3142  0.4728
  415TMC3    C1 6189   4.396   1.612  10.495 -0.2205 -0.1152 -0.4466
  415TMC3    C2 6190   4.470   1.710  10.435  0.1886 -0.2662 -0.3872
  415TMC3    C3 6191   4.457   1.719  10.297 -0.3911  0.7109 -0.0343
  415TMC3    C4 6192   4.324   1.521  10.421 -0.3314  0.1933 -0.2029
  415TMC3    C5 6193   4.300   1.548  10.281 -0.9612  0.8114 -0.1150
  415TMC3    C6 6194   4.375   1.640  10.223  0.1906 -0.0252  0.2970
  415TMC3     C 6195   4.431   1.576  10.636  0.5950  0.1194  0.0927
  415TMC3     O 6196   4.404   1.462  10.671  0.2711 -0.0993 -0.1817
  415TMC3     H 6197   4.539   1.773  10.490  0.4449 -1.1547  0.3028
  415TMC3    H1 6198   4.287   1.430  10.467  0.3548 -0.0756 -0.1924
  415TMC3    H2 6199   4.375   1.649  10.115  0.2095  0.1514  0.3127
  415TMC3    C7 6200   4.201   1.464  10.212 -0.1617  0.0539 -0.6591
  415TMC3    C8 6201   4.569   1.781  10.223  0.2323  0.0072  0.0956
  415TMC3    O1 6202   4.191   1.460  10.090 -0.2737 -0.0950  0.2106
  415TMC3    O2 6203   4.616   1.722  10.128 -0.4203  0.2149 -0.0001
  416MPD2     C 6204   1.337   0.963  11.049  1.0045 -0.5917 -0.3003
  416MPD2    C1 6205   1.265   0.949  11.167  0.7432  0.0242  0.5732
  416MPD2    C2 6206   1.183   0.834  11.184  0.9639 -0.5461  0.1646
  416MPD2    C3 6207   1.169   0.737  11.088  1.1098  0.0693 -0.1457
  416MPD2    C4 6208   1.245   0.749  10.972  0.6492  0.8173  1.4655
  416MPD2    C5 6209   1.330   0.854  10.967  0.1586 -0.7451  0.3726
  416MPD2     H 6210   1.115   0.842  11.268  1.6819  0.1232  0.6819
  416MPD2    H1 6211   1.276   0.664  10.911 -0.1014  1.1301  0.6454
  416MPD2    H2 6212   1.409   1.043  11.046  1.1060 -0.7041 -0.8910
  416MPD2    H3 6213   1.405   0.856  10.889  0.5814  2.3656  0.8289
  416MPD2     N 6214   1.071   0.633  11.098  0.1496 -0.9192 -0.3197
  416MPD2    H5 6215   1.030   0.640  11.190 -1.4660  1.1370 -1.1861
  416MPD2    N1 6216   1.282   1.055  11.262  0.2947  0.0676 -0.0884
  416MPD2    H7 6217   1.346   1.129  11.235  1.4032 -1.5151 -1.7494
  417TMC3    C1 6218   1.240   1.192  11.449  0.0378 -0.2730 -0.4562
  417TMC3    C2 6219   1.189   1.214  11.575 -0.7045  0.5932  0.0725
  417TMC3    C3 6220   1.174   1.340  11.615  0.5420  0.7347  0.4270
  417TMC3    C4 6221   1.279   1.300  11.365 -0.3601 -0.0506  0.4496
  417TMC3    C5 6222   1.254   1.427  11.410  0.2459 -0.0950  0.1731
  417TMC3    C6 6223   1.198   1.453  11.531 -0.3448 -0.5105 -0.2729
  417TMC3     C 6224   1.223   1.064  11.382 -0.1838  0.0259  0.0617
  417TMC3     O 6225   1.148   0.982  11.437  0.1172 -0.2249 -0.5531
  417TMC3     H 6226   1.167   1.123  11.630  0.9277 -0.4544 -1.0065
  417TMC3    H1 6227   1.314   1.291  11.263 -1.9146  3.4687 -0.4051
  417TMC3    H2 6228   1.175   1.555  11.559 -2.9642 -1.5816  1.5569
  417TMC3    C7 6229   1.258   1.532  11.314  0.1307 -0.3260  0.2958
  417TMC3    C8 6230   1.097   1.363  11.739 -0.0390  0.7722 -0.1293
  417TMC3    O1 6231   1.357   1.531  11.245  0.0867  0.1652 -0.1216
  417TMC3    O2 6232   1.070   1.481  11.767  0.3321 -0.3045  0.0095
  418TMC3    C1 6233   4.587   2.469  17.695 -0.3213 -0.0109 -0.4717
  418TMC3    C2 6234   4.459   2.453  17.670 -0.8710  0.3463 -0.0902
  418TMC3    C3 6235   4.393   2.367   0.033  0.4336 -0.4550  0.2978
  418TMC3    C4 6236   4.644   2.413   0.088  0.0767 -0.0012 -0.0336
  418TMC3    C5 6237   4.569   2.339   0.176  0.6402 -0.6017 -0.4928
  418TMC3    C6 6238   4.440   2.324   0.148  0.1221  0.6582 -0.0915
  418TMC3     C 6239   4.669   2.508  17.590 -0.1058 -0.2846  0.1759
  418TMC3     O 6240   4.650   2.621  17.548 -0.4995 -0.1561  0.2884
  418TMC3     H 6241   4.418   2.488  17.576 -0.5781 -1.5677 -0.9284
  418TMC3    H1 6242   0.022   2.412   0.102  0.1124 -0.5628 -0.3351
  418TMC3    H2 6243   4.369   2.276   0.214 -1.4773  1.9951 -0.8300
  418TMC3    C7 6244   4.626   2.244   0.273 -0.2388 -0.2342 -0.5968
  418TMC3    C8 6245   4.255   2.339  17.714 -0.4526  0.5156 -0.6544
  418TMC3    O1 6246   4.549   2.156   0.313  0.1844 -0.1079 -0.1219
  418TMC3    O2 6247   4.177   2.420  17.668 -0.0466  0.3322 -0.2485
  419MPD2     C 6248   3.671   0.842  12.414  0.0217  0.5704  0.3888
  419MPD2    C1 6249   3.591   0.950  12.399 -0.4313 -0.9341  0.2522
  419MPD2    C2 6250   3.517   1.005  12.505 -0.0579  0.0899 -0.1694
  419MPD2    C3 6251   3.548   0.965  12.634 -0.0309 -0.4209  0.4585
  419MPD2    C4 6252   3.645   0.860  12.644  0.2622 -0.4943 -0.2355
  419MPD2    C5 6253   3.705   0.804  12.535 -0.2901  0.4006  0.0531
  419MPD2     H 6254   3.454   1.090  12.483  2.8548  2.7625  1.9132
  419MPD2    H1 6255   3.663   0.815  12.741  1.9143 -1.6936 -1.1083
  419MPD2    H2 6256   3.715   0.794  12.328 -1.8223  0.7089 -0.6351
  419MPD2    H3 6257   3.775   0.723  12.554 -2.0409 -0.9383  0.7583
  419MPD2     N 6258   3.475   1.021  12.746  0.1390 -0.5055  0.8374
  419MPD2    H5 6259   3.403   1.090  12.728 -0.2847 -0.7964  1.4262
  419MPD2    N1 6260   3.563   1.006  12.270  0.0417  0.1175 -0.6840
  419MPD2    H7 6261   3.517   1.096  12.277 -0.1624 -0.0322 -0.1264
  420TMC3    C1 6262   3.397   1.062  12.965  0.6040 -0.7037  0.0268
  420TMC3    C2 6263   3.270   1.095  12.920  0.5973 -0.0729  0.2298
  420TMC3    C3 6264   3.173   1.124  13.009 -0.2331  0.0982 -0.5186
  420TMC3    C4 6265   3.421   1.055  13.097 -0.3875 -0.1312  0.4772
  420TMC3    C5 6266   3.314   1.081  13.179  0.8927 -0.2926  0.4156
  420TMC3    C6 6267   3.188   1.112  13.142 -0.4015  0.8426  0.2575
  420TMC3     C 6268   3.480   0.980  12.875  0.5748  0.3696  0.0620
  420TMC3     O 6269   3.563   0.902  12.925 -0.4798  0.0148 -0.3255
  420TMC3     H 6270   3.236   1.087  12.818  0.1377 -0.8681  0.4428
  420TMC3    H1 6271   3.520   1.031  13.133 -0.4328 -1.1772 -0.1004
  420TMC3    H2 6272   3.116   1.148  13.214  1.6106  1.8663  1.7445
  420TMC3    C7 6273   3.343   1.113  13.321  0.3571  0.1845  0.2846
  420TMC3    C8 6274   3.058   1.189  12.963  0.1757  1.1578  0.7179
  420TMC3    O1 6275   3.256   1.101  13.407  0.5625 -0.5042 -0.2662
  420TMC3    O2 6276   3.069   1.283  12.884 -0.0375  0.2484  0.2227
  421TMC3    C1 6277   4.655   2.304  14.028 -0.4466 -0.2443 -0.0453
  421TMC3    C2 6278   4.656   2.382  14.139 -0.3838 -0.1456  0.4288
  421TMC3    C3 6279   4.710   2.326  14.260 -1.0228 -0.5823  0.2159
  421TMC3    C4 6280   4.714   2.181  14.033 -0.0945 -0.5180  0.1246
  421TMC3    C5 6281   0.044   2.132  14.145  0.3509 -0.4164  1.1182
  421TMC3    C6 6282   0.031   2.205  14.264 -0.8489 -0.4450  0.1589
  421TMC3     C 6283   4.590   2.348  13.913  0.9947  0.1493  0.7593
  421TMC3     O 6284   4.499   2.428  13.934  0.0902  0.3583 -0.2460
  421TMC3     H 6285   4.625   2.485  14.137 -0.8682 -0.2967  0.2209
  421TMC3    H1 6286   4.727   2.119  13.945  2.1689 -1.1745  0.9202
  421TMC3    H2 6287   0.075   2.170  14.357  2.9438 -1.5317 -2.0526
  421TMC3    C7 6288   0.167   2.066  14.133 -1.0633 -0.2869  1.0819
  421TMC3    C8 6289   0.024   2.418  14.363 -0.4074  0.0496 -0.1351
  421TMC3    O1 6290   0.270   2.133  14.153  0.3070  0.2378  0.0947
  421TMC3    O2 6291   0.049   2.367  14.469 -0.1041 -0.7787 -0.5148
  422TMC3    C1 6292   2.059   4.004  12.786  0.3426 -0.7427 -0.4972
  422TMC3    C2 6293   2.038   4.124  12.851  0.0710 -0.8626 -0.4979
  422TMC3    C3 6294   1.929   4.140  12.922 -0.1326 -1.0192 -0.0246
  422TMC3    C4 6295   1.966   3.905  12.790  0.0416  0.1404 -0.6478
  422TMC3    C5 6296   1.841   3.931  12.847  0.3732 -0.1679  0.0246
  422TMC3    C6 6297   1.825   4.050  12.921 -0.6984  0.2697 -0.0804
  422TMC3     C 6298   2.170   3.987  12.697 -0.8455  0.8612  0.4181
  422TMC3     O 6299   2.225   4.083  12.650 -0.3652  0.0347  0.2707
  422TMC3     H 6300   2.118   4.197  12.855 -1.8385  1.1347  0.6534
  422TMC3    H1 6301   1.985   3.823  12.722 -0.7485 -1.6859  1.3204
  422TMC3    H2 6302   1.751   4.049  13.001 -0.0495  0.1104  0.5138
  422TMC3    C7 6303   1.726   3.870  12.790 -0.3718 -0.2807  0.0141
  422TMC3    C8 6304   1.917   4.273  12.984  0.2772 -1.0233  0.0863
  422TMC3    O1 6305   1.742   3.822  12.680  0.7013  0.1578 -0.0389
  422TMC3    O2 6306   2.016   4.346  12.993  0.2099  0.7377 -0.5274
  423MPD2     C 6307   3.036   0.054   0.239  0.2801  0.6420  0.1950
  423MPD2    C1 6308   3.140   0.068   0.327 -0.1686 -0.2098 -0.3906
  423MPD2    C2 6309   3.249   4.712   0.305  0.2896 -0.3942 -0.1772
  423MPD2    C3 6310   3.244   4.602   0.219  0.2297 -0.3554  0.3092
  423MPD2    C4 6311   3.135   4.584   0.142 -0.4195 -0.2287 -0.0699
  423MPD2    C5 6312   3.033   4.682   0.145  0.1992  0.2992  0.4648
  423MPD2     H 6313   3.335   4.715   0.370 -0.8313 -0.1325  1.3105
  423MPD2    H1 6314   3.125   4.497   0.079  0.6623  0.7200 -1.5511
  423MPD2    H2 6315   2.958   0.128   0.253 -0.8353 -0.0404 -2.3999
  423MPD2    H3 6316   2.953   4.664   0.073  2.4860  0.2788 -2.0842
  423MPD2     N 6317   3.340   4.503   0.211 -0.2916  0.4764 -0.1486
  423MPD2    H5 6318   3.322   4.438   0.135 -0.8551  1.4879 -0.8833
  423MPD2    N1 6319   3.145   0.156   0.437  0.5553  0.2146 -0.1498
  423MPD2    H7 6320   3.222   0.141   0.502  1.7954  3.0867 -0.9513
  424TMC3    C1 6321   3.078   0.338   0.575 -0.5945 -0.3317  0.2337
  424TMC3    C2 6322   3.141   0.275   0.678 -0.2829  1.0423 -0.1052
  424TMC3    C3 6323   3.215   0.353   0.770  0.5103 -0.2617  0.1982
  424TMC3    C4 6324   3.069   0.476   0.578 -0.4288 -0.1112  0.2050
  424TMC3    C5 6325   3.134   0.548   0.673 -0.6323  0.3340  0.1885
  424TMC3    C6 6326   3.224   0.494   0.766 -0.3957 -0.1840  0.5271
  424TMC3     C 6327   3.071   0.271   0.447 -0.4656 -0.6943 -0.9605
  424TMC3     O 6328   3.004   0.328   0.360  0.7841  0.5713 -0.3016
  424TMC3     H 6329   3.133   0.169   0.695 -0.8053  0.7787 -1.9668
  424TMC3    H1 6330   3.020   0.526   0.495 -2.5012  0.0112  1.5000
  424TMC3    H2 6331   3.272   0.548   0.846 -1.3220  2.2719 -0.5838
  424TMC3    C7 6332   3.141   0.695   0.647  0.1708  0.4244  0.1874
  424TMC3    C8 6333   3.291   0.271   0.864 -0.4849  0.7127  0.5117
  424TMC3    O1 6334   3.245   0.742   0.613  0.9808  0.3260 -0.0421
  424TMC3    O2 6335   3.253   0.158   0.888 -0.4029 -0.4558  0.6860
  425MPD2     C 6336   2.584   4.135  17.483 -0.1519 -0.0397 -0.0535
  425MPD2    C1 6337   2.554   4.010  17.431 -0.5183 -0.1115  0.5446
  425MPD2    C2 6338   2.436   3.955  17.464  0.4800  0.0004 -0.3016
  425MPD2    C3 6339   2.347   4.015  17.547 -0.4941 -0.1766 -0.1736
  425MPD2    C4 6340   2.369   4.143  17.587 -0.6671 -0.1648  0.1410
  425MPD2    C5 6341   2.489   4.204  17.554 -0.3763  0.0109  0.8594
  425MPD2     H 6342   2.415   3.861  17.415 -0.8552  0.7843 -1.2470
  425MPD2    H1 6343   2.304   4.192  17.659 -1.4572  2.3812 -2.2742
  425MPD2    H2 6344   2.677   4.191  17.474 -2.1424  3.3493  0.4989
  425MPD2    H3 6345   2.511   4.308  17.576 -0.5878  0.0644  0.8174
  425MPD2     N 6346   2.237   3.945  17.594 -0.1561  1.1248  0.2023
  425MPD2    H5 6347   2.236   3.848  17.566  0.7368  0.5852  2.0106
  425MPD2    N1 6348   2.659   3.943  17.369  0.0624 -0.2451  0.2379
  425MPD2    H7 6349   2.748   3.986  17.393 -0.8061  0.7058  1.7403
  426TMC3    C1 6350   2.787   3.754  17.291 -0.0803 -0.1525 -0.1906
  426TMC3    C2 6351   2.801   3.649  17.193 -0.1006  0.8410  0.3172
  426TMC3    C3 6352   2.890   3.549  17.229 -0.7383  0.1968  0.9093
  426TMC3    C4 6353   2.848   3.747  17.418  0.3906 -0.0621  0.4359
  426TMC3    C5 6354   2.923   3.635  17.440  0.3697  0.1065  0.6718
  426TMC3    C6 6355   2.961   3.548  17.345  0.1912  0.5463  0.5282
  426TMC3     C 6356   2.654   3.820  17.306  0.1093  0.5307  0.9742
  426TMC3     O 6357   2.560   3.746  17.273 -0.2907 -0.4868  0.3159
  426TMC3     H 6358   2.718   3.635  17.124  0.5442 -2.6318  0.1991
  426TMC3    H1 6359   2.810   3.803  17.503 -0.5990 -0.4863  0.2675
  426TMC3    H2 6360   3.028   3.464  17.361  1.7780  1.9038  1.0044
  426TMC3    C7 6361   2.963   3.599  17.579 -0.6049 -0.8261  0.4326
  426TMC3    C8 6362   2.939   3.477  17.113 -0.0160 -0.0326  0.4510
  426TMC3    O1 6363   3.051   3.516  17.589 -0.5169  0.5373  0.0044
  426TMC3    O2 6364   3.018   3.384  17.121 -0.0521 -0.1442  0.6322
  427MPD2     C 6365   1.242   1.174  14.888 -0.1536  0.5027  0.0668
  427MPD2    C1 6366   1.228   1.147  15.023 -0.4550 -0.1173 -0.2705
  427MPD2    C2 6367   1.107   1.182  15.083  0.3094  0.3180 -0.0732
  427MPD2    C3 6368   1.008   1.243  15.007  0.3342  0.5317 -0.0284
  427MPD2    C4 6369   1.030   1.267  14.871 -0.4293 -0.1297 -0.4804
  427MPD2    C5 6370   1.143   1.223  14.816  0.0122 -0.1363  0.0339
  427MPD2     H 6371   1.104   1.163  15.189  2.2696  0.5618  0.0265
  427MPD2    H1 6372   0.963   1.330  14.814  1.0858 -0.0692 -2.1673
  427MPD2    H2 6373   1.332   1.144  14.836 -0.5477  1.8594 -1.3892
  427MPD2    H3 6374   1.172   1.250  14.715  1.2207 -1.7004 -0.0300
  427MPD2     N 6375   0.888   1.295  15.056  0.0936 -0.2031  0.0768
  427MPD2    H5 6376   0.814   1.316  14.989 -0.0994 -0.3814  0.2336
  427MPD2    N1 6377   1.326   1.078  15.093  0.7923 -0.0603 -0.0004
  427MPD2    H7 6378   1.294   1.058  15.187  0.2141 -0.3801 -0.2585
  428TMC3    C1 6379   1.539   0.982  15.135 -0.7617  0.4900 -0.3730
  428TMC3    C2 6380   1.478   0.871  15.198 -0.2059 -0.4369 -0.0331
  428TMC3    C3 6381   1.570   0.800  15.269  0.8164 -0.5668  0.0985
  428TMC3    C4 6382   1.668   1.029  15.151  0.0162  0.3931 -0.9496
  428TMC3    C5 6383   1.740   0.965  15.246 -0.1443 -0.2899  0.2144
  428TMC3    C6 6384   1.697   0.842  15.296  0.1954  0.7158 -0.3985
  428TMC3     C 6385   1.452   1.046  15.047  0.3440 -0.1779  0.2886
  428TMC3     O 6386   1.510   1.100  14.952 -0.3853 -0.0441 -0.4296
  428TMC3     H 6387   1.378   0.839  15.170 -0.3421 -0.1435  0.1231
  428TMC3    H1 6388   1.696   1.124  15.107  0.3025  1.0717  0.7174
  428TMC3    H2 6389   1.756   0.799  15.376 -0.8817 -0.5084 -0.2455
  428TMC3    C7 6390   1.839   1.030  15.329 -0.3879  0.5647 -0.0862
  428TMC3    C8 6391   1.517   0.665  15.307  0.4558 -0.4935 -0.4174
  428TMC3    O1 6392   1.885   0.987  15.433  0.0239 -0.0888 -0.2448
  428TMC3    O2 6393   1.393   0.651  15.312  0.0834  0.1100  0.0679
  429MPD2     C 6394   1.511   1.052  17.687  0.9870  0.0582 -0.7167
  429MPD2    C1 6395   1.636   0.989  17.676  0.1422  0.2555  0.3331
  429MPD2    C2 6396   1.729   1.043  17.590  0.0090  0.1028  0.3599
  429MPD2    C3 6397   1.710   1.159  17.520 -0.6235  0.0986 -0.0421
  429MPD2    C4 6398   1.590   1.223  17.529 -0.2795  0.1061 -0.2757
  429MPD2    C5 6399   1.496   1.172  17.615  0.0294 -0.0011  0.0493
  429MPD2     H 6400   1.824   0.992  17.578  0.6689  1.6608 -1.1163
  429MPD2    H1 6401   1.555   1.310  17.475 -1.6207 -1.4807 -1.9531
  429MPD2    H2 6402   1.433   1.019   0.038  0.3603  1.3732 -0.7931
  429MPD2    H3 6403   1.406   1.231  17.629  0.9565  1.3141  0.5535
  429MPD2     N 6404   1.818   1.197  17.432 -0.4325  0.2058  0.5308
  429MPD2    H5 6405   1.911   1.158  17.445 -0.0392 -0.1644 -3.2635
  429MPD2    N1 6406   1.670   0.867   0.023  0.2231 -0.1896  0.3364
  429MPD2    H7 6407   1.760   0.824   0.008 -0.1338  0.5511 -4.1199
  430TMC3    C1 6408   1.938   1.330  17.284 -0.2432  1.1285 -0.3297
  430TMC3    C2 6409   1.960   1.457  17.254  0.1530  0.0240  0.4072
  430TMC3    C3 6410   2.089   1.498  17.223 -0.7670  0.0961 -0.3594
  430TMC3    C4 6411   2.038   1.235  17.291  0.0553 -0.2454  0.2269
  430TMC3    C5 6412   2.166   1.273  17.272  0.2863  0.1344 -0.4970
  430TMC3    C6 6413   2.191   1.409  17.243  0.9679  0.4659 -0.1843
  430TMC3     C 6414   1.812   1.301  17.343 -0.3349  0.3436 -0.7537
  430TMC3     O 6415   1.723   1.379  17.311  0.0389 -0.0291  0.0549
  430TMC3     H 6416   1.880   1.530  17.251 -0.0215 -0.2015 -0.3728
  430TMC3    H1 6417   2.017   1.129  17.299  3.0778 -0.7444  1.5688
  430TMC3    H2 6418   2.298   1.419  17.226  0.8302  2.2248  0.0015
  430TMC3    C7 6419   2.230   1.174  17.192  0.4882  0.1840  0.2395
  430TMC3    C8 6420   2.093   1.547  17.085  0.5997  0.2143  0.3805
  430TMC3    O1 6421   2.224   1.059  17.228 -0.6364 -0.3407  0.5524
  430TMC3    O2 6422   2.001   1.509  17.013  0.0250 -0.3161  0.1602
  431MPD2     C 6423   3.072   1.417  12.548  0.4693  0.3120  0.2814
  431MPD2    C1 6424   3.153   1.498  12.468 -0.5866 -0.2082 -0.3898
  431MPD2    C2 6425   3.194   1.453  12.347  0.1277  0.5303 -0.4578
  431MPD2    C3 6426   3.161   1.317  12.306  0.3443 -0.1667 -0.2641
  431MPD2    C4 6427   3.074   1.244  12.384 -0.5069 -0.4025  0.0813
  431MPD2    C5 6428   3.025   1.300  12.499  0.0444 -0.1095  0.2414
  431MPD2     H 6429   3.261   1.511  12.284 -0.6760 -0.6897 -2.4230
  431MPD2    H1 6430   3.043   1.145  12.350 -1.5334 -0.0683  0.0307
  431MPD2    H2 6431   3.035   1.456  12.642 -0.2017 -0.3183  0.2735
  431MPD2    H3 6432   2.961   1.234  12.556  1.5596 -0.0698  1.9777
  431MPD2     N 6433   3.219   1.258  12.184 -0.4911  0.6863  0.3041
  431MPD2    H5 6434   3.182   1.166  12.163  0.5506  0.4820 -0.6098
  431MPD2    N1 6435   3.182   1.628  12.507 -0.8077  0.2111 -0.3091
  431MPD2    H7 6436   3.216   1.682  12.429 -3.3925 -0.8766 -2.2038
  432TMC3    C1 6437   3.381   1.223  12.011  0.8306  0.6663  0.3711
  432TMC3    C2 6438   3.468   1.280  11.929 -0.3631 -0.1656 -0.0356
  432TMC3    C3 6439   3.585   1.218  11.899  0.4149 -0.7308 -0.0458
  432TMC3    C4 6440   3.409   1.102  12.073 -0.2610  0.8832 -0.4449
  432TMC3    C5 6441   3.538   1.040  12.045  0.5225 -0.3114  0.3066
  432TMC3    C6 6442   3.625   1.099  11.955  0.0716  0.1409 -0.3974
  432TMC3     C 6443   3.323   1.311  12.109  0.2635  0.4947  0.1730
  432TMC3     O 6444   3.387   1.415  12.116 -0.2620 -0.4550 -0.0004
  432TMC3     H 6445   3.445   1.379  11.894 -2.0677 -0.1499  1.1538
  432TMC3    H1 6446   3.343   1.054  12.144  1.3166 -0.1945  0.2848
  432TMC3    H2 6447   3.725   1.057  11.953  0.2714  0.5284  0.8345
  432TMC3    C7 6448   3.604   0.960  12.147 -1.0594 -0.3383 -0.6077
  432TMC3    C8 6449   3.689   1.297  11.830 -0.2614 -0.4247  0.0841
  432TMC3    O1 6450   3.667   0.859  12.114 -0.0734 -0.2913  0.0778
  432TMC3    O2 6451   3.647   1.384  11.754 -0.8565 -0.4303  0.0962
  433MPD2     C 6452   2.062   0.708  10.981  0.3481  0.7601  0.6406
  433MPD2    C1 6453   2.028   0.590  11.045  0.3354  0.3222  0.4088
  433MPD2    C2 6454   2.017   0.595  11.189  0.0714 -0.2276 -0.7334
  433MPD2    C3 6455   2.045   0.709  11.256 -0.2902  0.0668 -0.5597
  433MPD2    C4 6456   2.074   0.829  11.192  0.2680 -0.5372  0.6108
  433MPD2    C5 6457   2.089   0.820  11.058 -0.0212 -0.0884 -0.9970
  433MPD2     H 6458   2.001   0.508  11.252 -0.4570 -0.6264 -1.4166
  433MPD2    H1 6459   2.091   0.921  11.247  1.1561 -1.5916  2.1102
  433MPD2    H2 6460   2.081   0.711  10.874 -1.5643  0.5875  0.2929
  433MPD2    H3 6461   2.129   0.909  11.010 -0.4867  1.7013  1.9011
  433MPD2     N 6462   2.044   0.697  11.400 -0.4250  0.2688 -0.3778
  433MPD2    H5 6463   2.026   0.607  11.442 -0.5863 -0.5131 -2.1132
  433MPD2    N1 6464   2.036   0.475  10.964  0.7586 -0.2711 -0.2084
  433MPD2    H7 6465   2.063   0.488  10.866  0.3271  0.0782 -0.2827
  434TMC3    C1 6466   2.084   0.248  10.934 -0.1033 -0.2802 -0.2379
  434TMC3    C2 6467   2.166   0.167  11.006 -0.8036 -0.6301 -0.5924
  434TMC3    C3 6468   2.290   0.131  10.955 -0.6760  0.1858  0.1282
  434TMC3    C4 6469   2.118   0.278  10.807  0.2538 -0.2846  0.2621
  434TMC3    C5 6470   2.238   0.236  10.752 -0.6384 -0.1783  0.2697
  434TMC3    C6 6471   2.326   0.168  10.831  0.3564  0.5964  0.6864
  434TMC3     C 6472   2.014   0.348  11.015  0.2561  0.0819 -0.3757
  434TMC3     O 6473   1.978   0.313  11.127 -0.0727  0.1714  0.3124
  434TMC3     H 6474   2.147   0.149  11.111 -1.6412  0.4174 -0.5623
  434TMC3    H1 6475   2.046   0.326  10.741  0.4101  2.5309  2.1447
  434TMC3    H2 6476   2.424   0.158  10.786  0.8539 -0.8151  2.0995
  434TMC3    C7 6477   2.235   0.216  10.608 -0.0430 -0.1918 -0.8699
  434TMC3    C8 6478   2.380   0.107  11.065 -0.1637  0.1934  0.0563
  434TMC3    O1 6479   2.150   0.273  10.542 -0.3273 -0.2385  0.0211
  434TMC3    O2 6480   2.332   0.050  11.164 -0.9735 -0.2708  0.0663
  435MPD2     C 6481   4.258   0.390  15.698 -0.2551  0.0451  0.1983
  435MPD2    C1 6482   4.225   0.411  15.831 -0.2762  0.3074 -0.1459
  435MPD2    C2 6483   4.316   0.381  15.926  0.5415 -0.8595 -0.3259
  435MPD2    C3 6484   4.426   0.303  15.899 -0.2580  0.2082 -0.0594
  435MPD2    C4 6485   4.457   0.286  15.768  0.4257  0.8143 -0.5762
  435MPD2    C5 6486   4.373   0.329  15.668  0.6458 -0.3200 -0.3895
  435MPD2     H 6487   4.283   0.400  16.027  1.1700  0.9381 -0.4507
  435MPD2    H1 6488   4.549   0.239  15.737  0.9160  2.6209 -1.8371
  435MPD2    H2 6489   4.191   0.424  15.619 -0.6741  0.6896  0.8270
  435MPD2    H3 6490   4.409   0.324  15.566  1.1685  1.0029 -0.2617
  435MPD2     N 6491   4.500   0.241  16.004 -0.5449 -0.5074 -0.0342
  435MPD2    H5 6492   4.475   0.267  16.099  2.0573  3.6712 -0.4839
  435MPD2    N1 6493   4.104   0.472  15.872 -0.5511  0.0953  0.0742
  435MPD2    H7 6494   4.107   0.487  15.973 -1.1357  0.5941  0.0178
  436TMC3    C1 6495   3.791   0.568  16.099 -0.2168 -0.2359  0.7558
  436TMC3    C2 6496   3.892   0.582  16.011 -0.3411 -0.2592 -0.4605
  436TMC3    C3 6497   3.873   0.539  15.883 -0.0619 -0.2301  0.2735
  436TMC3    C4 6498   3.673   0.508  16.056  0.6060  0.7218 -0.1326
  436TMC3    C5 6499   3.651   0.468  15.925 -0.1917 -0.0237 -0.5026
  436TMC3    C6 6500   3.755   0.473  15.839 -0.1433  0.1788 -0.2747
  436TMC3     C 6501   3.785   0.631  16.233  0.4909  0.0926  0.2616
  436TMC3     O 6502   3.886   0.698  16.256  0.4686  0.5081 -0.5918
  436TMC3     H 6503   3.981   0.635  16.043 -1.6302  2.4141 -1.2871
  436TMC3    H1 6504   3.583   0.512  16.117  0.3879 -1.4788 -0.2945
  436TMC3    H2 6505   3.745   0.444  15.735 -2.4680 -2.8950  0.8330
  436TMC3    C7 6506   3.535   0.389  15.907 -0.1108  0.3522  0.1995
  436TMC3    C8 6507   3.989   0.496  15.803  0.1145 -0.2710 -0.4037
  436TMC3    O1 6508   3.475   0.346  16.003 -0.1854  0.8223  0.6439
  436TMC3    O2 6509   3.967   0.457  15.688  0.1170  0.0720 -0.4516
  437TMC3    C1 6510   2.293   2.152  12.622  0.2774 -0.3235 -0.1318
  437TMC3    C2 6511   2.186   2.226  12.655  0.4012 -0.0340 -0.4995
  437TMC3    C3 6512   2.157   2.337  12.588  0.4564 -0.2031 -0.1592
  437TMC3    C4 6513   2.374   2.186  12.516  0.2368  0.0634 -0.7723
  437TMC3    C5 6514   2.338   2.298  12.448 -0.0325  0.7138 -0.0548
  437TMC3    C6 6515   2.239   2.382  12.488 -0.1513 -0.1021  0.4646
  437TMC3     C 6516   2.319   2.037  12.709  0.6112 -0.0226 -0.8615
  437TMC3     O 6517   2.223   1.991  12.768  0.0195 -0.0340 -0.2179
  437TMC3     H 6518   2.126   2.203  12.742 -2.7705 -2.8712 -3.4306
  437TMC3    H1 6519   2.445   2.114  12.476  1.9483  0.9878  0.6449
  437TMC3    H2 6520   2.222   2.470  12.428 -0.2396 -0.3515  0.1269
  437TMC3    C7 6521   2.436   2.361  12.360  0.1384 -0.2832 -0.7496
  437TMC3    C8 6522   2.069   2.438  12.653  0.0463  0.0041 -0.2590
  437TMC3    O1 6523   2.393   2.458  12.299 -0.0152 -0.0242 -0.3071
  437TMC3    O2 6524   2.064   2.427  12.775  0.4906  0.1498  0.0179
  438MPD2     C 6525   0.329   3.152  16.586 -0.3020  0.3370 -0.3036
  438MPD2    C1 6526   0.377   3.083  16.697 -0.2827  0.0509 -0.0712
  438MPD2    C2 6527   0.303   3.080  16.812  0.4374  0.7696  0.0026
  438MPD2    C3 6528   0.186   3.153  16.831 -0.3452 -0.3327  0.5685
  438MPD2    C4 6529   0.139   3.223  16.726 -0.0220  0.1085  0.2903
  438MPD2    C5 6530   0.215   3.220  16.612 -0.3987 -0.6847  0.1844
  438MPD2     H 6531   0.348   3.028  16.896  2.4889 -3.5779 -3.7359
  438MPD2    H1 6532   0.046   3.278  16.737 -0.0121  0.3557 -0.9234
  438MPD2    H2 6533   0.381   3.163  16.492 -0.3983  1.5367 -0.2194
  438MPD2    H3 6534   0.187   3.285  16.530  1.5029 -0.6638 -0.4521
  438MPD2     N 6535   0.110   3.139  16.948  0.4551 -0.6320  0.6362
  438MPD2    H5 6536   0.037   3.207  16.966  0.2779 -0.1938 -1.7557
  438MPD2    N1 6537   0.492   3.000  16.692 -0.4394 -0.1960 -0.1801
  438MPD2    H7 6538   0.509   2.942  16.774  1.3189  1.5922  0.7095
  439TMC3    C1 6539   0.687   2.913  16.607  0.0251  0.1539  0.6719
  439TMC3    C2 6540   0.788   2.919  16.510 -0.5357 -0.9561  0.4708
  439TMC3    C3 6541   0.913   2.879  16.541  0.0234  0.0366  0.4198
  439TMC3    C4 6542   0.700   2.836  16.720  0.3335  0.5784  0.4275
  439TMC3    C5 6543   0.831   2.783  16.736  0.1592  0.5101 -0.1837
  439TMC3    C6 6544   0.932   2.809  16.652  0.8117  0.5583 -0.5467
  439TMC3     C 6545   0.573   2.989  16.581  0.3099  0.0748 -0.8336
  439TMC3     O 6546   0.566   3.052  16.471 -0.4756 -0.6875 -0.2134
  439TMC3     H 6547   0.776   2.954  16.408  0.9993 -0.3831  0.4921
  439TMC3    H1 6548   0.622   2.797  16.783  0.2402  0.2722  0.1279
  439TMC3    H2 6549   1.032   2.774  16.674  0.8783  0.9401 -0.2356
  439TMC3    C7 6550   0.869   2.690  16.848  0.0682  0.7674 -0.4041
  439TMC3    C8 6551   1.012   2.852  16.436  0.3897  0.0960 -0.2066
  439TMC3    O1 6552   0.987   2.654  16.851  0.2289 -0.2124  0.1162
  439TMC3    O2 6553   1.106   2.777  16.458 -0.1105 -0.0960  0.4378
  440MPD2     C 6554   3.976   3.065  14.747  0.1980 -0.2843  0.2467
  440MPD2    C1 6555   4.024   3.194  14.796 -0.4299 -0.6891  0.2229
  440MPD2    C2 6556   4.152   3.218  14.813  0.2928 -0.4927 -0.1311
  440MPD2    C3 6557   4.242   3.117  14.802  0.0758 -0.3978  0.1376
  440MPD2    C4 6558   4.204   2.996  14.750  0.2684  0.1479 -0.1418
  440MPD2    C5 6559   4.071   2.974  14.715 -0.3508 -0.1151  0.5584
  440MPD2     H 6560   4.185   3.315  14.849  0.3653 -0.2242 -0.9091
  440MPD2    H1 6561   4.273   2.913  14.742  1.6447  0.9422  3.4917
  440MPD2    H2 6562   3.872   3.042  14.728  0.0412  1.2105 -0.7026
  440MPD2    H3 6563   4.040   2.885  14.662  0.7782 -0.9722  1.3456
  440MPD2     N 6564   4.382   3.138  14.833 -0.2733 -0.4630  0.7217
  440MPD2    H5 6565   4.435   3.052  14.841  1.1667  0.3605 -0.1275
  440MPD2    N1 6566   3.942   3.310  14.792 -0.0548 -0.3536 -0.4002
  440MPD2    H7 6567   3.982   3.393  14.834 -2.7835  1.5027 -1.4492
  441TMC3    C1 6568   4.582   3.247  14.926  0.4306 -0.6734 -0.2726
  441TMC3    C2 6569   4.635   3.365  14.958 -0.2874 -0.2339 -0.2253
  441TMC3    C3 6570   0.009   3.368  15.046  0.8792  0.1946 -0.1683
  441TMC3    C4 6571   4.624   3.131  14.986  0.4504 -0.6944  0.0939
  441TMC3    C5 6572   4.726   3.143  15.077 -0.0753 -0.7128 -0.9975
  441TMC3    C6 6573   0.062   3.259  15.098  0.1023  0.3201 -0.2565
  441TMC3     C 6574   4.442   3.260  14.875  0.0465 -0.2751  0.0732
  441TMC3     O 6575   4.403   3.373  14.863 -0.3007 -0.6527  0.0584
  441TMC3     H 6576   4.607   3.452  14.900  3.6311  0.0659 -1.6567
  441TMC3    H1 6577   4.572   3.036  14.983  1.2742 -1.0627 -2.4536
  441TMC3    H2 6578   0.139   3.280  15.171 -0.7605 -2.0785  1.3437
  441TMC3    C7 6579   0.034   3.026  15.152 -0.3461  0.3767 -0.1099
  441TMC3    C8 6580   4.714   3.467  15.141 -0.1635 -0.9536  0.5999
  441TMC3    O1 6581   4.685   2.934  15.155  0.5395  0.6399  0.3026
  441TMC3    O2 6582   0.072   3.485  15.223  0.4391  0.2247 -0.5616
  442MPD2     C 6583   2.313   3.590  16.638  0.4990  0.1599  0.0550
  442MPD2    C1 6584   2.238   3.506  16.714  0.4202  0.1642 -0.6378
  442MPD2    C2 6585   2.269   3.367  16.707 -0.1910  0.5248  0.6328
  442MPD2    C3 6586   2.355   3.315  16.616 -0.4802  0.2984 -0.0608
  442MPD2    C4 6587   2.440   3.401  16.548  0.1379  0.5426  0.3210
  442MPD2    C5 6588   2.415   3.535  16.554  0.6235 -0.5750  0.1287
  442MPD2     H 6589   2.214   3.308  16.779 -2.2777 -0.8158 -2.0204
  442MPD2    H1 6590   2.518   3.359  16.485 -0.4830  1.2657 -0.9253
  442MPD2    H2 6591   2.305   3.697  16.624  1.3397  0.1852 -0.3010
  442MPD2    H3 6592   2.473   3.595  16.485  1.2912 -2.2872 -0.7926
  442MPD2     N 6593   2.367   3.181  16.597  0.6569  0.5672 -0.7469
  442MPD2    H5 6594   2.446   3.150  16.541 -0.7442 -0.7529 -2.0062
  442MPD2    N1 6595   2.141   3.548  16.810  0.1600 -0.2465 -0.0810
  442MPD2    H7 6596   2.086   3.480  16.862  2.2635 -0.8855  1.3191
  443TMC3    C1 6597   1.976   3.698  16.915 -0.4591 -0.4952 -0.2185
  443TMC3    C2 6598   1.913   3.818  16.924 -0.1400 -0.4814 -0.4715
  443TMC3    C3 6599   1.795   3.817  16.987  0.0983 -0.4001  0.0238
  443TMC3    C4 6600   1.934   3.588  16.984  0.4708  0.0837  0.3212
  443TMC3    C5 6601   1.841   3.606  17.080  0.5372  0.2587 -0.5699
  443TMC3    C6 6602   1.769   3.724  17.081 -0.2213  0.7876  0.2445
  443TMC3     C 6603   2.097   3.681  16.828 -0.0834  0.6786  0.6866
  443TMC3     O 6604   2.136   3.783  16.777 -0.1418  0.1633 -0.0705
  443TMC3     H 6605   1.959   3.905  16.878  0.4488  0.4666  1.9239
  443TMC3    H1 6606   1.981   3.491  16.998 -0.8431 -0.2982  2.0905
  443TMC3    H2 6607   1.683   3.736  17.146 -0.9605  2.1320 -0.9889
  443TMC3    C7 6608   1.793   3.499  17.169 -0.3803  0.6457 -0.5292
  443TMC3    C8 6609   1.706   3.931  16.977  0.1853 -0.2622 -0.3621
  443TMC3    O1 6610   1.847   3.391  17.157  0.1385  0.5039 -0.2691
  443TMC3    O2 6611   1.683   3.989  17.082 -0.2755 -0.1745 -0.0650
  444MPD2     C 6612   2.551   2.867  17.002 -0.0119  0.1525 -0.0603
  444MPD2    C1 6613   2.472   2.756  17.018  0.3405 -0.4531 -0.5937
  444MPD2    C2 6614   2.524   2.637  16.976 -0.3215 -0.0608  0.0039
  444MPD2    C3 6615   2.655   2.633  16.922 -0.0802 -0.0169  0.3284
  444MPD2    C4 6616   2.726   2.748  16.899  0.7173 -0.0212 -0.2704
  444MPD2    C5 6617   2.669   2.863  16.934 -0.5096 -0.0946 -0.7640
  444MPD2     H 6618   2.457   2.554  16.992  1.7547 -1.9153 -0.8355
  444MPD2    H1 6619   2.821   2.745  16.846  0.4691 -2.2264 -0.6041
  444MPD2    H2 6620   2.511   2.965  17.026 -1.4828  0.0474 -2.1121
  444MPD2    H3 6621   2.730   2.952  16.922  0.5200 -0.0648  4.5693
  444MPD2     N 6622   2.694   2.501  16.881  0.1643  0.1207  0.3761
  444MPD2    H5 6623   2.633   2.425  16.910  0.5129  1.0715  3.6148
  444MPD2    N1 6624   2.338   2.748  17.075  0.2713  0.3328 -0.0730
  444MPD2    H7 6625   2.297   2.657  17.058 -2.5040  1.7677 -0.9200
  445TMC3    C1 6626   2.837   2.321  16.795 -0.2166 -0.2032 -0.1924
  445TMC3    C2 6627   2.732   2.258  16.733 -0.0262  0.1725 -0.0478
  445TMC3    C3 6628   2.750   2.141  16.662  0.0988 -0.3936  0.2630
  445TMC3    C4 6629   2.961   2.265  16.787 -0.0006 -0.6486  0.5859
  445TMC3    C5 6630   2.978   2.141  16.739  0.1837  0.2895 -0.5930
  445TMC3    C6 6631   2.874   2.074  16.674  0.5067 -0.7284  0.1240
  445TMC3     C 6632   2.825   2.468  16.841  0.8635  0.3722 -0.4604
  445TMC3     O 6633   2.928   2.530  16.837 -0.2056  0.0901  0.5234
  445TMC3     H 6634   2.630   2.295  16.738  0.5297  1.6227  0.6081
  445TMC3    H1 6635   3.046   2.317  16.832  0.8550 -1.0468 -0.5722
  445TMC3    H2 6636   2.890   1.972  16.641 -0.3950 -0.8575  0.0818
  445TMC3    C7 6637   3.109   2.090  16.713  0.6581 -0.3268  0.1228
  445TMC3    C8 6638   2.634   2.076  16.600 -0.6385  0.8637 -0.2894
  445TMC3    O1 6639   3.127   2.005  16.629 -0.6258  0.1004 -0.0926
  445TMC3    O2 6640   2.623   1.951  16.593 -0.4681  0.2499  0.1380
  446MPD2     C 6641   2.019   4.530  11.382 -0.2467  0.2252 -0.0417
  446MPD2    C1 6642   1.984   4.609  11.279 -0.6077  0.0684 -0.0598
  446MPD2    C2 6643   2.005   0.016  11.282 -0.0412 -0.0370 -0.9709
  446MPD2    C3 6644   2.070   0.069  11.390  0.1916 -0.4908 -0.8974
  446MPD2    C4 6645   2.090   4.719  11.504 -0.0254 -0.5089  0.8586
  446MPD2    C5 6646   2.066   4.586  11.500  0.2660  0.6545  0.2559
  446MPD2     H 6647   1.980   0.075  11.194 -3.5170  1.2127  0.8460
  446MPD2    H1 6648   2.116   0.029  11.602  1.4028 -0.6865  0.5493
  446MPD2    H2 6649   1.996   4.424  11.384 -2.0448  0.6048  0.1338
  446MPD2    H3 6650   2.067   4.521  11.587 -1.9624  0.1850 -0.0682
  446MPD2     N 6651   2.115   0.202  11.376 -0.1175 -0.0901 -0.2773
  446MPD2    H5 6652   2.090   0.245  11.288  1.3038  0.3691 -0.4551
  446MPD2    N1 6653   1.930   4.560  11.154  0.1812 -0.3106 -0.6721
  446MPD2    H7 6654   1.882   4.628  11.097  1.4544  3.9549  3.3082
  447TMC3    C1 6655   2.273   0.369  11.407 -0.3540 -0.1981  0.1885
  447TMC3    C2 6656   2.271   0.409  11.274 -0.5290 -0.2830  0.1840
  447TMC3    C3 6657   2.377   0.485  11.223 -0.3892  0.4882  0.6860
  447TMC3    C4 6658   2.380   0.411  11.483 -0.4754 -0.2511  0.3378
  447TMC3    C5 6659   2.483   0.486  11.430 -0.7346 -0.2596 -0.1223
  447TMC3    C6 6660   2.480   0.524  11.301  0.5463 -0.2203 -0.7955
  447TMC3     C 6661   2.200   0.257  11.463  0.3293  0.2238 -0.5668
  447TMC3     O 6662   2.232   0.231  11.578  0.2355  0.2373 -0.1813
  447TMC3     H 6663   2.208   0.358  11.202 -0.1405  1.5966 -1.4879
  447TMC3    H1 6664   2.384   0.382  11.587 -0.4926 -0.4299  0.2885
  447TMC3    H2 6665   2.560   0.594  11.279 -0.4006  0.8745 -0.7084
  447TMC3    C7 6666   2.616   0.481  11.482  0.6418  0.1094  0.1360
  447TMC3    C8 6667   2.419   0.477  11.081 -0.0824 -0.4893  0.2279
  447TMC3    O1 6668   2.708   0.485  11.401 -0.1102 -0.2626 -0.2569
  447TMC3    O2 6669   2.329   0.453  11.001 -0.0144  0.2128  0.5509
  448TMC3    C1 6670   0.333   4.160  16.821 -0.8721 -0.5792 -0.3883
  448TMC3    C2 6671   0.400   4.068  16.754  0.0241 -0.5966  0.0453
  448TMC3    C3 6672   0.500   4.007  16.825 -0.6536  0.5623 -0.8169
  448TMC3    C4 6673   0.348   4.191  16.950 -0.4106 -0.5442 -0.5271
  448TMC3    C5 6674   0.432   4.110  17.022  0.4628  0.2754 -0.8190
  448TMC3    C6 6675   0.505   4.019  16.955 -0.3118  0.5945 -0.2359
  448TMC3     C 6676   0.320   4.281  16.744 -0.5580  0.6810  0.2684
  448TMC3     O 6677   0.422   4.321  16.685  0.0476  0.0403 -0.6508
  448TMC3     H 6678   0.396   4.055  16.646 -2.3733  0.3904  0.0276
  448TMC3    H1 6679   0.299   4.273  17.001  0.9493 -0.4734  0.6787
  448TMC3    H2 6680   0.579   3.965  17.014 -2.6637  0.1500  2.2899
  448TMC3    C7 6681   0.488   4.154  17.147  0.5366 -0.4512 -0.3676
  448TMC3    C8 6682   0.575   3.901  16.766  0.2544  0.6323 -0.1696
  448TMC3    O1 6683   0.610   4.147  17.162  0.1925  0.1314 -0.2556
  448TMC3    O2 6684   0.642   3.839  16.845  0.3882 -0.1580  0.0807
  449MPD2     C 6685   2.180   2.270  13.875 -0.2001 -0.1792 -0.0288
  449MPD2    C1 6686   2.054   2.327  13.838 -0.5650 -0.2075 -0.1874
  449MPD2    C2 6687   1.937   2.267  13.883  0.0753 -0.2875 -0.6556
  449MPD2    C3 6688   1.942   2.149  13.962  0.0879 -0.0673  0.0878
  449MPD2    C4 6689   2.060   2.103  13.999 -0.4467 -0.4476  0.2869
  449MPD2    C5 6690   2.178   2.162  13.955  0.9075 -0.7537 -1.0750
  449MPD2     H 6691   1.842   2.313  13.858  0.0907  1.1754  1.9283
  449MPD2    H1 6692   2.069   2.010  14.054 -0.0809  0.0473  1.0656
  449MPD2    H2 6693   2.276   2.310  13.843 -1.1522  2.0974 -0.0569
  449MPD2    H3 6694   2.276   2.125  13.980  0.8029 -0.8216 -0.7730
  449MPD2     N 6695   1.821   2.099  14.017  0.4970  0.5974 -0.5990
  449MPD2    H5 6696   1.738   2.129  13.967  0.5730 -1.2916 -1.8521
  449MPD2    N1 6697   2.041   2.447  13.769  0.0831 -0.1748  0.1355
  449MPD2    H7 6698   1.951   2.494  13.772  0.4452  0.2568  4.4512
  450TMC3    C1 6699   2.079   2.638  13.666 -0.3838 -0.0512  0.2003
  450TMC3    C2 6700   2.094   2.667  13.535 -0.3712 -0.0623 -0.6545
  450TMC3    C3 6701   1.980   2.716  13.469 -0.0388  0.8391 -0.1697
  450TMC3    C4 6702   1.961   2.671  13.730  0.1126  0.1711 -0.1202
  450TMC3    C5 6703   1.846   2.706  13.660  0.0891  0.5765 -0.0575
  450TMC3    C6 6704   1.857   2.728  13.529 -0.6775  0.6707  0.2829
  450TMC3     C 6705   2.141   2.514  13.710 -0.3443  0.4880 -0.2495
  450TMC3     O 6706   2.253   2.474  13.679 -0.1122 -0.1416 -0.8471
  450TMC3     H 6707   2.183   2.642  13.479 -1.1186  3.9116 -3.6361
  450TMC3    H1 6708   1.951   2.663  13.838 -2.1385  0.3769 -0.3208
  450TMC3    H2 6709   1.767   2.735  13.469 -0.5123 -2.2845 -0.3417
  450TMC3    C7 6710   1.738   2.616  13.704  0.3503 -0.3550  0.3382
  450TMC3    C8 6711   1.996   2.826  13.372  0.2854 -0.3935  0.6288
  450TMC3    O1 6712   1.775   2.535  13.788  0.0585 -0.6848  0.0623
  450TMC3    O2 6713   1.919   2.919  13.381  0.1129 -0.1125  0.1728
  451MPD2     C 6714   1.833   1.230   0.784  1.1468 -0.2853  0.3332
  451MPD2    C1 6715   1.877   1.358   0.761 -0.0355 -0.2638 -0.0531
  451MPD2    C2 6716   2.002   1.377   0.713  0.3891 -0.1223 -0.6824
  451MPD2    C3 6717   2.090   1.273   0.689 -0.0135 -0.2799  0.0633
  451MPD2    C4 6718   2.047   1.147   0.714 -0.1795  0.1585 -1.1012
  451MPD2    C5 6719   1.922   1.128   0.768  0.2947 -0.0038 -0.3463
  451MPD2     H 6720   2.038   1.478   0.697  1.6641 -0.3461  0.7926
  451MPD2    H1 6721   2.115   1.064   0.696 -2.1878 -1.6283 -0.4890
  451MPD2    H2 6722   1.734   1.215   0.826  1.7306 -1.1918  1.3802
  451MPD2    H3 6723   1.892   1.026   0.792 -1.5450  0.5006 -0.5198
  451MPD2     N 6724   2.220   1.285   0.651  0.6664 -0.2053  0.4108
  451MPD2    H5 6725   2.265   1.196   0.632  0.9089  0.1945 -0.8334
  451MPD2    N1 6726   1.785   1.466   0.778  0.0686 -0.1197  0.0622
  451MPD2    H7 6727   1.696   1.444   0.821  0.1037  0.3322  0.3597
  452TMC3    C1 6728   2.430   1.388   0.617  0.2303  0.4138  0.0171
  452TMC3    C2 6729   2.505   1.497   0.636  0.2386 -0.2576  0.4274
  452TMC3    C3 6730   2.627   1.505   0.583  0.1327  0.8686 -0.1457
  452TMC3    C4 6731   2.481   1.279   0.552  0.2918 -0.5903 -0.6218
  452TMC3    C5 6732   2.600   1.287   0.494 -0.0733  0.2521  0.3298
  452TMC3    C6 6733   2.671   1.398   0.505  0.2935  0.1459  0.3609
  452TMC3     C 6734   2.294   1.399   0.665 -0.0323  0.3220  0.2814
  452TMC3     O 6735   2.257   1.510   0.703 -0.0934 -0.0760 -0.0698
  452TMC3     H 6736   2.470   1.577   0.701 -1.5828 -1.6472  1.1530
  452TMC3    H1 6737   2.419   1.193   0.530 -1.3956 -0.4696  3.5568
  452TMC3    H2 6738   2.768   1.399   0.457 -0.4189  1.5349 -1.0576
  452TMC3    C7 6739   2.669   1.178   0.436 -0.0733 -0.0988  0.1828
  452TMC3    C8 6740   2.717   1.619   0.607  0.6749  0.7038  0.6348
  452TMC3    O1 6741   2.758   1.196   0.355 -0.1698 -0.5927 -0.3465
  452TMC3    O2 6742   2.814   1.630   0.529 -0.0552  0.1341  0.8364
  453TMC3    C1 6743   4.183   3.118  11.571 -0.3130  0.0191  0.5036
  453TMC3    C2 6744   4.176   2.992  11.621 -0.1607  0.1240  0.1261
  453TMC3    C3 6745   4.167   2.888  11.535 -0.5055 -0.0312 -0.0466
  453TMC3    C4 6746   4.182   3.139  11.439  0.1797  0.3037  0.2029
  453TMC3    C5 6747   4.197   3.033  11.356  0.3988  0.2598  0.1157
  453TMC3    C6 6748   4.182   2.901  11.401  0.0262 -0.2049 -0.6868
  453TMC3     C 6749   4.216   3.233  11.652 -0.3478 -0.3833  0.2293
  453TMC3     O 6750   4.261   3.334  11.595 -0.3136  0.2692 -1.0975
  453TMC3     H 6751   4.166   2.965  11.726 -0.0748 -1.1058 -0.1850
  453TMC3    H1 6752   4.191   3.236  11.392 -0.3446  0.3328  0.1628
  453TMC3    H2 6753   4.184   2.814  11.337  0.1914  0.1402 -1.1493
  453TMC3    C7 6754   4.199   3.053  11.205  0.7321  0.2912 -0.2373
  453TMC3    C8 6755   4.195   2.756  11.582  0.6608  0.0994 -0.7983
  453TMC3    O1 6756   4.170   3.164  11.172 -1.1649 -0.5136  0.6461
  453TMC3    O2 6757   4.251   2.748  11.689  0.0204  0.6052  0.3040
  454MPD2     C 6758   3.364   2.444  16.352 -0.5347  0.5885 -0.0714
  454MPD2    C1 6759   3.283   2.511  16.261  0.1701 -0.0869 -0.7367
  454MPD2    C2 6760   3.239   2.637  16.281  0.1556 -0.2896  0.9934
  454MPD2    C3 6761   3.291   2.712  16.389  0.4848 -0.9131  0.3971
  454MPD2    C4 6762   3.374   2.652  16.480  0.5203  0.1990 -0.7402
  454MPD2    C5 6763   3.413   2.520  16.461 -0.2344  0.5743  0.1392
  454MPD2     H 6764   3.162   2.680  16.218 -1.4078 -1.7861  1.8670
  454MPD2    H1 6765   3.430   2.710  16.553 -2.2095  0.2657  1.3132
  454MPD2    H2 6766   3.395   2.341  16.342 -0.7530  0.5758 -0.6172
  454MPD2    H3 6767   3.493   2.473  16.517 -0.4827  0.1584  0.1497
  454MPD2     N 6768   3.251   2.845  16.404 -0.7469 -0.1987  0.4604
  454MPD2    H5 6769   3.235   2.859  16.503 -1.2140  0.1075  0.3382
  454MPD2    N1 6770   3.222   2.453  16.149 -0.2027  0.2346  0.7418
  454MPD2    H7 6771   3.172   2.513  16.084 -2.1208 -0.0035  2.0145
  455TMC3    C1 6772   3.059   2.964  16.378 -0.3275  0.2005 -0.5762
  455TMC3    C2 6773   3.081   3.027  16.495 -0.4357 -0.0470 -0.5717
  455TMC3    C3 6774   2.995   3.005  16.602 -0.5772  0.2635 -0.3417
  455TMC3    C4 6775   2.965   2.867  16.372  0.0491 -0.0505 -0.5032
  455TMC3    C5 6776   2.885   2.849  16.481 -0.2434 -0.2474 -0.4526
  455TMC3    C6 6777   2.895   2.912  16.602  0.4902  0.3334 -0.2084
  455TMC3     C 6778   3.176   2.919  16.314 -0.8270  1.0380  0.3758
  455TMC3     O 6779   3.175   2.916  16.191  0.5738 -0.5585  0.0501
  455TMC3     H 6780   3.167   3.092  16.503  0.0517 -0.8733  0.8206
  455TMC3    H1 6781   2.954   2.798  16.289 -0.8133 -0.0266 -0.4114
  455TMC3    H2 6782   2.823   2.899  16.683  2.1291 -0.7310  1.0713
  455TMC3    C7 6783   2.843   2.709  16.487  0.5046 -0.0787 -0.4252
  455TMC3    C8 6784   2.990   3.112  16.697  0.2269 -0.1327 -1.1926
  455TMC3    O1 6785   2.729   2.690  16.457 -0.0878  0.2270 -0.1826
  455TMC3    O2 6786   2.942   3.084  16.804  0.1810  0.4544  0.2852
  456MPD2     C 6787   1.483   2.925  16.029  1.3336  0.0604  0.4791
  456MPD2    C1 6788   1.454   2.842  16.137  0.1661 -0.6855  0.0022
  456MPD2    C2 6789   1.392   2.896  16.252 -0.2760 -0.3683  0.1033
  456MPD2    C3 6790   1.337   3.024  16.256 -0.6022 -0.2668 -0.1862
  456MPD2    C4 6791   1.363   3.097  16.137 -0.6403 -0.0365  0.0078
  456MPD2    C5 6792   1.441   3.053  16.027 -0.5212 -0.4633 -0.1632
  456MPD2     H 6793   1.377   2.835  16.340 -1.3545  0.4019  0.4445
  456MPD2    H1 6794   1.322   3.196  16.123  1.5243  1.2156  2.5149
  456MPD2    H2 6795   1.545   2.895  15.946  0.2612 -0.8199 -0.0153
  456MPD2    H3 6796   1.456   3.110  15.936 -2.4037 -1.7920 -1.3086
  456MPD2     N 6797   1.263   3.076  16.366 -0.4498  0.2069 -0.4134
  456MPD2    H5 6798   1.261   3.013  16.445  1.1179 -1.5571 -1.7958
  456MPD2    N1 6799   1.499   2.711  16.122  0.7234  0.3340 -0.5959
  456MPD2    H7 6800   1.573   2.694  16.054  2.0316  1.7988  0.4687
  457TMC3    C1 6801   1.161   3.249  16.503 -0.0000 -0.3444  0.8376
  457TMC3    C2 6802   1.091   3.367  16.506  0.8719  0.0548  0.2044
  457TMC3    C3 6803   1.009   3.395  16.613  0.2652  0.4831 -0.0662
  457TMC3    C4 6804   1.159   3.160  16.612  0.5009 -0.0519  0.3093
  457TMC3    C5 6805   1.097   3.201  16.725 -0.0779 -0.2586 -0.0761
  457TMC3    C6 6806   1.030   3.320  16.731  0.4185 -0.9104  0.3913
  457TMC3     C 6807   1.215   3.208  16.373  0.0540  0.3209  0.0900
  457TMC3     O 6808   1.199   3.294  16.288  0.1983 -0.6119  0.2347
  457TMC3     H 6809   1.087   3.438  16.425 -0.8894  0.7890  0.9427
  457TMC3    H1 6810   1.207   3.063  16.604 -0.3361 -0.4870  0.5897
  457TMC3    H2 6811   0.965   3.333  16.816 -0.5106  2.6603 -0.8445
  457TMC3    C7 6812   1.147   3.148  16.848  0.3002 -0.8482 -0.7254
  457TMC3    C8 6813   0.915   3.499  16.620 -0.4745  0.4831 -0.1781
  457TMC3    O1 6814   1.171   3.024  16.847  0.8206 -0.3332 -0.4669
  457TMC3    O2 6815   0.889   3.540  16.736 -0.4043  0.4720 -0.6655
  458MPD2     C 6816   2.915   2.482  12.194  0.2045 -0.3153  0.6221
  458MPD2    C1 6817   2.927   2.390  12.298  0.6449  0.4209 -0.4032
  458MPD2    C2 6818   2.812   2.329  12.344  0.0426  0.6026 -0.6400
  458MPD2    C3 6819   2.683   2.373  12.310 -0.3137 -0.3428 -0.1771
  458MPD2    C4 6820   2.674   2.472  12.210 -0.0717 -0.5274  0.2897
  458MPD2    C5 6821   2.789   2.520  12.152 -0.6006  0.0943  0.5147
  458MPD2     H 6822   2.817   2.264  12.430  0.2106  0.5774 -0.6686
  458MPD2    H1 6823   2.578   2.504  12.172 -0.0037 -1.8520 -0.9927
  458MPD2    H2 6824   3.002   2.529  12.152 -0.1660  0.0027  0.2171
  458MPD2    H3 6825   2.783   2.596  12.074 -1.6122 -0.3181  0.1881
  458MPD2     N 6826   2.568   2.316  12.375  0.0225 -0.5249 -0.5242
  458MPD2    H5 6827   2.582   2.241  12.442  0.6252  2.3968  2.6187
  458MPD2    N1 6828   3.057   2.375  12.353 -0.3502  0.3215 -0.4619
  458MPD2    H7 6829   3.128   2.442  12.325  0.4471 -0.0004  0.7813
  459TMC3    C1 6830   3.221   2.308  12.521  0.3169 -0.3532 -0.1244
  459TMC3    C2 6831   3.316   2.371  12.449  0.7419 -0.0607 -0.0697
  459TMC3    C3 6832   3.435   2.406  12.516  0.3146  0.3655  0.4837
  459TMC3    C4 6833   3.237   2.277  12.652  0.3839 -0.3258 -0.2973
  459TMC3    C5 6834   3.351   2.305  12.711 -0.2791 -0.3493 -0.4021
  459TMC3    C6 6835   3.457   2.367  12.647 -0.4646 -0.3300  0.3553
  459TMC3     C 6836   3.086   2.293  12.462  0.1489  0.6414 -0.4757
  459TMC3     O 6837   3.005   2.225  12.529 -0.5906 -0.6564 -0.0537
  459TMC3     H 6838   3.308   2.381  12.342 -1.6555 -3.5599 -0.2187
  459TMC3    H1 6839   3.147   2.244  12.703  0.8626 -0.9908  0.1293
  459TMC3    H2 6840   3.550   2.396  12.695  0.7947 -2.3127 -0.8619
  459TMC3    C7 6841   3.358   2.266  12.850 -0.2027  0.0409 -0.1465
  459TMC3    C8 6842   3.560   2.444  12.443  0.3437  0.1948 -0.2897
  459TMC3    O1 6843   3.255   2.213  12.890 -0.0969 -0.4857  0.3269
  459TMC3    O2 6844   3.668   2.392  12.469  0.6791 -0.4739 -0.3279
  460MPD2     C 6845   2.755   0.492  10.942 -1.0483 -0.1702  0.2672
  460MPD2    C1 6846   2.621   0.473  10.941  0.2405 -0.0293  0.1383
  460MPD2    C2 6847   2.558   0.430  10.823 -0.3919  0.1450 -0.1416
  460MPD2    C3 6848   2.629   0.379  10.719 -0.1355  0.0433 -0.5997
  460MPD2    C4 6849   2.766   0.400  10.723  0.1676 -0.8912  0.2703
  460MPD2    C5 6850   2.827   0.463  10.828 -0.3347 -0.1708 -0.1309
  460MPD2     H 6851   2.450   0.432  10.815 -0.4576  1.5561  1.0344
  460MPD2    H1 6852   2.831   0.376  10.639  1.6505 -0.4711  1.3009
  460MPD2    H2 6853   2.809   0.539  11.024  0.5610  1.2366 -1.5782
  460MPD2    H3 6854   2.934   0.478  10.829 -0.3271 -0.2244 -0.1443
  460MPD2     N 6855   2.564   0.317  10.610 -0.0610  0.1830 -0.1251
  460MPD2    H5 6856   2.468   0.339  10.587 -0.6796 -2.7557 -0.4358
  460MPD2    N1 6857   2.553   0.494  11.064  0.1547  0.8527 -0.6736
  460MPD2    H7 6858   2.603   0.517  11.149 -0.1989 -0.6089 -0.0798
  461TMC3    C1 6859   2.559   0.192  10.395  0.1512 -0.5145  0.1264
  461TMC3    C2 6860   2.584   0.069  10.329 -0.3230 -0.2785  0.3539
  461TMC3    C3 6861   2.533   0.043  10.207 -0.2515 -0.2777 -0.1990
  461TMC3    C4 6862   2.481   0.285  10.330  0.5607  0.0942  0.2695
  461TMC3    C5 6863   2.440   0.258  10.202  0.1120 -0.2978  0.2361
  461TMC3    C6 6864   2.461   0.140  10.140 -0.1874 -0.8883  0.1675
  461TMC3     C 6865   2.623   0.218  10.533  0.4982 -0.3119 -0.3915
  461TMC3     O 6866   2.708   0.142  10.570  0.7509 -0.5040 -0.7251
  461TMC3     H 6867   2.643   4.724  10.381 -0.4885 -1.4807 -1.1759
  461TMC3    H1 6868   2.456   0.381  10.375  2.5999  0.8901 -0.2954
  461TMC3    H2 6869   2.439   0.141  10.033  0.6125 -0.8667  0.0080
  461TMC3    C7 6870   2.332   0.333  10.147 -0.3079  0.3429 -0.0258
  461TMC3    C8 6871   2.545   4.645  10.138 -0.2692 -0.0313  0.8639
  461TMC3    O1 6872   2.249   0.280  10.077  0.0042  0.1151 -0.2026
  461TMC3    O2 6873   2.610   4.556  10.186  0.1350  0.1702 -0.0105
  462TMC3    C1 6874   2.359   0.272   0.189 -0.2471  0.3233  0.2606
  462TMC3    C2 6875   2.410   0.158   0.141  0.0454  0.8249 -0.1425
  462TMC3    C3 6876   2.375   0.035   0.191 -0.2769  0.0174 -0.1386
  462TMC3    C4 6877   2.270   0.268   0.292  0.0338  0.6716  0.1685
  462TMC3    C5 6878   2.238   0.143   0.346 -0.2131  0.5665  0.2467
  462TMC3    C6 6879   2.278   0.025   0.293 -1.0375 -0.9306 -0.2734
  462TMC3     C 6880   2.441   0.391   0.153 -0.8776  0.2153  0.4573
  462TMC3     O 6881   2.556   0.367   0.119  0.1275  0.4042  0.1465
  462TMC3     H 6882   2.491   0.159   0.069  1.1515  1.4255  1.1208
  462TMC3    H1 6883   2.231   0.363   0.328 -1.7363  1.3203 -3.4699
  462TMC3    H2 6884   2.255   4.659   0.341  1.3261 -1.1102  0.4674
  462TMC3    C7 6885   2.113   0.138   0.428  0.2356  0.2262 -0.0180
  462TMC3    C8 6886   2.435   4.638   0.146  0.6336  0.8202  0.2585
  462TMC3    O1 6887   2.052   0.030   0.426 -0.1245  0.2123 -0.3708
  462TMC3    O2 6888   2.406   4.541   0.213  0.5205  0.2741 -0.3787
  463MPD2     C 6889   2.925   4.057   1.709 -0.6994 -0.6626  0.2218
  463MPD2    C1 6890   2.883   4.165   1.632  0.3002 -0.2131  0.4502
  463MPD2    C2 6891   2.982   4.244   1.573 -0.0586 -0.1218 -0.2915
  463MPD2    C3 6892   3.114   4.229   1.596 -0.6753  0.4835 -0.4260
  463MPD2    C4 6893   3.152   4.125   1.672 -0.2879  0.2409 -0.6895
  463MPD2    C5 6894   3.058   4.041   1.729  0.3945  0.2111  0.6522
  463MPD2     H 6895   2.937   4.322   1.514  1.4104  2.4767  2.0110
  463MPD2    H1 6896   3.256   4.111   1.700 -0.3103 -1.9401 -1.7377
  463MPD2    H2 6897   2.857   3.991   1.762 -0.2805  0.4806  2.1920
  463MPD2    H3 6898   3.099   3.961   1.790  0.4309 -0.3595 -0.1319
  463MPD2     N 6899   3.213   4.320   1.537  0.5263 -0.1811 -0.3715
  463MPD2    H5 6900   3.311   4.294   1.547  0.8275  0.8378 -0.7065
  463MPD2    N1 6901   2.747   4.211   1.627  0.6675 -0.6719  0.4455
  463MPD2    H7 6902   2.732   4.305   1.592 -2.2196 -1.3693 -0.1866
  464TMC3    C1 6903   2.515   4.219   1.640 -0.2964  0.0836 -0.9376
  464TMC3    C2 6904   2.529   4.347   1.602  0.2348 -0.1474  0.6362
  464TMC3    C3 6905   2.422   4.434   1.627 -0.2689  0.7055 -0.0965
  464TMC3    C4 6906   2.397   4.175   1.698  0.5828  0.3701  0.1096
  464TMC3    C5 6907   2.292   4.269   1.716  0.4072  0.1580 -0.4028
  464TMC3    C6 6908   2.311   4.400   1.693 -0.6211 -0.1287  0.8248
  464TMC3     C 6909   2.632   4.144   1.663  0.4388  0.2083 -0.0021
  464TMC3     O 6910   2.627   4.032   1.713 -0.0312  0.4940  0.5736
  464TMC3     H 6911   2.607   4.385   1.538 -3.1730  0.7081 -3.0163
  464TMC3    H1 6912   2.393   4.078   1.746  1.0986  0.4048  0.2186
  464TMC3    H2 6913   2.226   4.467   1.706  0.3816  0.7871  2.6528
  464TMC3    C7 6914   2.171   4.221   1.775 -0.2009  0.3695 -0.2917
  464TMC3    C8 6915   2.437   4.576   1.577 -0.0154 -0.1634 -0.3050
  464TMC3    O1 6916   2.108   4.301   1.847  0.2362  0.5902 -0.0974
  464TMC3    O2 6917   2.525   4.591   1.490 -0.1138  0.1925 -0.1224
  465MPD2     C 6918   0.258   3.360  16.198 -0.0958 -0.1822 -0.4021
  465MPD2    C1 6919   0.213   3.461  16.286 -0.0211 -0.1392 -0.5520
  465MPD2    C2 6920   0.079   3.494  16.277 -0.3303  0.4527  0.4203
  465MPD2    C3 6921   4.717   3.443  16.186 -0.3075 -0.3234  0.1315
  465MPD2    C4 6922   0.037   3.343  16.101 -0.2116 -0.0129 -0.2267
  465MPD2    C5 6923   0.168   3.301  16.115  0.5092  0.8905 -0.5082
  465MPD2     H 6924   0.050   3.555  16.363 -1.5443 -0.3856  0.6044
  465MPD2    H1 6925   4.702   3.291  16.031 -0.4338 -1.3641  0.9805
  465MPD2    H2 6926   0.359   3.321  16.197 -1.2456 -3.1380  0.1971
  465MPD2    H3 6927   0.193   3.222  16.045  0.8062 -0.7066  1.3921
  465MPD2     N 6928   4.587   3.490  16.196  0.1553 -0.3923  0.1973
  465MPD2    H5 6929   4.567   3.561  16.266  1.1336  0.4553 -0.3724
  465MPD2    N1 6930   0.286   3.511  16.396 -0.2212 -0.1864  0.4194
  465MPD2    H7 6931   0.234   3.573  16.457 -0.7787 -0.2348 -0.0050
  466TMC3    C1 6932   4.138   3.477  16.202 -0.6125 -0.4216  0.1914
  466TMC3    C2 6933   4.122   3.615  16.219 -0.4431  0.1942 -0.1948
  466TMC3    C3 6934   4.236   3.691  16.189 -0.3159  0.1426  0.2370
  466TMC3    C4 6935   4.252   3.410  16.181 -0.5902 -0.0562 -0.0501
  466TMC3    C5 6936   4.355   3.497  16.157 -0.5975 -0.7616  0.0921
  466TMC3    C6 6937   4.358   3.638  16.159  0.0943 -0.5379 -0.6008
  466TMC3     C 6938   4.068   3.391  16.293  0.1761 -0.0773 -0.7994
  466TMC3     O 6939   4.053   3.430  16.408  0.3201  0.1583  0.0720
  466TMC3     H 6940   4.024   3.657  16.239  0.0936  1.0323  0.7170
  466TMC3    H1 6941   4.261   3.306  16.150 -1.9424  0.1074 -0.9880
  466TMC3    H2 6942   4.443   3.705  16.147  2.9685 -4.0513 -0.0598
  466TMC3    C7 6943   4.483   3.433  16.126  0.2671  0.7262  0.4626
  466TMC3    C8 6944   4.234   3.841  16.193  0.7674 -0.3671 -0.0206
  466TMC3    O1 6945   4.480   3.339  16.046  0.2737 -0.3527 -0.4050
  466TMC3    O2 6946   4.312   3.900  16.118 -0.5061 -0.0746  0.0539
  467TMC3    C1 6947   0.141   1.912  13.618 -0.2089 -0.0340  0.5895
  467TMC3    C2 6948   0.205   1.897  13.497 -0.0729 -0.6788 -0.3846
  467TMC3    C3 6949   0.142   1.871  13.377 -0.5076 -0.6816  0.3939
  467TMC3    C4 6950   0.004   1.904  13.619 -0.1557 -0.2769 -0.4829
  467TMC3    C5 6951   4.672   1.891  13.500 -0.5717  0.1674  0.1809
  467TMC3    C6 6952   0.005   1.885  13.379  1.4783  0.4906 -0.7729
  467TMC3     C 6953   0.212   1.993  13.715  0.5335 -0.7790 -0.3912
  467TMC3     O 6954   0.157   2.087  13.769  0.2279 -0.4470  0.0103
  467TMC3     H 6955   0.308   1.929  13.484 -0.6313  0.9053 -0.8317
  467TMC3    H1 6956   4.682   1.926  13.713  1.6818  1.0528  0.2188
  467TMC3    H2 6957   4.676   1.882  13.287 -0.0431 -2.0952  0.2861
  467TMC3    C7 6958   4.526   1.876  13.490 -0.3139  0.3866 -0.4087
  467TMC3    C8 6959   0.215   1.912  13.256  0.1089  0.4231 -0.7971
  467TMC3    O1 6960   4.471   1.901  13.384  0.0762  0.1179 -0.2931
  467TMC3    O2 6961   0.292   2.002  13.266  0.2732 -0.0992 -0.4094
  468MPD2     C 6962   4.359   4.052  10.299 -0.1200 -0.4218  0.3304
  468MPD2    C1 6963   4.369   4.039  10.433 -0.1462 -0.8480  0.4477
  468MPD2    C2 6964   4.412   3.923  10.491 -0.0815  0.2648 -0.7647
  468MPD2    C3 6965   4.458   3.819  10.418 -0.5939 -0.3999  0.1845
  468MPD2    C4 6966   4.456   3.830  10.278  0.4765 -0.3601 -0.3996
  468MPD2    C5 6967   4.405   3.946  10.220 -0.2047 -0.3211 -0.2147
  468MPD2     H 6968   4.426   3.915  10.598 -1.0004 -0.4693 -0.7036
  468MPD2    H1 6969   4.481   3.744  10.216  0.5011 -0.4281 -0.2949
  468MPD2    H2 6970   4.322   4.144  10.256 -1.7893 -1.0333  0.4432
  468MPD2    H3 6971   4.416   3.961  10.113 -0.6019  0.4461 -0.1442
  468MPD2     N 6972   4.513   3.704  10.485 -0.2008  0.6441  0.0156
  468MPD2    H5 6973   4.513   3.699  10.586  0.4614  0.7818  0.0222
  468MPD2    N1 6974   4.355   4.146  10.526 -0.0456  0.2146  0.2723
  468MPD2    H7 6975   4.384   4.136  10.622  0.5303  0.4179  0.1156
  469TMC3    C1 6976   4.343   4.369  10.593 -0.4598  0.0565  0.1783
  469TMC3    C2 6977   4.441   4.344  10.680  0.2714 -0.1852  0.1571
  469TMC3    C3 6978   4.435   4.403  10.802  0.3448  0.5492 -0.5686
  469TMC3    C4 6979   4.253   4.464  10.622 -0.7513  0.6266  0.3846
  469TMC3    C5 6980   4.254   4.535  10.739  0.0775 -0.2136 -0.0623
  469TMC3    C6 6981   4.344   4.503  10.831 -0.1676 -0.1466  0.2381
  469TMC3     C 6982   4.309   4.271  10.497  0.4101  0.1188  0.0670
  469TMC3     O 6983   4.230   4.309  10.410  0.4979  0.2323 -0.3450
  469TMC3     H 6984   4.519   4.272  10.657  1.8830  1.4886  0.3678
  469TMC3    H1 6985   4.166   4.474  10.558  0.5787 -0.2018 -1.5167
  469TMC3    H2 6986   4.351   4.556  10.925 -0.2111 -1.3016  0.8792
  469TMC3    C7 6987   4.135   4.604  10.780  0.7881  0.0800 -0.2305
  469TMC3    C8 6988   4.520   4.355  10.911  0.4592  0.0976  0.0366
  469TMC3    O1 6989   4.033   4.598  10.712 -0.2099  0.1179 -0.0576
  469TMC3    O2 6990   4.561   4.239  10.896  0.0415  0.0709 -0.3289
  470TMC3    C1 6991   0.711   0.240   0.596 -0.0767  0.2163  0.4081
  470TMC3    C2 6992   0.752   0.368   0.629 -0.3588 -0.4619 -0.2415
  470TMC3    C3 6993   0.785   0.389   0.763  0.2443 -0.5695 -0.1198
  470TMC3    C4 6994   0.723   0.136   0.674  0.4830 -0.0277  0.3025
  470TMC3    C5 6995   0.766   0.160   0.804 -0.3611 -0.1332 -0.2666
  470TMC3    C6 6996   0.793   0.288   0.853 -0.2908  0.5448  0.1793
  470TMC3     C 6997   0.665   0.212   0.463 -0.0011 -0.1798  0.0318
  470TMC3     O 6998   0.589   0.116   0.451 -0.2480  0.5924 -0.2784
  470TMC3     H 6999   0.747   0.451   0.560  0.0011 -0.8712 -0.7652
  470TMC3    H1 7000   0.702   0.042   0.625 -0.2611  0.4268 -0.2457
  470TMC3    H2 7001   0.803   0.319   0.957  1.6427  0.2112  0.1037
  470TMC3    C7 7002   0.771   0.049   0.894  1.4646  0.5437 -0.1811
  470TMC3    C8 7003   0.866   0.509   0.784 -0.6959 -1.1465 -0.8406
  470TMC3    O1 7004   0.842   0.061   0.989  0.3688 -0.2739 -0.6210
  470TMC3    O2 7005   0.831   0.610   0.722 -0.5969  0.4451 -0.0915
  471MPD2     C 7006   2.366   1.689  16.669  0.4461  0.2527 -0.2283
  471MPD2    C1 7007   2.278   1.586  16.683  0.6305 -0.3553  0.0403
  471MPD2    C2 7008   2.226   1.553  16.810  0.0023 -0.2687  0.2358
  471MPD2    C3 7009   2.268   1.611  16.925 -0.8355  0.1993 -0.0983
  471MPD2    C4 7010   2.370   1.704  16.911 -0.3307  0.9657  0.3836
  471MPD2    C5 7011   2.416   1.741  16.787 -0.6095  0.0909  0.0599
  471MPD2     H 7012   2.146   1.482  16.823  0.8598 -1.3635 -0.4834
  471MPD2    H1 7013   2.412   1.741  17.003  0.4358 -0.9288  0.7952
  471MPD2    H2 7014   2.404   1.719  16.573  2.6098  0.6025  0.7482
  471MPD2    H3 7015   2.496   1.813  16.779 -0.7506  0.2347 -0.0386
  471MPD2     N 7016   2.220   1.595  17.056 -0.0940  0.0803  0.6229
  471MPD2    H5 7017   2.277   1.632  17.132 -1.0903  0.9302  0.9527
  471MPD2    N1 7018   2.217   1.518  16.575  0.2230 -0.2242 -0.3556
  471MPD2    H7 7019   2.141   1.453  16.590  0.8829 -0.1424  3.3376
  472TMC3    C1 7020   2.171   1.447  16.359 -0.1639  0.7407  0.9415
  472TMC3    C2 7021   2.152   1.479  16.226 -0.7773  0.3271  0.4782
  472TMC3    C3 7022   2.095   1.389  16.146 -0.3806 -1.0751  0.1532
  472TMC3    C4 7023   2.150   1.318  16.404  0.4682 -0.3668 -0.0927
  472TMC3    C5 7024   2.097   1.225  16.318 -0.1974 -0.6609 -0.4318
  472TMC3    C6 7025   2.060   1.263  16.189 -0.2191 -0.5488 -0.1858
  472TMC3     C 7026   2.259   1.526  16.442 -0.6001  0.1092 -0.2087
  472TMC3     O 7027   2.349   1.589  16.385  0.2154  0.1371  0.3937
  472TMC3     H 7028   2.192   1.571  16.184  0.6723 -0.5793 -0.1476
  472TMC3    H1 7029   2.179   1.295  16.506 -1.3978  1.9542  0.9705
  472TMC3    H2 7030   2.033   1.191  16.113 -0.3446  0.7325 -1.3372
  472TMC3    C7 7031   2.030   1.113  16.375 -0.7656 -0.4139  0.9225
  472TMC3    C8 7032   1.991   1.456  16.075 -0.0690  1.0570  0.3122
  472TMC3    O1 7033   2.080   1.062  16.479 -0.4486 -0.0337  0.2217
  472TMC3    O2 7034   2.020   1.556  16.010 -0.0490  0.0075  0.2772
  473MPD2     C 7035   2.311   3.818  13.774  0.3881 -0.1866  0.3152
  473MPD2    C1 7036   2.295   3.940  13.710  0.0107  0.0394 -0.0486
  473MPD2    C2 7037   2.373   4.048  13.751  0.1763  0.6543  0.5550
  473MPD2    C3 7038   2.461   4.040  13.857  0.0133  0.1512  0.3104
  473MPD2    C4 7039   2.484   3.919  13.912 -0.4287  0.8495  0.6253
  473MPD2    C5 7040   2.413   3.809  13.866 -0.2481  0.0432 -0.0186
  473MPD2     H 7041   2.370   4.139  13.691 -2.1170  0.3893  0.2724
  473MPD2    H1 7042   2.544   3.897  13.999 -0.9346  1.0967  1.0355
  473MPD2    H2 7043   2.253   3.729  13.755 -0.4652  0.7283 -1.3068
  473MPD2    H3 7044   2.425   3.717  13.921 -1.0210 -0.0291  0.0201
  473MPD2     N 7045   2.539   4.135  13.915  0.0904  0.2298  0.2779
  473MPD2    H5 7046   2.579   4.098  14.000 -0.7177 -0.8017  0.2234
  473MPD2    N1 7047   2.195   3.967  13.616 -0.3626 -0.0228 -0.2806
  473MPD2    H7 7048   2.188   4.066  13.596  1.2488  0.3089  0.8035
  474TMC3    C1 7049   2.579   4.352  13.987  0.0504  0.1325  0.2378
  474TMC3    C2 7050   2.524   4.479  13.995  0.4947  0.4223 -0.4579
  474TMC3    C3 7051   2.553   4.553  14.109  0.2280 -0.6456  0.1499
  474TMC3    C4 7052   2.646   4.298  14.089 -0.8064  0.2417  0.2079
  474TMC3    C5 7053   2.662   4.374  14.206  1.3323  0.3766 -0.1044
  474TMC3    C6 7054   2.613   4.503  14.219 -0.4468  0.4594  0.2633
  474TMC3     C 7055   2.521   4.264  13.884 -1.1539  0.6484 -0.3290
  474TMC3     O 7056   2.460   4.317  13.795 -0.1250 -0.1973 -0.1869
  474TMC3     H 7057   2.469   4.532  13.918  0.4649 -0.0705 -0.7747
  474TMC3    H1 7058   2.693   4.200  14.088 -0.9073  0.1986 -0.4098
  474TMC3    H2 7059   2.634   4.561  14.308 -0.2271  3.0904 -1.5205
  474TMC3    C7 7060   2.712   4.300  14.321 -0.0178 -0.5757 -0.6556
  474TMC3    C8 7061   2.464   4.665  14.134  0.7331 -0.1554 -0.1509
  474TMC3    O1 7062   2.750   4.183  14.320  0.1431  0.8309  0.0017
  474TMC3    O2 7063   2.424   4.676  14.250 -0.0919 -0.4008  1.1125
  475MPD2     C 7064   1.146   2.430  10.804 -1.0886 -0.0718  0.8200
  475MPD2    C1 7065   1.053   2.493  10.720  0.1046 -0.2654 -0.0749
  475MPD2    C2 7066   0.961   2.573  10.780  0.3515  0.2939 -0.2817
  475MPD2    C3 7067   0.966   2.606  10.916  0.0087  0.6152  0.0739
  475MPD2    C4 7068   1.067   2.549  10.990  0.0212 -0.3329 -0.0063
  475MPD2    C5 7069   1.151   2.461  10.939  0.0738  0.0960 -0.2528
  475MPD2     H 7070   0.885   2.612  10.714 -1.1676  1.0860  1.9342
  475MPD2    H1 7071   1.078   2.580  11.094 -0.0894  0.4253 -0.2248
  475MPD2    H2 7072   1.226   2.370  10.762 -0.8058  0.8883  0.0010
  475MPD2    H3 7073   1.244   2.445  10.994  0.3899  0.8246 -0.5711
  475MPD2     N 7074   0.883   2.704  10.969  0.4807 -0.2277 -0.1687
  475MPD2    H5 7075   0.813   2.750  10.913 -0.0305  0.1142  0.7426
  475MPD2    N1 7076   1.065   2.463  10.583 -0.2588  0.0823  0.2382
  475MPD2    H7 7077   1.156   2.430  10.554 -0.6462 -0.6011 -0.2159
  476TMC3    C1 7078   0.989   2.481  10.353  0.1316  0.0300  0.1319
  476TMC3    C2 7079   0.892   2.437  10.272  0.0920 -0.1412  0.4409
  476TMC3    C3 7080   0.905   2.472  10.137 -0.3945  0.0979  0.3663
  476TMC3    C4 7081   1.102   2.556  10.315 -0.1488 -0.3227  0.2438
  476TMC3    C5 7082   1.105   2.592  10.182 -0.2187 -0.4060 -0.7417
  476TMC3    C6 7083   1.015   2.540  10.092 -0.3965 -0.2749 -0.0974
  476TMC3     C 7084   0.955   2.484  10.491 -0.2744  0.4059  0.3503
  476TMC3     O 7085   0.835   2.485  10.513 -0.6752  0.1534 -0.7371
  476TMC3     H 7086   0.803   2.391  10.315 -0.2902  0.3808  0.1990
  476TMC3    H1 7087   1.172   2.593  10.389 -0.1584 -0.6868  0.4317
  476TMC3    H2 7088   1.033   2.554   9.986 -1.0481  0.3294 -0.1287
  476TMC3    C7 7089   1.189   2.692  10.122 -0.1106  0.8801  0.3651
  476TMC3    C8 7090   0.795   2.451  10.043 -0.3592  0.4472 -0.6879
  476TMC3    O1 7091   1.204   2.704  10.003 -0.5304  0.3470  0.3779
  476TMC3    O2 7092   0.757   2.550   9.980  0.3731 -0.0793 -0.1912
  477MPD2     C 7093   3.251   4.228  11.667 -0.4074 -0.8304 -0.2081
  477MPD2    C1 7094   3.167   4.260  11.777 -0.1549  0.2754  0.5785
  477MPD2    C2 7095   3.172   4.178  11.888  0.1739 -0.7036  0.0425
  477MPD2    C3 7096   3.253   4.063  11.881  0.0374 -0.6733  0.9970
  477MPD2    C4 7097   3.342   4.034  11.777 -0.6313 -0.0858 -0.3619
  477MPD2    C5 7098   3.345   4.126  11.679 -0.5268 -0.2071 -0.4695
  477MPD2     H 7099   3.108   4.197  11.974  1.3324 -1.5402  1.0793
  477MPD2    H1 7100   3.396   3.941  11.764 -0.7349  0.1436 -2.4753
  477MPD2    H2 7101   3.258   4.282  11.573 -0.4887  0.1533  0.3584
  477MPD2    H3 7102   3.410   4.094  11.598 -0.8126 -0.1166 -0.7381
  477MPD2     N 7103   3.254   3.964  11.980 -0.1849  0.1718  0.0652
  477MPD2    H5 7104   3.336   3.905  11.974  0.7935  1.4172  1.2125
  477MPD2    N1 7105   3.084   4.371  11.761  0.5111 -0.0426  0.7970
  477MPD2    H7 7106   3.098   4.409  11.668  2.1734  0.5367  1.2988
  478TMC3    C1 7107   2.921   4.544  11.818  0.0670 -0.3524  0.9988
  478TMC3    C2 7108   2.835   4.603  11.916 -0.0868  0.2206  0.0125
  478TMC3    C3 7109   2.767   4.713  11.877  0.4918 -0.7543  0.4290
  478TMC3    C4 7110   2.908   4.574  11.682 -0.1599  0.0807 -0.0747
  478TMC3    C5 7111   2.821   4.680  11.656 -0.5508  0.8042 -1.0141
  478TMC3    C6 7112   2.752   0.029  11.750  0.3954  0.7270 -0.3462
  478TMC3     C 7113   3.000   4.421  11.856  0.9668  0.1774  0.2247
  478TMC3     O 7114   2.980   4.378  11.969 -0.5047 -0.1375  0.7768
  478TMC3     H 7115   2.861   4.595  12.021 -0.4227 -0.8003  0.0156
  478TMC3    H1 7116   2.953   4.519  11.601 -1.2965  1.6995 -1.7858
  478TMC3    H2 7117   2.701   0.120  11.721 -0.6859  1.0178  2.4689
  478TMC3    C7 7118   2.848   0.011  11.524 -0.3050 -0.6288 -0.5679
  478TMC3    C8 7119   2.685   0.051  11.976 -0.4142  0.2382  0.2254
  478TMC3    O1 7120   2.962   0.002  11.487 -0.2714  0.2948  0.1968
  478TMC3    O2 7121   2.719   0.042  12.092 -0.3658 -0.2007 -0.5153
  479MPD2     C 7122   2.036   1.335  15.254 -0.1628 -0.6281  0.1207
  479MPD2    C1 7123   1.965   1.253  15.329  0.1336  0.6478 -0.0066
  479MPD2    C2 7124   1.973   1.271  15.464  0.2714 -0.3999  0.1736
  479MPD2    C3 7125   2.053   1.361  15.524 -0.5108 -0.1340 -0.1621
  479MPD2    C4 7126   2.119   1.450  15.444  0.3709  0.5910 -0.0462
  479MPD2    C5 7127   2.109   1.432  15.310 -0.0442 -0.0644 -0.3242
  479MPD2     H 7128   1.918   1.208  15.534 -0.8317 -0.9073 -1.1317
  479MPD2    H1 7129   2.202   1.509  15.482 -0.1277  0.5091  1.1614
  479MPD2    H2 7130   2.045   1.330  15.146  1.0756  1.4458  0.1238
  479MPD2    H3 7131   2.169   1.489  15.240  1.2256 -1.6167 -0.5028
  479MPD2     N 7132   2.063   1.371  15.665  0.6278 -0.3200 -0.2917
  479MPD2    H5 7133   2.133   1.432  15.707  0.2155 -1.3455  1.9129
  479MPD2    N1 7134   1.878   1.150  15.273  0.1108 -0.8949 -0.1514
  479MPD2    H7 7135   1.857   1.164  15.175 -2.4537  2.2977  0.8459
  480TMC3    C1 7136   1.646   1.172  15.793 -0.5908  0.3748 -0.3140
  480TMC3    C2 7137   1.582   1.264  15.715  0.6690  0.2307 -0.2890
  480TMC3    C3 7138   1.651   1.357  15.644  0.3368  0.0538 -0.7648
  480TMC3    C4 7139   1.782   1.185  15.818  0.5087 -0.4665  0.0534
  480TMC3    C5 7140   1.849   1.284  15.751  0.1200 -0.2503 -0.3852
  480TMC3    C6 7141   1.786   1.370  15.665  0.6538  0.8036  0.3137
  480TMC3     C 7142   1.579   1.075  15.874 -0.2516  0.3613  0.9222
  480TMC3     O 7143   1.646   0.990  15.929  0.2141 -0.1698  0.4165
  480TMC3     H 7144   1.483   1.243  15.677 -0.1749  2.3973  0.6829
  480TMC3    H1 7145   1.835   1.106  15.870 -1.2262  1.2474  4.4307
  480TMC3    H2 7146   1.841   1.448  15.614  1.7752  0.3895  0.8900
  480TMC3    C7 7147   1.994   1.293  15.758  0.5531 -0.0619 -0.5969
  480TMC3    C8 7148   1.587   1.414  15.528  0.2742  0.0879  0.5346
  480TMC3    O1 7149   2.036   1.260  15.866 -0.4426 -0.4423  0.1354
  480TMC3    O2 7150   1.464   1.426  15.547 -0.0522 -0.0230  0.2523
  481MPD2     C 7151   3.732   1.012  14.532 -0.6177 -0.2270 -0.1167
  481MPD2    C1 7152   3.602   0.978  14.509 -0.3288 -0.1256 -0.1302
  481MPD2    C2 7153   3.514   0.968  14.614 -0.1416 -0.9469 -0.0598
  481MPD2    C3 7154   3.551   0.979  14.746  0.2829  0.1092  0.7214
  481MPD2    C4 7155   3.686   1.001  14.769 -0.0868 -0.5855  0.1265
  481MPD2    C5 7156   3.774   1.015  14.663  0.6089 -0.1161 -0.6123
  481MPD2     H 7157   3.408   0.961  14.594 -0.3874  0.4886  0.7460
  481MPD2    H1 7158   3.717   1.008  14.873  3.2885  0.0950 -0.9223
  481MPD2    H2 7159   3.806   1.031  14.456  1.0244 -0.3700  1.4369
  481MPD2    H3 7160   3.872   1.046  14.696  1.4292 -1.0312 -2.2082
  481MPD2     N 7161   3.464   0.968  14.855  0.1696 -0.0356  0.4115
  481MPD2    H5 7162   3.504   0.998  14.943 -2.1045 -0.0880  1.4591
  481MPD2    N1 7163   3.576   0.947  14.371 -0.2297 -0.1202 -0.3208
  481MPD2    H7 7164   3.653   0.958  14.307 -0.0635  1.0851  0.0785
  482TMC3    C1 7165   3.467   0.822  14.202  0.4199  0.4669  0.5481
  482TMC3    C2 7166   3.355   0.756  14.159 -0.6321  0.1757 -0.3126
  482TMC3    C3 7167   3.327   0.745  14.023 -0.2115  0.9787  0.4333
  482TMC3    C4 7168   3.558   0.876  14.107  0.1538  0.1499 -0.5562
  482TMC3    C5 7169   3.520   0.858  13.973  0.2381 -0.1235  0.6800
  482TMC3    C6 7170   3.402   0.799  13.927  0.2239  0.1912  0.1028
  482TMC3     C 7171   3.470   0.864  14.341  0.2727  0.1840 -0.4788
  482TMC3     O 7172   3.378   0.824  14.411  0.4316  0.6319  0.1406
  482TMC3     H 7173   3.285   0.706  14.225 -1.9844  2.6673  0.1254
  482TMC3    H1 7174   3.641   0.940  14.132  2.0118 -1.1932 -3.2834
  482TMC3    H2 7175   3.380   0.797  13.821 -0.1143  0.4206  0.1708
  482TMC3    C7 7176   3.597   0.948  13.885 -1.2271  0.0623  0.4102
  482TMC3    C8 7177   3.215   0.663  13.973 -0.8635  0.4769  0.0386
  482TMC3    O1 7178   3.706   0.981  13.926  0.0750 -0.4321 -0.5342
  482TMC3    O2 7179   3.165   0.585  14.051 -0.4201 -0.2268 -0.0473
  483TMC3    C1 7180   0.790   3.835   0.202 -0.1601 -0.7520 -0.4050
  483TMC3    C2 7181   0.746   3.961   0.245  0.2034  0.0080  0.3615
  483TMC3    C3 7182   0.756   3.995   0.376  0.2545  0.1799  0.4884
  483TMC3    C4 7183   0.863   3.751   0.281  0.5750 -0.1572 -0.3088
  483TMC3    C5 7184   0.882   3.792   0.418  0.6105 -0.6611 -0.2658
  483TMC3    C6 7185   0.819   3.909   0.461  0.4723  0.1338 -0.4364
  483TMC3     C 7186   0.759   3.789   0.070  0.4071  0.1814 -0.1012
  483TMC3     O 7187   0.729   3.867  17.700  0.0527  0.0857 -0.6216
  483TMC3     H 7188   0.699   4.025   0.171 -1.1892 -1.0655  0.3139
  483TMC3    H1 7189   0.926   3.679   0.229 -0.6862  0.4167 -2.6154
  483TMC3    H2 7190   0.827   3.946   0.563  1.5196 -4.4299  1.1078
  483TMC3    C7 7191   0.988   3.746   0.499  0.1663  0.0868  0.7330
  483TMC3    C8 7192   0.784   4.136   0.411 -0.8834 -0.4621 -1.3433
  483TMC3    O1 7193   1.041   3.830   0.568 -0.8529 -0.1955 -0.1825
  483TMC3    O2 7194   0.879   4.152   0.484 -0.2266 -0.3062  0.7012
  484MPD2     C 7195   3.574   2.687  12.169 -0.0784  0.1152  0.0578
  484MPD2    C1 7196   3.620   2.586  12.250 -0.3978  0.1205 -1.0661
  484MPD2    C2 7197   3.748   2.541  12.239  0.5575 -0.0693  0.2998
  484MPD2    C3 7198   3.831   2.586  12.138  0.3348  0.1927  0.1440
  484MPD2    C4 7199   3.778   2.683  12.051 -0.0600  1.0244  1.0444
  484MPD2    C5 7200   3.654   2.737  12.068  0.2071  0.1382  0.0695
  484MPD2     H 7201   3.783   2.468  12.311  2.6603  0.6674  0.0093
  484MPD2    H1 7202   3.830   2.725  11.966  1.1060  1.1045  1.8102
  484MPD2    H2 7203   3.472   2.720  12.185  0.4385  1.6135  0.3223
  484MPD2    H3 7204   3.619   2.812  11.998  1.7900 -0.5731 -1.4862
  484MPD2     N 7205   3.959   2.546  12.114 -0.2689 -0.3184 -0.3171
  484MPD2    H5 7206   4.001   2.569  12.024  0.6557 -1.6593 -0.2361
  484MPD2    N1 7207   3.530   2.536  12.341  0.1970 -0.1954  0.1321
  484MPD2    H7 7208   3.433   2.565  12.334  0.1371 -0.5514 -0.4710
  485TMC3    C1 7209   4.152   2.422  12.118  0.5287  0.3925  0.8507
  485TMC3    C2 7210   4.188   2.289  12.112  0.5585 -0.2679 -0.2330
  485TMC3    C3 7211   4.309   2.255  12.053 -0.4344 -0.2862  0.1010
  485TMC3    C4 7212   4.229   2.518  12.063 -0.0093 -0.3736 -0.1768
  485TMC3    C5 7213   4.349   2.487  12.003  0.1736  0.0549 -0.4583
  485TMC3    C6 7214   4.383   2.353  11.988  0.5024 -0.6443 -0.1213
  485TMC3     C 7215   4.032   2.458  12.190 -0.7269  0.4735  0.1749
  485TMC3     O 7216   4.014   2.420  12.301  0.3302 -0.4963 -0.0465
  485TMC3     H 7217   4.112   2.218  12.142 -0.6287  1.5620  1.1401
  485TMC3    H1 7218   4.207   2.621  12.089  0.9427 -0.1917 -0.0906
  485TMC3    H2 7219   4.475   2.323  11.939 -0.3376 -1.1526 -1.4145
  485TMC3    C7 7220   4.455   2.585  12.000 -0.1168 -0.5622 -0.0525
  485TMC3    C8 7221   4.405   2.195  12.144  0.0506 -0.2838 -0.1807
  485TMC3    O1 7222   4.436   2.703  12.021  0.0091 -0.4876 -0.1754
  485TMC3    O2 7223   4.525   2.194  12.116  0.5286 -0.0215  0.2494
  486MPD2     C 7224   0.969   1.932  13.173 -0.8751 -0.0109 -0.4670
  486MPD2    C1 7225   0.946   1.904  13.035  0.6626  0.6775 -0.2189
  486MPD2    C2 7226   0.953   2.009  12.940  0.4109  0.5186  0.0260
  486MPD2    C3 7227   0.967   2.138  12.985  0.5163  0.1297  0.0023
  486MPD2    C4 7228   0.979   2.160  13.120 -0.0631 -0.4117  0.3088
  486MPD2    C5 7229   0.995   2.059  13.209  0.2107  0.8131  0.3537
  486MPD2     H 7230   0.949   1.994  12.833 -0.5905 -1.5200  0.3633
  486MPD2    H1 7231   0.986   2.263  13.153  0.7034 -0.7758  1.2921
  486MPD2    H2 7232   0.972   1.860  13.254 -2.4632  2.2361  1.5927
  486MPD2    H3 7233   1.021   2.094  13.308 -1.2086  0.3421  0.8924
  486MPD2     N 7234   0.985   2.243  12.892 -0.9147  0.5988  0.4229
  486MPD2    H5 7235   0.975   2.220  12.794  1.1508  0.5827  0.2115
  486MPD2    N1 7236   0.939   1.762  12.996  0.3795  0.2033  0.2355
  486MPD2    H7 7237   0.939   1.695  13.072 -1.3623  1.0875  1.0160
  487TMC3    C1 7238   0.976   1.562  12.878  0.1956 -0.0590 -0.3482
  487TMC3    C2 7239   0.942   1.496  12.763 -0.2728 -0.6529 -0.4692
  487TMC3    C3 7240   0.968   1.364  12.756  0.6609  0.5627  0.3354
  487TMC3    C4 7241   1.040   1.510  12.988  0.4106  0.4816 -0.4758
  487TMC3    C5 7242   1.074   1.379  12.972 -0.6066  0.3072  0.2435
  487TMC3    C6 7243   1.037   1.307  12.863  0.4911  0.2904  0.4206
  487TMC3     C 7244   0.950   1.709  12.874  0.0336 -0.0912  0.5362
  487TMC3     O 7245   0.953   1.756  12.764 -0.2076  0.1495 -0.0982
  487TMC3     H 7246   0.908   1.540  12.670  2.5597  0.9691 -0.7433
  487TMC3    H1 7247   1.073   1.579  13.065 -1.9421  0.2145  0.7743
  487TMC3    H2 7248   1.083   1.212  12.838  0.6873  0.5892 -0.3766
  487TMC3    C7 7249   1.104   1.299  13.087  0.3177 -0.5182  0.2872
  487TMC3    C8 7250   0.981   1.303  12.626  0.2660  0.9243  0.0905
  487TMC3    O1 7251   1.135   1.361  13.190  0.2535  0.3508 -0.6770
  487TMC3    O2 7252   1.014   1.375  12.533  0.5737 -0.0998 -1.0922
  488MPD2     C 7253   1.948   2.825  16.683 -0.2149  0.5349  0.0056
  488MPD2    C1 7254   1.876   2.935  16.713 -0.8806  0.2210 -0.0921
  488MPD2    C2 7255   1.777   2.924  16.808 -0.1841 -0.2883  0.2950
  488MPD2    C3 7256   1.747   2.804  16.868  0.1950 -0.0521  0.7978
  488MPD2    C4 7257   1.822   2.692  16.837 -0.3905 -0.2929  0.0161
  488MPD2    C5 7258   1.923   2.702  16.743 -0.1815 -0.1064 -0.0141
  488MPD2     H 7259   1.720   3.009  16.843  0.4551 -0.4245  1.6548
  488MPD2    H1 7260   1.803   2.599  16.890  1.0313 -0.6498 -0.0920
  488MPD2    H2 7261   2.028   2.822  16.609 -0.9029  1.6708 -0.7809
  488MPD2    H3 7262   1.974   2.611  16.713  0.9168  1.4733 -2.9640
  488MPD2     N 7263   1.636   2.795  16.962 -0.3694  0.3300 -0.6494
  488MPD2    H5 7264   1.578   2.878  16.966 -0.9672 -0.1411  0.3322
  488MPD2    N1 7265   1.915   3.061  16.666 -0.6582 -0.1030  0.2531
  488MPD2    H7 7266   1.874   3.141  16.714  0.8029  1.6804 -1.5010
  489TMC3    C1 7267   1.482   2.716  17.122  0.2978  0.9532  0.2972
  489TMC3    C2 7268   1.485   2.849  17.147 -0.6849  0.7639 -0.8174
  489TMC3    C3 7269   1.501   2.903  17.274  0.2879 -0.3519 -0.4704
  489TMC3    C4 7270   1.474   2.634  17.229 -0.8277 -0.1902 -0.0708
  489TMC3    C5 7271   1.486   2.688  17.352  0.1000  0.3235 -0.1594
  489TMC3    C6 7272   1.491   2.818  17.377  0.2677  0.1323 -0.1069
  489TMC3     C 7273   1.586   2.686  17.029  0.3788 -0.5987  0.2269
  489TMC3     O 7274   1.640   2.573  17.027  0.2698 -0.1254  0.1735
  489TMC3     H 7275   1.458   2.917  17.067 -2.5388  0.6450 -0.3117
  489TMC3    H1 7276   1.486   2.527  17.224 -0.1529 -0.2877  3.7608
  489TMC3    H2 7277   1.492   2.852  17.479  2.4565  1.5532 -0.6053
  489TMC3    C7 7278   1.478   2.606  17.473  0.2715  0.2790  0.0793
  489TMC3    C8 7279   1.558   3.040  17.287  0.3527  0.3361 -0.3982
  489TMC3    O1 7280   1.516   2.652  17.580  0.1147 -0.3764 -0.0295
  489TMC3    O2 7281   1.601   3.083  17.181 -0.6665  0.6031  0.0859
  490MPD2     C 7282   1.943   2.326   0.399  0.1538 -0.2388  0.4961
  490MPD2    C1 7283   1.986   2.300   0.270 -0.3379 -0.6616  0.1561
  490MPD2    C2 7284   2.017   2.409   0.183 -0.2123  0.1138  0.0424
  490MPD2    C3 7285   2.003   2.540   0.228 -0.0779  0.2942  0.6732
  490MPD2    C4 7286   1.971   2.558   0.357  0.1618  0.3509  0.0987
  490MPD2    C5 7287   1.934   2.460   0.440 -0.5695  0.3220 -0.4893
  490MPD2     H 7288   2.057   2.380   0.086  1.4110  0.6887  0.5327
  490MPD2    H1 7289   1.975   2.656   0.402 -1.4123  0.7389 -0.6307
  490MPD2    H2 7290   1.900   2.253   0.468  1.4984 -0.5248  1.0390
  490MPD2    H3 7291   1.904   2.493   0.539  1.3046  1.2257 -0.2319
  490MPD2     N 7292   2.033   2.653   0.148 -0.0413 -0.2022  0.4090
  490MPD2    H5 7293   2.040   2.746   0.188 -1.7261 -0.6180  1.6602
  490MPD2    N1 7294   1.994   2.170   0.216  0.4628 -0.3220 -0.2300
  490MPD2    H7 7295   2.029   2.155   0.122 -0.7306 -1.1883 -0.5461
  491TMC3    C1 7296   1.957   1.932   0.223 -0.1377  0.6494  0.5768
  491TMC3    C2 7297   1.957   1.816   0.293 -0.7886 -0.6757  0.7172
  491TMC3    C3 7298   1.949   1.700   0.223 -0.3937  0.5983  1.3383
  491TMC3    C4 7299   1.930   1.933   0.086  0.1728  1.0275 -0.3449
  491TMC3    C5 7300   1.923   1.811   0.020 -0.0880  0.5194  0.3297
  491TMC3    C6 7301   1.943   1.694   0.088 -0.1852  0.3392  0.2193
  491TMC3     C 7302   1.973   2.056   0.294 -0.4393  0.1243 -0.0500
  491TMC3     O 7303   1.955   2.052   0.417 -0.3091 -0.0644  0.3879
  491TMC3     H 7304   1.970   1.818   0.401 -3.8499  1.9623  1.0276
  491TMC3    H1 7305   1.890   2.021   0.037  0.8471  1.0340 -0.8755
  491TMC3    H2 7306   1.918   1.603   0.034  1.0687  0.4682 -0.5744
  491TMC3    C7 7307   1.902   1.801  17.595  0.6869 -0.8293 -0.1095
  491TMC3    C8 7308   1.886   1.593   0.299 -0.4366  0.2069  0.7680
  491TMC3    O1 7309   1.845   1.703  17.552  0.5365  0.0786 -0.7554
  491TMC3    O2 7310   1.888   1.486   0.243 -0.2674  0.0853  0.0515
  492MPD2     C 7311   2.611   2.732  11.702  0.2506  0.7291  1.0855
  492MPD2    C1 7312   2.594   2.628  11.612  0.8136  0.8162 -0.3137
  492MPD2    C2 7313   2.539   2.506  11.660  0.2178  0.3708 -0.4841
  492MPD2    C3 7314   2.517   2.483  11.798  0.2787  0.1581 -0.4912
  492MPD2    C4 7315   2.539   2.592  11.884  0.0865 -0.2616 -0.1153
  492MPD2    C5 7316   2.589   2.712  11.838  1.4626  0.2100 -0.5457
  492MPD2     H 7317   2.521   2.428  11.587  0.4848 -0.9007  0.8294
  492MPD2    H1 7318   2.513   2.575  11.987 -0.0512 -1.8785 -0.4238
  492MPD2    H2 7319   2.653   2.824  11.664 -0.3614  0.9561  0.9652
  492MPD2    H3 7320   2.611   2.793  11.907  0.8191 -2.1812  2.4503
  492MPD2     N 7321   2.473   2.363  11.856  0.1033  0.3049  0.1363
  492MPD2    H5 7322   2.446   2.372  11.953  1.1402  0.2469  0.4253
  492MPD2    N1 7323   2.612   2.651  11.477  0.3217  0.4069 -0.6460
  492MPD2    H7 7324   2.653   2.740  11.450  2.0304  0.6170  2.5524
  493TMC3    C1 7325   2.615   2.624  11.251 -0.3975 -0.6679  0.5927
  493TMC3    C2 7326   2.732   2.702  11.254  0.2963 -0.0611  0.4634
  493TMC3    C3 7327   2.786   2.730  11.131 -0.6848  0.1425  0.4786
  493TMC3    C4 7328   2.564   2.568  11.135  0.0340 -0.3290  0.0424
  493TMC3    C5 7329   2.624   2.604  11.013  0.7782 -0.7076 -0.0166
  493TMC3    C6 7330   2.738   2.688  11.012  0.8566  0.3859 -0.0677
  493TMC3     C 7331   2.566   2.571  11.378  0.0316  0.2467 -0.0074
  493TMC3     O 7332   2.497   2.470  11.373 -0.7915  0.1492 -0.0675
  493TMC3     H 7333   2.794   2.719  11.341  1.3103 -0.2002 -0.2314
  493TMC3    H1 7334   2.466   2.522  11.142  0.2744 -1.2227 -2.5180
  493TMC3    H2 7335   2.791   2.713  10.921 -0.2588 -1.2285 -1.1637
  493TMC3    C7 7336   2.590   2.530  10.889  0.2407  0.3681 -0.3749
  493TMC3    C8 7337   2.908   2.813  11.133 -0.7065 -0.1413 -0.1528
  493TMC3    O1 7338   2.652   2.568  10.787 -0.2677  0.2022  0.1942
  493TMC3    O2 7339   2.977   2.797  11.232  0.6351  0.4858 -0.0066
  494TMC3    C1 7340   3.005   4.541   0.693 -0.2785 -1.0868 -0.3916
  494TMC3    C2 7341   2.918   4.483   0.779 -0.2683 -0.1037  1.0441
  494TMC3    C3 7342   2.890   4.350   0.766  0.4502 -0.2482 -0.5330
  494TMC3    C4 7343   3.041   4.482   0.574  0.4741  1.0711 -0.0987
  494TMC3    C5 7344   3.013   4.346   0.569 -0.3455  0.3272  0.1914
  494TMC3    C6 7345   2.937   4.274   0.656 -0.6127 -0.0989 -0.5365
  494TMC3     C 7346   2.978   4.683   0.691  0.0764  0.5674 -0.1038
  494TMC3     O 7347   3.004   0.014   0.794  0.1782 -0.5469  0.4672
  494TMC3     H 7348   2.886   4.543   0.864 -0.6625  1.6563 -0.3409
  494TMC3    H1 7349   3.098   4.538   0.502 -0.2219  0.0638 -1.4332
  494TMC3    H2 7350   2.933   4.166   0.654  0.1624 -0.1586  2.4016
  494TMC3    C7 7351   3.053   4.284   0.444  0.2615  0.1364  0.3588
  494TMC3    C8 7352   2.823   4.276   0.863  0.3471  0.5364  0.1234
  494TMC3    O1 7353   3.164   4.313   0.408 -0.3755  0.4285 -0.3477
  494TMC3    O2 7354   2.846   4.154   0.866 -0.0923 -0.8028  0.1863
  495TMC3    C1 7355   2.049   1.270  14.650 -0.3881  0.5407 -0.1152
  495TMC3    C2 7356   2.045   1.382  14.566 -0.1101  0.0992  0.1005
  495TMC3    C3 7357   1.968   1.484  14.613 -0.8663  0.5065  0.8146
  495TMC3    C4 7358   1.987   1.260  14.769 -1.2675 -0.5984  0.5506
  495TMC3    C5 7359   1.941   1.387  14.821 -0.2025  0.0020  0.2687
  495TMC3    C6 7360   1.935   1.507  14.743 -0.1153  0.0828  0.3497
  495TMC3     C 7361   2.081   1.148  14.582 -1.0229  0.4620  0.9353
  495TMC3     O 7362   2.062   1.136  14.462  0.0220  0.1468  0.2654
  495TMC3     H 7363   2.075   1.379  14.463 -1.7759  1.4312 -0.4283
  495TMC3    H1 7364   1.991   1.166  14.822 -3.2859 -0.2855  1.2402
  495TMC3    H2 7365   1.921   1.609  14.775 -2.7603  0.2704 -1.4532
  495TMC3    C7 7366   1.855   1.366  14.933  0.1143  0.1716 -0.4499
  495TMC3    C8 7367   1.889   1.558  14.518  0.7949  0.1621  0.1587
  495TMC3    O1 7368   1.867   1.268  15.010  0.3976 -0.4006 -0.4510
  495TMC3    O2 7369   1.846   1.667  14.552 -0.1538  0.1480 -0.4353
  496MPD2     C 7370   3.861   1.796  15.603  0.3025 -0.2247 -0.2947
  496MPD2    C1 7371   3.828   1.665  15.623  0.1939 -0.0460 -0.0687
  496MPD2    C2 7372   3.760   1.635  15.740 -0.1255 -0.1960  0.3464
  496MPD2    C3 7373   3.713   1.736  15.828  0.5100 -0.0818  0.2940
  496MPD2    C4 7374   3.768   1.863  15.813  0.7631  0.2893 -0.1398
  496MPD2    C5 7375   3.828   1.892  15.694 -0.4122 -0.7217 -0.0679
  496MPD2     H 7376   3.725   1.535  15.765 -0.6997  0.4549  2.1097
  496MPD2    H1 7377   3.746   1.945  15.880 -1.4882  0.8241 -1.5180
  496MPD2    H2 7378   3.924   1.815  15.518  1.7984  0.9181  1.0832
  496MPD2    H3 7379   3.862   1.990  15.662  0.7828 -1.0096  0.3024
  496MPD2     N 7380   3.641   1.715  15.945 -0.9540  0.2932  0.0015
  496MPD2    H5 7381   3.631   1.798  16.003 -2.8685  0.1320 -0.1041
  496MPD2    N1 7382   3.879   1.572  15.533  0.1851  0.4475 -0.2609
  496MPD2    H7 7383   3.935   1.603  15.454 -0.0073  2.7500  0.5101
  497TMC3    C1 7384   3.492   1.603  16.110 -0.4730  0.2851  0.3868
  497TMC3    C2 7385   3.391   1.505  16.122 -0.4166  0.0696 -0.1652
  497TMC3    C3 7386   3.310   1.511  16.241  0.1283  0.0312  0.4208
  497TMC3    C4 7387   3.502   1.698  16.206  0.0360  0.4296 -0.1601
  497TMC3    C5 7388   3.415   1.698  16.311  0.1571 -0.1645  0.0352
  497TMC3    C6 7389   3.314   1.605  16.329  0.2553  0.2786 -0.1603
  497TMC3     C 7390   3.575   1.601  15.987 -0.5531  0.2864 -0.0149
  497TMC3     O 7391   3.564   1.496  15.929 -0.7665  0.4269  0.0821
  497TMC3     H 7392   3.384   1.425  16.050  1.2719 -0.9595  0.8262
  497TMC3    H1 7393   3.590   1.761  16.210  0.5710 -0.3922  1.0170
  497TMC3    H2 7394   3.266   1.587  16.425 -0.5293  3.6825  0.0947
  497TMC3    C7 7395   3.459   1.750  16.440 -0.1717 -0.1549 -0.3254
  497TMC3    C8 7396   3.237   1.389  16.276  0.3725 -0.0316  0.3262
  497TMC3    O1 7397   3.375   1.772  16.528 -0.3025 -0.4256  1.1022
  497TMC3    O2 7398   3.171   1.391  16.382  0.7987 -0.0831 -0.2529
  498MPD2     C 7399   0.162   2.164  10.140 -0.3402  0.7584 -0.0429
  498MPD2    C1 7400   0.050   2.214  10.201  0.2539  0.0170 -0.0350
  498MPD2    C2 7401   4.682   2.129  10.239  0.3775  0.3596  0.1647
  498MPD2    C3 7402   4.696   1.994  10.231 -0.3056  0.7383 -0.5006
  498MPD2    C4 7403   0.083   1.939  10.180  0.3478  0.4312  0.2063
  498MPD2    C5 7404   0.178   2.026  10.146  0.4476 -0.2337 -0.9969
  498MPD2     H 7405   4.588   2.169  10.273 -0.2257 -1.2376  0.3647
  498MPD2    H1 7406   0.111   1.834  10.181 -1.3865 -0.0437 -0.2748
  498MPD2    H2 7407   0.252   2.225  10.130  0.6715 -0.6698  0.3834
  498MPD2    H3 7408   0.267   1.980  10.104  1.4373  0.6772  0.0945
  498MPD2     N 7409   4.591   1.913  10.269  0.5800 -0.1811 -0.1539
  498MPD2    H5 7410   4.525   1.962  10.327  1.6160  0.8679  0.1310
  498MPD2    N1 7411   0.034   2.353  10.215 -0.5141  0.2849  0.4609
  498MPD2    H7 7412   4.672   2.385  10.247 -0.6236  0.0475  0.3807
  499TMC3    C1 7413   0.060   2.586  10.169  0.5951 -0.7348 -0.9177
  499TMC3    C2 7414   4.648   2.598  10.162 -0.9625  0.0123  0.0453
  499TMC3    C3 7415   4.603   2.722  10.117 -0.4382  0.2876  0.3869
  499TMC3    C4 7416   0.147   2.689  10.153 -0.2113 -0.4910  0.3580
  499TMC3    C5 7417   0.097   2.807  10.108  0.4969  0.3278 -0.2089
  499TMC3    C6 7418   4.692   2.827  10.099 -0.9282 -0.3529  0.1422
  499TMC3     C 7419   0.125   2.456  10.182 -0.2379  0.7855 -0.2590
  499TMC3     O 7420   0.243   2.462  10.147  0.5067 -0.5428  0.1860
  499TMC3     H 7421   4.579   2.517  10.182 -0.6613 -0.2852 -0.1107
  499TMC3    H1 7422   0.255   2.684  10.147 -0.2097 -0.1326  0.0255
  499TMC3    H2 7423   4.656   2.924  10.064  1.7765  0.3952 -0.5150
  499TMC3    C7 7424   0.185   2.913  10.061  0.7132  0.1319 -0.1640
  499TMC3    C8 7425   4.461   2.744  10.103 -0.2423  0.4236 -0.3891
  499TMC3    O1 7426   0.130   3.001   9.989  0.1028 -0.6287 -0.7715
  499TMC3    O2 7427   4.426   2.860  10.097  0.1579 -0.0022  0.2611
  500MPD2     C 7428   1.919   3.831  10.322 -0.3149 -0.1980  0.2364
  500MPD2    C1 7429   1.908   3.945  10.400 -0.5837  0.7469 -0.1919
  500MPD2    C2 7430   1.794   4.018  10.408 -0.5043  0.4545 -0.1692
  500MPD2    C3 7431   1.690   3.982  10.327 -0.6655 -0.3212 -0.8544
  500MPD2    C4 7432   1.700   3.868  10.245 -0.2179  0.4621 -0.5196
  500MPD2    C5 7433   1.808   3.788  10.250 -0.9296  0.4979  0.0977
  500MPD2     H 7434   1.787   4.106  10.471  1.3493 -0.7081  1.6595
  500MPD2    H1 7435   1.616   3.842  10.181 -0.2594 -2.3514  0.6831
  500MPD2    H2 7436   2.005   3.766  10.322  0.6503  1.0899 -1.2271
  500MPD2    H3 7437   1.800   3.691  10.202  0.3800  1.9395 -3.0538
  500MPD2     N 7438   1.574   4.061  10.304 -0.5341  0.0467 -0.2644
  500MPD2    H5 7439   1.515   4.021  10.232  0.9452  0.2798 -1.6006
  500MPD2    N1 7440   2.024   3.988  10.476  0.1713 -0.2564  0.2640
  500MPD2    H7 7441   2.034   4.083  10.510  1.7111 -0.3522  0.0867
  501TMC3    C1 7442   2.252   4.000  10.530  0.3751  0.5991  0.4677
  501TMC3    C2 7443   2.273   4.128  10.481  0.2217  0.3818  0.4658
  501TMC3    C3 7444   2.391   4.184  10.517  0.1711 -0.8729  0.2725
  501TMC3    C4 7445   2.345   3.936  10.608 -0.3151  0.2181 -0.0552
  501TMC3    C5 7446   2.454   3.997  10.649 -0.2329 -0.0112  0.6585
  501TMC3    C6 7447   2.479   4.119  10.605  0.6229  0.0543  0.7412
  501TMC3     C 7448   2.137   3.912  10.495 -0.1765  0.1681  0.6372
  501TMC3     O 7449   2.150   3.791  10.505 -0.1447 -0.1448 -0.5130
  501TMC3     H 7450   2.202   4.175  10.415  0.8458 -0.0079 -0.4890
  501TMC3    H1 7451   2.312   3.843  10.653  1.6280  0.4056  1.7576
  501TMC3    H2 7452   2.572   4.169  10.626  0.2029  0.4341  1.6994
  501TMC3    C7 7453   2.542   3.925  10.742  0.3158  0.3452  0.9121
  501TMC3    C8 7454   2.386   4.325  10.522 -0.0514  0.5579  0.1440
  501TMC3    O1 7455   2.524   3.800  10.734  0.1725  0.0683  0.4814
  501TMC3    O2 7456   2.436   4.380  10.617  0.0504 -0.1686 -0.3764
  502TMC3    C1 7457   1.470   2.296  14.971  0.4840  0.6113  0.3876
  502TMC3    C2 7458   1.510   2.426  14.940  0.0032 -0.3283  0.3678
  502TMC3    C3 7459   1.420   2.531  14.935 -0.0951  0.0528  0.2564
  502TMC3    C4 7460   1.345   2.281  15.014 -0.0976  1.0362  0.1713
  502TMC3    C5 7461   1.259   2.383  15.022 -0.2337 -1.2713  0.4564
  502TMC3    C6 7462   1.297   2.512  14.991  0.0506 -0.4123 -0.0845
  502TMC3     C 7463   1.565   2.241  15.070 -0.0293  0.1532 -0.2045
  502TMC3     O 7464   1.679   2.267  15.043  0.0237  0.0029 -0.3316
  502TMC3     H 7465   1.609   2.449  14.902  0.7768 -1.1613  1.8782
  502TMC3    H1 7466   1.314   2.180  15.040 -1.0471  0.5932 -2.6947
  502TMC3    H2 7467   1.230   2.597  14.999  1.3034  0.7564 -2.0169
  502TMC3    C7 7468   1.176   2.362  15.127 -0.0818  0.2124  0.0340
  502TMC3    C8 7469   1.457   2.658  14.891 -0.0895  0.3470 -0.0237
  502TMC3    O1 7470   1.229   2.312  15.230 -0.3750 -0.0068 -0.1660
  502TMC3    O2 7471   1.571   2.692  14.914  0.2372  0.3754  0.0179
  503MPD2     C 7472   3.406   3.187  16.691  0.0619 -0.4247  0.4848
  503MPD2    C1 7473   3.388   3.185  16.830 -0.3036  0.4035 -0.8065
  503MPD2    C2 7474   3.413   3.073  16.904 -0.5358 -0.1113 -0.1171
  503MPD2    C3 7475   3.480   2.968  16.842 -0.0058 -0.1380 -0.2722
  503MPD2    C4 7476   3.487   2.968  16.700 -0.2935 -0.0504  0.5941
  503MPD2    C5 7477   3.435   3.073  16.626  0.5682 -0.7017 -0.4509
  503MPD2     H 7478   3.400   3.072  17.011  2.5610  0.9597  0.2818
  503MPD2    H1 7479   3.542   2.892  16.646  1.9439  1.1203  1.1838
  503MPD2    H2 7480   3.376   3.265  16.623  0.5753  0.1260  0.8886
  503MPD2    H3 7481   3.438   3.073  16.517 -0.2154 -0.8575 -0.4670
  503MPD2     N 7482   3.537   2.863  16.920 -0.1470 -0.2495  0.1162
  503MPD2    H5 7483   3.508   2.859  17.018  1.2719  1.3311  0.6053
  503MPD2    N1 7484   3.332   3.295  16.902 -0.5346  0.2173 -0.2936
  503MPD2    H7 7485   3.321   3.289  17.003 -0.3753 -1.5502 -0.3765
  504TMC3    C1 7486   3.684   2.690  16.979  0.3327 -0.0361 -0.2234
  504TMC3    C2 7487   3.598   2.655  17.086  0.2154  0.0087 -0.1526
  504TMC3    C3 7488   3.651   2.579  17.182  0.0146 -0.5929  0.0324
  504TMC3    C4 7489   3.811   2.646  16.959 -0.7254  0.5196 -0.2291
  504TMC3    C5 7490   3.850   2.564  17.062  0.0254  0.3444  0.0209
  504TMC3    C6 7491   3.780   2.533  17.178  0.3725 -0.3350  0.0256
  504TMC3     C 7492   3.635   2.782  16.877  0.7807  0.6786 -0.6665
  504TMC3     O 7493   3.707   2.812  16.781  0.2940 -0.3489 -0.2064
  504TMC3     H 7494   3.490   2.658  17.073  0.0622  0.7470  1.3891
  504TMC3    H1 7495   3.871   2.667  16.871 -1.2217 -1.2716 -1.0030
  504TMC3    H2 7496   3.835   2.476  17.251 -0.2526 -1.0209 -0.0356
  504TMC3    C7 7497   3.975   2.498  17.027 -0.2819  0.2221 -0.2161
  504TMC3    C8 7498   3.564   2.512  17.275  1.1612 -0.1509  0.4833
  504TMC3    O1 7499   4.063   2.564  16.977 -0.4200  0.5951  0.0383
  504TMC3    O2 7500   3.451   2.487  17.236 -0.2680 -0.2065 -0.1450
  505MPD2     C 7501   3.604   1.077  11.363 -0.3274 -0.4589 -0.7290
  505MPD2    C1 7502   3.677   1.128  11.261  0.0213  0.3628  0.5879
  505MPD2    C2 7503   3.803   1.188  11.281  0.1310  0.3067 -0.3611
  505MPD2    C3 7504   3.853   1.189  11.416  0.6344  0.8379  0.4304
  505MPD2    C4 7505   3.766   1.134  11.514  1.1306 -0.3832  0.2743
  505MPD2    C5 7506   3.649   1.081  11.489  0.3850  0.7796  0.4780
  505MPD2     H 7507   3.863   1.213  11.195 -0.2768 -0.4785 -0.8669
  505MPD2    H1 7508   3.799   1.129  11.617  3.8953  0.1045 -0.5706
  505MPD2    H2 7509   3.506   1.032  11.350 -1.3639  0.8611  2.4293
  505MPD2    H3 7510   3.592   1.045  11.574 -1.0778 -0.3229 -0.9677
  505MPD2     N 7511   3.984   1.219  11.460  0.1904  0.3912  0.2571
  505MPD2    H5 7512   4.019   1.200  11.554  2.2541 -1.5039 -0.8933
  505MPD2    N1 7513   3.629   1.097  11.130 -0.5576 -0.1501 -0.3331
  505MPD2    H7 7514   3.549   1.035  11.129 -0.3302 -0.4082 -2.7100
  506TMC3    C1 7515   3.631   1.052  10.902 -0.0375 -0.0490  0.3164
  506TMC3    C2 7516   3.678   1.090  10.779  0.6644 -0.0415 -0.8971
  506TMC3    C3 7517   3.682   0.992  10.683 -0.4313  0.2330  0.5627
  506TMC3    C4 7518   3.604   0.915  10.922  0.3919 -0.2168 -0.6831
  506TMC3    C5 7519   3.626   0.821  10.824 -0.3005 -0.3774  0.0665
  506TMC3    C6 7520   3.663   0.861  10.698  0.2692  0.0848  0.2422
  506TMC3     C 7521   3.690   1.131  11.013 -0.4556 -0.1449 -0.3222
  506TMC3     O 7522   3.799   1.184  10.996 -0.3828 -0.2587 -0.2865
  506TMC3     H 7523   3.707   1.191  10.754  3.4291 -0.2423  1.4660
  506TMC3    H1 7524   3.581   0.884  11.023  1.9202  1.4893  0.1869
  506TMC3    H2 7525   3.690   0.786  10.625 -2.4038 -1.4626  0.8714
  506TMC3    C7 7526   3.726   0.735  10.886 -0.8481 -0.0581 -0.0180
  506TMC3    C8 7527   3.714   1.020  10.538  0.5266  0.1550 -0.2188
  506TMC3    O1 7528   3.704   0.616  10.899 -0.4183 -0.1178 -0.4194
  506TMC3    O2 7529   3.649   0.960  10.450 -0.2129 -0.1346  0.0149
  507TMC3    C1 7530   0.420   3.380  14.999  0.4014  1.3295  0.0516
  507TMC3    C2 7531   0.371   3.313  14.890 -0.0291  0.5126  0.5499
  507TMC3    C3 7532   0.335   3.383  14.780 -0.0475  0.1367 -0.0440
  507TMC3    C4 7533   0.420   3.519  15.005  0.2148 -0.4775  0.5017
  507TMC3    C5 7534   0.364   3.589  14.898 -0.0382 -0.1914  0.2173
  507TMC3    C6 7535   0.349   3.517  14.783  0.4057  0.0953 -0.5129
  507TMC3     C 7536   0.434   3.305  15.124 -0.1484 -0.1358  0.4450
  507TMC3     O 7537   0.386   3.192  15.129 -0.0288 -0.2263  0.1457
  507TMC3     H 7538   0.368   3.205  14.899 -3.7147  0.6331  0.9043
  507TMC3    H1 7539   0.412   3.569  15.101  0.7687 -1.7088  1.1952
  507TMC3    H2 7540   0.326   3.577  14.695 -0.1376 -0.9847 -1.1113
  507TMC3    C7 7541   0.247   3.677  14.935 -0.5297 -0.0213 -0.0225
  507TMC3    C8 7542   0.213   3.338  14.709 -0.2967 -0.3954 -0.5054
  507TMC3    O1 7543   0.252   3.738  15.038  0.3628  0.3523  0.4827
  507TMC3    O2 7544   0.134   3.425  14.691 -0.4310  0.1248 -0.6761
  508MPD2     C 7545   0.633   0.447  16.324 -0.3462  0.1343  0.0424
  508MPD2    C1 7546   0.586   0.509  16.437  0.2008 -0.5100  0.4571
  508MPD2    C2 7547   0.581   0.652  16.431  0.4473 -1.2346  0.0038
  508MPD2    C3 7548   0.614   0.723  16.313 -0.5620 -0.5972 -0.1691
  508MPD2    C4 7549   0.660   0.651  16.203 -0.3875  0.0431 -0.6207
  508MPD2    C5 7550   0.663   0.515  16.207  0.2140  0.7882 -0.3964
  508MPD2     H 7551   0.564   0.712  16.520 -0.1391 -3.0406  1.1042
  508MPD2    H1 7552   0.684   0.690  16.105 -3.0841 -1.9519 -2.0913
  508MPD2    H2 7553   0.626   0.339  16.331  2.2890 -0.0023  0.9439
  508MPD2    H3 7554   0.711   0.454  16.131  2.2525  1.7075  0.1561
  508MPD2     N 7555   0.619   0.865  16.308 -0.1480 -0.2418 -0.4171
  508MPD2    H5 7556   0.594   0.909  16.396 -0.3729  0.6549 -0.9355
  508MPD2    N1 7557   0.552   0.428  16.547  0.3686  0.7749 -0.1359
  508MPD2    H7 7558   0.580   0.330  16.550 -0.3871  0.5462 -0.4248
  509TMC3    C1 7559   0.547   1.266  16.208  0.2245 -0.3110  0.3048
  509TMC3    C2 7560   0.654   1.337  16.159 -0.0687 -0.0603  0.0336
  509TMC3    C3 7561   0.775   1.277  16.153  0.3793 -0.2571 -0.0345
  509TMC3    C4 7562   0.561   1.137  16.244 -0.2242  0.2859  0.2118
  509TMC3    C5 7563   0.685   1.082  16.241  0.3896  0.2754 -0.5365
  509TMC3    C6 7564   0.794   1.155  16.203  0.3107  0.0316 -1.2241
  509TMC3     C 7565   0.428   1.314  16.142 -0.0299 -0.5668  0.3563
  509TMC3     O 7566   0.319   1.317  16.198  0.0896  0.7902 -0.5009
  509TMC3     H 7567   0.644   1.445  16.158 -0.5751 -0.0976  0.8296
  509TMC3    H1 7568   0.481   1.065  16.257 -0.3092  0.2369 -0.6234
  509TMC3    H2 7569   0.884   1.094  16.203  1.5348  1.8575 -0.6882
  509TMC3    C7 7570   0.697   0.938  16.224  0.1042 -0.5993  0.6852
  509TMC3    C8 7571   0.854   1.303  16.032 -0.0816 -0.5824  0.6506
  509TMC3    O1 7572   0.770   0.904  16.129  0.5698  0.1930  0.0857
  509TMC3    O2 7573   0.939   1.226  15.995  0.6332 -0.1680  0.3241
  510MPD2     C 7574   2.951   1.793  14.883  0.3894 -0.3949 -0.4954
  510MPD2    C1 7575   3.045   1.727  14.951 -0.2520 -0.4021 -0.1988
  510MPD2    C2 7576   3.178   1.750  14.917  0.5833 -0.3119 -0.4605
  510MPD2    C3 7577   3.211   1.828  14.805 -0.0865 -0.1564  0.1370
  510MPD2    C4 7578   3.108   1.874  14.723 -0.2086  0.2219  0.1840
  510MPD2    C5 7579   2.976   1.855  14.761  0.0208  0.9816  0.2931
  510MPD2     H 7580   3.256   1.709  14.981 -0.0672 -0.3758  0.2888
  510MPD2    H1 7581   3.123   1.943  14.642 -1.3484 -1.0249 -1.0967
  510MPD2    H2 7582   2.845   1.782  14.906  0.0411 -0.5911 -2.1331
  510MPD2    H3 7583   2.899   1.906  14.704 -0.2563 -0.0243 -0.2227
  510MPD2     N 7584   3.346   1.873  14.790 -0.6841 -0.1632 -0.3623
  510MPD2    H5 7585   3.416   1.822  14.844  1.1117  1.6279 -1.0306
  510MPD2    N1 7586   3.006   1.656  15.069 -0.3344  0.5241  0.2468
  510MPD2    H7 7587   2.908   1.660  15.094 -0.8495 -0.1355 -1.6592
  511TMC3    C1 7588   2.996   1.491  15.221  0.4718  0.2742  0.0832
  511TMC3    C2 7589   2.917   1.541  15.323 -1.7663 -0.8660 -0.6072
  511TMC3    C3 7590   2.836   1.452  15.387 -0.0693 -0.1666 -0.5203
  511TMC3    C4 7591   2.999   1.353  15.198 -0.4646  0.5708 -0.5511
  511TMC3    C5 7592   2.901   1.275  15.252  0.0527  0.9610 -0.1828
  511TMC3    C6 7593   2.823   1.324  15.354  0.5204  0.0008  0.3543
  511TMC3     C 7594   3.089   1.575  15.143  0.5635 -0.5899  0.4219
  511TMC3     O 7595   3.204   1.541  15.120 -0.4030  0.0243 -0.2420
  511TMC3     H 7596   2.922   1.647  15.347  0.3352 -1.6338  2.2781
  511TMC3    H1 7597   3.064   1.318  15.119  1.0064  0.5480  0.6686
  511TMC3    H2 7598   2.747   1.266  15.404  1.5762 -1.0854  0.6990
  511TMC3    C7 7599   2.842   1.181  15.161 -0.1148 -0.4015 -0.3970
  511TMC3    C8 7600   2.782   1.498  15.515  0.4485  0.2057  0.0100
  511TMC3    O1 7601   2.882   1.191  15.040  0.3786 -0.1977  0.2846
  511TMC3    O2 7602   2.763   1.616  15.531  0.0812 -0.8940 -0.0718
  512TMC3    C1 7603   1.886   1.267  12.916 -0.0955  0.7059 -0.5389
  512TMC3    C2 7604   1.877   1.306  13.046  1.0557  0.2393  0.4193
  512TMC3    C3 7605   1.988   1.276  13.126  1.1153  0.7027 -0.4256
  512TMC3    C4 7606   2.003   1.212  12.868  0.0476  0.2038  0.8998
  512TMC3    C5 7607   2.109   1.195  12.946  0.1703 -0.0536  0.0351
  512TMC3    C6 7608   2.102   1.226  13.079  0.5325 -0.2412  0.0014
  512TMC3     C 7609   1.769   1.300  12.839 -0.1235 -0.2348 -0.2373
  512TMC3     O 7610   1.697   1.397  12.867  0.4407  0.1920 -0.1539
  512TMC3     H 7611   1.791   1.358  13.088  1.4894  1.6305 -0.4295
  512TMC3    H1 7612   2.013   1.191  12.762  1.3187 -1.2196  1.3032
  512TMC3    H2 7613   2.184   1.196  13.143  0.2265  0.5152  0.7515
  512TMC3    C7 7614   2.197   1.089  12.904  0.4228  0.3697  0.1731
  512TMC3    C8 7615   1.967   1.298  13.270 -0.2202 -0.0504 -0.7275
  512TMC3    O1 7616   2.240   1.113  12.791 -0.1502  0.1052 -0.1462
  512TMC3    O2 7617   1.850   1.276  13.306 -0.1084  0.1007 -1.0607
  513MPD2     C 7618   4.021   1.024  13.508 -0.9401 -0.6040  0.1492
  513MPD2    C1 7619   4.021   1.102  13.389 -0.9155  0.1195 -0.3853
  513MPD2    C2 7620   4.069   1.235  13.404 -0.3100  0.3224  0.0084
  513MPD2    C3 7621   4.119   1.278  13.523  0.2576  0.0266  0.1969
  513MPD2    C4 7622   4.107   1.205  13.639 -0.6229 -0.2807  0.2935
  513MPD2    C5 7623   4.051   1.081  13.627  0.0286  0.2465 -0.4670
  513MPD2     H 7624   4.066   1.297  13.315  0.9447  1.7789  0.9920
  513MPD2    H1 7625   4.142   1.242  13.735 -0.5531 -0.6209  0.4008
  513MPD2    H2 7626   3.983   0.923  13.502  0.8587 -1.3101  0.4724
  513MPD2    H3 7627   4.028   1.028  13.719  1.4025 -0.2405 -0.4001
  513MPD2     N 7628   4.197   1.391  13.515 -0.1674 -0.4834  0.6305
  513MPD2    H5 7629   4.199   1.436  13.425 -2.6742  0.7258  1.1841
  513MPD2    N1 7630   3.971   1.050  13.273 -0.3077 -0.0217 -0.3692
  513MPD2    H7 7631   3.934   0.956  13.276  1.3617 -0.6965 -0.7531
  514TMC3    C1 7632   3.900   1.034  13.056 -0.2618  0.4310  0.1790
  514TMC3    C2 7633   3.843   1.107  12.963 -0.6939  0.3901  0.6806
  514TMC3    C3 7634   3.895   1.099  12.838 -0.4202  0.8506 -0.2589
  514TMC3    C4 7635   4.001   0.949  13.026 -0.2907 -0.2243 -0.1162
  514TMC3    C5 7636   4.041   0.925  12.900 -0.0215  0.2067 -0.5289
  514TMC3    C6 7637   3.989   1.006  12.804 -0.1172  0.3247  0.5782
  514TMC3     C 7638   3.952   1.122  13.157 -0.0425 -0.3825  0.8934
  514TMC3     O 7639   3.966   1.237  13.117  0.2353 -0.0775  0.2094
  514TMC3     H 7640   3.771   1.182  12.993 -0.5736  0.7547  0.0806
  514TMC3    H1 7641   4.045   0.901  13.113 -0.4975  2.0569  1.2429
  514TMC3    H2 7642   4.018   1.002  12.700 -1.4472 -1.4128  0.2782
  514TMC3    C7 7643   4.184   0.942  12.900 -0.1691 -0.2553  0.4438
  514TMC3    C8 7644   3.917   1.232  12.781 -0.5255 -0.1534  0.4842
  514TMC3    O1 7645   4.246   0.892  12.810 -0.3681  0.0428 -0.7108
  514TMC3    O2 7646   3.828   1.315  12.786 -0.2735 -0.7867  0.0223
  515MPD2     C 7647   2.663   2.381  14.892 -0.1872  0.4341 -0.3650
  515MPD2    C1 7648   2.581   2.446  14.800 -0.5439  0.4294 -1.1289
  515MPD2    C2 7649   2.640   2.561  14.748  0.2024  0.2275  0.4306
  515MPD2    C3 7650   2.760   2.615  14.793 -0.4147  0.7616 -0.5552
  515MPD2    C4 7651   2.824   2.547  14.895 -0.5771 -0.1734 -0.7356
  515MPD2    C5 7652   2.778   2.427  14.947  0.4881  0.2315  0.0209
  515MPD2     H 7653   2.586   2.621  14.675  0.6848  0.6134  0.3842
  515MPD2    H1 7654   2.919   2.582  14.932  0.2075 -2.6000 -0.4214
  515MPD2    H2 7655   2.635   2.283  14.929  1.9246  0.7336  1.9627
  515MPD2    H3 7656   2.833   2.361  15.013 -0.4698 -0.2617  0.3139
  515MPD2     N 7657   2.827   2.728  14.740  0.1743 -0.6439  0.4099
  515MPD2    H5 7658   2.910   2.756  14.791  1.1070 -1.7115 -0.5225
  515MPD2    N1 7659   2.457   2.407  14.748 -0.0017 -0.3715 -0.6254
  515MPD2    H7 7660   2.410   2.461  14.676 -1.0571  0.3542  0.6036
  516TMC3    C1 7661   2.268   2.263  14.725  0.2869 -0.2414  0.2957
  516TMC3    C2 7662   2.200   2.352  14.643  0.1347  0.2131 -0.2362
  516TMC3    C3 7663   2.085   2.321  14.587 -0.3991  1.0837  0.3821
  516TMC3    C4 7664   2.199   2.156  14.774  0.1224  0.2138  0.0441
  516TMC3    C5 7665   2.069   2.133  14.725 -0.3426  0.1293 -0.6618
  516TMC3    C6 7666   2.011   2.216  14.636  0.9169 -0.1665 -0.0944
  516TMC3     C 7667   2.401   2.283  14.784 -0.1694 -0.5106 -0.0621
  516TMC3     O 7668   2.425   2.214  14.885 -0.6511 -0.1061  0.4872
  516TMC3     H 7669   2.259   2.432  14.599  1.3481  0.3417  1.6642
  516TMC3    H1 7670   2.252   2.081  14.831  2.2701  0.8698 -1.0657
  516TMC3    H2 7671   1.935   2.174  14.570  0.5948 -1.5779  1.1811
  516TMC3    C7 7672   1.980   2.058  14.814 -0.1764  0.1587 -0.1167
  516TMC3    C8 7673   2.019   2.403  14.486 -0.0526  1.2071  0.4633
  516TMC3    O1 7674   2.034   1.994  14.905  1.0595 -0.1830  1.0310
  516TMC3    O2 7675   1.906   2.368  14.457  0.6370  0.3142 -0.5307
  517MPD2     C 7676   1.438   4.037  17.688  0.7714 -0.1784  0.1539
  517MPD2    C1 7677   1.534   4.092   0.050 -0.0137  0.1019 -0.1915
  517MPD2    C2 7678   1.515   4.212   0.110 -0.1456  0.5485  0.0709
  517MPD2    C3 7679   1.393   4.281   0.101  0.8472  1.0030  0.4986
  517MPD2    C4 7680   1.297   4.224   0.020 -0.6029 -0.6328 -0.3436
  517MPD2    C5 7681   1.321   4.110  17.666 -0.5968  0.0209  0.3597
  517MPD2     H 7682   1.595   4.249   0.173  0.3587  2.0675 -1.4717
  517MPD2    H1 7683   1.200   4.271   0.017  0.5990  1.9086  0.6091
  517MPD2    H2 7684   1.444   3.941  17.639 -0.5253  1.5383 -3.4262
  517MPD2    H3 7685   1.250   4.060  17.602 -0.6997 -0.5901  0.9490
  517MPD2     N 7686   1.365   4.404   0.168 -0.2284  0.7978 -0.1467
  517MPD2    H5 7687   1.274   4.448   0.152  0.0515  1.3338 -0.2689
  517MPD2    N1 7688   1.651   4.014   0.082  0.6569 -0.2662 -0.2740
  517MPD2    H7 7689   1.723   4.059   0.138  1.2659 -0.1325 -1.1736
  518TMC3    C1 7690   1.823   3.842   0.082 -0.4353  0.3014 -0.3518
  518TMC3    C2 7691   1.839   3.708   0.071  0.2035 -0.0027 -0.1992
  518TMC3    C3 7692   1.958   3.669   0.021 -0.1013  0.6199 -0.3881
  518TMC3    C4 7693   1.916   3.933   0.046 -0.0355 -0.5143 -0.1347
  518TMC3    C5 7694   2.022   3.889  17.696  0.1422 -0.3823 -0.2015
  518TMC3    C6 7695   2.048   3.758  17.693 -0.0946 -0.2218 -0.1926
  518TMC3     C 7696   1.685   3.886   0.042  0.3710 -0.1191 -0.3619
  518TMC3     O 7697   1.615   3.805  17.699  0.0844  0.6277  0.5525
  518TMC3     H 7698   1.761   3.638   0.096  1.6279 -0.3344  3.2910
  518TMC3    H1 7699   1.888   4.038   0.045 -1.5224 -0.9409 -1.4057
  518TMC3    H2 7700   2.150   3.724  17.679  0.8272  3.2376 -1.8526
  518TMC3    C7 7701   2.120   3.988  17.649 -0.1706  0.3713 -0.0322
  518TMC3    C8 7702   1.980   3.530  17.693 -0.5219 -0.2268 -0.5520
  518TMC3    O1 7703   2.096   4.099  17.693 -0.4553  0.0608 -0.0629
  518TMC3    O2 7704   2.051   3.516  17.592 -0.2250 -0.2412  0.1563
  519MPD2     C 7705   3.376   2.304  14.434  0.0292 -0.2954  0.0123
  519MPD2    C1 7706   3.362   2.331  14.301 -0.1101 -0.0567  0.2384
  519MPD2    C2 7707   3.474   2.375  14.235  0.3084  0.5951  0.3057
  519MPD2    C3 7708   3.590   2.411  14.301 -0.0789  0.5196  0.1401
  519MPD2    C4 7709   3.598   2.384  14.431  0.1638 -0.6861  0.2695
  519MPD2    C5 7710   3.496   2.325  14.498  0.2926  0.6060 -0.2123
  519MPD2     H 7711   3.475   2.374  14.126  0.6428  0.7241  0.3089
  519MPD2    H1 7712   3.686   2.403  14.491 -1.8493  1.7411  2.4539
  519MPD2    H2 7713   3.291   2.273  14.494  0.6387  3.1708  2.6871
  519MPD2    H3 7714   3.516   2.307  14.603 -0.6500  0.5845 -0.0290
  519MPD2     N 7715   3.704   2.471  14.235  0.3173  0.5182 -0.0928
  519MPD2    H5 7716   3.779   2.507  14.292 -0.2216 -0.1431  1.0167
  519MPD2    N1 7717   3.236   2.318  14.224 -0.2906  0.0482  0.0422
  519MPD2    H7 7718   3.156   2.271  14.265  0.4702 -2.6172 -1.5544
  520TMC3    C1 7719   3.851   2.538  14.064 -0.1161 -0.5069 -1.2407
  520TMC3    C2 7720   3.865   2.592  13.942 -0.0270  0.1135 -0.0051
  520TMC3    C3 7721   3.989   2.583  13.888  0.5993 -0.4344 -0.0911
  520TMC3    C4 7722   3.948   2.471  14.129 -0.4627  0.4106 -0.1701
  520TMC3    C5 7723   4.065   2.459  14.062 -0.2086 -0.5799  0.2185
  520TMC3    C6 7724   4.092   2.522  13.949  0.0486 -0.2102 -0.0350
  520TMC3     C 7725   3.716   2.493  14.100  0.1282  0.2739 -0.9566
  520TMC3     O 7726   3.629   2.478  14.015  0.1976 -0.1482 -0.3072
  520TMC3     H 7727   3.771   2.631  13.903  0.1858 -1.5123 -2.1453
  520TMC3    H1 7728   3.930   2.424  14.225 -0.8798 -1.6403 -1.2376
  520TMC3    H2 7729   4.185   2.506  13.895  1.6375  0.0975  2.5832
  520TMC3    C7 7730   4.149   2.361  14.117 -0.0667  0.5629 -0.2899
  520TMC3    C8 7731   4.008   2.607  13.747 -0.8258  0.0765 -0.3664
  520TMC3    O1 7732   4.143   2.333  14.236 -0.3254  0.1605  0.0150
  520TMC3    O2 7733   4.122   2.624  13.707 -0.3363 -0.0957 -0.0721
  521MPD2     C 7734   3.687   1.122  17.379  0.5782 -0.6215 -0.0358
  521MPD2    C1 7735   3.753   1.005  17.413 -0.0885 -0.1158  0.7846
  521MPD2    C2 7736   3.875   0.983  17.357  0.0174  0.4569 -0.5698
  521MPD2    C3 7737   3.934   1.074  17.266  0.2173 -0.8297 -0.8087
  521MPD2    C4 7738   3.866   1.190  17.244  0.0531  0.2939  0.0579
  521MPD2    C5 7739   3.741   1.213  17.298  0.0907  0.2379  0.0692
  521MPD2     H 7740   3.924   0.887  17.376 -2.7631 -0.7977  0.1979
  521MPD2    H1 7741   3.896   1.271  17.180  0.4668  0.2882  0.2466
  521MPD2    H2 7742   3.593   1.144  17.429 -0.2334 -0.4249 -1.6438
  521MPD2    H3 7743   3.693   1.311  17.298  0.2143  0.3025 -0.8504
  521MPD2     N 7744   4.061   1.048  17.210 -0.1141  0.7266  0.0123
  521MPD2    H5 7745   4.104   0.968  17.255  1.0548  1.2926 -0.1196
  521MPD2    N1 7746   3.687   0.929  17.513  0.0424 -0.1626  0.3423
  521MPD2    H7 7747   3.588   0.944  17.535 -0.0032  0.2880 -0.1782
  522TMC3    C1 7748   4.259   1.073  17.096  0.3262 -0.1194 -0.3854
  522TMC3    C2 7749   4.293   0.945  17.144 -0.1455  0.2324  0.2819
  522TMC3    C3 7750   4.406   0.895  17.084  0.7161  0.5135 -0.3275
  522TMC3    C4 7751   4.326   1.140  16.998  0.1328 -0.0770 -0.0949
  522TMC3    C5 7752   4.441   1.090  16.951 -0.1421  0.3747  0.0225
  522TMC3    C6 7753   4.480   0.966  16.990  0.2751 -0.2230 -0.0868
  522TMC3     C 7754   4.128   1.117  17.118 -0.7824 -0.6637 -0.1465
  522TMC3     O 7755   4.097   1.224  17.064  0.1525 -0.4369 -0.1309
  522TMC3     H 7756   4.232   0.876  17.202  1.3529 -1.0402  0.3405
  522TMC3    H1 7757   4.286   1.236  16.968 -0.1659  0.3033  1.5269
  522TMC3    H2 7758   4.574   0.926  16.955  0.4247 -0.3428  0.4545
  522TMC3    C7 7759   4.471   1.129  16.813  0.0704 -0.3408  0.3729
  522TMC3    C8 7760   4.460   0.772  17.141 -0.6870 -0.4251 -0.0637
  522TMC3    O1 7761   4.582   1.110  16.767  0.2681  0.3720  0.0930
  522TMC3    O2 7762   4.385   0.709  17.217 -0.0430 -0.1095 -0.8280
  523MPD2     C 7763   2.264   0.682  10.216  0.3485  0.3800  0.6598
  523MPD2    C1 7764   2.252   0.561  10.148  0.4504  0.1477  0.2214
  523MPD2    C2 7765   2.151   0.545  10.055 -0.2517 -0.0327 -0.0728
  523MPD2    C3 7766   2.077   0.655  10.016 -0.1396 -0.4991  0.4165
  523MPD2    C4 7767   2.122   0.778  10.058  0.8468  0.4470  0.4316
  523MPD2    C5 7768   2.215   0.792  10.153  0.6400 -0.2548  0.1697
  523MPD2     H 7769   2.135   0.447  10.012 -1.1373 -0.2581  0.7670
  523MPD2    H1 7770   2.074   0.872  10.033  1.1137  0.7518  1.0731
  523MPD2    H2 7771   2.334   0.690  10.298  0.1721  1.0090  0.7542
  523MPD2    H3 7772   2.232   0.886  10.204 -2.5221  0.5400 -0.2590
  523MPD2     N 7773   1.968   0.650   9.920 -0.7623  0.0334 -0.6931
  523MPD2    H5 7774   1.916   0.733   9.895 -0.7198  0.2079 -0.1953
  523MPD2    N1 7775   2.341   0.463  10.191 -0.0697  0.3365  0.0318
  523MPD2    H7 7776   2.409   0.481  10.264 -0.6352  0.3595  0.5481
  524TMC3    C1 7777   1.814   0.556   9.765  0.1844  0.9406  0.2921
  524TMC3    C2 7778   1.774   0.442   9.704 -0.5569  0.1093  0.4949
  524TMC3    C3 7779   1.710   0.453   9.586  0.6722  1.0910  0.0496
  524TMC3    C4 7780   1.775   0.678   9.723  0.5629 -0.0833 -0.0913
  524TMC3    C5 7781   1.710   0.682   9.598  0.3001 -0.1839 -0.4162
  524TMC3    C6 7782   1.683   0.571   9.521  0.2992 -0.2385 -0.0314
  524TMC3     C 7783   1.913   0.535   9.868  0.2694 -0.1769  0.4368
  524TMC3     O 7784   1.937   0.419   9.893 -0.0947  0.1220 -0.3581
  524TMC3     H 7785   1.767   0.353   9.765  1.1757  0.4063  1.1347
  524TMC3    H1 7786   1.785   0.765   9.787 -2.3973  0.0152  0.2355
  524TMC3    H2 7787   1.619   0.572   9.434 -0.0744 -0.0199  0.2458
  524TMC3    C7 7788   1.684   0.819   9.549  0.4653  0.4833  0.6441
  524TMC3    C8 7789   1.614   0.347   9.546 -0.6312  0.3887  0.2404
  524TMC3    O1 7790   1.692   0.913   9.628 -0.0536  0.3208  0.6871
  524TMC3    O2 7791   1.504   0.386   9.519  0.6161  0.1045 -1.0624
  525MPD2     C 7792   0.387   2.415  14.487  0.1816 -0.8489  0.0111
  525MPD2    C1 7793   0.504   2.420  14.562  0.2979 -0.0367  0.1760
  525MPD2    C2 7794   0.619   2.485  14.518  0.2747  0.0902  0.0730
  525MPD2    C3 7795   0.615   2.563  14.401 -0.3334 -0.5852  0.0410
  525MPD2    C4 7796   0.505   2.542  14.320 -0.2874  0.9149  0.6443
  525MPD2    C5 7797   0.392   2.471  14.361  0.0313 -0.2212 -0.3736
  525MPD2     H 7798   0.714   2.473  14.568  0.1341 -1.6421 -0.0710
  525MPD2    H1 7799   0.496   2.600  14.229 -0.7980 -0.3269 -0.0873
  525MPD2    H2 7800   0.295   2.361  14.507  0.3467 -1.1941 -0.1625
  525MPD2    H3 7801   0.297   2.474  14.307 -0.0892 -2.5805 -0.2945
  525MPD2     N 7802   0.713   2.662  14.365 -0.1855  0.2115  0.0083
  525MPD2    H5 7803   0.696   2.724  14.287 -0.7850  0.2192  0.1504
  525MPD2    N1 7804   0.524   2.353  14.685  0.3359 -0.4442 -0.4070
  525MPD2    H7 7805   0.620   2.351  14.717  0.2061 -1.2959 -0.0818
  526TMC3    C1 7806   0.466   2.267  14.894  0.0449 -0.1570 -0.3738
  526TMC3    C2 7807   0.359   2.232  14.973 -0.6842 -0.0752  0.3288
  526TMC3    C3 7808   0.372   2.204  15.103 -0.0433 -0.5054  0.5432
  526TMC3    C4 7809   0.589   2.289  14.950 -0.1711  0.0423 -0.4533
  526TMC3    C5 7810   0.603   2.250  15.079 -0.6638 -0.5443 -0.6008
  526TMC3    C6 7811   0.496   2.209  15.159 -0.2823  0.4066 -0.1571
  526TMC3     C 7812   0.424   2.319  14.765 -0.7769 -0.0567  0.6933
  526TMC3     O 7813   0.304   2.330  14.742 -0.0438 -0.2364  0.2731
  526TMC3     H 7814   0.262   2.219  14.927 -1.2080  0.2284  1.3520
  526TMC3    H1 7815   0.665   2.334  14.887 -0.4601 -0.8683 -1.4506
  526TMC3    H2 7816   0.512   2.182  15.263  0.4354 -1.8435 -0.8721
  526TMC3    C7 7817   0.728   2.187  15.116  0.0302  0.6085  0.0242
  526TMC3    C8 7818   0.249   2.188  15.180 -0.5458  0.2625 -0.5127
  526TMC3    O1 7819   0.740   2.146  15.229  0.1577  0.0313 -0.4455
  526TMC3    O2 7820   0.160   2.117  15.131  0.0176  0.1982  0.0118
  527MPD2     C 7821   2.938   1.158   0.713  0.4786  0.1505  0.3929
  527MPD2    C1 7822   2.858   1.058   0.768 -0.4878  0.1289 -0.6117
  527MPD2    C2 7823   2.892   0.924   0.771  0.5578 -0.7225 -0.2516
  527MPD2    C3 7824   3.008   0.889   0.711  0.1144 -0.3609  0.4857
  527MPD2    C4 7825   3.098   0.989   0.658 -0.6235 -0.2097 -0.1694
  527MPD2    C5 7826   3.062   1.124   0.662 -0.6228 -0.4183  0.7403
  527MPD2     H 7827   2.829   0.853   0.824  1.8454 -1.6795  0.0022
  527MPD2    H1 7828   3.174   0.958   0.587 -0.7205 -1.8936  0.4485
  527MPD2    H2 7829   2.910   1.262   0.704 -0.4994 -0.3735 -2.3730
  527MPD2    H3 7830   3.132   1.198   0.624  0.5348 -0.3220  3.0486
  527MPD2     N 7831   3.028   0.747   0.700  0.1922  0.7085  0.3550
  527MPD2    H5 7832   2.959   0.680   0.731  2.0789 -1.2183  0.3925
  527MPD2    N1 7833   2.727   1.083   0.829 -0.3610 -0.0227 -0.7553
  527MPD2    H7 7834   2.681   1.001   0.865 -1.1428  0.3653 -0.8821
  528TMC3    C1 7835   2.533   1.220   0.891 -0.0188  0.2869 -0.2523
  528TMC3    C2 7836   2.501   1.341   0.949 -0.8697 -0.4712 -1.2104
  528TMC3    C3 7837   2.386   1.348   1.020 -0.0778  0.6577 -0.2272
  528TMC3    C4 7838   2.449   1.117   0.887 -0.3772 -0.2929 -1.0557
  528TMC3    C5 7839   2.329   1.136   0.948 -0.0279  0.0366  0.2715
  528TMC3    C6 7840   2.289   1.250   1.007  0.5294  0.1580  0.4235
  528TMC3     C 7841   2.670   1.208   0.842 -0.2599  0.1274  0.0783
  528TMC3     O 7842   2.727   1.318   0.816  0.2199 -0.0611 -0.1223
  528TMC3     H 7843   2.587   1.407   0.955 -0.4368 -1.3849  2.9852
  528TMC3    H1 7844   2.477   1.024   0.841 -1.7433 -1.2547  0.0711
  528TMC3    H2 7845   2.195   1.254   1.062  0.3485  0.8273  0.0584
  528TMC3    C7 7846   2.248   1.016   0.974  0.0374 -0.2759 -0.3284
  528TMC3    C8 7847   2.379   1.465   1.109  0.5014  0.0438  0.8064
  528TMC3    O1 7848   2.264   0.926   0.895  0.2611  0.1396 -0.6492
  528TMC3    O2 7849   2.465   1.549   1.087  0.0202 -0.2336 -1.0427
  529MPD2     C 7850   0.559   3.969   0.730 -0.4818 -0.5067 -0.3698
  529MPD2    C1 7851   0.458   3.899   0.667  0.6334 -0.1491  0.0286
  529MPD2    C2 7852   0.384   3.971   0.573 -0.0880 -0.4138 -0.1973
  529MPD2    C3 7853   0.396   4.114   0.555  0.6065  0.3387  0.8382
  529MPD2    C4 7854   0.504   4.172   0.621  0.4797  0.0472  0.2427
  529MPD2    C5 7855   0.589   4.097   0.696  0.0059 -0.7702  0.1646
  529MPD2     H 7856   0.310   3.914   0.517 -1.2788  0.4381  0.5203
  529MPD2    H1 7857   0.527   4.276   0.600 -2.3646  0.7570  0.7260
  529MPD2    H2 7858   0.636   3.921   0.789 -0.6039  1.6878  1.5506
  529MPD2    H3 7859   0.674   4.148   0.740  0.6661 -0.9529 -0.8799
  529MPD2     N 7860   0.312   4.194   0.474  0.0078  0.4255 -0.3687
  529MPD2    H5 7861   0.329   4.294   0.465 -0.6060  0.2376 -3.6182
  529MPD2    N1 7862   0.425   3.763   0.701  0.5175  0.1139  0.5074
  529MPD2    H7 7863   0.346   3.726   0.649  0.1282 -1.5778  2.3093
  530TMC3    C1 7864   0.406   3.562   0.822  0.4118  0.1439  0.2912
  530TMC3    C2 7865   0.478   3.462   0.886 -0.0444  0.4637 -0.4694
  530TMC3    C3 7866   0.427   3.337   0.874 -0.3354 -0.3335  0.0101
  530TMC3    C4 7867   0.302   3.536   0.733 -0.1447  0.4148  0.6786
  530TMC3    C5 7868   0.262   3.401   0.727 -0.6314 -0.3059  0.6955
  530TMC3    C6 7869   0.322   3.308   0.799 -0.1335 -0.4637 -0.4709
  530TMC3     C 7870   0.470   3.694   0.812 -0.6820 -0.7206  0.1035
  530TMC3     O 7871   0.544   3.729   0.905 -0.2531 -0.0046  0.1059
  530TMC3     H 7872   0.558   3.484   0.956 -1.7453  0.5261  1.4342
  530TMC3    H1 7873   0.243   3.612   0.684 -1.6056 -1.0862  0.1463
  530TMC3    H2 7874   0.297   3.205   0.777 -2.9455  0.5108 -1.7653
  530TMC3    C7 7875   0.162   3.362   0.634 -0.0662  0.1083  0.2119
  530TMC3    C8 7876   0.501   3.225   0.926  0.0850 -0.6555 -0.0504
  530TMC3    O1 7877   0.148   3.445   0.544 -0.0147 -0.0903  0.3775
  530TMC3    O2 7878   0.612   3.256   0.972 -0.2725 -0.2090  0.1957
  531MPD2     C 7879   4.594   1.225  13.028 -0.5589  0.5040  0.2199
  531MPD2    C1 7880   4.479   1.286  13.086 -0.3605 -0.4218  0.0956
  531MPD2    C2 7881   4.355   1.223  13.060  0.4310 -0.7882  0.4681
  531MPD2    C3 7882   4.350   1.110  12.986  0.4941 -0.7841  1.2564
  531MPD2    C4 7883   4.461   1.056  12.918  0.6617  0.3319  0.3247
  531MPD2    C5 7884   4.582   1.113  12.947  0.3925 -0.4015  0.4205
  531MPD2     H 7885   4.262   1.256  13.106 -0.1957  0.5047 -1.7057
  531MPD2    H1 7886   4.453   0.973  12.849 -0.2843 -1.7785  2.9564
  531MPD2    H2 7887   4.697   1.255  13.047 -0.0392 -1.9182  1.2607
  531MPD2    H3 7888   4.677   1.077  12.910 -0.9893 -3.5692 -0.0852
  531MPD2     N 7889   4.219   1.046  12.980 -0.0811 -0.2777 -0.0100
  531MPD2    H5 7890   4.141   1.070  13.039 -0.4648  1.9937 -1.4612
  531MPD2    N1 7891   4.495   1.403  13.164  0.0499  0.6803 -0.1212
  531MPD2    H7 7892   4.589   1.424  13.196 -1.3603  2.3696  2.8598
  532TMC3    C1 7893   4.443   1.567  13.318 -0.0807 -0.1961 -0.6364
  532TMC3    C2 7894   4.350   1.564  13.419 -0.0248 -0.5499 -0.4691
  532TMC3    C3 7895   4.379   1.532  13.547 -0.7561 -0.3064 -0.8625
  532TMC3    C4 7896   4.574   1.547  13.355  0.3625  0.5632  0.6401
  532TMC3    C5 7897   4.603   1.517  13.487  0.6137 -0.3209 -0.1295
  532TMC3    C6 7898   4.507   1.505  13.581 -0.2597 -0.4357 -0.0313
  532TMC3     C 7899   4.397   1.483  13.213 -0.8829  0.5851  0.3667
  532TMC3     O 7900   4.277   1.461  13.214 -0.3509  0.6846 -0.3740
  532TMC3     H 7901   4.254   1.611  13.397  0.1302 -0.1384 -0.2617
  532TMC3    H1 7902   4.653   1.555  13.280  2.4704 -2.2948  2.5495
  532TMC3    H2 7903   4.534   1.491  13.685 -1.2227 -0.8113  0.1687
  532TMC3    C7 7904   0.009   1.494  13.530 -0.1682  0.5840  0.0243
  532TMC3    C8 7905   4.280   1.446  13.612  0.1385  0.1139  0.1444
  532TMC3    O1 7906   0.090   1.563  13.470  0.0655  0.1737  0.1925
  532TMC3    O2 7907   4.319   1.404  13.718  1.0630  0.0650 -0.5232
  533TMC3    C1 7908   0.895   2.803  14.363  0.4486  0.1799 -0.3493
  533TMC3    C2 7909   1.027   2.789  14.347  0.2424  0.2365 -0.2047
  533TMC3    C3 7910   1.101   2.908  14.367 -0.0401  0.5139 -0.5914
  533TMC3    C4 7911   0.832   2.923  14.388 -0.4542 -0.2352  0.0851
  533TMC3    C5 7912   0.909   3.035  14.405  0.4014 -0.0550 -0.6016
  533TMC3    C6 7913   1.043   3.028  14.397  0.4495  0.1593 -0.0827
  533TMC3     C 7914   0.832   2.685  14.425 -0.7646  0.7040 -0.7525
  533TMC3     O 7915   0.890   2.616  14.504  0.7967  0.1824 -0.4529
  533TMC3     H 7916   1.062   2.688  14.328  1.3762  0.3932  1.0057
  533TMC3    H1 7917   0.724   2.924  14.381 -0.4008 -1.4658 -1.0389
  533TMC3    H2 7918   1.105   3.115  14.415  0.9265  0.2866 -2.4080
  533TMC3    C7 7919   0.861   3.132  14.507  0.7515 -0.8133 -0.3657
  533TMC3    C8 7920   1.246   2.905  14.342 -0.1545  0.8257 -0.1511
  533TMC3    O1 7921   0.948   3.216  14.536 -0.6733  0.0154  0.5015
  533TMC3    O2 7922   1.287   3.014  14.306  0.1852 -0.5437  0.0598
  534MPD2     C 7923   1.909   4.077   1.837 -0.2308 -0.1546  0.7159
  534MPD2    C1 7924   2.019   4.020   1.771  0.0684 -0.7106 -0.1986
  534MPD2    C2 7925   2.014   3.887   1.735 -0.1273  0.3067 -0.8774
  534MPD2    C3 7926   1.896   3.817   1.736  0.0202 -0.1600  0.0748
  534MPD2    C4 7927   1.783   3.878   1.790 -0.0841 -0.6820 -0.4805
  534MPD2    C5 7928   1.799   4.002   1.844 -0.4137  0.1634  0.2142
  534MPD2     H 7929   2.101   3.839   1.692 -0.9185 -2.8211  0.9705
  534MPD2    H1 7930   1.692   3.820   1.779 -0.2247 -0.6261  0.3381
  534MPD2    H2 7931   1.912   4.182   1.863  1.1180 -0.2332  0.8987
  534MPD2    H3 7932   1.711   4.052   1.886 -0.9580  0.9954 -1.9071
  534MPD2     N 7933   1.894   3.690   1.674  0.2113  0.3547 -0.3418
  534MPD2    H5 7934   1.805   3.656   1.639  0.4196 -0.3116 -0.2156
  534MPD2    N1 7935   2.132   4.096   1.743  0.1966 -0.7953 -0.3559
  534MPD2    H7 7936   2.191   4.049   1.675  2.3587  1.6420 -0.1986
  535TMC3    C1 7937   1.964   3.561   1.488 -0.6837  0.3394  0.3114
  535TMC3    C2 7938   1.830   3.531   1.462  0.0637  0.1880 -0.9350
  535TMC3    C3 7939   1.799   3.503   1.330 -0.2516  1.0736  0.2460
  535TMC3    C4 7940   2.062   3.556   1.397  0.5590  0.6751 -0.9934
  535TMC3    C5 7941   2.030   3.509   1.271 -0.1387  0.8441 -0.0115
  535TMC3    C6 7942   1.900   3.480   1.231  0.3261 -0.6827 -0.2809
  535TMC3     C 7943   1.999   3.634   1.608 -0.1322 -0.5759  0.2917
  535TMC3     O 7944   2.118   3.627   1.640  0.3139 -0.5103  0.0227
  535TMC3     H 7945   1.754   3.540   1.538  2.0535  2.2052  0.8137
  535TMC3    H1 7946   2.167   3.579   1.414  0.8014 -1.6442  0.5296
  535TMC3    H2 7947   1.877   3.450   1.129 -0.1291  0.0495 -0.3966
  535TMC3    C7 7948   2.136   3.521   1.177 -0.4562 -0.0730  0.2192
  535TMC3    C8 7949   1.666   3.470   1.292 -0.3876 -0.6585  0.4394
  535TMC3    O1 7950   2.166   3.432   1.099  0.1456 -0.4109 -0.3406
  535TMC3    O2 7951   1.645   3.401   1.194 -0.0875  0.1981 -0.3407
  536MPD2     C 7952   1.698   1.734  16.408  0.3871 -0.2118  0.2875
  536MPD2    C1 7953   1.592   1.803  16.466  0.0110  0.7471  0.1158
  536MPD2    C2 7954   1.515   1.887  16.384 -0.0168 -0.9840  0.5065
  536MPD2    C3 7955   1.543   1.901  16.249  0.1483 -0.0185  0.0076
  536MPD2    C4 7956   1.645   1.819  16.192 -0.5236 -0.2086  0.0228
  536MPD2    C5 7957   1.725   1.744  16.273  0.0919 -0.0880  0.1394
  536MPD2     H 7958   1.432   1.944  16.425  1.7554  1.4054  0.8128
  536MPD2    H1 7959   1.671   1.823  16.087  0.8932  1.7932  0.4430
  536MPD2    H2 7960   1.757   1.667  16.470  1.1626 -0.0889 -0.3173
  536MPD2    H3 7961   1.785   1.661  16.238 -1.0363 -1.0171  0.4301
  536MPD2     N 7962   1.473   1.987  16.154 -0.3677 -0.7582  0.1382
  536MPD2    H5 7963   1.493   1.998  16.055 -2.2389 -0.6717 -0.2228
  536MPD2    N1 7964   1.563   1.779  16.602  0.3103 -0.2544  0.6019
  536MPD2    H7 7965   1.635   1.724  16.648  0.9307  0.5678  0.6197
  537TMC3    C1 7966   1.454   1.779  16.814 -0.3733  0.3410 -0.1169
  537TMC3    C2 7967   1.574   1.776  16.884 -0.0805 -0.3212  0.1905
  537TMC3    C3 7968   1.585   1.701  16.996 -0.6166  0.0380 -0.1782
  537TMC3    C4 7969   1.342   1.718  16.860  0.0617 -0.3083  0.0419
  537TMC3    C5 7970   1.353   1.650  16.976 -0.3045 -0.2725 -0.0150
  537TMC3    C6 7971   1.475   1.628  17.040  0.1264 -0.0060 -0.0393
  537TMC3     C 7972   1.452   1.821  16.673  0.2380 -0.9609 -0.4338
  537TMC3     O 7973   1.346   1.875  16.638  1.2714 -0.4248  0.3794
  537TMC3     H 7974   1.659   1.831  16.844  0.6817 -1.0129  0.8465
  537TMC3    H1 7975   1.247   1.716  16.809 -0.2504 -0.5263  0.6279
  537TMC3    H2 7976   1.464   1.587  17.140  1.2462  1.2048  0.5851
  537TMC3    C7 7977   1.235   1.597  17.043  0.2624  0.3414 -0.2517
  537TMC3    C8 7978   1.684   1.729  17.107  0.2771  0.3698  0.0835
  537TMC3    O1 7979   1.144   1.678  17.045 -0.4248  0.2634  0.1425
  537TMC3    O2 7980   1.667   1.671  17.216  0.0030  0.3418  0.3336
  538TMC3    C1 7981   2.692   0.925  11.071 -0.7610 -0.1219  0.1367
  538TMC3    C2 7982   2.816   0.895  11.023 -0.2336  0.2026 -0.6407
  538TMC3    C3 7983   2.860   0.929  10.899 -0.6158 -0.3536  0.0253
  538TMC3    C4 7984   2.607   0.992  10.992  0.0417 -0.5329 -0.2329
  538TMC3    C5 7985   2.648   1.020  10.863  0.3599 -0.0838  0.3567
  538TMC3    C6 7986   2.772   0.991  10.808  0.0485 -0.0691 -0.1461
  538TMC3     C 7987   2.676   0.931  11.218  0.2738  0.4328 -0.1553
  538TMC3     O 7988   2.569   0.888  11.259 -0.5477  0.5758 -0.5108
  538TMC3     H 7989   2.891   0.850  11.087  0.9010  0.9285 -1.4488
  538TMC3    H1 7990   2.515   1.025  11.039 -0.6358 -1.5341 -0.8584
  538TMC3    H2 7991   2.787   1.026  10.707  1.8630 -1.5601 -0.3830
  538TMC3    C7 7992   2.573   1.112  10.780 -0.0721  0.3897 -0.3460
  538TMC3    C8 7993   2.963   0.843  10.853 -0.1920  0.4607 -0.4188
  538TMC3    O1 7994   2.620   1.185  10.692  0.0460  0.0940  0.4517
  538TMC3    O2 7995   3.013   0.758  10.926 -0.2003  0.2752  0.5050
  539MPD2     C 7996   2.472   0.174  12.140 -0.2722 -0.0823  0.8746
  539MPD2    C1 7997   2.489   0.199  12.004  0.3939 -0.3684 -0.0296
  539MPD2    C2 7998   2.411   0.295  11.937 -1.0980  0.4510 -0.6331
  539MPD2    C3 7999   2.307   0.357  12.008 -0.1695  0.3895 -0.3691
  539MPD2    C4 8000   2.283   0.322  12.139 -0.4331  0.5464  0.5603
  539MPD2    C5 8001   2.366   0.232  12.199 -0.2789  0.5014 -0.1173
  539MPD2     H 8002   2.433   0.314  11.832  2.0043 -0.3245 -0.1369
  539MPD2    H1 8003   2.225   0.384  12.206 -2.7066  0.3082 -1.1945
  539MPD2    H2 8004   2.531   0.107  12.202  0.0262  0.5562  1.2909
  539MPD2    H3 8005   2.353   0.221  12.306  4.0664 -1.4918  0.1977
  539MPD2     N 8006   2.217   0.448  11.947 -0.0484  0.2687  0.5851
  539MPD2    H5 8007   2.144   0.481  12.010 -1.7201 -1.2503 -0.5622
  539MPD2    N1 8008   2.583   0.123  11.925 -0.0826  0.6564 -0.2593
  539MPD2    H7 8009   2.561   0.126  11.826 -0.6032 -0.4601 -0.1759
  540TMC3    C1 8010   2.133   0.603  11.774 -0.3016  0.1521  0.1121
  540TMC3    C2 8011   2.153   0.669  11.657  0.1457  0.1063 -0.6028
  540TMC3    C3 8012   2.075   0.780  11.622 -0.1290  0.5122  0.5485
  540TMC3    C4 8013   2.036   0.639  11.862  0.3128  0.5042 -0.3775
  540TMC3    C5 8014   1.964   0.755  11.831  0.2073 -0.0623 -0.0292
  540TMC3    C6 8015   1.988   0.827  11.715  0.3969  0.1059  0.0555
  540TMC3     C 8016   2.241   0.504  11.822 -0.1185 -0.4318  0.0866
  540TMC3     O 8017   2.351   0.522  11.773 -0.1129 -0.0213  0.0351
  540TMC3     H 8018   2.213   0.624  11.578 -1.7522 -0.3166 -1.7980
  540TMC3    H1 8019   1.995   0.565  11.931  1.2734 -0.4880 -0.8822
  540TMC3    H2 8020   1.932   0.916  11.687 -0.7956 -0.8013 -0.4557
  540TMC3    C7 8021   1.829   0.767  11.891  0.5696 -0.4388 -0.3143
  540TMC3    C8 8022   2.058   0.809  11.483 -0.3571 -0.0247  0.5078
  540TMC3    O1 8023   1.769   0.670  11.930  0.3058  0.3975 -0.0949
  540TMC3    O2 8024   2.037   0.928  11.458  0.0260 -0.2814  0.2813
  541MPD2     C 8025   0.558   1.762  13.136 -0.4838  0.0827  0.1407
  541MPD2    C1 8026   0.585   1.640  13.079 -0.1276  0.1326 -0.1601
  541MPD2    C2 8027   0.609   1.641  12.939 -0.3238  0.2476  0.8015
  541MPD2    C3 8028   0.628   1.753  12.859 -0.0504  0.3199 -0.1695
  541MPD2    C4 8029   0.628   1.872  12.936  0.2172  0.4845  1.4478
  541MPD2    C5 8030   0.575   1.877  13.063 -0.0106  0.1944 -0.2485
  541MPD2     H 8031   0.638   1.549  12.890 -1.6531  0.4810 -0.4108
  541MPD2    H1 8032   0.648   1.967  12.888  0.7590  0.2302  1.1698
  541MPD2    H2 8033   0.534   1.775  13.241 -1.1697  0.8462 -0.1119
  541MPD2    H3 8034   0.571   1.972  13.114  1.2923 -1.1069  2.2229
  541MPD2     N 8035   0.655   1.757  12.722 -0.3824  0.2003 -0.2532
  541MPD2    H5 8036   0.681   1.848  12.684  1.8046  0.0027  0.7830
  541MPD2    N1 8037   0.563   1.525  13.149  0.2316 -0.2829  0.0726
  541MPD2    H7 8038   0.523   1.537  13.242 -0.8511 -1.2958 -0.2676
  542TMC3    C1 8039   0.691   1.686  12.501 -0.1917 -0.0019 -0.2207
  542TMC3    C2 8040   0.753   1.597  12.414  0.0408  0.5676 -0.7712
  542TMC3    C3 8041   0.801   1.646  12.300 -0.8789 -1.0903  0.0715
  542TMC3    C4 8042   0.669   1.820  12.467 -0.7568 -0.1857  0.1688
  542TMC3    C5 8043   0.707   1.856  12.342 -0.3793 -0.3737 -1.1731
  542TMC3    C6 8044   0.782   1.779  12.260 -0.0805 -0.5453  0.4122
  542TMC3     C 8045   0.653   1.649  12.636 -0.2443  0.1672 -0.7783
  542TMC3     O 8046   0.657   1.527  12.661  0.6006 -0.4160 -0.2762
  542TMC3     H 8047   0.779   1.498  12.451  0.0867 -0.1684 -2.7621
  542TMC3    H1 8048   0.612   1.896  12.519 -0.7449 -0.8228  1.1143
  542TMC3    H2 8049   0.847   1.815  12.182 -1.6534 -0.8783 -1.0468
  542TMC3    C7 8050   0.735   1.996  12.324  1.3271 -0.5164 -0.0562
  542TMC3    C8 8051   0.872   1.555  12.206 -0.0974 -0.0496 -0.0743
  542TMC3    O1 8052   0.731   2.075  12.418 -0.5751 -0.1847  0.4878
  542TMC3    O2 8053   0.947   1.610  12.124  0.2316  0.1424  0.1790
  543TMC3    C1 8054   0.007   3.028  17.124  0.2864  0.4484  0.2405
  543TMC3    C2 8055   4.707   2.895  17.148 -0.0534  0.7313 -0.5353
  543TMC3    C3 8056   4.604   2.876  17.240  0.1892  0.2469  0.4540
  543TMC3    C4 8057   4.671   3.133  17.183  1.1297 -0.4421 -0.1306
  543TMC3    C5 8058   4.565   3.104  17.261 -0.3896  0.0354 -0.1773
  543TMC3    C6 8059   4.525   2.975  17.289 -0.1231 -0.0864  0.1010
  543TMC3     C 8060   0.129   3.053  17.051 -0.0948 -0.3679  0.5619
  543TMC3     O 8061   0.222   2.978  17.075  0.1486 -0.3000  0.3263
  543TMC3     H 8062   0.039   2.824  17.093  2.0756  0.8756  1.6381
  543TMC3    H1 8063   4.709   3.234  17.177  0.3510 -0.1508 -0.0962
  543TMC3    H2 8064   4.435   2.954  17.346  1.2135  1.0243  2.6289
  543TMC3    C7 8065   4.491   3.219  17.316 -0.5532 -0.4468  0.0672
  543TMC3    C8 8066   4.563   2.737  17.249  0.1704 -0.3854 -0.3913
  543TMC3    O1 8067   4.565   3.314  17.332  0.9065 -0.5227 -0.3291
  543TMC3    O2 8068   4.640   2.649  17.211 -0.5025 -0.2562 -0.0561
  544MPD2     C 8069   4.204   2.369  17.299  0.0568 -0.3091 -0.9067
  544MPD2    C1 8070   4.334   2.366  17.258 -0.2421  0.5846 -0.9970
  544MPD2    C2 8071   4.410   2.484  17.245 -0.4228 -0.3937 -0.0878
  544MPD2    C3 8072   4.346   2.603  17.285 -0.0170 -0.4429 -0.4096
  544MPD2    C4 8073   4.215   2.614  17.327 -0.3815  0.2137  0.1369
  544MPD2    C5 8074   4.138   2.496  17.326  1.1946 -0.3233  0.3411
  544MPD2     H 8075   4.513   2.470  17.212  0.2242 -1.8641  2.5546
  544MPD2    H1 8076   4.170   2.708  17.359 -1.1671 -0.3714  0.7421
  544MPD2    H2 8077   4.136   2.285  17.294  1.1178 -1.1333 -1.4521
  544MPD2    H3 8078   4.036   2.499  17.363  1.3367  4.2507  0.3909
  544MPD2     N 8079   4.426   2.723  17.279 -0.1732  0.2391 -0.2666
  544MPD2    H5 8080   4.384   2.810  17.310  1.6362  1.1368 -0.3614
  544MPD2    N1 8081   4.391   2.239  17.233 -1.0077  0.2105  0.4186
  544MPD2    H7 8082   4.338   2.156  17.258  1.0850 -0.9777  0.9219
  545TMC3    C1 8083   4.556   2.090  17.161  0.4282 -0.0193  0.2644
  545TMC3    C2 8084   4.693   2.069  17.139  0.4298  0.1167  0.7348
  545TMC3    C3 8085   0.003   1.950  17.092  0.1515 -0.1720 -0.5502
  545TMC3    C4 8086   4.465   1.990  17.139  0.0544  0.6041 -1.0598
  545TMC3    C5 8087   4.511   1.866  17.105 -0.7527 -0.5764 -0.2469
  545TMC3    C6 8088   4.647   1.845  17.072 -0.5103 -0.0406  0.7066
  545TMC3     C 8089   4.512   2.227  17.173 -1.1828  0.2234  0.5641
  545TMC3     O 8090   4.592   2.298  17.124 -0.2055  0.1232 -0.2741
  545TMC3     H 8091   0.036   2.144  17.171  2.7429 -1.8249  0.1244
  545TMC3    H1 8092   4.360   2.006  17.158 -0.3098 -1.0035 -1.6851
  545TMC3    H2 8093   4.690   1.751  17.040 -0.5731  0.2645 -0.2869
  545TMC3    C7 8094   4.434   1.748  17.136 -0.1872  0.3628 -0.6845
  545TMC3    C8 8095   0.134   1.924  17.046  1.1410  0.2687  0.3558
  545TMC3    O1 8096   4.312   1.768  17.133 -0.0055 -0.1977  0.3324
  545TMC3    O2 8097   0.160   1.826  16.976  0.0009  0.3124 -0.2272
  546MPD2     C 8098   1.650   2.203  17.482 -0.9479 -0.0626  0.0704
  546MPD2    C1 8099   1.648   2.228  17.348  0.2377  0.1807 -0.2862
  546MPD2    C2 8100   1.727   2.331  17.303  0.3372 -0.2808 -0.2126
  546MPD2    C3 8101   1.799   2.413  17.390 -0.3703 -0.4754 -0.4778
  546MPD2    C4 8102   1.795   2.386  17.525 -0.7110  0.2301 -0.4966
  546MPD2    C5 8103   1.720   2.281  17.565 -0.0674 -0.7765 -0.4375
  546MPD2     H 8104   1.736   2.347  17.196 -0.3809  1.1400 -0.0667
  546MPD2    H1 8105   1.832   2.461  17.594 -2.7183  0.3426  0.4699
  546MPD2    H2 8106   1.565   2.145  17.517 -0.5331 -1.3238 -0.9971
  546MPD2    H3 8107   1.708   2.268  17.672  1.9918  2.0503  0.0985
  546MPD2     N 8108   1.862   2.536  17.343 -0.7687  0.2018  0.4137
  546MPD2    H5 8109   1.877   2.608  17.413  0.5994 -1.9147  2.3466
  546MPD2    N1 8110   1.570   2.144  17.268  0.4068 -0.5124  0.0057
  546MPD2    H7 8111   1.523   2.066  17.312  0.7929 -0.5205  0.4080
  547TMC3    C1 8112   1.422   2.099  17.089  0.5182  0.3050  0.6149
  547TMC3    C2 8113   1.319   2.179  17.046  1.1463 -0.8620 -0.0781
  547TMC3    C3 8114   1.194   2.146  17.088 -0.4581 -0.1141 -0.1419
  547TMC3    C4 8115   1.406   1.988  17.166  0.1685  0.2238  0.2655
  547TMC3    C5 8116   1.275   1.961  17.204  0.6447  0.1599 -0.8136
  547TMC3    C6 8117   1.171   2.041  17.165  0.3682  0.0945  0.4409
  547TMC3     C 8118   1.539   2.179  17.138 -0.1526  0.5979 -0.3433
  547TMC3     O 8119   1.552   2.282  17.074  0.3679 -0.2708 -0.1863
  547TMC3     H 8120   1.323   2.259  16.973  1.0232  0.4562  1.3650
  547TMC3    H1 8121   1.486   1.923  17.197 -0.1892 -0.6239 -0.5650
  547TMC3    H2 8122   1.071   2.003  17.185  0.2807  0.4852  0.7491
  547TMC3    C7 8123   1.263   1.864  17.314 -0.4513  0.4833  0.1252
  547TMC3    C8 8124   1.094   2.245  17.051  0.1676  0.2089 -0.9839
  547TMC3    O1 8125   1.360   1.806  17.361  0.0630 -0.2512  0.3461
  547TMC3    O2 8126   1.126   2.337  16.974  0.7228 -0.4274  0.0711
  548MPD2     C 8127   1.067   3.485  11.995 -0.4306  0.4004  0.1676
  548MPD2    C1 8128   1.114   3.450  12.111  0.4379  0.5116 -0.4255
  548MPD2    C2 8129   1.225   3.374  12.119 -0.1570  0.0413  0.4380
  548MPD2    C3 8130   1.313   3.337  12.017  0.9134 -0.2895 -0.1336
  548MPD2    C4 8131   1.256   3.372  11.893  0.6443  0.4947  0.7557
  548MPD2    C5 8132   1.137   3.448  11.884 -0.1442  0.5849 -0.6267
  548MPD2     H 8133   1.255   3.341  12.218 -1.2243 -0.3458  0.6262
  548MPD2    H1 8134   1.304   3.370  11.796  3.2244  0.3682  2.0472
  548MPD2    H2 8135   0.981   3.550  11.983 -1.8032 -1.8714 -2.3880
  548MPD2    H3 8136   1.096   3.489  11.793  0.7567  1.2994 -0.7107
  548MPD2     N 8137   1.439   3.276  12.032 -0.5817 -1.0180 -0.3709
  548MPD2    H5 8138   1.458   3.225  12.118 -0.2138  1.2658  0.9019
  548MPD2    N1 8139   1.033   3.498  12.224  0.2131  0.5090  0.5132
  548MPD2    H7 8140   0.948   3.551  12.206 -0.2584 -0.2384  0.4962
  549TMC3    C1 8141   0.956   3.539  12.443  0.1999  0.1185  0.1012
  549TMC3    C2 8142   0.876   3.641  12.397  0.0531 -0.1815 -0.2561
  549TMC3    C3 8143   0.759   3.665  12.460  0.2152  0.2629 -0.2079
  549TMC3    C4 8144   0.920   3.467  12.553 -0.2811 -0.2834  0.4169
  549TMC3    C5 8145   0.797   3.493  12.600 -0.1107 -0.3592  0.7627
  549TMC3    C6 8146   0.715   3.595  12.564  0.3085 -1.1223  0.2829
  549TMC3     C 8147   1.058   3.474  12.357  0.0224  0.4926 -0.3811
  549TMC3     O 8148   1.127   3.383  12.405 -0.3245 -0.0762  0.3911
  549TMC3     H 8149   0.908   3.701  12.313 -0.9094  2.9209  1.6125
  549TMC3    H1 8150   0.987   3.406  12.613  3.1698  1.4214 -1.7494
  549TMC3    H2 8151   0.614   3.610  12.603  0.7371  0.0474  0.9397
  549TMC3    C7 8152   0.753   3.423  12.714  0.4101 -0.9280 -0.1799
  549TMC3    C8 8153   0.659   3.725  12.377 -0.0459  0.1618  0.4477
  549TMC3    O1 8154   0.690   3.482  12.800  0.2755  0.0404  0.3825
  549TMC3    O2 8155   0.559   3.650  12.369  0.1260  0.1891 -0.3397
  550TMC3    C1 8156   4.721   0.450  12.639 -0.8860 -0.3240 -0.3237
  550TMC3    C2 8157   0.068   0.510  12.737 -0.4471 -0.1526 -0.0810
  550TMC3    C3 8158   0.192   0.544  12.702  0.1369 -0.0780 -0.2116
  550TMC3    C4 8159   0.055   0.412  12.522  0.1595 -0.5872  0.0792
  550TMC3    C5 8160   0.186   0.446  12.496 -0.4815  0.3036  0.2318
  550TMC3    C6 8161   0.263   0.506  12.591 -0.8175  0.6033  0.0809
  550TMC3     C 8162   4.603   0.540  12.627 -0.4550  0.2762 -0.3084
  550TMC3     O 8163   4.547   0.566  12.731 -0.3610  0.1097 -0.0729
  550TMC3     H 8164   0.022   0.535  12.832 -0.4385 -1.3521  0.2357
  550TMC3    H1 8165   0.003   0.359  12.443 -2.6141 -0.5389  1.8298
  550TMC3    H2 8166   0.363   0.545  12.578 -0.3771 -0.3861  0.4693
  550TMC3    C7 8167   0.202   0.504  12.368  0.1032  0.8484  0.1996
  550TMC3    C8 8168   0.223   0.685  12.737 -0.0420  0.0858 -0.2058
  550TMC3    O1 8169   0.170   0.448  12.265  0.1192 -0.0101 -0.0914
  550TMC3    O2 8170   0.251   0.746  12.637  0.4104 -0.1085  0.2593
  551TMC3    C1 8171   2.529   3.744  13.442 -0.3383  0.2549 -0.6954
  551TMC3    C2 8172   2.612   3.835  13.376  0.1967 -0.1075 -0.2482
  551TMC3    C3 8173   2.732   3.866  13.426 -0.0799 -0.2001  0.2940
  551TMC3    C4 8174   2.566   3.691  13.565 -0.4368 -1.2116  0.7078
  551TMC3    C5 8175   2.689   3.732  13.617 -0.6763  0.8857  0.9944
  551TMC3    C6 8176   2.775   3.805  13.539 -0.5819 -0.3703 -0.2923
  551TMC3     C 8177   2.409   3.699  13.372 -0.8086 -0.0889 -0.1598
  551TMC3     O 8178   2.375   3.760  13.270  0.2480  0.4090 -0.4035
  551TMC3     H 8179   2.574   3.881  13.286  0.0065 -1.8345 -1.0468
  551TMC3    H1 8180   2.488   3.664  13.635 -0.9230 -1.0918  0.2080
  551TMC3    H2 8181   2.873   3.833  13.574 -0.1005 -1.6145 -0.6648
  551TMC3    C7 8182   2.723   3.688  13.757 -0.4645  0.5140  0.3526
  551TMC3    C8 8183   2.821   3.937  13.340  0.0891 -0.1884 -0.0389
  551TMC3    O1 8184   2.820   3.736  13.810  0.0226 -0.2364 -0.0910
  551TMC3    O2 8185   2.942   3.909  13.346  0.6749 -0.3662  0.3881
  552MPD2     C 8186   4.411   1.355  14.172  0.3568 -0.0531 -0.7535
  552MPD2    C1 8187   4.435   1.223  14.202 -0.2073  0.4405 -0.1032
  552MPD2    C2 8188   4.534   1.199  14.295  0.0626  0.5317 -0.1665
  552MPD2    C3 8189   4.602   1.300  14.359 -0.0166 -0.3671 -0.5966
  552MPD2    C4 8190   4.588   1.432  14.322 -0.1710  0.7299 -0.2841
  552MPD2    C5 8191   4.498   1.459  14.219 -1.1806  0.7886 -0.7536
  552MPD2     H 8192   4.554   1.097  14.324  3.1891  0.8731 -1.0611
  552MPD2    H1 8193   4.643   1.512  14.370  1.3555 -1.2802  1.3712
  552MPD2    H2 8194   4.342   1.380  14.092  0.6216  0.5588 -0.7870
  552MPD2    H3 8195   4.470   1.560  14.191 -1.0993  1.1514  0.4941
  552MPD2     N 8196   4.708   1.268  14.452  0.1956 -0.2451 -0.3236
  552MPD2    H5 8197   0.047   1.342  14.467 -1.1554  1.5439 -2.9468
  552MPD2    N1 8198   4.387   1.114  14.133  0.1627  0.0090 -0.1525
  552MPD2    H7 8199   4.431   1.026  14.158  1.2631 -0.2445 -3.0435
  553TMC3    C1 8200   4.255   0.992  13.983 -0.1037  0.3413 -0.8097
  553TMC3    C2 8201   4.283   0.981  13.853  0.2066 -0.4636 -0.0365
  553TMC3    C3 8202   4.283   0.854  13.791  0.2967  0.2212 -0.2367
  553TMC3    C4 8203   4.258   0.885  14.067 -0.5149 -0.1795  0.5866
  553TMC3    C5 8204   4.242   0.765  13.999 -0.4197 -0.0522  0.7498
  553TMC3    C6 8205   4.238   0.749  13.864 -0.0547 -0.0638  0.9395
  553TMC3     C 8206   4.283   1.118  14.042 -1.2173  0.4411 -0.1006
  553TMC3     O 8207   4.227   1.205  13.978  0.0757  0.8251 -0.0139
  553TMC3     H 8208   4.284   1.070  13.791  1.6100 -0.7108 -0.3827
  553TMC3    H1 8209   4.245   0.896  14.174 -2.2715 -0.2161  0.3767
  553TMC3    H2 8210   4.234   0.646  13.830  1.7712 -0.1315  0.9176
  553TMC3    C7 8211   4.301   0.651  14.060  0.1951 -0.0697  0.3383
  553TMC3    C8 8212   4.364   0.826  13.677  0.1231 -0.1352  0.7627
  553TMC3    O1 8213   4.212   0.581  14.100  0.0892 -0.5431  0.2608
  553TMC3    O2 8214   4.438   0.913  13.635  0.4797  0.3456  0.1432
  554TMC3    C1 8215   1.206   0.236  11.756 -0.4824  0.2814  0.2184
  554TMC3    C2 8216   1.152   0.205  11.630 -0.3872 -0.0281  0.4176
  554TMC3    C3 8217   1.157   0.296  11.528  1.1082  0.8939  0.0865
  554TMC3    C4 8218   1.267   0.355  11.778 -0.5654 -0.2870 -0.0516
  554TMC3    C5 8219   1.267   0.443  11.676 -0.3658 -0.1078 -0.0306
  554TMC3    C6 8220   1.217   0.425  11.551  0.7337  0.4835 -0.0145
  554TMC3     C 8221   1.235   0.127  11.839 -0.4453 -0.2343  0.6726
  554TMC3     O 8222   1.236   0.017  11.787 -0.0455 -0.2492 -0.1255
  554TMC3     H 8223   1.122   0.104  11.607  0.9369 -0.1547 -0.7373
  554TMC3    H1 8224   1.323   0.385  11.866  1.2961 -2.6560 -0.4478
  554TMC3    H2 8225   1.213   0.494  11.467 -0.1350 -0.2468 -0.5756
  554TMC3    C7 8226   1.355   0.555  11.687  0.7501 -0.3322  0.3608
  554TMC3    C8 8227   1.108   0.258  11.395 -0.0033  0.2867 -0.3232
  554TMC3    O1 8228   1.397   0.592  11.796 -0.1544 -0.5324  0.0525
  554TMC3    O2 8229   1.135   0.338  11.305  0.2035 -0.7956  0.4521
  555TMC3    C1 8230   0.738   4.328  15.354  0.6013 -0.0173  0.0375
  555TMC3    C2 8231   0.676   4.424  15.422  0.2529  0.2090 -0.3857
  555TMC3    C3 8232   0.710   4.438  15.555 -0.0166  0.7424 -0.4575
  555TMC3    C4 8233   0.813   4.234  15.413  0.1756 -0.1589  0.0811
  555TMC3    C5 8234   0.842   4.243  15.548  0.2309 -0.8893 -0.9040
  555TMC3    C6 8235   0.786   4.345  15.620 -0.6798 -0.4188 -0.1219
  555TMC3     C 8236   0.692   4.301  15.216 -0.2620  0.5224 -0.6525
  555TMC3     O 8237   0.779   4.254  15.146 -0.0405 -0.3599  0.0903
  555TMC3     H 8238   0.631   4.506  15.366 -2.0861 -0.8543 -0.0375
  555TMC3    H1 8239   0.859   4.150  15.361 -0.3862 -0.6780  0.4336
  555TMC3    H2 8240   0.804   4.351  15.727  1.3900 -0.4312 -0.4673
  555TMC3    C7 8241   0.927   4.142  15.620 -0.1702  0.0785  0.0265
  555TMC3    C8 8242   0.672   4.561  15.620  0.0635  0.4998 -0.0347
  555TMC3    O1 8243   0.908   4.134  15.740  0.6526  0.3250 -0.5145
  555TMC3    O2 8244   0.615   4.651  15.560  0.5455 -0.3455  0.3267
  556MPD2     C 8245   3.759   1.611  10.615  0.0366 -0.1006 -0.2939
  556MPD2    C1 8246   3.661   1.525  10.657 -0.3330 -0.3703 -0.4845
  556MPD2    C2 8247   3.597   1.442  10.569 -0.1604 -0.3521 -1.0012
  556MPD2    C3 8248   3.641   1.444  10.437  1.0084 -0.7656  0.3701
  556MPD2    C4 8249   3.741   1.522  10.397  0.1079 -0.4149  0.4485
  556MPD2    C5 8250   3.797   1.615  10.478 -0.1815 -0.3712 -0.2239
  556MPD2     H 8251   3.509   1.389  10.603 -0.8096  2.1975  1.2809
  556MPD2    H1 8252   3.777   1.531  10.296  0.2878  0.6709  0.6146
  556MPD2    H2 8253   3.808   1.677  10.685  0.6426  2.2788 -2.9350
  556MPD2    H3 8254   3.875   1.676  10.436 -1.0424 -0.6246 -2.1896
  556MPD2     N 8255   3.582   1.344  10.356  0.0414  0.3457 -0.4035
  556MPD2    H5 8256   3.509   1.288  10.400  1.9483  0.3179  2.7663
  556MPD2    N1 8257   3.616   1.516  10.796  0.2867 -0.2583  0.3752
  556MPD2    H7 8258   3.566   1.432  10.823 -0.2859  0.0433  0.2285
  557TMC3    C1 8259   3.523   1.207  10.169 -0.1839 -0.5169  0.6308
  557TMC3    C2 8260   3.583   1.128  10.076 -0.4049  0.4212 -0.2886
  557TMC3    C3 8261   3.512   1.013  10.041 -0.4396 -0.8887  0.7601
  557TMC3    C4 8262   3.402   1.176  10.225 -0.6771  0.0997  0.8723
  557TMC3    C5 8263   3.337   1.067  10.185  0.6573  0.5895  0.5464
  557TMC3    C6 8264   3.394   0.981  10.098 -0.2086 -0.2450 -0.0531
  557TMC3     C 8265   3.600   1.322  10.216 -1.2575  0.5671 -0.6513
  557TMC3     O 8266   3.668   1.387  10.136  0.6276  0.1889 -0.0158
  557TMC3     H 8267   3.677   1.154  10.027  1.4722  0.6712  3.4701
  557TMC3    H1 8268   3.362   1.239  10.303 -1.0493  0.7799  0.1386
  557TMC3    H2 8269   3.352   0.882  10.088 -1.4978  0.3297 -0.2847
  557TMC3    C7 8270   3.252   1.017  10.281 -0.2656 -0.1351  0.0495
  557TMC3    C8 8271   3.601   0.903  10.003 -0.2320 -0.8592  0.4474
  557TMC3    O1 8272   3.135   1.053  10.292  0.0696  0.5881  0.4388
  557TMC3    O2 8273   3.724   0.931   9.996  0.3728  0.0798  0.4296
  558TMC3    C1 8274   1.383   4.179  10.344 -0.0143 -0.5083 -0.6216
  558TMC3    C2 8275   1.293   4.142  10.438 -0.4416  0.3672  0.4135
  558TMC3    C3 8276   1.170   4.107  10.387 -0.4969  0.3704  0.6162
  558TMC3    C4 8277   1.366   4.168  10.205  0.1105 -0.4900 -0.2881
  558TMC3    C5 8278   1.242   4.142  10.164  0.6760  0.7010  0.0541
  558TMC3    C6 8279   1.141   4.117  10.254 -0.8261  0.5186 -0.0986
  558TMC3     C 8280   1.514   4.149  10.392  0.3054 -0.2282 -0.4348
  558TMC3     O 8281   1.538   4.160  10.511 -0.6429  0.2472  0.1041
  558TMC3     H 8282   1.318   4.137  10.544  0.0710 -1.1291  0.2195
  558TMC3    H1 8283   1.448   4.186  10.137 -1.0666  0.2503 -1.5154
  558TMC3    H2 8284   1.040   4.095  10.221 -1.4994  0.6904  1.8084
  558TMC3    C7 8285   1.210   4.125  10.019 -0.1981 -0.4079 -0.3669
  558TMC3    C8 8286   1.091   4.005  10.456  0.5496  0.7058  0.0402
  558TMC3    O1 8287   1.299   4.153   9.942  0.3844  0.1913  0.1026
  558TMC3    O2 8288   0.973   4.011  10.423  0.1248  0.0764  0.2353
  559MPD2     C 8289   1.064   4.560  10.634  0.0752  0.3093 -0.7165
  559MPD2    C1 8290   1.075   4.435  10.686  0.0223  0.3045 -0.2559
  559MPD2    C2 8291   1.190   4.391  10.750 -0.2232 -0.5829  0.4143
  559MPD2    C3 8292   1.302   4.477  10.754  0.0966 -0.7009  0.5093
  559MPD2    C4 8293   1.288   4.604  10.705  0.2688  0.0774  0.2109
  559MPD2    C5 8294   1.170   4.642  10.636 -0.9607  0.2829 -0.2346
  559MPD2     H 8295   1.199   4.295  10.799  2.7247 -0.3528  0.3191
  559MPD2    H1 8296   1.374   4.668  10.696 -1.5369  2.5598  0.7487
  559MPD2    H2 8297   0.974   4.587  10.580 -0.8177 -0.8291  0.2047
  559MPD2    H3 8298   1.179   0.007  10.582  1.8508 -0.6752 -1.4306
  559MPD2     N 8299   1.426   4.427  10.803 -0.1147 -0.6957 -0.1019
  559MPD2    H5 8300   1.438   4.328  10.823  3.0417 -0.3816 -0.4253
  559MPD2    N1 8301   0.955   4.360  10.683  0.2293 -0.0246 -0.1650
  559MPD2    H7 8302   0.867   4.403  10.658  0.3451  1.9356  2.8932
  560TMC3    C1 8303   1.652   4.423  10.879  0.0551  0.4258  0.1204
  560TMC3    C2 8304   1.656   4.295  10.826 -0.2398 -0.5841 -0.0341
  560TMC3    C3 8305   1.774   4.229  10.853 -0.5268  0.4420  0.0261
  560TMC3    C4 8306   1.738   4.474  10.970  0.3281 -0.5183  0.3818
  560TMC3    C5 8307   1.841   4.395  11.009  0.0814  0.0078 -0.5655
  560TMC3    C6 8308   1.867   4.275  10.947  0.4871  0.2400 -0.7859
  560TMC3     C 8309   1.541   4.505  10.834 -0.0054  0.1538  1.1718
  560TMC3     O 8310   1.567   4.623  10.833 -0.7518  0.2173 -0.0587
  560TMC3     H 8311   1.597   4.270  10.738 -0.2467  1.7577 -0.6785
  560TMC3    H1 8312   1.708   4.566  11.020 -0.0497 -1.5128  1.9921
  560TMC3    H2 8313   1.959   4.229  10.981  1.4329  1.2536 -1.9131
  560TMC3    C7 8314   1.914   4.425  11.127  0.3189  0.2984  1.1332
  560TMC3    C8 8315   1.787   4.092  10.807 -0.7352 -0.1259  0.1421
  560TMC3    O1 8316   1.958   4.330  11.184  0.7825  0.2633 -0.1042
  560TMC3    O2 8317   1.695   4.048  10.741  0.0493 -0.1881  0.2230
  561TMC3    C1 8318   3.877   3.247  11.247 -0.3035 -0.4611  0.0061
  561TMC3    C2 8319   3.832   3.207  11.370  0.2824 -0.0529 -0.0170
  561TMC3    C3 8320   3.846   3.302  11.468  0.0879  0.3866 -0.4657
  561TMC3    C4 8321   3.922   3.378  11.211  0.2057 -0.1563  0.2451
  561TMC3    C5 8322   3.954   3.448  11.325 -0.3237  0.4972  0.0630
  561TMC3    C6 8323   3.905   3.422  11.449 -0.5934 -0.5925  0.7124
  561TMC3     C 8324   3.892   3.136  11.156  0.1095 -0.0569  0.2904
  561TMC3     O 8325   3.860   3.023  11.194 -0.7450 -0.4139 -0.3456
  561TMC3     H 8326   3.789   3.109  11.388  1.3071 -0.6683 -0.8754
  561TMC3    H1 8327   3.961   3.410  11.115  0.4778 -1.8360 -0.1998
  561TMC3    H2 8328   3.924   3.499  11.523  1.5613  0.9974 -1.5103
  561TMC3    C7 8329   4.079   3.528  11.323  0.3088 -0.6619 -0.3309
  561TMC3    C8 8330   3.804   3.259  11.599 -0.7419  0.3432  0.7306
  561TMC3    O1 8331   4.090   3.606  11.415 -0.3033 -0.1463 -0.1950
  561TMC3    O2 8332   3.783   3.142  11.616  0.0509 -0.4813  0.6283
  562TMC3    C1 8333   0.521   0.011  16.386  0.6671 -0.3154 -0.1843
  562TMC3    C2 8334   0.470   0.126  16.333  0.3159  0.5273 -0.0202
  562TMC3    C3 8335   0.423   0.123  16.200  0.4484 -0.0666  0.1412
  562TMC3    C4 8336   0.531   4.618  16.318 -0.5633 -0.1415  0.0764
  562TMC3    C5 8337   0.494   4.632  16.188  0.6685  0.3481 -0.3204
  562TMC3    C6 8338   0.438   0.016  16.129 -0.3353  0.4747 -0.5842
  562TMC3     C 8339   0.549   0.015  16.530  0.6528  0.1744  0.6843
  562TMC3     O 8340   0.541   0.126  16.583 -0.5933  0.0323  0.2078
  562TMC3     H 8341   0.468   0.215  16.396 -1.9866 -0.5466  1.4105
  562TMC3    H1 8342   0.564   4.527  16.368  2.4765  1.7712  1.5675
  562TMC3    H2 8343   0.411   0.019  16.024  0.6871 -0.5835 -0.8724
  562TMC3    C7 8344   0.514   4.515  16.098 -0.1646  0.0081  0.4963
  562TMC3    C8 8345   0.339   0.235  16.156  0.1507 -0.0068  0.2282
  562TMC3    O1 8346   0.452   4.509  15.992 -0.6502  0.0893  0.1335
  562TMC3    O2 8347   0.316   0.313  16.245 -0.4988 -0.2683 -0.1555
  563MPD2     C 8348   2.307   1.061  15.834  0.3655 -0.4817 -0.1595
  563MPD2    C1 8349   2.382   0.971  15.909 -0.1347 -0.2572  0.0562
  563MPD2    C2 8350   2.507   0.940  15.856  0.4726 -0.2316  0.6853
  563MPD2    C3 8351   2.553   0.993  15.743 -0.7896 -0.0327 -0.9195
  563MPD2    C4 8352   2.484   1.084  15.669  0.7052  0.4897 -0.4136
  563MPD2    C5 8353   2.360   1.110  15.713  0.2232 -0.1409  0.2009
  563MPD2     H 8354   2.571   0.876  15.914  0.1939  0.0063  1.2525
  563MPD2    H1 8355   2.518   1.123  15.574  0.5635 -1.5601 -1.2975
  563MPD2    H2 8356   2.205   1.092  15.856  1.4267  1.3491  2.2388
  563MPD2    H3 8357   2.294   1.173  15.654  1.8187  0.6844 -0.7134
  563MPD2     N 8358   2.673   0.935  15.699  0.3150 -0.5093 -1.1616
  563MPD2    H5 8359   2.704   0.856  15.754 -2.9028 -1.9683 -1.4555
  563MPD2    N1 8360   2.329   0.893  16.028 -0.2483  0.3471  0.2950
  563MPD2    H7 8361   2.396   0.830  16.071 -0.1776 -0.0124 -0.3515
  564TMC3    C1 8362   2.193   0.803  16.193  0.7369  0.7164  0.3092
  564TMC3    C2 8363   2.078   0.726  16.197 -0.0612 -0.4190 -0.5285
  564TMC3    C3 8364   2.079   0.609  16.267  0.0541  0.7667  0.9284
  564TMC3    C4 8365   2.311   0.763  16.252 -0.0114  0.0854 -0.2379
  564TMC3    C5 8366   2.308   0.637  16.310  0.2479  0.0592  0.0572
  564TMC3    C6 8367   2.192   0.561  16.320 -0.4272  0.0417 -0.2329
  564TMC3     C 8368   2.202   0.894  16.081 -0.2381 -0.2193 -1.0284
  564TMC3     O 8369   2.103   0.949  16.040  0.2815  0.0497 -0.2531
  564TMC3     H 8370   1.984   0.766  16.160  1.1152  1.1658 -1.8111
  564TMC3    H1 8371   2.405   0.815  16.237  0.4790 -1.0308 -1.0672
  564TMC3    H2 8372   2.196   0.470  16.378  1.7636  1.3853  1.7241
  564TMC3    C7 8373   2.436   0.589  16.368 -0.1775 -0.5570 -0.2233
  564TMC3    C8 8374   1.964   0.521  16.252  0.2376 -0.2987 -0.0835
  564TMC3    O1 8375   2.521   0.671  16.387 -0.3024  0.2358 -0.1788
  564TMC3    O2 8376   1.951   0.441  16.343 -0.2652 -0.3955 -0.0973
  565TMC3    C1 8377   3.580   2.439  10.262 -0.0682 -0.3280  0.2285
  565TMC3    C2 8378   3.504   2.341  10.314  0.4493  0.1811  0.0537
  565TMC3    C3 8379   3.486   2.220  10.252 -0.0954  0.3101 -0.3537
  565TMC3    C4 8380   3.631   2.418  10.135  0.4853 -0.5209  0.0107
  565TMC3    C5 8381   3.615   2.293  10.070  0.1113  0.0228  0.4551
  565TMC3    C6 8382   3.534   2.195  10.123  0.8077  0.3818  0.8262
  565TMC3     C 8383   3.591   2.573  10.319 -0.2148  0.4014  0.0243
  565TMC3     O 8384   3.648   2.653  10.247 -0.3301 -0.3735 -0.1045
  565TMC3     H 8385   3.467   2.350  10.416  0.5288  0.2912  0.0729
  565TMC3    H1 8386   3.694   2.496  10.093  0.9855  0.2054  2.0886
  565TMC3    H2 8387   3.545   2.091  10.093 -2.6835  0.0743  0.5400
  565TMC3    C7 8388   3.683   2.280   9.943  0.1126  0.2293  0.0900
  565TMC3    C8 8389   3.411   2.116  10.321 -0.0383 -0.1657  0.5955
  565TMC3    O1 8390   3.765   2.370   9.925  0.6038  0.2345  0.1631
  565TMC3    O2 8391   3.414   2.126  10.441  0.1070 -0.0447 -0.3183
  566MPD2     C 8392   4.541   4.023  14.500 -0.0325 -0.1822 -0.5076
  566MPD2    C1 8393   4.592   3.910  14.437  0.0958  0.4154 -0.8134
  566MPD2    C2 8394   4.511   3.828  14.355 -0.0600  0.0042 -0.8581
  566MPD2    C3 8395   4.388   3.861  14.324  0.9442  0.6904 -0.4198
  566MPD2    C4 8396   4.332   3.976  14.380 -0.1423 -0.9836  0.8838
  566MPD2    C5 8397   4.402   4.048  14.477  0.0306  0.0156  0.9689
  566MPD2     H 8398   4.557   3.751  14.293  0.3377 -1.2437  0.9753
  566MPD2    H1 8399   4.225   3.991  14.372  0.1260  1.2390  1.5353
  566MPD2    H2 8400   4.597   4.088  14.566  1.3745  0.1122 -2.0071
  566MPD2    H3 8401   4.349   4.131  14.523 -1.9246 -0.4766 -0.4313
  566MPD2     N 8402   4.296   3.789  14.239  0.0817  0.9943  0.7847
  566MPD2    H5 8403   4.203   3.825  14.221  0.1945  1.5779  1.3524
  566MPD2    N1 8404   0.005   3.902  14.438  0.1282  0.5481  0.2271
  566MPD2    H7 8405   0.057   3.968  14.494  0.8115  0.9297 -0.8652
  567TMC3    C1 8406   0.224   3.852  14.369  0.4144 -0.5401 -0.6868
  567TMC3    C2 8407   0.285   3.880  14.253 -0.4581 -0.4791  0.3595
  567TMC3    C3 8408   0.416   3.935  14.264 -0.9126 -0.1504  0.0111
  567TMC3    C4 8409   0.278   3.876  14.489  0.1907  0.1544  0.3368
  567TMC3    C5 8410   0.405   3.931  14.498  0.6939 -0.2728 -0.5708
  567TMC3    C6 8411   0.484   3.954  14.382 -0.2131 -0.7619 -0.0525
  567TMC3     C 8412   0.085   3.827  14.358  0.5697  0.2201 -0.0450
  567TMC3     O 8413   0.047   3.764  14.261 -0.7535 -0.0123  0.2180
  567TMC3     H 8414   0.239   3.835  14.165 -0.1478 -0.7232  0.3243
  567TMC3    H1 8415   0.232   3.839  14.580 -0.6786  1.4259  0.4008
  567TMC3    H2 8416   0.587   3.988  14.378 -0.5235  0.2700  0.7501
  567TMC3    C7 8417   0.475   3.944  14.617  0.1222 -0.4042 -0.4182
  567TMC3    C8 8418   0.482   3.950  14.140  0.3224  0.1653  0.5273
  567TMC3    O1 8419   0.597   3.948  14.605  0.0910  0.2839 -0.0590
  567TMC3    O2 8420   0.603   3.942  14.125  0.8151 -0.3907  0.6660
  568MPD2     C 8421   2.077   3.931  16.437 -0.4979  0.1412 -0.6744
  568MPD2    C1 8422   2.059   4.029  16.526  0.0762 -0.3177 -0.1807
  568MPD2    C2 8423   1.978   4.133  16.492  0.7118 -0.3478 -0.4669
  568MPD2    C3 8424   1.896   4.119  16.379  0.6063 -0.2181  0.5032
  568MPD2    C4 8425   1.916   4.018  16.294 -0.4332 -0.2754  0.2783
  568MPD2    C5 8426   2.006   3.922  16.316  0.0429 -0.7740  0.0988
  568MPD2     H 8427   1.956   4.216  16.558  0.0569 -0.2588 -0.7979
  568MPD2    H1 8428   1.860   4.007  16.202 -1.9040  2.5254  0.8551
  568MPD2    H2 8429   2.154   3.856  16.451 -1.9632 -1.0484  1.0376
  568MPD2    H3 8430   2.014   3.835  16.251 -0.6826 -0.0417 -0.9628
  568MPD2     N 8431   1.794   4.215  16.362  0.2316  0.1364  0.3051
  568MPD2    H5 8432   1.789   4.275  16.443 -1.0828 -1.1489  1.1822
  568MPD2    N1 8433   2.127   4.026  16.645 -1.0204  0.5539 -0.2760
  568MPD2    H7 8434   2.189   3.946  16.657 -1.6453  0.0884 -0.1488
  569TMC3    C1 8435   1.634   4.352  16.281 -0.5690 -0.3122 -0.1563
  569TMC3    C2 8436   1.651   4.390  16.412  1.1169 -0.6182  0.0195
  569TMC3    C3 8437   1.683   4.523  16.442 -0.1594 -0.4050  0.7266
  569TMC3    C4 8438   1.663   4.445  16.179  0.6623  0.6037 -0.4296
  569TMC3    C5 8439   1.685   4.578  16.209 -0.0705 -0.1444 -0.0721
  569TMC3    C6 8440   1.689   4.618  16.341 -0.2436  0.1761  0.2351
  569TMC3     C 8441   1.700   4.225  16.260 -0.4871  0.1588 -0.6261
  569TMC3     O 8442   1.699   4.161  16.156  0.1340  0.6759 -0.8694
  569TMC3     H 8443   1.619   4.323  16.491  2.2956 -1.4580 -0.2260
  569TMC3    H1 8444   1.679   4.411  16.078  2.2962  1.8378 -0.5761
  569TMC3    H2 8445   1.714   4.720  16.368 -0.5208  0.4617 -0.5788
  569TMC3    C7 8446   1.696   4.676  16.097 -0.3530  0.0937 -0.4189
  569TMC3    C8 8447   1.743   4.536  16.576 -0.2425  0.8453 -0.5088
  569TMC3    O1 8448   1.662   4.640  15.988 -0.0007  0.2098 -0.6133
  569TMC3    O2 8449   1.734   4.436  16.648 -0.7675 -0.2192  0.1748
  570TMC3    C1 8450   1.992   3.230  16.529 -0.2631  0.7421  0.1511
  570TMC3    C2 8451   2.071   3.274  16.426  0.2266 -0.4418 -0.1412
  570TMC3    C3 8452   2.071   3.409  16.397 -0.1509 -0.1189  0.1678
  570TMC3    C4 8453   1.920   3.312  16.608 -0.2673 -0.6133  1.0781
  570TMC3    C5 8454   1.917   3.446  16.570 -0.3024  0.2208  0.0621
  570TMC3    C6 8455   1.999   3.495  16.472 -0.4827  0.1382  0.1949
  570TMC3     C 8456   2.000   3.087  16.563  0.0136 -0.2603 -0.3739
  570TMC3     O 8457   2.041   3.012  16.477  0.6201  0.5066  0.0889
  570TMC3     H 8458   2.103   3.202  16.351  2.4839 -1.0034  1.3414
  570TMC3    H1 8459   1.843   3.285  16.680 -0.3866  3.2895  2.4233
  570TMC3    H2 8460   1.995   3.598  16.441  0.8873  0.7643  2.1205
  570TMC3    C7 8461   1.805   3.521  16.621 -0.0822  0.1796  0.9781
  570TMC3    C8 8462   2.149   3.457  16.286  0.3680  0.2089  0.5493
  570TMC3    O1 8463   1.766   3.497  16.732 -0.0955  0.7453  0.3418
  570TMC3    O2 8464   2.127   3.570  16.243  0.3465  0.5649 -0.3358
  571MPD2     C 8465   4.038   4.685   0.158  0.3920 -0.3240  0.3942
  571MPD2    C1 8466   4.108   4.708   0.272 -0.0507  0.4165  0.0324
  571MPD2    C2 8467   4.159   0.104   0.295 -0.8939 -0.1696  0.2149
  571MPD2    C3 8468   4.142   0.207   0.197  0.1855 -0.0690  0.1470
  571MPD2    C4 8469   4.075   0.182   0.077 -0.1462 -0.3906 -0.4453
  571MPD2    C5 8470   4.016   0.053   0.061  0.4591  0.0971  0.4552
  571MPD2     H 8471   4.211   0.131   0.386  1.5473 -0.7092 -1.0264
  571MPD2    H1 8472   4.057   0.264   0.008 -1.7861  0.5931  1.1574
  571MPD2    H2 8473   3.997   4.585   0.152 -2.4270  1.0174 -2.5142
  571MPD2    H3 8474   3.966   0.031  17.683 -0.6024 -0.6562  1.1979
  571MPD2     N 8475   4.198   0.341   0.204 -0.4007 -0.5461  0.2125
  571MPD2    H5 8476   4.197   0.393   0.117  3.3451 -1.2704 -0.2619
  571MPD2    N1 8477   4.106   4.610   0.367 -0.6554  0.2933 -0.5805
  571MPD2    H7 8478   4.036   4.538   0.350 -0.3034 -0.6215  1.7817
  572TMC3    C1 8479   4.274   0.545   0.296  0.6662 -0.0972 -0.5384
  572TMC3    C2 8480   4.357   0.603   0.383  0.8943  0.3291  0.5789
  572TMC3    C3 8481   4.390   0.728   0.349  1.0434  0.2360 -0.0302
  572TMC3    C4 8482   4.216   0.606   0.188 -0.2937 -0.6645  0.2066
  572TMC3    C5 8483   4.259   0.729   0.153 -0.5564 -0.3037  0.5924
  572TMC3    C6 8484   4.351   0.793   0.230 -0.9527  0.3938  0.5073
  572TMC3     C 8485   4.234   0.411   0.315 -0.0955  0.8046  0.0404
  572TMC3     O 8486   4.245   0.366   0.428  0.0983 -0.1902  0.0066
  572TMC3     H 8487   4.420   0.533   0.437  0.5362  0.7650  1.5542
  572TMC3    H1 8488   4.122   0.566   0.152  1.5894 -3.6711 -1.4154
  572TMC3    H2 8489   4.362   0.901   0.227 -1.6216  0.3935 -2.1433
  572TMC3    C7 8490   4.169   0.823   0.082  0.3982  0.6566 -0.1939
  572TMC3    C8 8491   4.449   0.799   0.461  0.1647 -0.3912 -0.0658
  572TMC3    O1 8492   4.057   0.785   0.061  0.0197 -0.1919 -0.9120
  572TMC3    O2 8493   4.546   0.864   0.436 -0.7599  0.1316 -0.2733
  573MPD2     C 8494   4.595   0.452   0.209  0.8236  0.3690 -0.7317
  573MPD2    C1 8495   4.700   0.538   0.226  0.1213 -0.3309  0.0585
  573MPD2    C2 8496   0.030   0.605   0.121 -0.5337  0.2652 -0.3824
  573MPD2    C3 8497   4.707   0.591  17.709 -0.7028  0.3139  0.0762
  573MPD2    C4 8498   4.616   0.487  17.684  0.1829  0.3560  0.6901
  573MPD2    C5 8499   4.559   0.421   0.078 -0.3634  0.3215  0.2778
  573MPD2     H 8500   0.117   0.667   0.141 -0.4683 -0.5620  1.8748
  573MPD2    H1 8501   4.584   0.477  17.581 -2.8177  0.5819  1.5808
  573MPD2    H2 8502   4.552   0.396   0.291 -1.3693  0.3732 -1.8959
  573MPD2    H3 8503   4.481   0.352   0.047 -0.4582  0.1654  0.8666
  573MPD2     N 8504   0.021   0.666  17.596 -0.2360  0.3075 -0.1564
  573MPD2    H5 8505   4.701   0.647  17.509  0.4813  0.0283 -0.4947
  573MPD2    N1 8506   0.015   0.552   0.353  0.5988 -0.2424 -0.0070
  573MPD2    H7 8507   4.696   0.489   0.417  0.6744  0.0928  0.3754
  574TMC3    C1 8508   0.142   0.809  17.460  0.5920 -0.1107 -0.1196
  574TMC3    C2 8509   0.026   0.870  17.418  0.1797 -0.3239 -0.3662
  574TMC3    C3 8510   0.030   0.996  17.376 -0.3127  0.2379  0.7462
  574TMC3    C4 8511   0.260   0.871  17.435 -0.1311  0.0246  0.0483
  574TMC3    C5 8512   0.259   0.992  17.374  0.1918 -0.0245  0.0095
  574TMC3    C6 8513   0.148   1.062  17.348  0.2292  0.4167  0.3220
  574TMC3     C 8514   0.125   0.749  17.593 -0.0240 -0.5082  0.5489
  574TMC3     O 8515   0.200   0.782  17.684  0.4328  0.2091 -0.0296
  574TMC3     H 8516   4.656   0.839  17.452  0.0296 -1.3789 -1.7696
  574TMC3    H1 8517   0.349   0.848  17.494  0.1010 -0.5502 -0.5291
  574TMC3    H2 8518   0.168   1.151  17.290 -0.1675 -0.5560 -1.3080
  574TMC3    C7 8519   0.379   1.068  17.360  0.7667  0.4703 -0.2133
  574TMC3    C8 8520   4.627   1.074  17.367  0.2505  0.3671 -0.1130
  574TMC3    O1 8521   0.371   1.180  17.400 -0.0217  0.5829  0.2609
  574TMC3    O2 8522   4.529   1.006  17.389  0.4904  0.2860 -0.2044
  575TMC3    C1 8523   2.974   1.898  11.010  0.0314 -0.5376  0.4186
  575TMC3    C2 8524   2.915   1.779  11.034  0.4533  0.1321 -1.0017
  575TMC3    C3 8525   2.887   1.705  10.921 -0.4190 -0.2077 -0.4204
  575TMC3    C4 8526   3.026   1.939  10.887  0.4841 -0.3339  0.3490
  575TMC3    C5 8527   2.996   1.859  10.781  0.0248  0.8301 -0.2719
  575TMC3    C6 8528   2.927   1.737  10.793  0.4402 -0.2106  0.5230
  575TMC3     C 8529   3.011   1.962  11.135  0.0994 -0.1267 -0.8694
  575TMC3     O 8530   2.944   1.938  11.232  0.4625 -0.1383  0.1892
  575TMC3     H 8531   2.881   1.751  11.133 -0.4789  1.4531 -0.9457
  575TMC3    H1 8532   3.064   2.038  10.865 -2.1030  0.7485  0.7811
  575TMC3    H2 8533   2.914   1.667  10.711  1.3729  0.1910  0.0305
  575TMC3    C7 8534   3.036   1.907  10.651  0.0350 -0.9242  0.3772
  575TMC3    C8 8535   2.811   1.585  10.937 -0.2012  0.0530 -0.1173
  575TMC3    O1 8536   3.106   2.007  10.657  0.0390  0.0331  0.1992
  575TMC3    O2 8537   2.775   1.530  10.834  0.1728  0.8585  0.8559
  576MPD2     C 8538   2.879   3.619  12.683 -0.2154 -0.2188  0.0830
  576MPD2    C1 8539   2.924   3.738  12.651 -0.3493  1.2957  0.1151
  576MPD2    C2 8540   2.860   3.852  12.707  0.6299  0.1477  0.4528
  576MPD2    C3 8541   2.762   3.840  12.807 -0.6092  0.1316 -0.0633
  576MPD2    C4 8542   2.727   3.709  12.849 -0.2400 -0.5882  0.0670
  576MPD2    C5 8543   2.785   3.604  12.786 -0.3019  1.7626  0.0533
  576MPD2     H 8544   2.887   3.952  12.676  1.2519 -0.1765 -0.0625
  576MPD2    H1 8545   2.654   3.680  12.923  1.6792  0.1411  2.2166
  576MPD2    H2 8546   2.911   3.532  12.627  0.3029 -0.3289  0.5493
  576MPD2    H3 8547   2.749   3.506  12.815  2.5874  0.4683 -0.7244
  576MPD2     N 8548   2.697   3.956  12.842  0.3471  0.1499 -0.3241
  576MPD2    H5 8549   2.713   4.040  12.786  0.3689  0.6286  0.4069
  576MPD2    N1 8550   3.002   3.761  12.538  0.2599 -0.2424  0.0003
  576MPD2    H7 8551   3.017   3.855  12.503 -3.2430  0.3811  0.1721
  577TMC3    C1 8552   3.161   3.711  12.360  0.4860  0.5431  0.4087
  577TMC3    C2 8553   3.255   3.625  12.327  0.6944 -0.0843 -0.0236
  577TMC3    C3 8554   3.310   3.632  12.203 -0.2611 -0.1512  0.4057
  577TMC3    C4 8555   3.127   3.820  12.285 -0.7510 -0.4842  0.9771
  577TMC3    C5 8556   3.185   3.827  12.155  1.0092 -0.8083  0.0202
  577TMC3    C6 8557   3.279   3.731  12.114  0.3270 -0.1268  0.1140
  577TMC3     C 8558   3.080   3.666  12.466  0.7149  0.2692  0.5978
  577TMC3     O 8559   3.084   3.545  12.493 -0.1529  0.1060 -0.0676
  577TMC3     H 8560   3.273   3.535  12.384  1.7523  0.6177  0.7575
  577TMC3    H1 8561   3.046   3.887  12.312  0.7542  0.3880  3.3716
  577TMC3    H2 8562   3.303   3.724  12.008 -2.9385 -2.9720 -0.4243
  577TMC3    C7 8563   3.167   3.950  12.085  0.1593 -0.2653  0.6751
  577TMC3    C8 8564   3.404   3.530  12.151  0.4974  0.7479  0.7026
  577TMC3    O1 8565   3.085   4.035  12.127  0.2349  0.2954  0.0785
  577TMC3    O2 8566   3.395   3.434  12.224 -0.2221  0.2461  0.1126
  578MPD2     C 8567   0.434   3.504   0.311 -0.6347 -0.2713  0.3198
  578MPD2    C1 8568   0.434   3.372   0.355  0.4384  0.2323  0.9661
  578MPD2    C2 8569   0.514   3.343   0.466  0.2877 -0.1596 -0.0281
  578MPD2    C3 8570   0.591   3.447   0.525 -0.1473  0.7583 -0.4489
  578MPD2    C4 8571   0.578   3.583   0.485  0.0242 -0.7455 -0.5267
  578MPD2    C5 8572   0.498   3.603   0.375 -0.0572 -0.0659 -0.6259
  578MPD2     H 8573   0.541   3.243   0.499 -2.3835 -0.6062  0.7601
  578MPD2    H1 8574   0.637   3.664   0.526 -0.5935  0.1115 -1.3523
  578MPD2    H2 8575   0.377   3.525   0.221 -1.4025  1.4095  1.1977
  578MPD2    H3 8576   0.486   3.703   0.336  1.2472  0.4494  0.2887
  578MPD2     N 8577   0.678   3.403   0.625  0.6585 -0.4890  0.1698
  578MPD2    H5 8578   0.675   3.305   0.654  1.5724 -0.0745  1.6274
  578MPD2    N1 8579   0.370   3.274   0.271  0.0783  0.3247 -0.4613
  578MPD2    H7 8580   0.299   3.302   0.204 -0.6868  0.0637  0.2449
  579TMC3    C1 8581   0.853   3.404   0.789 -0.0364 -0.1996 -0.7604
  579TMC3    C2 8582   0.919   3.481   0.875 -0.4592  1.0604  0.0745
  579TMC3    C3 8583   1.012   3.417   0.953  0.0973 -0.2363 -0.0202
  579TMC3    C4 8584   0.894   3.280   0.756 -0.1761 -0.3210  0.8638
  579TMC3    C5 8585   0.978   3.214   0.842 -0.0873 -0.5419  0.6006
  579TMC3    C6 8586   1.039   3.283   0.949 -0.3146 -0.3294  0.2118
  579TMC3     C 8587   0.767   3.478   0.695  0.2789 -0.1365 -0.2836
  579TMC3     O 8588   0.787   3.597   0.697 -0.1292  0.0558  0.5233
  579TMC3     H 8589   0.905   3.586   0.897 -0.0832  1.0376  0.4339
  579TMC3    H1 8590   0.848   3.228   0.673  0.5362 -0.8069  0.7708
  579TMC3    H2 8591   1.081   3.229   1.033 -0.6793  1.4773  1.5711
  579TMC3    C7 8592   1.009   3.077   0.819 -0.1475 -0.2165 -0.5666
  579TMC3    C8 8593   1.040   3.482   1.077  0.1303 -0.0057  0.5631
  579TMC3    O1 8594   1.130   3.045   0.810 -0.1423  0.3174 -0.5395
  579TMC3    O2 8595   0.968   3.577   1.110 -0.0796 -0.0064  0.1916
  580TMC3    C1 8596   0.868   2.808  11.594 -1.3524  0.6475  0.0947
  580TMC3    C2 8597   0.968   2.836  11.505 -0.6674  0.0411  0.0217
  580TMC3    C3 8598   1.097   2.859  11.555 -0.7195  0.3439 -0.4307
  580TMC3    C4 8599   0.891   2.777  11.719  0.4528  0.2041  1.3810
  580TMC3    C5 8600   1.022   2.787  11.762 -0.2085 -0.1794  0.2790
  580TMC3    C6 8601   1.125   2.823  11.688 -0.1318  0.8719 -0.0789
  580TMC3     C 8602   0.750   2.874  11.541  0.5768 -0.8505 -0.5114
  580TMC3     O 8603   0.642   2.814  11.534  0.0707  0.1019  0.4620
  580TMC3     H 8604   0.937   2.854  11.402  0.2211 -1.7946 -0.5628
  580TMC3    H1 8605   0.823   2.746  11.797 -0.7606  0.4134  0.3974
  580TMC3    H2 8606   1.204   2.857  11.754  0.0324 -1.3147  0.8458
  580TMC3    C7 8607   1.043   2.725  11.898 -0.6299  0.3967  0.5026
  580TMC3    C8 8608   1.127   3.000  11.525 -0.8336 -0.2640 -0.3171
  580TMC3    O1 8609   0.954   2.734  11.976  0.0225 -0.1703  0.7579
  580TMC3    O2 8610   1.039   3.068  11.473 -0.4621 -0.2720  0.6368
  581MPD2     C 8611   3.211   2.190  14.967  0.0011  0.4291 -0.4424
  581MPD2    C1 8612   3.079   2.153  14.961 -0.0460 -0.6940  0.1220
  581MPD2    C2 8613   3.011   2.201  14.844  0.1818  0.4811 -0.4542
  581MPD2    C3 8614   3.060   2.279  14.742  0.2967  0.2595  0.8491
  581MPD2    C4 8615   3.196   2.306  14.751 -0.6185 -0.5682 -0.0211
  581MPD2    C5 8616   3.269   2.255  14.860 -0.3075  1.1715 -0.1099
  581MPD2     H 8617   2.905   2.187  14.830  0.5312 -1.6403 -0.9734
  581MPD2    H1 8618   3.245   2.370  14.679  3.0986 -1.5647  1.5818
  581MPD2    H2 8619   3.279   2.153  15.042 -1.4714 -3.3672 -0.9743
  581MPD2    H3 8620   3.377   2.262  14.857 -0.2500  0.0766 -0.5722
  581MPD2     N 8621   2.971   2.322  14.636  0.1407 -0.2293  0.0812
  581MPD2    H5 8622   2.879   2.280  14.632 -0.0679  0.0250  2.7230
  581MPD2    N1 8623   3.031   2.073  15.067 -0.2319 -1.2018  0.9550
  581MPD2    H7 8624   3.104   2.045  15.132  1.1514 -0.0077 -0.0887
  582TMC3    C1 8625   2.872   1.994  15.218  0.2794 -0.0018 -1.1500
  582TMC3    C2 8626   2.966   1.912  15.282 -0.0599  0.6205  0.2277
  582TMC3    C3 8627   2.984   1.930  15.416 -0.8640 -0.2796 -0.3179
  582TMC3    C4 8628   2.780   2.070  15.289 -0.5333 -0.4843 -0.6411
  582TMC3    C5 8629   2.807   2.089  15.422  0.0415 -0.5915  0.9911
  582TMC3    C6 8630   2.901   2.012  15.487 -0.3465 -0.6175  0.3901
  582TMC3     C 8631   2.900   2.041  15.086  0.3293  0.5198  0.0720
  582TMC3     O 8632   2.809   2.093  15.022  0.3447  0.2781  0.2864
  582TMC3     H 8633   3.045   1.861  15.229 -0.9131  0.7425 -1.1855
  582TMC3    H1 8634   2.716   2.143  15.242 -0.5751  0.9417  1.6752
  582TMC3    H2 8635   2.911   2.018  15.595  0.2706 -2.9608  0.4625
  582TMC3    C7 8636   2.748   2.192  15.493  0.1199  0.7022 -0.0473
  582TMC3    C8 8637   3.089   1.864  15.485  0.7426 -0.4551 -0.2521
  582TMC3    O1 8638   2.631   2.224  15.476  0.4542  0.1759  0.2053
  582TMC3    O2 8639   3.120   1.749  15.456 -0.2342  0.0031 -0.2506
  583MPD2     C 8640   3.585   3.927  16.741  0.4255  0.4459  0.4267
  583MPD2    C1 8641   3.579   4.069  16.745 -0.0856 -0.6124 -0.2291
  583MPD2    C2 8642   3.518   4.131  16.855  1.0062 -0.4380  0.4689
  583MPD2    C3 8643   3.468   4.060  16.958 -0.1900 -0.0062 -0.2682
  583MPD2    C4 8644   3.504   3.925  16.959  0.5117  0.4372  1.2685
  583MPD2    C5 8645   3.553   3.857  16.852 -0.1197  0.5694 -0.2678
  583MPD2     H 8646   3.509   4.239  16.852 -0.5697 -0.5677  0.4509
  583MPD2    H1 8647   3.472   3.862  17.041 -1.3125 -1.7083 -1.1264
  583MPD2    H2 8648   3.618   3.877  16.651 -1.9073  0.8712 -0.6496
  583MPD2    H3 8649   3.549   3.749  16.841 -0.9268  0.7232 -1.4165
  583MPD2     N 8650   3.403   4.122  17.068  0.0478 -0.4918 -0.3035
  583MPD2    H5 8651   3.374   4.216  17.043  1.3482 -0.0972 -0.3431
  583MPD2    N1 8652   3.636   4.151  16.645  0.2369 -0.6216  0.1743
  583MPD2    H7 8653   3.640   4.252  16.660 -0.9706 -0.6097  0.3827
  584TMC3    C1 8654   3.323   4.180  17.279 -0.3109 -0.2052 -0.0279
  584TMC3    C2 8655   3.379   4.301  17.257 -0.0886  0.0465 -0.2499
  584TMC3    C3 8656   3.376   4.397  17.353 -0.4157  0.0976 -0.2604
  584TMC3    C4 8657   3.277   4.153  17.402  0.1522 -0.0115 -0.6151
  584TMC3    C5 8658   3.273   4.253  17.495 -0.8227 -0.3019  0.1277
  584TMC3    C6 8659   3.323   4.377  17.474  1.1226  0.1251  0.4476
  584TMC3     C 8660   3.374   4.072  17.191 -0.3475  0.3441  0.5262
  584TMC3     O 8661   3.373   3.958  17.229  0.3851 -0.0513 -0.0395
  584TMC3     H 8662   3.428   4.329  17.164  2.8148 -3.7274  0.1701
  584TMC3    H1 8663   3.260   4.049  17.428 -0.0556  0.8054  2.5205
  584TMC3    H2 8664   3.316   4.454  17.550  4.0068  0.6853  0.1387
  584TMC3    C7 8665   3.215   4.236  17.627 -0.4186 -0.6067  0.4841
  584TMC3    C8 8666   3.384   4.535  17.292 -0.1813 -0.0744  0.1418
  584TMC3    O1 8667   3.234   4.327  17.707  0.0441  0.7600 -0.5557
  584TMC3    O2 8668   3.389   4.554  17.173  0.7976  0.3337 -0.6255
  585MPD2     C 8669   2.258   3.398   0.416 -0.5581  0.0112 -0.0857
  585MPD2    C1 8670   2.376   3.337   0.391 -0.6995 -0.4725  0.5005
  585MPD2    C2 8671   2.386   3.223   0.299 -0.3104  0.2821  0.0069
  585MPD2    C3 8672   2.269   3.191   0.235 -0.1429  0.3154 -0.5055
  585MPD2    C4 8673   2.149   3.260   0.268  0.3062 -0.3568  0.0085
  585MPD2    C5 8674   2.142   3.358   0.367  0.2281 -0.1578  0.0495
  585MPD2     H 8675   2.476   3.168   0.277  1.5391  3.3016 -0.0794
  585MPD2    H1 8676   2.053   3.229   0.229 -0.3507  0.1764  1.2256
  585MPD2    H2 8677   2.253   3.482   0.484  1.3080 -1.0187  1.3213
  585MPD2    H3 8678   2.053   3.416   0.386  1.3415  1.0063  1.7187
  585MPD2     N 8679   2.257   3.086   0.142  0.2058 -0.1088 -0.2982
  585MPD2    H5 8680   2.165   3.050   0.118  1.1285 -1.8850 -1.1311
  585MPD2    N1 8681   2.486   3.393   0.453 -0.0579 -0.0739 -0.0121
  585MPD2    H7 8682   2.478   3.466   0.522 -1.1112 -0.0030 -0.2203
  586TMC3    C1 8683   2.322   2.915  17.713  0.5487  0.0311 -0.0810
  586TMC3    C2 8684   2.372   2.894  17.583  0.0625 -0.7128 -0.0310
  586TMC3    C3 8685   2.310   2.808  17.502 -0.2773  0.0079  0.6609
  586TMC3    C4 8686   2.216   2.845   0.046 -0.1694 -0.0392 -0.0715
  586TMC3    C5 8687   2.150   2.766  17.675 -0.3621  1.0141 -0.3062
  586TMC3    C6 8688   2.193   2.749  17.542  0.3781 -0.4004 -0.7436
  586TMC3     C 8689   2.360   3.029   0.071 -0.4531 -0.3447  0.2527
  586TMC3     O 8690   2.476   3.064   0.054 -0.5403 -0.0904 -0.0654
  586TMC3     H 8691   2.461   2.946  17.549 -1.1650  0.9756 -0.6569
  586TMC3    H1 8692   2.193   2.858   0.151  1.0726 -0.7872  0.2887
  586TMC3    H2 8693   2.153   2.668  17.482  0.1580 -0.5227 -0.4343
  586TMC3    C7 8694   2.072   2.654   0.012 -0.1535  0.4978  0.3787
  586TMC3    C8 8695   2.403   2.709  17.434 -0.5905 -0.3056 -0.4840
  586TMC3    O1 8696   2.076   2.564  17.647  0.5820 -0.4526  0.1290
  586TMC3    O2 8697   2.351   2.596  17.413 -0.7581  0.3340  0.0459
  587TMC3    C1 8698   0.662   1.518  16.814  0.4308  0.2151  0.5039
  587TMC3    C2 8699   0.661   1.651  16.772  0.0872 -0.3631  0.4405
  587TMC3    C3 8700   0.783   1.701  16.729  0.4934 -0.5032  0.2852
  587TMC3    C4 8701   0.779   1.455  16.837  0.4811  0.4095  0.2106
  587TMC3    C5 8702   0.898   1.509  16.790 -0.3751  0.5387 -0.5709
  587TMC3    C6 8703   0.901   1.634  16.733  0.0742  0.0282  0.2872
  587TMC3     C 8704   0.536   1.451  16.864 -0.7275 -0.0993  0.6004
  587TMC3     O 8705   0.558   1.335  16.891  0.0817 -0.4139 -0.0479
  587TMC3     H 8706   0.574   1.714  16.760 -0.7833 -1.8086 -0.8690
  587TMC3    H1 8707   0.777   1.354  16.876 -1.0496 -0.0004 -0.9371
  587TMC3    H2 8708   0.995   1.684  16.712  0.1258 -1.3407 -2.8250
  587TMC3    C7 8709   1.010   1.409  16.787  0.1029  0.4528  0.9392
  587TMC3    C8 8710   0.782   1.832  16.671 -0.6588  0.2343 -0.2349
  587TMC3    O1 8711   0.994   1.298  16.835  0.4222 -0.0462  0.2202
  587TMC3    O2 8712   0.878   1.856  16.602 -0.3354  0.0026 -0.1489
  588TMC3    C1 8713   3.036   4.399  10.001  0.2643  0.6483 -0.4027
  588TMC3    C2 8714   2.919   4.331  10.018 -0.5526  0.7775  0.4036
  588TMC3    C3 8715   2.906   4.257  10.135 -0.7528 -0.7648 -1.2213
  588TMC3    C4 8716   3.137   4.396  10.095 -0.7000  0.1716  0.2011
  588TMC3    C5 8717   3.123   4.329  10.207 -0.9553 -0.4368  0.2014
  588TMC3    C6 8718   3.006   4.261  10.232  0.1268 -0.0720 -0.4991
  588TMC3     C 8719   3.027   4.508   9.905 -0.3655 -0.1944 -0.1921
  588TMC3     O 8720   2.948   4.503   9.809  0.0928 -0.3318 -0.4921
  588TMC3     H 8721   2.838   4.354   9.950 -0.3865  2.5613  0.8105
  588TMC3    H1 8722   3.232   4.442  10.069 -0.2513 -1.5769 -1.2719
  588TMC3    H2 8723   2.994   4.207  10.325  1.6197 -0.1179 -0.3327
  588TMC3    C7 8724   3.194   4.373  10.330 -0.6896 -0.1240  0.0079
  588TMC3    C8 8725   2.852   4.126  10.106 -0.2171  0.1396 -0.1991
  588TMC3    O1 8726   3.183   4.310  10.430 -0.0455  0.2155  0.2775
  588TMC3    O2 8727   2.760   4.118  10.027 -0.1217  0.6707  0.3144
  589TMC3    C1 8728   0.793   1.283   1.172 -0.1417 -0.1638  0.1530
  589TMC3    C2 8729   0.872   1.313   1.280 -0.0452  0.1208 -0.3014
  589TMC3    C3 8730   0.986   1.230   1.292 -0.1982 -0.4732 -0.2810
  589TMC3    C4 8731   0.828   1.189   1.081  0.1118  1.0536  0.4212
  589TMC3    C5 8732   0.940   1.112   1.101  0.0552 -0.6010  0.8476
  589TMC3    C6 8733   1.022   1.131   1.205 -1.1141 -0.0767 -0.0656
  589TMC3     C 8734   0.711   1.388   1.110 -0.6037  1.5296 -0.6384
  589TMC3     O 8735   0.650   1.360   1.007 -0.3990  0.1790  0.2327
  589TMC3     H 8736   0.857   1.395   1.350 -1.6385  0.8092 -1.4323
  589TMC3    H1 8737   0.768   1.165   0.995  1.4294 -1.1952  0.1421
  589TMC3    H2 8738   1.110   1.070   1.225 -1.4125 -0.9297 -1.3773
  589TMC3    C7 8739   0.958   0.996   1.016 -0.0405 -0.4807 -0.0844
  589TMC3    C8 8740   1.085   1.293   1.381  0.3682 -0.2931 -0.6633
  589TMC3    O1 8741   0.867   0.959   0.941  0.3776 -1.0513 -0.2952
  589TMC3    O2 8742   1.044   1.345   1.484 -0.2420 -0.2131 -0.1662
  590MPD2     C 8743   1.081   0.172  16.944 -0.0529  0.1013  0.1060
  590MPD2    C1 8744   1.026   0.264  16.851  0.1534 -0.5418 -0.1669
  590MPD2    C2 8745   1.099   0.320  16.750 -0.5337 -0.1791  0.0019
  590MPD2    C3 8746   1.231   0.281  16.729  0.3354  0.0538  0.1127
  590MPD2    C4 8747   1.287   0.200  16.824 -0.2980  0.0073  0.0480
  590MPD2    C5 8748   1.212   0.156  16.931 -0.5310 -0.0502  0.3061
  590MPD2     H 8749   1.051   0.379  16.673 -0.9271  0.8669  1.0652
  590MPD2    H1 8750   1.393   0.178  16.834 -0.3673  0.5416  2.1322
  590MPD2    H2 8751   1.027   0.130  17.028  1.2455 -2.9381 -0.5772
  590MPD2    H3 8752   1.263   0.087  16.998 -3.5411 -0.9650  1.6887
  590MPD2     N 8753   1.293   0.328  16.612 -0.1707  0.4904  0.2560
  590MPD2    H5 8754   1.239   0.399  16.563  1.8145  1.7879 -0.0338
  590MPD2    N1 8755   0.888   0.299  16.854 -0.1292  1.1883  0.1660
  590MPD2    H7 8756   0.862   0.363  16.780 -1.3302 -1.1253 -1.4284
  591TMC3    C1 8757   1.422   0.356  16.432 -0.2497 -0.0454 -0.1348
  591TMC3    C2 8758   1.450   0.261  16.326  0.5140  0.0296  0.0469
  591TMC3    C3 8759   1.421   0.301  16.203 -0.2679  0.0089 -0.3353
  591TMC3    C4 8760   1.380   0.487  16.411 -0.0681  0.1488  0.5444
  591TMC3    C5 8761   1.372   0.519  16.277  0.3657  0.2251  0.0425
  591TMC3    C6 8762   1.377   0.428  16.175 -0.1171  0.3366 -0.2021
  591TMC3     C 8763   1.414   0.302  16.563  0.6177 -0.1942  0.2810
  591TMC3     O 8764   1.484   0.207  16.592  0.3297  0.4092 -0.3909
  591TMC3     H 8765   1.494   0.162  16.338 -1.9474 -0.9335  1.2589
  591TMC3    H1 8766   1.401   0.563  16.486 -1.4546  0.4977  0.5686
  591TMC3    H2 8767   1.364   0.464  16.073  3.1156  1.6022 -0.1776
  591TMC3    C7 8768   1.310   0.648  16.258 -0.3113 -0.6367 -0.1412
  591TMC3    C8 8769   1.377   0.190  16.116 -0.4459  0.5773  0.2821
  591TMC3    O1 8770   1.245   0.697  16.348  0.1876  0.5839  0.5543
  591TMC3    O2 8771   1.416   0.074  16.131 -0.7220 -0.4650  0.0483
  592MPD2     C 8772   2.079   2.351  11.597 -0.3389  0.3031 -0.7414
  592MPD2    C1 8773   2.097   2.408  11.718 -0.0036  0.0903 -0.3463
  592MPD2    C2 8774   2.057   2.334  11.827  0.1163 -0.2997 -0.6962
  592MPD2    C3 8775   2.010   2.210  11.819 -0.0499 -0.0120 -0.2097
  592MPD2    C4 8776   1.991   2.155  11.694 -0.6369 -0.6752  0.4629
  592MPD2    C5 8777   2.008   2.238  11.579 -0.8529  1.1236 -0.1045
  592MPD2     H 8778   2.068   2.383  11.923 -0.9892  2.2174 -1.8491
  592MPD2    H1 8779   1.961   2.052  11.679 -1.7503 -0.6000  2.1199
  592MPD2    H2 8780   2.122   2.401  11.512  1.5486 -0.7982 -0.4290
  592MPD2    H3 8781   1.994   2.199  11.479  2.3929 -0.0692 -0.0760
  592MPD2     N 8782   1.977   2.151  11.942 -0.0386 -0.4129 -0.3644
  592MPD2    H5 8783   2.003   2.194  12.031  0.5720 -0.1201 -0.6833
  592MPD2    N1 8784   2.148   2.540  11.722 -0.0971  0.0523 -0.3320
  592MPD2    H7 8785   2.175   2.575  11.631 -1.3246  2.0516  0.0671
  593TMC3    C1 8786   2.218   2.752  11.806 -0.1826 -0.2350 -0.4849
  593TMC3    C2 8787   2.190   2.844  11.904  0.4018 -0.1602  0.0039
  593TMC3    C3 8788   2.252   2.963  11.891  0.4397 -0.1202 -0.4942
  593TMC3    C4 8789   2.279   2.786  11.689  0.2088  0.8252 -0.1772
  593TMC3    C5 8790   2.326   2.914  11.674 -0.6589 -0.5880  0.3902
  593TMC3    C6 8791   2.319   3.008  11.780 -0.4420  0.6209  0.3183
  593TMC3     C 8792   2.161   2.626  11.833  0.0479 -0.4270  0.2593
  593TMC3     O 8793   2.106   2.608  11.941  0.2325 -0.7901 -0.1857
  593TMC3     H 8794   2.167   2.821  12.007 -2.1225 -0.6100 -0.6588
  593TMC3    H1 8795   2.297   2.711  11.613 -0.2048 -0.0065  0.5564
  593TMC3    H2 8796   2.331   3.110  11.746 -0.8024  1.0837  1.5841
  593TMC3    C7 8797   2.399   2.951  11.550 -0.6343 -0.2245  0.4816
  593TMC3    C8 8798   2.259   3.050  12.011  0.7658  0.4393 -0.0219
  593TMC3    O1 8799   2.486   3.039  11.560 -0.0413  0.2776 -0.3283
  593TMC3    O2 8800   2.197   3.019  12.107  0.1488  0.0504  0.4469
  594MPD2     C 8801   0.522   1.404  14.156 -0.2519 -0.2130 -0.3167
  594MPD2    C1 8802   0.549   1.385  14.288 -0.2275 -0.1221  0.3220
  594MPD2    C2 8803   0.668   1.431  14.337  0.5174  0.0139 -0.1688
  594MPD2    C3 8804   0.767   1.482  14.264  0.1763 -0.2980  1.0950
  594MPD2    C4 8805   0.742   1.489  14.127  0.1346  0.2059 -0.0904
  594MPD2    C5 8806   0.620   1.450  14.077  0.3933 -0.0647  0.1363
  594MPD2     H 8807   0.690   1.424  14.443 -0.3008 -0.0917 -0.0028
  594MPD2    H1 8808   0.817   1.526  14.057 -0.8242  0.2750 -1.0664
  594MPD2    H2 8809   0.431   1.363  14.113  0.3027 -0.5248 -1.1965
  594MPD2    H3 8810   0.607   1.447  13.970  1.8436 -2.0527  0.0230
  594MPD2     N 8811   0.882   1.547  14.327  0.3454 -0.3114 -0.2112
  594MPD2    H5 8812   0.893   1.535  14.427 -0.0976  0.5806 -0.0536
  594MPD2    N1 8813   0.458   1.326  14.379  0.2456 -0.1342  0.5362
  594MPD2    H7 8814   0.361   1.328  14.349 -0.1879 -0.9322  1.8429
  595TMC3    C1 8815   1.269   1.792  14.387 -0.6902 -0.2888  0.3237
  595TMC3    C2 8816   1.191   1.723  14.298  0.1865 -0.0351  0.7312
  595TMC3    C3 8817   1.061   1.691  14.341  0.5537 -0.3298  0.3706
  595TMC3    C4 8818   1.230   1.833  14.509 -0.1704  0.4757 -0.4169
  595TMC3    C5 8819   1.105   1.805  14.542  0.6266 -0.1783 -0.2870
  595TMC3    C6 8820   1.017   1.732  14.460 -0.5116 -0.2873 -0.1951
  595TMC3     C 8821   1.412   1.768  14.378 -0.3945 -0.5715 -0.4546
  595TMC3     O 8822   1.489   1.828  14.457  0.0679  0.3689 -0.3415
  595TMC3     H 8823   1.221   1.708  14.195 -1.6799  2.3225 -0.1458
  595TMC3    H1 8824   1.302   1.875  14.578  0.5723 -1.7664  0.1534
  595TMC3    H2 8825   0.915   1.720  14.495 -0.3938  0.2843  0.3460
  595TMC3    C7 8826   1.038   1.892  14.636 -0.0376  0.4092  0.1647
  595TMC3    C8 8827   0.977   1.616  14.256 -0.5974 -0.2397  0.2628
  595TMC3    O1 8828   0.933   1.939  14.602 -0.6693 -0.7505 -0.5436
  595TMC3    O2 8829   0.998   1.608  14.133 -0.2621  0.0353 -0.3220
  596MPD2     C 8830   4.369   3.862  16.724  0.5755 -0.6631 -0.3640
  596MPD2    C1 8831   4.394   3.997  16.715  0.7988  0.4979 -0.0070
  596MPD2    C2 8832   4.448   4.053  16.599 -0.9238 -0.0661  0.0493
  596MPD2    C3 8833   4.482   3.969  16.496  0.0440  0.3114  0.4688
  596MPD2    C4 8834   4.462   3.833  16.505 -0.1040 -0.1700  0.2374
  596MPD2    C5 8835   4.406   3.783  16.620  0.2460 -0.0684  0.3306
  596MPD2     H 8836   4.470   4.159  16.595  0.4765 -0.3294  0.7395
  596MPD2    H1 8837   4.488   3.765  16.424 -2.9876 -0.3258 -0.5987
  596MPD2    H2 8838   4.325   3.815  16.812  1.0782 -2.0264 -0.8549
  596MPD2    H3 8839   4.394   3.675  16.624 -0.3016 -0.0488 -0.8106
  596MPD2     N 8840   4.527   4.021  16.367 -0.1907 -0.3585  0.2883
  596MPD2    H5 8841   4.540   3.962  16.286  0.4034  1.8911 -1.2527
  596MPD2    N1 8842   4.369   4.087  16.823  0.0495 -0.3276  0.1546
  596MPD2    H7 8843   4.371   4.186  16.799 -0.4208 -0.5887 -0.9726
  597TMC3    C1 8844   4.322   4.180  17.028 -0.7154  0.1631  0.2557
  597TMC3    C2 8845   4.431   4.255  17.017 -0.1598 -0.2547  0.1683
  597TMC3    C3 8846   4.466   4.345  17.114  0.5383  0.0527  0.6320
  597TMC3    C4 8847   4.247   4.193  17.135 -0.1143 -0.4597  0.4084
  597TMC3    C5 8848   4.280   4.290  17.228  0.5718  0.0909  0.6111
  597TMC3    C6 8849   4.390   4.367  17.222  0.3831 -0.0926 -0.6908
  597TMC3     C 8850   4.316   4.060  16.949  0.0559  0.3463  0.6944
  597TMC3     O 8851   4.300   3.953  17.008 -0.2681 -0.2875  0.4051
  597TMC3     H 8852   4.509   4.230  16.947  1.2008 -1.5969  2.1598
  597TMC3    H1 8853   4.159   4.131  17.149  1.1606 -2.0446  1.4084
  597TMC3    H2 8854   4.415   4.448  17.290  1.6473  1.3659 -2.8660
  597TMC3    C7 8855   4.207   4.292  17.353 -0.0228  0.0755  0.8197
  597TMC3    C8 8856   4.578   4.430  17.084  0.2753 -0.2337  1.0754
  597TMC3    O1 8857   4.087   4.263  17.348  0.2535 -0.3926 -0.5683
  597TMC3    O2 8858   4.589   4.457  16.967 -0.2787  0.1817 -0.1244
  598TMC3    C1 8859   2.424   0.393  15.460 -0.0132  0.8935 -0.6542
  598TMC3    C2 8860   2.381   0.275  15.411 -0.5119  0.1517  0.4390
  598TMC3    C3 8861   2.320   0.272  15.286  0.5575  0.5731  0.5408
  598TMC3    C4 8862   2.429   0.507  15.382  0.4188 -0.5052 -0.1164
  598TMC3    C5 8863   2.375   0.499  15.252  0.4011  0.2219  0.0062
  598TMC3    C6 8864   2.316   0.383  15.204 -0.0448 -1.0689  0.1763
  598TMC3     C 8865   2.488   0.409  15.590  0.3556 -0.1824 -1.2629
  598TMC3     O 8866   2.481   0.522  15.637  0.3601  0.3921 -0.1654
  598TMC3     H 8867   2.389   0.179  15.460  1.9978  0.6833  1.0615
  598TMC3    H1 8868   2.477   0.596  15.423  1.6119 -0.5623 -1.3622
  598TMC3    H2 8869   2.279   0.382  15.102  2.0583  1.1238 -0.6183
  598TMC3    C7 8870   2.386   0.621  15.167 -0.0114  0.2335  0.0341
  598TMC3    C8 8871   2.326   0.146  15.211  0.7770  0.3151 -0.1601
  598TMC3    O1 8872   2.331   0.620  15.056 -0.1877  0.4153 -0.0848
  598TMC3    O2 8873   2.377   0.151  15.098  0.2888  0.3957 -0.5208
  599MPD2     C 8874   2.896   2.886  15.981 -0.0553  0.6854 -0.6258
  599MPD2    C1 8875   2.830   2.770  16.013 -0.1472 -0.4030 -0.2805
  599MPD2    C2 8876   2.728   2.775  16.098  0.0397 -0.1115 -0.5911
  599MPD2    C3 8877   2.681   2.888  16.158 -0.2460  0.0125  0.1586
  599MPD2    C4 8878   2.752   3.002  16.123 -0.3453 -0.5353  0.3074
  599MPD2    C5 8879   2.859   3.005  16.037 -0.4718 -0.0090  0.1085
  599MPD2     H 8880   2.671   2.688  16.128  0.0436  0.0708 -0.0623
  599MPD2    H1 8881   2.730   3.098  16.168  0.8102 -0.4522  0.6977
  599MPD2    H2 8882   2.986   2.888  15.920  1.0335  0.8093  1.0030
  599MPD2    H3 8883   2.916   3.094  16.012  2.9251 -2.0212  0.7026
  599MPD2     N 8884   2.580   2.901  16.262  0.1533 -1.0620  0.1152
  599MPD2    H5 8885   2.595   2.980  16.325  1.5736  0.3446 -1.9731
  599MPD2    N1 8886   2.883   2.649  15.957 -0.1012  0.3383  0.2086
  599MPD2    H7 8887   2.958   2.669  15.892  0.4350  0.9547  1.0302
  600TMC3    C1 8888   2.428   2.823  16.430 -0.2841 -0.5180 -0.3325
  600TMC3    C2 8889   2.405   2.710  16.510  0.6542  0.0427  0.4132
  600TMC3    C3 8890   2.356   2.728  16.636  0.1140 -0.2740  0.1403
  600TMC3    C4 8891   2.397   2.947  16.482 -0.2564  0.4734  0.0936
  600TMC3    C5 8892   2.340   2.954  16.609 -0.1525 -0.5041 -0.0967
  600TMC3    C6 8893   2.309   2.845  16.686  0.7474 -0.1401  0.8209
  600TMC3     C 8894   2.487   2.805  16.294 -0.8074  0.2170 -0.1123
  600TMC3     O 8895   2.472   2.694  16.250  0.0020 -0.7878  0.3805
  600TMC3     H 8896   2.445   2.612  16.486 -2.7946 -0.9735 -1.1721
  600TMC3    H1 8897   2.412   3.034  16.419 -0.0392 -0.1648 -0.7357
  600TMC3    H2 8898   2.270   2.852  16.787  0.8476 -1.8757  0.9754
  600TMC3    C7 8899   2.292   3.079  16.656 -0.1183  0.8652 -0.4099
  600TMC3    C8 8900   2.289   2.610  16.683 -0.6548  0.5961 -0.2792
  600TMC3    O1 8901   2.218   3.087  16.755  0.0161  0.2162  0.2337
  600TMC3    O2 8902   2.255   2.616  16.801  0.2636  0.1551 -0.3030
  601MPD2     C 8903   4.069   1.284  17.608  0.3720 -0.5002  0.1136
  601MPD2    C1 8904   3.987   1.194  17.671  0.0074 -0.1153  1.0096
  601MPD2    C2 8905   4.042   1.072  17.695  0.4494 -0.1327  0.0548
  601MPD2    C3 8906   4.177   1.048  17.685  0.1338 -0.0741  0.2045
  601MPD2    C4 8907   4.265   1.142  17.638 -0.0182 -0.3566  0.1977
  601MPD2    C5 8908   4.203   1.261  17.602 -0.7567 -0.4245  0.6476
  601MPD2     H 8909   3.980   1.002   0.034 -0.1305 -0.4824 -1.0300
  601MPD2    H1 8910   4.370   1.120  17.650  0.5964  1.0714 -2.6171
  601MPD2    H2 8911   4.044   1.387  17.582  0.1642 -1.1982 -2.3850
  601MPD2    H3 8912   4.268   1.339  17.564 -2.4663  0.1415 -1.0818
  601MPD2     N 8913   4.235   0.939   0.033  0.1535  0.4408 -0.0048
  601MPD2    H5 8914   4.336   0.937   0.037  0.0372  1.0422  3.1106
  601MPD2    N1 8915   3.852   1.222  17.707  0.3190  0.1314 -0.2854
  601MPD2    H7 8916   3.799   1.142   0.024 -2.4336  1.7905 -0.7418
  602TMC3    C1 8917   3.642   1.314   0.009  0.4010  0.3146 -0.4442
  602TMC3    C2 8918   3.575   1.419   0.071  0.2732 -0.5656  1.0227
  602TMC3    C3 8919   3.465   1.394   0.146  0.0681  0.2545 -0.0663
  602TMC3    C4 8920   3.603   1.182   0.024  0.9617 -0.1036  0.5047
  602TMC3    C5 8921   3.487   1.160   0.106 -0.7915  0.9913  0.4866
  602TMC3    C6 8922   3.426   1.261   0.176  0.0953  0.3749 -0.1854
  602TMC3     C 8923   3.782   1.340  17.691  0.5949 -0.0254  0.2780
  602TMC3     O 8924   3.823   1.450  17.669 -0.2156  0.3150  0.1863
  602TMC3     H 8925   3.603   1.519   0.039  1.6579 -1.2538  0.0614
  602TMC3    H1 8926   3.647   1.091  17.704  0.2663  0.2981 -1.3360
  602TMC3    H2 8927   3.354   1.245   0.255 -0.8385 -1.6198 -1.4484
  602TMC3    C7 8928   3.397   1.073   0.038 -0.6367 -0.3502  0.1365
  602TMC3    C8 8929   3.353   1.494   0.142 -0.3294 -0.1139  0.7618
  602TMC3    O1 8930   3.438   0.981  17.691 -0.8209 -0.3332 -0.0735
  602TMC3    O2 8931   3.245   1.433   0.131  0.6440  0.2264 -0.2416
  603TMC3    C1 8932   2.628   2.191  11.309 -0.2814 -0.6052 -0.1841
  603TMC3    C2 8933   2.658   2.147  11.435  0.1449  0.2237 -0.0614
  603TMC3    C3 8934   2.757   2.202  11.505 -0.4120 -0.9040  0.3464
  603TMC3    C4 8935   2.722   2.270  11.246 -0.2659 -0.4374 -0.1906
  603TMC3    C5 8936   2.825   2.321  11.314  0.6454  0.0223 -0.2281
  603TMC3    C6 8937   2.854   2.281  11.445  0.0083 -0.3621 -0.6361
  603TMC3     C 8938   2.503   2.172  11.241  0.0842 -0.7425  0.3658
  603TMC3     O 8939   2.476   2.227  11.135  0.1111  0.3328  0.0373
  603TMC3     H 8940   2.594   2.067  11.471  1.4903 -0.1284  1.5711
  603TMC3    H1 8941   2.684   2.318  11.156  1.3311  0.7939 -0.2105
  603TMC3    H2 8942   2.939   2.316  11.503  0.6746 -0.1732 -1.7167
  603TMC3    C7 8943   2.925   2.403  11.239  0.3627 -0.1720 -0.0004
  603TMC3    C8 8944   2.802   2.120  11.615  0.0242 -0.2559  0.1719
  603TMC3    O1 8945   2.985   2.490  11.301 -0.1771 -0.1811  0.0843
  603TMC3    O2 8946   2.764   2.005  11.612 -0.0184  0.2068  0.1579
  604MPD2     C 8947   3.631   0.662  16.733  0.2645 -0.5602 -0.2235
  604MPD2    C1 8948   3.551   0.576  16.670 -0.0928 -0.5044  0.3274
  604MPD2    C2 8949   3.577   0.547  16.532  0.2979  0.0590  0.0413
  604MPD2    C3 8950   3.680   0.604  16.457 -0.3152  0.0260  0.8217
  604MPD2    C4 8951   3.754   0.696  16.523 -0.2436  0.1038 -0.3361
  604MPD2    C5 8952   3.732   0.718  16.657  0.0923 -0.0912  0.0237
  604MPD2     H 8953   3.519   0.468  16.485  0.6237 -0.2253  0.1130
  604MPD2    H1 8954   3.824   0.755  16.465 -0.5465  0.9145  0.1156
  604MPD2    H2 8955   3.621   0.692  16.836  1.4344  0.3122 -0.3528
  604MPD2    H3 8956   3.795   0.789  16.710  0.3169 -0.0673 -0.2752
  604MPD2     N 8957   3.697   0.566  16.316  0.2568 -0.7697  0.3741
  604MPD2    H5 8958   3.640   0.492  16.277 -1.8459  0.7221  0.6156
  604MPD2    N1 8959   3.445   0.517  16.737  0.0354 -0.0338  0.0476
  604MPD2    H7 8960   3.440   0.549  16.833 -0.6872 -0.8529  0.2842
  605TMC3    C1 8961   3.239   0.411  16.778 -0.6189  0.4205  0.2894
  605TMC3    C2 8962   3.244   0.488  16.895  0.3025  0.3808  0.4252
  605TMC3    C3 8963   3.137   0.559  16.936  0.2082  0.5624 -0.5356
  605TMC3    C4 8964   3.122   0.389  16.710  0.3296 -0.4747  0.2717
  605TMC3    C5 8965   3.012   0.464  16.754 -0.0491 -0.2380 -0.7132
  605TMC3    C6 8966   3.018   0.545  16.867  0.1867 -0.8513  0.1347
  605TMC3     C 8967   3.356   0.424  16.690  0.5034 -0.6440  0.0132
  605TMC3     O 8968   3.359   0.360  16.587 -0.1596 -0.2427  0.0839
  605TMC3     H 8969   3.328   0.474  16.962  0.9995  1.3451 -0.2491
  605TMC3    H1 8970   3.119   0.337  16.615 -1.3821 -1.5171  0.8968
  605TMC3    H2 8971   2.927   0.599  16.893  0.8559  0.9221 -1.2158
  605TMC3    C7 8972   2.882   0.464  16.679  0.1317  0.3928 -0.1622
  605TMC3    C8 8973   3.157   0.701  16.951  0.6501 -0.0225  0.0653
  605TMC3    O1 8974   2.795   0.546  16.699 -0.4889  0.0261  0.0979
  605TMC3    O2 8975   3.079   0.756  17.027 -0.1545 -0.1687  0.0170
  606TMC3    C1 8976   4.698   3.906  16.881 -0.9900 -0.1582  0.6191
  606TMC3    C2 8977   4.650   3.964  16.993  0.6094 -0.4755  0.1598
  606TMC3    C3 8978   4.589   3.900  17.088 -0.1242  0.5580  0.2416
  606TMC3    C4 8979   4.678   3.778  16.850  0.0871  0.4473 -0.1500
  606TMC3    C5 8980   4.612   3.705  16.950 -0.2870  0.0065  0.3630
  606TMC3    C6 8981   4.572   3.767  17.069  0.3608  0.5524  0.5162
  606TMC3     C 8982   0.032   3.993  16.785  0.6097  0.3636  0.4446
  606TMC3     O 8983   0.012   4.112  16.786 -0.1682  0.2739 -0.0102
  606TMC3     H 8984   4.674   4.069  17.003  1.2049 -0.6709  0.7951
  606TMC3    H1 8985   4.719   3.723  16.767 -2.4214 -2.1411  0.3395
  606TMC3    H2 8986   4.534   3.707  17.151  3.0470 -0.6174  0.9161
  606TMC3    C7 8987   4.594   3.568  16.928 -0.6681 -0.3549  0.8286
  606TMC3    C8 8988   4.564   3.969  17.210 -0.3734  0.2070 -0.2981
  606TMC3    O1 8989   4.686   3.513  16.862 -0.2285 -0.4003 -0.2177
  606TMC3    O2 8990   4.610   4.087  17.226 -0.4323  0.0487 -0.5459
  607MPD2     C 8991   1.961   1.677  11.843  0.2863  0.4141 -0.4510
  607MPD2    C1 8992   2.066   1.657  11.930  0.0834 -0.5478 -0.0988
  607MPD2    C2 8993   2.053   1.567  12.032 -0.0554  0.7631  0.6223
  607MPD2    C3 8994   1.944   1.496  12.047  0.5131  0.5093  0.0342
  607MPD2    C4 8995   1.835   1.515  11.970 -0.1947  0.5857  0.1595
  607MPD2    C5 8996   1.840   1.611  11.872  0.8724 -0.0092 -0.1283
  607MPD2     H 8997   2.135   1.552  12.101 -0.0241  0.2248  0.4660
  607MPD2    H1 8998   1.743   1.457  11.973 -0.7011  1.4034  0.3860
  607MPD2    H2 8999   1.959   1.744  11.759 -1.2318  0.7089 -0.1732
  607MPD2    H3 9000   1.750   1.621  11.812  0.2730 -0.8596  0.6350
  607MPD2     N 9001   1.948   1.410  12.160  0.6411 -0.8018 -0.1119
  607MPD2    H5 9002   2.033   1.399  12.215  2.3554  1.3452 -2.3593
  607MPD2    N1 9003   2.187   1.727  11.918  0.0369  0.1114  0.2540
  607MPD2    H7 9004   2.262   1.704  11.982  1.3642  0.2486 -1.2512
  608TMC3    C1 9005   2.294   1.933  11.899  0.9844 -0.3703  0.3407
  608TMC3    C2 9006   2.283   1.948  12.033 -0.0356 -0.2768 -0.5479
  608TMC3    C3 9007   2.296   2.075  12.091 -0.5275 -0.4614 -0.4791
  608TMC3    C4 9008   2.347   2.029  11.817 -0.1158 -0.1035  0.3903
  608TMC3    C5 9009   2.365   2.156  11.875 -0.2057 -0.0940  0.0391
  608TMC3    C6 9010   2.322   2.182  12.010 -0.4022  0.1682  0.2498
  608TMC3     C 9011   2.205   1.834  11.838 -0.8632 -0.1115 -0.8200
  608TMC3     O 9012   2.140   1.873  11.740  0.0578 -0.1426  0.1097
  608TMC3     H 9013   2.256   1.856  12.083  1.5132  0.2426  1.2470
  608TMC3    H1 9014   2.358   2.020  11.709  0.0701  2.8126  0.1513
  608TMC3    H2 9015   2.340   2.278  12.057  2.6556 -0.2558 -0.0828
  608TMC3    C7 9016   2.439   2.246  11.794 -0.2049 -0.1796  1.0284
  608TMC3    C8 9017   2.198   2.097  12.193  0.0821  0.3900  0.1898
  608TMC3    O1 9018   2.441   2.218  11.670 -0.5343 -0.4776 -0.0276
  608TMC3    O2 9019   2.146   2.210  12.202 -0.1469  0.2459  0.1924
  609TMC3    C1 9020   0.691   0.365   9.162 -0.0072 -0.0393  0.6916
  609TMC3    C2 9021   0.586   0.305   9.099 -0.0996  0.3356 -0.5438
  609TMC3    C3 9022   0.581   0.173   9.097  0.4462 -0.0332  0.5600
  609TMC3    C4 9023   0.778   0.291   9.239 -0.4568  0.8114 -0.4193
  609TMC3    C5 9024   0.765   0.155   9.246 -0.3458 -0.0056  0.1131
  609TMC3    C6 9025   0.678   0.097   9.162 -0.2334  0.3292  0.5250
  609TMC3     C 9026   0.669   0.506   9.207 -0.3920  0.0838  0.0071
  609TMC3     O 9027   0.554   0.545   9.196 -0.8488 -0.3564 -0.1858
  609TMC3     H 9028   0.510   0.369   9.057  1.3760  1.5324 -1.3670
  609TMC3    H1 9029   0.863   0.337   9.289 -1.4655 -0.2200  2.2297
  609TMC3    H2 9030   0.667   4.719   9.157 -2.9651  0.6743 -0.5263
  609TMC3    C7 9031   0.843   0.088   9.343 -0.2514 -0.9332 -0.0502
  609TMC3    C8 9032   0.505   0.111   8.994  0.0155 -0.9146 -0.2003
  609TMC3    O1 9033   0.902   0.164   9.422  1.0180 -0.3150 -0.1997
  609TMC3    O2 9034   0.535   4.728   8.959  0.2033 -0.3509  0.2560
  610TMC3    C1 9035   2.333   1.593  12.695  0.1879  0.1562 -0.1484
  610TMC3    C2 9036   2.330   1.675  12.589  0.4149  0.0082 -0.3451
  610TMC3    C3 9037   2.432   1.661  12.498 -0.5105  0.1443 -0.5351
  610TMC3    C4 9038   2.433   1.505  12.714  0.6068 -0.3579 -0.4649
  610TMC3    C5 9039   2.526   1.494  12.615  0.2933 -0.2187 -0.4797
  610TMC3    C6 9040   2.534   1.579  12.520 -0.0050 -0.8424  0.2993
  610TMC3     C 9041   2.227   1.589  12.786 -0.0012  0.2917 -0.2915
  610TMC3     O 9042   2.221   1.486  12.854  0.3790  0.2941 -0.2305
  610TMC3     H 9043   2.243   1.733  12.562 -0.8952 -2.8576 -2.3704
  610TMC3    H1 9044   2.440   1.449  12.806 -0.2703  2.4898  1.3466
  610TMC3    H2 9045   2.612   1.557  12.448  0.6825  1.8044  0.2420
  610TMC3    C7 9046   2.633   1.406  12.648  0.0342 -0.3831 -0.0175
  610TMC3    C8 9047   2.456   1.760  12.397  0.0412  0.0316  0.8987
  610TMC3    O1 9048   2.737   1.458  12.676 -0.5174 -0.6291 -0.2038
  610TMC3    O2 9049   2.406   1.872  12.420  0.1666 -0.1575  0.2906
  611MPD2     C 9050   2.519   1.718  10.498  0.0759 -0.6885 -0.2780
  611MPD2    C1 9051   2.518   1.782  10.370  0.3993 -0.7349 -0.1601
  611MPD2    C2 9052   2.611   1.882  10.348  0.2230  0.2085  0.1246
  611MPD2    C3 9053   2.696   1.923  10.451  0.8798 -0.0244 -0.1180
  611MPD2    C4 9054   2.692   1.857  10.570  0.7304  0.6352  0.1986
  611MPD2    C5 9055   2.600   1.758  10.596 -0.3487  0.0250  0.6517
  611MPD2     H 9056   2.624   1.929  10.251 -0.9695 -1.9468 -1.0805
  611MPD2    H1 9057   2.757   1.883  10.653 -0.5863  0.3801  1.3202
  611MPD2    H2 9058   2.444   1.644  10.524 -0.4797  0.8511  2.5001
  611MPD2    H3 9059   2.587   1.706  10.690 -2.7966 -0.7721 -0.1086
  611MPD2     N 9060   2.790   2.028  10.431 -0.5201 -0.1538  0.4803
  611MPD2    H5 9061   2.850   2.060  10.507 -1.5332 -1.6634  1.9037
  611MPD2    N1 9062   2.420   1.745  10.268  0.4014 -0.6315 -0.5098
  611MPD2    H7 9063   2.350   1.676  10.292 -0.9949  1.0914  0.3300
  612TMC3    C1 9064   2.928   2.186  10.311 -0.0693  0.2987 -0.1204
  612TMC3    C2 9065   2.975   2.222  10.437  0.1603 -0.0416 -0.0148
  612TMC3    C3 9066   3.066   2.325  10.430  1.0303  0.1304 -0.7764
  612TMC3    C4 9067   2.972   2.227  10.187  0.8492 -0.3798 -0.4057
  612TMC3    C5 9068   3.071   2.321  10.194  0.3190  0.1312  0.9723
  612TMC3    C6 9069   3.113   2.379  10.310  0.2349 -0.9903  0.4192
  612TMC3     C 9070   2.813   2.102  10.310  0.2465  0.3000 -0.6198
  612TMC3     O 9071   2.760   2.098  10.200  0.3306 -1.2524 -0.1600
  612TMC3     H 9072   2.941   2.172  10.527  1.8076 -0.7988  0.1919
  612TMC3    H1 9073   2.925   2.206  10.091  0.4782  2.8625 -0.9413
  612TMC3    H2 9074   3.193   2.452  10.309 -1.3429  0.7042 -1.1924
  612TMC3    C7 9075   3.165   2.344  10.080 -0.4329 -0.6214 -0.1107
  612TMC3    C8 9076   3.114   2.394  10.547  0.2121 -0.5970 -0.3060
  612TMC3    O1 9077   3.253   2.430  10.096 -0.3637 -0.0963  0.1918
  612TMC3    O2 9078   3.194   2.482  10.527 -0.1104  0.8975  0.5452
  613MPD2     C 9079   1.073   4.501  16.929  0.3198  0.7042 -0.0940
  613MPD2    C1 9080   1.044   4.516  16.797  0.1303 -0.0457  1.1187
  613MPD2    C2 9081   0.998   4.401  16.729  0.4809  0.4843 -0.3412
  613MPD2    C3 9082   1.005   4.273  16.797  0.5616 -0.2563 -0.2968
  613MPD2    C4 9083   1.048   4.265  16.924  0.1251  0.8190  0.0224
  613MPD2    C5 9084   1.083   4.377  16.990 -0.2439  0.9762 -0.3711
  613MPD2     H 9085   0.971   4.403  16.624  0.1964  0.8576 -0.2643
  613MPD2    H1 9086   1.056   4.172  16.979  1.5298  1.2553  0.5309
  613MPD2    H2 9087   1.103   4.584  16.991  0.2845  0.2037  0.5949
  613MPD2    H3 9088   1.116   4.357  17.091  2.5963  0.8252 -1.3213
  613MPD2     N 9089   1.004   4.145  16.726  1.1319 -0.0249  0.3894
  613MPD2    H5 9090   1.032   4.064  16.780  0.7671 -1.5979 -1.7963
  613MPD2    N1 9091   1.061   4.642  16.738  0.3693 -0.4179  0.1584
  613MPD2    H7 9092   1.133   4.701  16.778 -0.5567 -1.3275  3.2264
  614TMC3    C1 9093   1.074   0.052  16.559  0.5440  0.6673 -0.1721
  614TMC3    C2 9094   1.202   0.003  16.525  0.5077  0.0804  0.4372
  614TMC3    C3 9095   1.221   4.706  16.390  0.5385 -0.3867  0.5201
  614TMC3    C4 9096   0.991   0.107  16.467  0.2398  0.4021 -0.4330
  614TMC3    C5 9097   1.018   0.095  16.331  0.1906  0.7366 -0.2097
  614TMC3    C6 9098   1.127   0.021  16.294 -0.4212 -0.0452 -0.3290
  614TMC3     C 9099   1.006   4.676  16.621 -0.3378 -0.4731 -0.1920
  614TMC3     O 9100   0.923   4.620  16.549 -0.2491  0.1778  0.1047
  614TMC3     H 9101   1.275   4.692  16.595  0.2508 -0.2433  0.5180
  614TMC3    H1 9102   0.891   0.132  16.502  1.1376  1.0271  1.7293
  614TMC3    H2 9103   1.144   0.008  16.188 -1.3392 -1.2694 -0.3255
  614TMC3    C7 9104   0.904   0.123  16.243 -0.4202 -0.4137  1.1714
  614TMC3    C8 9105   1.288   4.581  16.367  0.1178 -0.1744 -0.2315
  614TMC3    O1 9106   0.822   0.212  16.274 -0.3499 -0.2580 -0.1580
  614TMC3    O2 9107   1.335   4.526  16.465 -0.7474  0.4632  0.1359
  615MPD2     C 9108   0.248   0.864  16.374  0.0240  0.3688 -0.1921
  615MPD2    C1 9109   0.251   0.971  16.287 -0.1210 -0.1234 -0.2326
  615MPD2    C2 9110   0.282   0.952  16.151  0.5020 -0.0561 -0.5596
  615MPD2    C3 9111   0.293   0.824  16.102  0.0127 -0.6615  0.4007
  615MPD2    C4 9112   0.287   0.719  16.192  0.1387  0.4676  0.0355
  615MPD2    C5 9113   0.276   0.736  16.325  0.5570  0.2892 -0.3650
  615MPD2     H 9114   0.281   1.039  16.085 -0.2410  0.8309  0.6145
  615MPD2    H1 9115   0.287   0.620  16.148  0.3368  0.9688 -1.0943
  615MPD2    H2 9116   0.232   0.860  16.481  0.5782  3.7318  0.0252
  615MPD2    H3 9117   0.271   0.646  16.384 -2.2407  0.8699  0.2940
  615MPD2     N 9118   0.299   0.801  15.965  0.5071 -0.9318  0.5117
  615MPD2    H5 9119   0.285   0.706  15.931  2.3395 -0.5035 -1.4446
  615MPD2    N1 9120   0.237   1.103  16.332 -0.2425 -0.5228  0.1975
  615MPD2    H7 9121   0.248   1.177  16.264  1.3854 -1.6595 -0.7637
  616TMC3    C1 9122   0.205   1.280  16.484 -0.4146  0.3226 -0.0659
  616TMC3    C2 9123   0.313   1.352  16.534  0.5611 -0.0448 -0.3720
  616TMC3    C3 9124   0.308   1.488  16.520  0.2377 -0.4932  0.0484
  616TMC3    C4 9125   0.098   1.338  16.428 -0.8796  0.1769 -0.3951
  616TMC3    C5 9126   0.099   1.476  16.425  0.1774 -0.5254 -0.6013
  616TMC3    C6 9127   0.197   1.555  16.473  0.0245 -0.2046 -0.3720
  616TMC3     C 9128   0.222   1.137  16.468 -0.0130  0.3080 -0.5441
  616TMC3     O 9129   0.262   1.075  16.567  0.4577  0.0651  0.5584
  616TMC3     H 9130   0.402   1.298  16.564  0.8481  0.4379 -0.3531
  616TMC3    H1 9131   0.021   1.272  16.391  0.0045  1.6806 -4.9921
  616TMC3    H2 9132   0.203   1.660  16.446  0.4758 -0.5114 -1.4855
  616TMC3    C7 9133   4.726   1.550  16.356  0.5000 -0.5145  1.1557
  616TMC3    C8 9134   0.432   1.561  16.494 -0.3284 -0.2546  0.0489
  616TMC3    O1 9135   4.710   1.663  16.410  0.1720 -0.0287 -0.3164
  616TMC3    O2 9136   0.425   1.678  16.466 -0.0500  0.1243  0.1010
  617MPD2     C 9137   2.834   3.514  13.350  1.0130  0.5844 -0.0168
  617MPD2    C1 9138   2.827   3.433  13.462 -0.0607 -0.2093  0.1768
  617MPD2    C2 9139   2.728   3.333  13.457  0.4886 -0.1513 -0.3632
  617MPD2    C3 9140   2.638   3.326  13.353  0.6121  0.5255 -0.2473
  617MPD2    C4 9141   2.647   3.417  13.249 -0.1585  0.5219 -0.0048
  617MPD2    C5 9142   2.739   3.511  13.252  0.2319  0.0022 -0.0024
  617MPD2     H 9143   2.713   3.251  13.527 -0.1545 -1.1414 -1.6598
  617MPD2    H1 9144   2.582   3.407  13.163  1.8842  0.3855 -1.5217
  617MPD2    H2 9145   2.911   3.588  13.332  2.3386 -1.3309 -2.2133
  617MPD2    H3 9146   2.741   3.593  13.180 -1.2807  1.0246  1.1169
  617MPD2     N 9147   2.530   3.242  13.347  0.1725 -0.8219 -0.7287
  617MPD2    H5 9148   2.492   3.234  13.254  0.4292 -0.0853 -0.9007
  617MPD2    N1 9149   2.923   3.440  13.558  0.3986 -0.1960 -0.1506
  617MPD2    H7 9150   2.993   3.513  13.550  1.0451 -0.9321 -1.1474
  618TMC3    C1 9151   3.049   3.364  13.761  0.1808  0.6890  0.1013
  618TMC3    C2 9152   3.083   3.252  13.830 -0.6562  0.4508  0.1496
  618TMC3    C3 9153   3.190   3.266  13.916 -0.2364 -0.3966  0.4254
  618TMC3    C4 9154   3.104   3.487  13.771 -0.4340  0.1513 -0.1692
  618TMC3    C5 9155   3.217   3.498  13.847 -0.1893 -0.4871 -0.3594
  618TMC3    C6 9156   3.258   3.386  13.922 -0.7578  0.4457 -0.2954
  618TMC3     C 9157   2.936   3.344  13.661  0.0317  0.5015  0.5508
  618TMC3     O 9158   2.886   3.232  13.666  0.1004  0.2805  0.2497
  618TMC3     H 9159   3.037   3.156  13.810 -1.5818  1.5538 -2.9700
  618TMC3    H1 9160   3.065   3.574  13.718 -0.2346 -0.2735 -1.0193
  618TMC3    H2 9161   3.335   3.401  13.997 -0.1288  1.9649 -1.2483
  618TMC3    C7 9162   3.279   3.628  13.868  0.5859 -0.6611  0.2871
  618TMC3    C8 9163   3.245   3.151  13.990 -0.0771  0.5608 -0.2314
  618TMC3    O1 9164   3.203   3.725  13.863  0.0110  0.0467 -0.0291
  618TMC3    O2 9165   3.167   3.069  14.036 -0.4907  0.5730 -0.1036
  619MPD2     C 9166   0.060   0.474  14.168  0.0857 -0.0227 -0.3442
  619MPD2    C1 9167   0.036   0.457  14.036 -0.0893  0.7854  0.3144
  619MPD2    C2 9168   4.645   0.410  13.992  0.2379  0.1569  0.1374
  619MPD2    C3 9169   4.548   0.370  14.084 -0.4533 -0.0510 -0.2064
  619MPD2    C4 9170   4.577   0.380  14.222  0.0271 -0.0043  0.3902
  619MPD2    C5 9171   4.695   0.433  14.260  0.3239  0.6512 -0.1637
  619MPD2     H 9172   4.623   0.415  13.886  3.6522 -2.0231 -0.6878
  619MPD2    H1 9173   4.505   0.341  14.293 -1.4426  2.9755  0.5348
  619MPD2    H2 9174   0.155   0.508  14.207 -0.3635  0.9457 -0.0944
  619MPD2    H3 9175   4.723   0.445  14.364 -0.4915 -0.5002  0.1797
  619MPD2     N 9176   4.422   0.327  14.050  0.0314  0.4625 -0.3795
  619MPD2    H5 9177   4.355   0.328  14.125 -1.5483  0.3303 -1.7799
  619MPD2    N1 9178   0.128   0.490  13.940  0.5240  0.1901 -0.1839
  619MPD2    H7 9179   0.097   0.470  13.845 -1.3003 -0.4842  0.5556
  620TMC3    C1 9180   0.308   0.591  13.828  0.6055 -0.3159 -0.7610
  620TMC3    C2 9181   0.263   0.543  13.706 -0.2967  0.6446 -0.5249
  620TMC3    C3 9182   0.260   0.624  13.590 -0.4468 -0.0150 -0.9868
  620TMC3    C4 9183   0.377   0.699  13.838 -1.3520 -0.0575  0.1534
  620TMC3    C5 9184   0.377   0.774  13.727  0.1336 -0.1154  0.1162
  620TMC3    C6 9185   0.329   0.739  13.605  0.2908 -0.4413 -0.1785
  620TMC3     C 9186   0.255   0.546  13.952  0.1951  0.4550  0.1389
  620TMC3     O 9187   0.313   0.565  14.059  0.2153  0.0234  0.3077
  620TMC3     H 9188   0.203   0.453  13.706  1.1605 -0.3248 -2.2405
  620TMC3    H1 9189   0.410   0.723  13.939  3.1793  2.7589 -2.0028
  620TMC3    H2 9190   0.332   0.811  13.524  1.5210  0.4602  0.6640
  620TMC3    C7 9191   0.374   0.912  13.757 -1.0704 -0.7870  0.0217
  620TMC3    C8 9192   0.121   0.665  13.560  0.1662  0.3679  0.6038
  620TMC3    O1 9193   0.454   0.954  13.839  0.4698 -0.1705 -0.4058
  620TMC3    O2 9194   0.089   0.777  13.601  0.1347 -0.2099 -0.3964
  621MPD2     C 9195   0.038   1.082  11.251 -0.1796  0.7353 -0.7207
  621MPD2    C1 9196   4.721   0.999  11.144 -0.4952  0.4042  0.4430
  621MPD2    C2 9197   4.704   1.056  11.019  0.4524  0.3589 -0.5158
  621MPD2    C3 9198   0.001   1.186  10.996 -0.1649 -0.1663  0.1384
  621MPD2    C4 9199   0.039   1.268  11.103  0.5986 -0.3892  1.0405
  621MPD2    C5 9200   0.072   1.213  11.223  0.1481 -0.1841 -0.3291
  621MPD2     H 9201   4.680   0.985  10.940  3.2964  0.7372 -1.7211
  621MPD2    H1 9202   0.060   1.371  11.079 -0.4535 -0.3368  0.3358
  621MPD2    H2 9203   0.064   1.040  11.347 -0.5193 -2.2997 -1.9217
  621MPD2    H3 9204   0.133   1.275  11.288  0.8660 -1.9512  0.6863
  621MPD2     N 9205   4.709   1.237  10.865  0.8130 -0.2706  0.0511
  621MPD2    H5 9206   4.666   1.185  10.790  0.0897  0.0544  0.2384
  621MPD2    N1 9207   4.697   0.858  11.157  0.1620  0.1648 -0.0944
  621MPD2    H7 9208   4.646   0.814  11.081  1.7087 -0.8864 -0.5228
  622TMC3    C1 9209   4.706   0.650  11.251 -0.3028  0.1733  0.3570
  622TMC3    C2 9210   4.597   0.601  11.177  0.3958 -0.0747 -0.0948
  622TMC3    C3 9211   4.579   0.462  11.161 -0.1781 -0.5261  1.2798
  622TMC3    C4 9212   0.059   0.554  11.309 -0.0111 -0.1252  0.0191
  622TMC3    C5 9213   0.043   0.423  11.286  0.5670 -0.0606  0.0223
  622TMC3    C6 9214   4.668   0.374  11.216 -0.4612 -0.4763  0.0923
  622TMC3     C 9215   0.003   0.787  11.273 -0.3701 -0.2379 -0.0281
  622TMC3     O 9216   0.076   0.814  11.366  0.1290 -0.0344 -0.2136
  622TMC3     H 9217   4.528   0.671  11.132 -1.0257 -0.2644  1.8256
  622TMC3    H1 9218   0.144   0.586  11.369 -0.5128  2.0092 -0.4067
  622TMC3    H2 9219   4.655   0.267  11.206  0.6424 -0.4491 -1.6843
  622TMC3    C7 9220   0.136   0.334  11.347  0.1230 -1.1136  1.0294
  622TMC3    C8 9221   4.475   0.416  11.071 -0.6889  0.5241  0.7136
  622TMC3    O1 9222   0.196   0.370  11.447  0.0803 -0.1786  0.0610
  622TMC3    O2 9223   4.476   0.300  11.036  0.3949 -0.4434 -0.4297
  623MPD2     C 9224   3.527   0.744  15.621 -0.2297  0.1751 -0.1329
  623MPD2    C1 9225   3.418   0.795  15.686 -0.7083 -0.1611  0.0222
  623MPD2    C2 9226   3.449   0.858  15.809 -0.5587  0.8616 -0.0532
  623MPD2    C3 9227   3.583   0.864  15.857 -0.5918 -0.2964 -0.3706
  623MPD2    C4 9228   3.689   0.809  15.787 -0.3136 -0.1451  0.1633
  623MPD2    C5 9229   3.661   0.756  15.669 -0.1444 -0.2573  0.3918
  623MPD2     H 9230   3.380   0.904  15.879 -0.1506  0.5404  0.5644
  623MPD2    H1 9231   3.791   0.811  15.822  0.0373 -2.1028 -0.7490
  623MPD2    H2 9232   3.524   0.693  15.525  1.5705 -1.7039  0.7956
  623MPD2    H3 9233   3.742   0.712  15.613 -1.6784 -2.1603 -0.3397
  623MPD2     N 9234   3.608   0.929  15.982  0.1628  0.0328  0.0565
  623MPD2    H5 9235   3.534   0.969  16.038 -0.2878  0.3135 -0.7482
  623MPD2    N1 9236   3.289   0.781  15.636  0.3916 -0.2317 -0.3970
  623MPD2    H7 9237   3.277   0.727  15.551 -1.9822  0.5945 -0.5800
  624TMC3    C1 9238   3.829   1.115  16.362  0.8851 -0.3757 -0.6392
  624TMC3    C2 9239   3.722   1.084  16.441 -0.5128  0.9490 -0.3997
  624TMC3    C3 9240   3.611   1.032  16.381  0.3684 -0.6199  0.1450
  624TMC3    C4 9241   3.828   1.081  16.226  0.2716  0.1629  0.7739
  624TMC3    C5 9242   3.716   1.022  16.167 -0.4463 -0.1506 -0.0264
  624TMC3    C6 9243   3.607   0.994  16.243 -0.7558  0.4813 -0.7652
  624TMC3     C 9244   3.952   1.131  16.439 -0.0710  0.3887 -0.0180
  624TMC3     O 9245   3.946   1.077  16.547 -0.1060  0.0742  0.5268
  624TMC3     H 9246   3.726   1.080  16.550 -0.1684  1.2150 -0.4039
  624TMC3    H1 9247   3.916   1.105  16.167  0.8508 -0.1774  1.4990
  624TMC3    H2 9248   3.513   0.970  16.194 -0.7797  0.0221 -0.4929
  624TMC3    C7 9249   3.730   0.955  16.040  0.1589 -0.0318 -0.3025
  624TMC3    C8 9250   3.519   0.979  16.473  0.2328 -0.2255  0.0412
  624TMC3    O1 9251   3.844   0.944  16.000 -0.4474  0.2841 -0.6299
  624TMC3    O2 9252   3.463   0.875  16.435 -0.2107 -0.1811 -0.1991
  625MPD2     C 9253   4.304   1.919   0.328  0.1000  1.0099 -0.4796
  625MPD2    C1 9254   4.194   1.872   0.396 -0.2752 -0.1413 -0.0684
  625MPD2    C2 9255   4.205   1.745   0.453  0.4407 -0.5110 -0.6824
  625MPD2    C3 9256   4.322   1.672   0.450  0.1749 -0.0740 -0.4504
  625MPD2    C4 9257   4.422   1.714   0.367  1.0701  0.4877 -0.0226
  625MPD2    C5 9258   4.405   1.837   0.306  0.1887  0.0083  0.2214
  625MPD2     H 9259   4.122   1.707   0.512  1.9838 -0.7584  1.3410
  625MPD2    H1 9260   4.515   1.661   0.353 -0.5501 -2.2926 -0.2912
  625MPD2    H2 9261   4.309   2.017   0.280 -1.3578  0.6486 -1.3783
  625MPD2    H3 9262   4.491   1.884   0.259  1.1407 -1.1833  0.7587
  625MPD2     N 9263   4.333   1.549   0.525 -0.1680  0.1484  0.4772
  625MPD2    H5 9264   4.242   1.514   0.551  0.0753  1.8130  3.5924
  625MPD2    N1 9265   4.076   1.936   0.417 -0.1208  0.6399  0.3605
  625MPD2    H7 9266   3.997   1.881   0.450  0.9618 -0.9753  0.2820
  626TMC3    C1 9267   3.924   2.108   0.391  0.2314 -0.2267  0.0196
  626TMC3    C2 9268   3.896   2.213   0.310  0.1509 -0.0020 -0.5822
  626TMC3    C3 9269   3.767   2.239   0.276  0.5783 -0.1871  0.3875
  626TMC3    C4 9270   3.824   2.032   0.448  0.3121  0.1039 -0.3215
  626TMC3    C5 9271   3.693   2.061   0.420  0.1834  0.6748  0.4096
  626TMC3    C6 9272   3.661   2.159   0.327  0.0344  0.3409  0.0640
  626TMC3     C 9273   4.059   2.073   0.398 -0.3918 -0.7610  0.0687
  626TMC3     O 9274   4.139   2.164   0.376  0.1105  0.3564  0.1171
  626TMC3     H 9275   3.974   2.274   0.267 -0.2346  1.2057  0.4298
  626TMC3    H1 9276   3.854   1.949   0.511 -0.0455  0.1789 -0.0478
  626TMC3    H2 9277   3.558   2.167   0.294  0.7698  1.5554 -1.9684
  626TMC3    C7 9278   3.595   1.965   0.446 -0.1058  0.3621  0.0888
  626TMC3    C8 9279   3.728   2.334   0.177 -0.1957 -0.0921 -0.5469
  626TMC3    O1 9280   3.630   1.847   0.461 -0.0002 -0.0956  0.4933
  626TMC3    O2 9281   3.817   2.398   0.126  0.0251  0.0055 -0.6373
  627MPD2     C 9282   2.288   2.199  14.344  0.5309  0.4465 -0.9022
  627MPD2    C1 9283   2.391   2.155  14.432 -0.4081  0.2131  0.6048
  627MPD2    C2 9284   2.389   2.022  14.479  0.0607 -0.2459  0.2868
  627MPD2    C3 9285   2.291   1.927  14.442  0.4281  0.8364  0.6953
  627MPD2    C4 9286   2.186   1.975  14.364  0.8127 -0.0185 -0.0321
  627MPD2    C5 9287   2.185   2.109  14.320  0.6779  0.2700  0.5171
  627MPD2     H 9288   2.478   1.989  14.532 -1.4275 -2.6753  1.3075
  627MPD2    H1 9289   2.103   1.910  14.342  0.1739 -0.1384  2.7308
  627MPD2    H2 9290   2.289   2.297  14.296  1.1220 -0.3260 -2.4557
  627MPD2    H3 9291   2.100   2.152  14.268  1.3785  2.0866  0.8758
  627MPD2     N 9292   2.308   1.787  14.469 -0.3211  0.7322 -0.4528
  627MPD2    H5 9293   2.385   1.763  14.530 -1.0066  0.6765  0.3962
  627MPD2    N1 9294   2.505   2.234  14.457  0.1133 -0.1376 -0.4059
  627MPD2    H7 9295   2.590   2.196  14.496 -0.0616  0.6364  0.7339
  628TMC3    C1 9296   2.651   2.424  14.402 -0.3999 -0.3770  0.8618
  628TMC3    C2 9297   2.764   2.369  14.468 -0.1110 -0.1291 -0.8242
  628TMC3    C3 9298   2.881   2.445  14.456  0.1336  0.2547  0.1386
  628TMC3    C4 9299   2.656   2.538  14.326 -1.1912 -0.0347  0.3613
  628TMC3    C5 9300   2.775   2.598  14.309  0.3067  0.0282  0.0925
  628TMC3    C6 9301   2.886   2.559  14.381 -1.0380 -0.0374  0.3215
  628TMC3     C 9302   2.515   2.364  14.418 -0.2009  0.1783 -0.2447
  628TMC3     O 9303   2.419   2.446  14.418 -1.0268  0.1060 -0.9265
  628TMC3     H 9304   2.765   2.266  14.504 -0.6681  0.3470  0.5574
  628TMC3    H1 9305   2.566   2.571  14.275 -0.5859  0.0353 -0.6630
  628TMC3    H2 9306   2.984   2.606  14.373 -1.6786  1.1071 -0.6820
  628TMC3    C7 9307   2.791   2.701  14.207  0.3210 -0.4408 -0.3453
  628TMC3    C8 9308   2.996   2.415  14.544  0.0996 -0.1629  0.0692
  628TMC3    O1 9309   2.902   2.747  14.215 -0.1330 -0.3421 -0.0900
  628TMC3    O2 9310   3.098   2.478  14.518 -0.0582  0.3596  0.4414
  629MPD2     C 9311   0.917   1.603  16.354  0.4247  0.6174  0.9323
  629MPD2    C1 9312   0.887   1.478  16.396 -0.1574  0.3636  0.2480
  629MPD2    C2 9313   0.767   1.443  16.437 -0.7927  1.5398 -0.1750
  629MPD2    C3 9314   0.667   1.532  16.436 -0.6075  0.4532 -0.5369
  629MPD2    C4 9315   0.696   1.662  16.400  0.2218 -0.2587  0.1003
  629MPD2    C5 9316   0.822   1.698  16.357  0.2746  0.3006 -1.0183
  629MPD2     H 9317   0.746   1.342  16.471  1.1873  0.7872 -1.1924
  629MPD2    H1 9318   0.619   1.738  16.409  2.1896  1.5769  1.4130
  629MPD2    H2 9319   1.018   1.628  16.324  0.2615 -0.6458 -0.6679
  629MPD2    H3 9320   0.845   1.800  16.331  0.5933  1.0320  2.1447
  629MPD2     N 9321   0.545   1.487  16.480 -0.0693  0.1909 -0.2039
  629MPD2    H5 9322   0.546   1.391  16.514  0.0077  0.4047  0.4002
  629MPD2    N1 9323   0.998   1.390  16.396 -0.3114 -0.0200 -0.0524
  629MPD2    H7 9324   1.088   1.431  16.372  0.3469 -1.6381 -0.3702
  630TMC3    C1 9325   1.118   1.185  16.422  0.2413 -0.1722 -0.4521
  630TMC3    C2 9326   1.217   1.239  16.343  0.1540 -0.1870 -0.3028
  630TMC3    C3 9327   1.322   1.153  16.313 -0.1167  0.1382  0.5326
  630TMC3    C4 9328   1.127   1.069  16.496  0.5982 -0.7813  0.1466
  630TMC3    C5 9329   1.246   1.004  16.485 -0.2240 -0.4550  0.1837
  630TMC3    C6 9330   1.345   1.043  16.393  0.1440  0.2844 -0.4328
  630TMC3     C 9331   0.993   1.258  16.435  0.6502 -0.2480 -0.4073
  630TMC3     O 9332   0.900   1.200  16.490 -0.1456  0.1894  0.2150
  630TMC3     H 9333   1.201   1.329  16.285 -1.7285  1.0960  2.2151
  630TMC3    H1 9334   1.055   1.043  16.572 -0.9178 -1.0545 -1.3727
  630TMC3    H2 9335   1.429   0.977  16.376 -0.8474 -0.4989 -2.2365
  630TMC3    C7 9336   1.291   0.945  16.607  0.4229 -0.6582  0.4293
  630TMC3    C8 9337   1.437   1.208  16.246 -0.2173 -0.5391  0.1228
  630TMC3    O1 9338   1.209   0.917  16.693  0.0185  0.0474 -0.4189
  630TMC3    O2 9339   1.535   1.153  16.291 -0.6785 -0.4058  0.2771
  631MPD2     C 9340   4.221   0.862  15.595 -0.2010 -0.2470  0.4385
  631MPD2    C1 9341   4.283   0.974  15.543  0.2563  0.2316  0.1105
  631MPD2    C2 9342   4.425   0.974  15.533 -0.1724  0.1035 -0.0104
  631MPD2    C3 9343   4.491   0.858  15.567 -0.8418 -0.0813 -0.5518
  631MPD2    C4 9344   4.426   0.744  15.605 -0.3280 -0.7139 -0.1955
  631MPD2    C5 9345   4.292   0.752  15.629 -0.7381 -0.6955  0.0652
  631MPD2     H 9346   4.480   1.062  15.502  1.5201 -0.5777  1.0915
  631MPD2    H1 9347   4.477   0.659  15.648 -0.0011 -1.7107 -2.5155
  631MPD2    H2 9348   4.113   0.852  15.606 -0.5946 -0.9897 -3.9470
  631MPD2    H3 9349   4.234   0.667  15.663 -1.1884 -0.8858 -1.1548
  631MPD2     N 9350   4.631   0.871  15.572  0.2398 -0.3083 -0.4694
  631MPD2    H5 9351   4.669   0.964  15.586  1.6685 -0.6310 -2.2722
  631MPD2    N1 9352   4.206   1.086  15.502  0.2122  0.5869 -0.0007
  631MPD2    H7 9353   4.106   1.073  15.486  0.3191  0.6618 -0.7266
  632TMC3    C1 9354   4.156   1.299  15.409  0.6616  0.3337 -0.8945
  632TMC3    C2 9355   4.041   1.299  15.478  0.0296  0.2045 -0.0912
  632TMC3    C3 9356   3.942   1.379  15.433  0.3162 -0.2165  0.7092
  632TMC3    C4 9357   4.167   1.353  15.283 -0.4398  0.2946 -0.0299
  632TMC3    C5 9358   4.059   1.426  15.237  0.1726  0.2388 -0.2307
  632TMC3    C6 9359   3.950   1.441  15.313  0.7275  0.7171 -0.2593
  632TMC3     C 9360   4.255   1.203  15.448 -0.2465  0.8948 -0.9510
  632TMC3     O 9361   4.363   1.222  15.401 -0.7463 -0.0762 -0.5432
  632TMC3     H 9362   4.027   1.263  15.579  2.0956 -3.0714 -0.9767
  632TMC3    H1 9363   4.260   1.341  15.228 -2.0041  1.6332 -2.9376
  632TMC3    H2 9364   3.874   1.510  15.277  0.3765 -0.7196 -2.2661
  632TMC3    C7 9365   4.066   1.493  15.115  0.3906  0.3061  0.5772
  632TMC3    C8 9366   3.863   1.440  15.538  0.4562 -0.1202  0.0816
  632TMC3    O1 9367   3.962   1.526  15.061 -0.0388 -0.2410 -0.2353
  632TMC3    O2 9368   3.818   1.367  15.619  0.6302  0.0292  0.4083
  633MPD2     C 9369   3.712   3.845  17.362  0.2882 -0.0896  0.0432
  633MPD2    C1 9370   3.738   3.830  17.227 -0.1323 -0.4405  0.9995
  633MPD2    C2 9371   3.743   3.709  17.176 -0.3270  0.8870 -0.1397
  633MPD2    C3 9372   3.732   3.590  17.252  0.7135  0.2829  0.6693
  633MPD2    C4 9373   3.722   3.611  17.387  0.4371  0.3011 -0.2709
  633MPD2    C5 9374   3.717   3.734  17.450 -0.4248  0.0331  0.7984
  633MPD2     H 9375   3.767   3.691  17.071 -2.4765  0.2837 -0.5411
  633MPD2    H1 9376   3.715   3.525  17.453  1.4203 -0.0896 -0.6605
  633MPD2    H2 9377   3.703   3.947  17.396  1.2238  0.2264 -0.6726
  633MPD2    H3 9378   3.722   3.748  17.557 -0.2390  0.7605  0.6958
  633MPD2     N 9379   3.737   3.460  17.191  0.2346 -0.1017  0.0455
  633MPD2    H5 9380   3.735   3.381  17.254  0.9397 -0.3044 -0.1878
  633MPD2    N1 9381   3.764   3.939  17.140 -0.1508 -0.0036  0.6445
  633MPD2    H7 9382   3.793   3.902  17.049 -1.3252 -1.6252  0.9385
  634TMC3    C1 9383   3.811   4.155  17.068 -0.4352  0.3651 -0.7314
  634TMC3    C2 9384   3.892   4.088  16.976 -0.4144  0.1691 -0.4518
  634TMC3    C3 9385   3.939   4.166  16.873  0.0699  1.1964 -0.1943
  634TMC3    C4 9386   3.781   4.292  17.066 -0.0625 -0.2805  0.5109
  634TMC3    C5 9387   3.843   4.362  16.969  0.3998 -0.8226  0.1221
  634TMC3    C6 9388   3.921   4.301  16.872 -0.2938 -0.9049 -0.1951
  634TMC3     C 9389   3.762   4.072  17.170  0.4546  0.5886  0.1633
  634TMC3     O 9390   3.740   4.124  17.282 -0.2799 -0.1172 -0.0461
  634TMC3     H 9391   3.907   3.981  16.971 -3.2388 -0.2971  1.1152
  634TMC3    H1 9392   3.705   4.334  17.131 -0.0906 -1.4000  1.2118
  634TMC3    H2 9393   3.973   4.369  16.807  0.5400  0.2256  1.6448
  634TMC3    C7 9394   3.774   4.487  16.922 -0.2973 -0.3635  0.0805
  634TMC3    C8 9395   3.979   4.089  16.755 -0.7190  1.1038  0.1743
  634TMC3    O1 9396   3.769   4.492  16.799  0.0177 -0.1193  0.1484
  634TMC3    O2 9397   3.941   3.973  16.745 -0.0594  0.7276  0.1860
  635TMC3    C1 9398   4.128   4.486   0.562 -0.7943  0.4742 -0.5547
  635TMC3    C2 9399   4.214   4.378   0.540  0.1808 -0.3227  0.0792
  635TMC3    C3 9400   4.231   4.285   0.638  0.2915 -0.2195  0.0769
  635TMC3    C4 9401   4.054   4.487   0.675  0.8701  0.5638 -0.2412
  635TMC3    C5 9402   4.067   4.386   0.765 -0.2030 -0.0478  0.3926
  635TMC3    C6 9403   4.158   4.287   0.756 -0.4599 -0.4388 -0.8879
  635TMC3     C 9404   4.158   4.611   0.494  0.6628 -0.0203 -0.2964
  635TMC3     O 9405   4.229   4.695   0.546  0.4456 -0.1175 -0.3705
  635TMC3     H 9406   4.274   4.379   0.450 -1.0036 -1.7737 -0.7260
  635TMC3    H1 9407   3.980   4.564   0.698  0.9820  1.1866 -1.9664
  635TMC3    H2 9408   4.177   4.211   0.830  2.4537  1.2743  0.1318
  635TMC3    C7 9409   3.980   4.386   0.881 -0.4468 -0.0844 -0.4760
  635TMC3    C8 9410   4.341   4.198   0.615 -0.6014  0.1237  0.3828
  635TMC3    O1 9411   3.907   4.482   0.892  0.4071  0.8144  0.1882
  635TMC3    O2 9412   4.418   4.223   0.529 -0.6717 -0.2939  0.4670
  636MPD2     C 9413   0.635   4.261  15.976 -0.7255  0.1209 -0.2962
  636MPD2    C1 9414   0.660   4.313  16.099 -0.0740  0.2247  0.2476
  636MPD2    C2 9415   0.750   4.243  16.181  0.1783 -0.5567  0.4201
  636MPD2    C3 9416   0.815   4.129  16.145  0.6908 -0.3000  0.1953
  636MPD2    C4 9417   0.779   4.076  16.021 -0.2199  0.5622  0.4036
  636MPD2    C5 9418   0.692   4.145  15.943 -0.1920  0.3011  0.1496
  636MPD2     H 9419   0.772   4.305  16.267 -2.4650  0.8288  0.0953
  636MPD2    H1 9420   0.817   3.978  15.995 -0.9978 -0.1683  1.9968
  636MPD2    H2 9421   0.568   4.312  15.908  0.1375  2.8879  0.9334
  636MPD2    H3 9422   0.674   4.104  15.844 -0.5902  0.8146  0.0070
  636MPD2     N 9423   0.896   4.064  16.238 -1.0720 -0.1334 -0.2933
  636MPD2    H5 9424   0.907   4.108  16.329  1.1389 -0.4265 -0.4220
  636MPD2    N1 9425   0.613   4.431  16.151 -0.4821 -0.0213 -0.2303
  636MPD2    H7 9426   0.645   4.463  16.241  2.4779 -0.4966 -1.1266
  637TMC3    C1 9427   1.018   3.893  16.344 -0.2091  0.5343 -0.5290
  637TMC3    C2 9428   0.950   3.945  16.450  0.0807 -0.8795 -0.1254
  637TMC3    C3 9429   1.012   3.996  16.560 -0.5352  0.2300 -0.1039
  637TMC3    C4 9430   1.152   3.893  16.349 -0.3609 -0.3560 -0.6422
  637TMC3    C5 9431   1.220   3.954  16.455 -0.0342  0.3039 -0.6378
  637TMC3    C6 9432   1.149   3.998  16.564  0.4391  0.2022 -0.4571
  637TMC3     C 9433   0.955   3.938  16.220  0.2938  0.1878  0.6528
  637TMC3     O 9434   0.997   3.891  16.113 -0.2502 -0.0056  0.5706
  637TMC3     H 9435   0.842   3.945  16.455  0.1325 -2.5384  1.2292
  637TMC3    H1 9436   1.207   3.851  16.265  0.4600  0.2132 -0.3955
  637TMC3    H2 9437   1.206   4.056  16.636 -0.4451 -0.2737  0.6299
  637TMC3    C7 9438   1.292   4.063  16.404  0.0803  0.2731  0.6798
  637TMC3    C8 9439   0.970   4.128  16.591  0.0617  0.1407 -1.1603
  637TMC3    O1 9440   1.328   4.142  16.487 -0.2679 -0.0483 -0.4245
  637TMC3    O2 9441   0.931   4.204  16.502 -0.4048  0.2718 -0.3881
  638MPD2     C 9442   0.811   3.185  14.789 -0.3860 -0.3823 -0.8324
  638MPD2    C1 9443   0.726   3.107  14.709  0.2942 -0.1176 -0.1950
  638MPD2    C2 9444   0.625   3.042  14.769 -1.1051  0.0064  0.4344
  638MPD2    C3 9445   0.607   3.057  14.905 -0.1371  0.0539  0.0874
  638MPD2    C4 9446   0.693   3.131  14.984  0.3883 -0.1342  0.4414
  638MPD2    C5 9447   0.791   3.196  14.923 -0.1764  0.0712 -0.4217
  638MPD2     H 9448   0.559   2.978  14.711  0.6252  0.9250 -2.5362
  638MPD2    H1 9449   0.688   3.132  15.092 -1.7024 -1.0237  0.3475
  638MPD2    H2 9450   0.883   3.246  14.735 -1.5433  1.9940  0.3346
  638MPD2    H3 9451   0.858   3.258  14.981  0.0759 -1.3376  0.8035
  638MPD2     N 9452   0.515   2.977  14.981 -0.2104  0.0771 -0.4197
  638MPD2    H5 9453   0.538   2.959  15.079  0.2751 -0.7961 -0.6905
  638MPD2    N1 9454   0.745   3.090  14.572 -0.2920 -0.1397 -0.0579
  638MPD2    H7 9455   0.681   3.030  14.522  1.2338 -0.2031 -1.9210
  639TMC3    C1 9456   0.340   2.818  15.011  0.1613  0.8419  0.1682
  639TMC3    C2 9457   0.214   2.777  14.988  0.0229 -0.2257 -0.0102
  639TMC3    C3 9458   0.171   2.675  15.071  0.4951  0.6148  0.2513
  639TMC3    C4 9459   0.416   2.748  15.103 -0.5147 -0.3284 -0.1801
  639TMC3    C5 9460   0.367   2.641  15.173  0.9496 -0.4295 -0.4689
  639TMC3    C6 9461   0.242   2.598  15.152  1.5711  0.3049  0.3666
  639TMC3     C 9462   0.399   2.920  14.925 -0.0329  0.6416 -0.0863
  639TMC3     O 9463   0.336   2.953  14.828 -0.1183 -0.5540  0.0059
  639TMC3     H 9464   0.143   2.825  14.922 -0.0694  0.2497  0.4343
  639TMC3    H1 9465   0.520   2.778  15.117 -1.1613  1.2010  1.2373
  639TMC3    H2 9466   0.203   2.521  15.217  2.9708 -0.3196  0.4741
  639TMC3    C7 9467   0.461   2.552  15.236  0.3028  0.4541  0.0754
  639TMC3    C8 9468   0.036   2.624  15.039 -0.3896  0.1437  1.0586
  639TMC3    O1 9469   0.419   2.465  15.312  0.0994  0.5648 -0.1513
  639TMC3    O2 9470   4.726   2.633  14.922 -0.3553  0.4837  0.0336
  640MPD2     C 9471   1.134   1.417   9.746 -0.1752 -0.1616  0.6041
  640MPD2    C1 9472   1.051   1.358   9.656  0.2027  0.1524  0.4103
  640MPD2    C2 9473   0.922   1.389   9.660  0.3217 -0.8850 -0.2535
  640MPD2    C3 9474   0.877   1.505   9.728 -0.4402 -0.7450  0.0733
  640MPD2    C4 9475   0.966   1.575   9.799  0.0993 -0.2302  0.2014
  640MPD2    C5 9476   1.097   1.529   9.819  0.1146  0.0831 -0.2989
  640MPD2     H 9477   0.851   1.338   9.595 -0.6324  1.3281 -0.9546
  640MPD2    H1 9478   0.938   1.667   9.847  1.7240  0.3426  0.0327
  640MPD2    H2 9479   1.237   1.385   9.755 -0.1627 -0.0941  0.6985
  640MPD2    H3 9480   1.165   1.582   9.885 -2.3642  0.1103  2.2601
  640MPD2     N 9481   0.751   1.567   9.712 -0.0025 -0.1816  0.2564
  640MPD2    H5 9482   0.730   1.640   9.780  2.0085 -0.3937  1.1155
  640MPD2    N1 9483   1.099   1.256   9.567  0.1539  0.0347 -0.2117
  640MPD2    H7 9484   1.187   1.215   9.595  0.6595  0.4273 -1.2344
  641TMC3    C1 9485   1.082   1.072   9.408 -0.7410 -0.4906 -0.0553
  641TMC3    C2 9486   1.164   0.995   9.483  0.3041  0.3480  0.1916
  641TMC3    C3 9487   1.209   0.875   9.434  0.6470  0.2782 -0.1913
  641TMC3    C4 9488   1.030   1.014   9.293  0.7510 -0.2232 -0.1751
  641TMC3    C5 9489   1.066   0.887   9.257  0.1149 -0.3179  0.0327
  641TMC3    C6 9490   1.169   0.823   9.317 -0.2734  0.3211  0.5698
  641TMC3     C 9491   1.026   1.195   9.464  0.0897  0.0784  0.2107
  641TMC3     O 9492   0.921   1.233   9.408 -0.5624 -0.4191  0.2763
  641TMC3     H 9493   1.213   1.030   9.573  0.8112  0.5058 -0.1449
  641TMC3    H1 9494   0.961   1.077   9.239 -1.5134 -1.7805  0.8809
  641TMC3    H2 9495   1.193   0.723   9.281  0.1575  0.6648 -0.0937
  641TMC3    C7 9496   0.970   0.842   9.154 -0.2533  0.1052 -0.1743
  641TMC3    C8 9497   1.297   0.785   9.511 -0.3810  0.1707  0.3904
  641TMC3    O1 9498   0.881   0.917   9.115  0.4107 -0.0214 -0.2389
  641TMC3    O2 9499   1.314   0.673   9.462  0.0951 -0.6638 -0.1170
  642TMC3    C1 9500   1.650   3.209  11.938 -0.3258 -0.1702  0.6965
  642TMC3    C2 9501   1.756   3.250  11.869  0.1871  0.0839 -0.1346
  642TMC3    C3 9502   1.865   3.173  11.882 -0.6382 -0.2739 -0.1381
  642TMC3    C4 9503   1.646   3.101  12.017  0.5219 -0.2215  0.0766
  642TMC3    C5 9504   1.753   3.020  12.024 -0.2000  0.9715  0.1676
  642TMC3    C6 9505   1.869   3.060  11.960 -0.0295 -0.5471  0.0799
  642TMC3     C 9506   1.532   3.298  11.933 -0.5511  0.9610 -0.1895
  642TMC3     O 9507   1.526   3.385  11.845 -0.8519 -0.2467 -0.3516
  642TMC3     H 9508   1.757   3.345  11.817 -1.1359 -0.8771 -1.9326
  642TMC3    H1 9509   1.549   3.076  12.059  1.1406 -2.0532  0.3764
  642TMC3    H2 9510   1.954   2.994  11.970  1.9881  1.8919 -1.3758
  642TMC3    C7 9511   1.747   2.887  12.084  0.4613 -0.2739  0.2531
  642TMC3    C8 9512   1.981   3.186  11.795  0.0613  0.0593  0.0748
  642TMC3    O1 9513   1.838   2.808  12.058 -0.1765  1.0706 -1.0162
  642TMC3    O2 9514   2.017   3.087  11.737  0.8528 -0.3588 -0.1727
  643TMC3    C1 9515   0.446   1.885   0.182 -0.4538 -0.5144 -0.0641
  643TMC3    C2 9516   0.375   2.005   0.164 -0.2514 -0.1630  0.1850
  643TMC3    C3 9517   0.443   2.101   0.087 -0.1262  0.3411  0.6068
  643TMC3    C4 9518   0.573   1.868   0.138 -0.0819 -0.2267  0.4862
  643TMC3    C5 9519   0.631   1.970   0.072  0.3722 -0.0584 -0.2914
  643TMC3    C6 9520   0.563   2.086   0.038  0.0636 -0.5638  0.2841
  643TMC3     C 9521   0.397   1.803   0.294  0.0606  0.2727 -0.1938
  643TMC3     O 9522   0.285   1.760   0.276 -0.2202  0.0827 -0.3695
  643TMC3     H 9523   0.275   2.018   0.203  0.3149 -0.6598  1.8021
  643TMC3    H1 9524   0.621   1.771   0.145 -1.4776 -0.9563 -0.0604
  643TMC3    H2 9525   0.619   2.168  17.710 -1.8396 -0.5092 -1.9938
  643TMC3    C7 9526   0.755   1.951  17.712  0.1516 -0.1637  0.0493
  643TMC3    C8 9527   0.381   2.234   0.074  0.0317 -0.2684 -0.0270
  643TMC3    O1 9528   0.781   2.041  17.633 -0.5538  0.1981 -0.8183
  643TMC3    O2 9529   0.262   2.237   0.084 -0.1715 -1.0040  0.2843
  644MPD2     C 9530   1.141   0.279   8.564  0.0836 -0.3879  0.9287
  644MPD2    C1 9531   1.205   0.344   8.662  0.3546  0.3588  0.1249
  644MPD2    C2 9532   1.271   0.269   8.765 -0.3632 -0.2646  0.2427
  644MPD2    C3 9533   1.259   0.126   8.758  0.2757 -0.0975  0.3444
  644MPD2    C4 9534   1.202   0.065   8.651 -0.1101 -0.2419 -0.0571
  644MPD2    C5 9535   1.148   0.141   8.551  0.1552 -0.2750  0.4040
  644MPD2     H 9536   1.312   0.318   8.853  2.1803  0.6851 -1.4717
  644MPD2    H1 9537   1.207   4.687   8.631  0.6614 -0.2359  0.1212
  644MPD2    H2 9538   1.099   0.340   8.485 -1.6503 -2.6142  0.1296
  644MPD2    H3 9539   1.099   0.080   8.476  0.5557 -0.3184  0.1737
  644MPD2     N 9540   1.308   0.053   8.868  0.1687  0.0284 -0.2939
  644MPD2    H5 9541   1.341   0.114   8.941  0.0598  1.4047 -1.3898
  644MPD2    N1 9542   1.194   0.487   8.670 -0.1035  0.5359 -0.1618
  644MPD2    H7 9543   1.119   0.529   8.616 -1.4930 -0.4004  1.0403
  645TMC3    C1 9544   1.386   4.613   9.007 -0.1466 -0.2312 -0.3834
  645TMC3    C2 9545   1.378   4.479   9.043  0.1733  0.4539  0.0996
  645TMC3    C3 9546   1.474   4.439   9.129 -0.4956 -0.1819  0.3187
  645TMC3    C4 9547   1.487   4.696   9.048  0.4362 -0.1404  0.1812
  645TMC3    C5 9548   1.585   4.645   9.131 -0.5748 -0.6099 -0.8495
  645TMC3    C6 9549   1.580   4.513   9.165 -0.1893  0.4671 -0.3434
  645TMC3     C 9550   1.307   4.646   8.890 -0.2666 -0.1181 -0.5683
  645TMC3     O 9551   1.272   4.549   8.823  0.2191 -0.4497  0.0058
  645TMC3     H 9552   1.308   4.409   8.999  0.7314  0.5321 -0.9242
  645TMC3    H1 9553   1.500   0.069   9.015  0.6192 -0.8826 -2.0587
  645TMC3    H2 9554   1.653   4.468   9.231 -2.2406 -2.2426  0.0410
  645TMC3    C7 9555   1.707   4.723   9.168  1.3238 -0.2644  0.7706
  645TMC3    C8 9556   1.472   4.303   9.185 -0.2855 -0.1283 -0.0316
  645TMC3    O1 9557   1.818   4.665   9.163 -0.1915 -0.3334 -1.3463
  645TMC3    O2 9558   1.579   4.251   9.211 -0.3051 -0.7249 -0.3637
  646MPD2     C 9559   0.670   1.867  14.871 -0.7514  0.2334  0.5154
  646MPD2    C1 9560   0.568   1.808  14.945 -0.0463 -0.8352  0.8689
  646MPD2    C2 9561   0.441   1.844  14.919  0.0907 -0.3124 -0.2418
  646MPD2    C3 9562   0.406   1.931  14.816 -0.1434 -0.1375 -0.7941
  646MPD2    C4 9563   0.508   1.994  14.740  0.3393  0.0069  0.6438
  646MPD2    C5 9564   0.637   1.955  14.770  0.0767  0.2872 -0.3942
  646MPD2     H 9565   0.355   1.801  14.969 -0.6935  0.9719 -0.4670
  646MPD2    H1 9566   0.484   2.053  14.653  1.5117  0.1286  0.3973
  646MPD2    H2 9567   0.772   1.834  14.883 -0.8667 -1.0140 -1.9667
  646MPD2    H3 9568   0.722   2.002  14.722  1.1488 -1.8723 -0.6370
  646MPD2     N 9569   0.269   1.952  14.791 -0.0595  0.3243  0.2970
  646MPD2    H5 9570   0.211   1.909  14.862 -0.8466  0.8148 -0.0592
  646MPD2    N1 9571   0.602   1.707  15.039 -0.9348  0.5508  1.0492
  646MPD2    H7 9572   0.700   1.680  15.048 -1.3773 -1.8577 -1.3108
  647TMC3    C1 9573   0.571   1.520  15.182 -0.2952  0.3092 -0.0810
  647TMC3    C2 9574   0.501   1.476  15.293  0.1793 -0.1313 -0.0808
  647TMC3    C3 9575   0.555   1.378  15.365 -0.6337 -0.5211 -0.5207
  647TMC3    C4 9576   0.681   1.456  15.131  0.1607 -0.6110 -0.5338
  647TMC3    C5 9577   0.729   1.354  15.212 -0.2980  0.0379  0.1497
  647TMC3    C6 9578   0.676   1.319  15.330 -0.2541 -0.3988  0.1249
  647TMC3     C 9579   0.508   1.632  15.109  0.0042 -0.3816  0.2176
  647TMC3     O 9580   0.389   1.646  15.126 -0.7519 -0.2421  0.1759
  647TMC3     H 9581   0.408   1.522  15.327  0.7727  0.6357  0.5009
  647TMC3    H1 9582   0.722   1.490  15.036 -0.7933 -1.2683 -1.1799
  647TMC3    H2 9583   0.736   1.258  15.397 -0.1327 -1.2356 -0.7430
  647TMC3    C7 9584   0.857   1.300  15.190 -0.1105 -0.3089  0.3141
  647TMC3    C8 9585   0.505   1.348  15.499 -0.1303  0.2410  0.6215
  647TMC3    O1 9586   0.927   1.278  15.286 -0.3467  0.2346 -0.3670
  647TMC3    O2 9587   0.575   1.269  15.559 -0.5473  0.2927 -0.4503
  648TMC3    C1 9588   4.561   4.171  16.191  0.0387  0.3539  0.2020
  648TMC3    C2 9589   4.588   4.067  16.104 -0.3220  0.6017 -0.1518
  648TMC3    C3 9590   4.549   4.090  15.971 -0.0847 -0.1868 -0.2654
  648TMC3    C4 9591   4.506   4.289  16.142 -0.1665 -0.7498 -0.2751
  648TMC3    C5 9592   4.468   4.304  16.008  0.4364  0.5026  0.1059
  648TMC3    C6 9593   4.498   4.201  15.921 -0.4577  0.3507 -0.1789
  648TMC3     C 9594   4.552   4.151  16.333  0.2363 -0.8438  0.3478
  648TMC3     O 9595   4.548   4.249  16.408  0.0178  0.2563  0.2311
  648TMC3     H 9596   4.632   3.973  16.134 -0.4486 -0.4447 -3.2289
  648TMC3    H1 9597   4.482   4.367  16.213  1.1695 -0.3805 -0.2302
  648TMC3    H2 9598   4.495   4.221  15.814 -3.4135  1.3336  0.1083
  648TMC3    C7 9599   4.400   4.421  15.961  0.1175 -0.4103 -0.0278
  648TMC3    C8 9600   4.588   3.991  15.873  0.3834 -0.3466  0.2896
  648TMC3    O1 9601   4.412   4.443  15.839  0.4100 -0.6951  0.3398
  648TMC3    O2 9602   4.533   3.994  15.766  0.5821  0.0185  0.8323
  649TMC3    C1 9603   3.695   0.408  12.956 -0.1601 -0.1072 -0.0377
  649TMC3    C2 9604   3.815   0.445  13.007  0.1597 -0.2904 -0.1716
  649TMC3    C3 9605   3.827   0.429  13.144 -0.3247  0.7594 -0.2259
  649TMC3    C4 9606   3.593   0.345  13.028 -0.3801 -0.5612  0.7524
  649TMC3    C5 9607   3.609   0.333  13.164 -0.2277 -0.1715  0.1236
  649TMC3    C6 9608   3.725   0.386  13.217  0.8945 -0.2568 -0.2915
  649TMC3     C 9609   3.672   0.409  12.816 -0.3861  0.0249  0.2614
  649TMC3     O 9610   3.558   0.403  12.781  0.1104  0.0212 -0.5149
  649TMC3     H 9611   3.881   0.510  12.950 -0.2835  1.3009  1.1333
  649TMC3    H1 9612   3.507   0.307  12.973  0.2043 -0.0078 -0.5547
  649TMC3    H2 9613   3.732   0.365  13.323  2.1866 -0.1942 -0.3733
  649TMC3    C7 9614   3.534   0.240  13.233 -0.0548  0.1761  0.2298
  649TMC3    C8 9615   3.938   0.492  13.220 -0.3508 -0.1736 -0.1369
  649TMC3    O1 9616   3.518   0.267  13.347  0.1941  0.1903 -0.2523
  649TMC3    O2 9617   3.911   0.527  13.335  0.2058 -0.1671 -0.3039
  650TMC3    C1 9618   1.016   2.467  12.817  0.3383  0.0706 -0.2467
  650TMC3    C2 9619   0.980   2.598  12.828 -0.0069  0.3644  0.0009
  650TMC3    C3 9620   1.003   2.679  12.719  1.1140 -0.5312 -0.6641
  650TMC3    C4 9621   1.082   2.413  12.703 -0.3300 -0.5125 -0.4344
  650TMC3    C5 9622   1.085   2.497  12.597 -0.1700  0.1496  0.9787
  650TMC3    C6 9623   1.046   2.630  12.597 -0.1563 -0.6014  0.4346
  650TMC3     C 9624   0.976   2.378  12.921  0.2772  0.4794 -0.8622
  650TMC3     O 9625   0.946   2.438  13.026 -0.6452 -0.6358  0.3464
  650TMC3     H 9626   0.941   2.633  12.923 -0.3145 -1.9552  0.7368
  650TMC3    H1 9627   1.107   2.309  12.686  4.0267  0.6510 -1.2507
  650TMC3    H2 9628   1.085   2.694  12.519 -1.4168 -0.2838  0.0720
  650TMC3    C7 9629   1.141   2.437  12.472  0.3202 -0.3058 -0.0580
  650TMC3    C8 9630   0.952   2.810  12.723 -0.3928 -0.0828  0.1480
  650TMC3    O1 9631   1.205   2.331  12.489 -0.0658  0.9738 -0.0617
  650TMC3    O2 9632   0.932   2.861  12.616 -0.1300 -0.2376  0.6280
  651MPD2     C 9633   0.422   3.401  10.823  0.7116 -0.2068 -0.9724
  651MPD2    C1 9634   0.360   3.483  10.729  0.0145 -0.2661  0.1114
  651MPD2    C2 9635   0.410   3.609  10.708  0.8526 -0.5324 -0.0086
  651MPD2    C3 9636   0.529   3.654  10.765  0.4613  0.2879 -0.4665
  651MPD2    C4 9637   0.607   3.564  10.835  0.0547  0.4718 -1.0451
  651MPD2    C5 9638   0.547   3.440  10.871  0.7451  0.2521  0.0137
  651MPD2     H 9639   0.349   3.671  10.644  1.2097  1.5866  1.7066
  651MPD2    H1 9640   0.699   3.594  10.884 -1.6000  0.7847  1.8677
  651MPD2    H2 9641   0.374   3.309  10.853 -1.7334  1.2060 -0.5272
  651MPD2    H3 9642   0.603   3.373  10.935 -0.2029 -0.8308 -0.3005
  651MPD2     N 9643   0.558   3.787  10.745  0.2958 -0.7883 -0.0767
  651MPD2    H5 9644   0.498   3.840  10.683  0.1356  0.7590  1.4127
  651MPD2    N1 9645   0.224   3.464  10.692 -0.7193  0.1366 -0.0097
  651MPD2    H7 9646   0.181   3.543  10.645 -1.4830 -0.3189 -0.0731
  652TMC3    C1 9647   0.817   4.179  10.726 -0.2095  0.3657  0.8682
  652TMC3    C2 9648   0.799   4.044  10.764  0.0600 -0.3772 -0.0194
  652TMC3    C3 9649   0.671   3.995  10.776 -0.0420 -0.2116 -0.0636
  652TMC3    C4 9650   0.706   4.255  10.695 -0.2024 -0.5916 -0.3427
  652TMC3    C5 9651   0.581   4.195  10.694 -0.3580 -0.0078 -0.3035
  652TMC3    C6 9652   0.563   4.067  10.741 -0.0647  0.2322 -0.7409
  652TMC3     C 9653   0.950   4.233  10.724  0.6659 -0.0307 -0.0644
  652TMC3     O 9654   1.040   4.152  10.738 -0.4486 -0.4138  0.1178
  652TMC3     H 9655   0.882   3.985  10.801 -1.0410 -0.9387  1.5670
  652TMC3    H1 9656   0.708   4.357  10.659 -3.0992 -0.7772 -1.0399
  652TMC3    H2 9657   0.460   4.036  10.760 -0.1455  1.4432  0.7992
  652TMC3    C7 9658   0.470   4.241  10.611 -0.5913 -0.3316 -1.0060
  652TMC3    C8 9659   0.647   3.861  10.828  0.2603 -0.1851 -0.3603
  652TMC3    O1 9660   0.405   4.160  10.547  0.9439  0.5471  0.2784
  652TMC3    O2 9661   0.715   3.825  10.921 -0.5943 -0.0922 -0.5775
  653MPD2     C 9662   3.444   3.767   0.037  0.1059 -0.7890 -0.7705
  653MPD2    C1 9663   3.455   3.875  17.671 -0.1529 -0.3519  0.7073
  653MPD2    C2 9664   3.433   3.856  17.531 -0.0073  1.0456  0.6415
  653MPD2    C3 9665   3.377   3.736  17.485 -0.4487  0.6582 -0.5393
  653MPD2    C4 9666   3.345   3.640  17.578 -0.3753 -0.4729 -0.8012
  653MPD2    C5 9667   3.403   3.650  17.704  0.2670 -0.0733  0.4901
  653MPD2     H 9668   3.458   3.938  17.464  2.2606  0.1247  0.3492
  653MPD2    H1 9669   3.290   3.549  17.560 -2.4004  0.5498  0.2332
  653MPD2    H2 9670   3.458   3.779   0.143 -0.4509  3.4412 -1.1668
  653MPD2    H3 9671   3.398   3.568   0.059  1.1418  0.1937  0.8544
  653MPD2     N 9672   3.343   3.715  17.349 -0.0456  0.1414 -0.5808
  653MPD2    H5 9673   3.344   3.800  17.293  0.1873  0.5967  0.1119
  653MPD2    N1 9674   3.503   4.002  17.715 -0.1285 -0.0503  0.3294
  653MPD2    H7 9675   3.542   4.065  17.646 -0.6391 -1.0366 -0.8646
  654TMC3    C1 9676   3.289   3.599  17.155 -0.1415 -0.5427 -0.1679
  654TMC3    C2 9677   3.229   3.714  17.116 -0.1776  0.1994  0.3425
  654TMC3    C3 9678   3.185   3.722  16.988 -0.2296  0.9778 -0.2170
  654TMC3    C4 9679   3.322   3.506  17.063  0.2348 -0.4657 -0.0326
  654TMC3    C5 9680   3.282   3.528  16.937 -0.7069 -0.3101  0.1085
  654TMC3    C6 9681   3.206   3.633  16.892  0.5820  1.1737 -0.0962
  654TMC3     C 9682   3.318   3.586  17.299 -0.1533  0.0242 -0.4643
  654TMC3     O 9683   3.301   3.472  17.338  0.1884  0.2224  0.1656
  654TMC3     H 9684   3.191   3.786  17.187 -3.4652 -0.3455 -0.8706
  654TMC3    H1 9685   3.401   3.437  17.091 -0.4032 -0.9576  0.5337
  654TMC3    H2 9686   3.148   3.640  16.801  3.1982 -0.9723 -1.9247
  654TMC3    C7 9687   3.309   3.415  16.843 -0.5115  1.2146 -0.1467
  654TMC3    C8 9688   3.072   3.804  16.958 -0.5521 -0.1381 -0.1021
  654TMC3    O1 9689   3.330   3.453  16.727 -0.0571 -0.2058  0.0188
  654TMC3    O2 9690   3.005   3.833  17.055 -0.1396  0.3227 -0.7147
  655MPD2     C 9691   0.229   4.287  16.014 -0.3753  0.0370  0.0184
  655MPD2    C1 9692   0.121   4.357  15.967  0.0431  0.5497  0.5215
  655MPD2    C2 9693   0.080   4.323  15.838 -0.0896  0.0746  0.2108
  655MPD2    C3 9694   0.132   4.213  15.771 -0.2103  0.3510  0.2896
  655MPD2    C4 9695   0.225   4.134  15.829 -0.0300  0.3340  0.3338
  655MPD2    C5 9696   0.276   4.177  15.941 -0.0900 -0.0506  0.0127
  655MPD2     H 9697   0.008   4.386  15.788  0.0181  0.7188  0.8704
  655MPD2    H1 9698   0.255   4.040  15.783  1.1042  0.9961 -0.2679
  655MPD2    H2 9699   0.272   4.300  16.113  0.9594  2.1024 -0.8088
  655MPD2    H3 9700   0.356   4.111  15.970 -0.4529 -0.9275 -0.9937
  655MPD2     N 9701   0.083   4.162  15.649  0.0342  0.2438  0.1956
  655MPD2    H5 9702   0.118   4.076  15.608 -1.8201 -0.8927  0.9809
  655MPD2    N1 9703   0.072   4.474  16.028  0.1704  0.2032  0.2376
  655MPD2    H7 9704   4.727   4.516  15.972 -1.2749 -1.2963  1.0559
  656TMC3    C1 9705   0.006   4.608  16.181 -0.2515 -0.3839 -0.3669
  656TMC3    C2 9706   4.659   4.605  16.299  0.4642  1.0648  0.2926
  656TMC3    C3 9707   4.565   4.699  16.311 -0.6597 -0.4354  0.5405
  656TMC3    C4 9708   4.712   4.696  16.083 -0.1550  0.3141  0.6092
  656TMC3    C5 9709   4.621   0.064  16.107  0.1231 -0.6850  0.1955
  656TMC3    C6 9710   4.543   0.069  16.219 -0.0310 -0.3877  0.2274
  656TMC3     C 9711   0.081   4.498  16.157 -0.0509  0.4925 -0.4007
  656TMC3     O 9712   0.120   4.426  16.248 -0.0459  0.4940  0.2969
  656TMC3     H 9713   4.658   4.517  16.362 -1.7087 -0.7851 -2.3209
  656TMC3    H1 9714   0.055   4.712  16.003  1.7942 -1.3739  2.0200
  656TMC3    H2 9715   4.456   0.134  16.221 -0.3018 -0.7507  0.2741
  656TMC3    C7 9716   4.585   0.136  15.985 -0.3716 -0.0329 -0.1708
  656TMC3    C8 9717   4.442   4.655  16.375  0.2973 -0.2744 -0.3705
  656TMC3    O1 9718   4.620   0.081  15.882  0.5966 -0.2355 -0.2843
  656TMC3    O2 9719   4.393   4.547  16.336 -0.5807 -0.1358  0.7243
  657TMC3    C1 9720   3.745   3.431  14.776 -0.3041 -0.5224 -0.2178
  657TMC3    C2 9721   3.744   3.462  14.907 -0.8026  0.2093  0.4610
  657TMC3    C3 9722   3.641   3.542  14.945  0.3299  0.4801 -0.1769
  657TMC3    C4 9723   3.661   3.475  14.675 -0.5699 -0.4026 -0.1714
  657TMC3    C5 9724   3.567   3.558  14.722 -0.1037  0.0728 -0.2520
  657TMC3    C6 9725   3.558   3.602  14.853  0.5674  0.4541 -0.4340
  657TMC3     C 9726   3.813   3.312  14.741 -0.9968  0.5475 -0.2969
  657TMC3     O 9727   3.754   3.225  14.677 -0.2542  0.0582 -0.5265
  657TMC3     H 9728   3.814   3.421  14.979 -0.5126  1.5521  0.9305
  657TMC3    H1 9729   3.670   3.437  14.574  3.0804  1.4291 -0.5224
  657TMC3    H2 9730   3.465   3.648  14.883 -0.5686 -2.1827  0.0736
  657TMC3    C7 9731   3.489   3.630  14.619  0.2946  1.1169 -0.3333
  657TMC3    C8 9732   3.601   3.550  15.084  0.6740  0.2035 -0.8261
  657TMC3    O1 9733   3.482   3.571  14.514  0.2902 -0.5227 -0.2799
  657TMC3    O2 9734   3.530   3.644  15.112 -0.4955  0.8324 -0.6446
  658MPD2     C 9735   0.458   3.998  15.132 -0.2239  0.3985  0.2723
  658MPD2    C1 9736   0.337   4.024  15.087  0.6716 -0.4893  0.2949
  658MPD2    C2 9737   0.318   4.007  14.952 -0.1608  0.2269  0.0458
  658MPD2    C3 9738   0.422   3.971  14.867 -0.0429  0.5569 -0.1504
  658MPD2    C4 9739   0.541   3.936  14.920  0.6814  0.7658  0.5712
  658MPD2    C5 9740   0.562   3.946  15.055  0.1850 -0.1381 -0.0918
  658MPD2     H 9741   0.218   4.004  14.909 -0.4431 -1.3727  0.8205
  658MPD2    H1 9742   0.618   3.895  14.856 -1.6650 -0.0060 -1.7734
  658MPD2    H2 9743   0.469   4.008  15.239 -0.3046 -1.8095  0.4921
  658MPD2    H3 9744   0.656   3.916  15.099  0.7518 -0.8927 -1.7909
  658MPD2     N 9745   0.387   3.956  14.729 -0.0515  0.4266 -1.3374
  658MPD2    H5 9746   0.290   3.964  14.701 -0.3297  0.0614 -0.4801
  658MPD2    N1 9747   0.233   4.063  15.172  0.1840  0.7256 -0.6366
  658MPD2    H7 9748   0.258   4.088  15.268  0.0665 -1.9034  0.0955
  659TMC3    C1 9749   0.002   4.105  15.244 -0.4095 -0.0554  0.4471
  659TMC3    C2 9750   0.045   4.123  15.372  0.6269  0.0237  0.3367
  659TMC3    C3 9751   4.674   4.136  15.465  0.6964  0.5523  0.0469
  659TMC3    C4 9752   4.603   4.095  15.206 -0.3682  0.0037  0.3747
  659TMC3    C5 9753   4.511   4.102  15.302  0.6862  0.3403  0.1461
  659TMC3    C6 9754   4.537   4.130  15.434  0.2061 -0.3339 -1.0453
  659TMC3     C 9755   0.100   4.068  15.139 -0.0961  0.2893  0.0217
  659TMC3     O 9756   0.053   4.062  15.027 -0.3912 -0.2988 -0.5862
  659TMC3     H 9757   0.143   4.140  15.415  0.4279  1.3590  0.2663
  659TMC3    H1 9758   4.581   4.062  15.105  0.9050  3.3368 -0.9910
  659TMC3    H2 9759   4.462   4.166  15.503  0.5573 -0.3827 -0.6437
  659TMC3    C7 9760   4.372   4.123  15.251  0.5166  0.3418 -0.9481
  659TMC3    C8 9761   4.700   4.212  15.584 -0.3451  0.5243 -0.1130
  659TMC3    O1 9762   4.286   4.113  15.332 -0.4610  0.3677  0.2182
  659TMC3    O2 9763   4.614   4.287  15.630 -0.5891  0.3068 -0.2023
  660MPD2     C 9764   3.175   2.923  12.390  0.0181 -0.1612 -0.1574
  660MPD2    C1 9765   3.062   2.999  12.378 -0.2121 -0.2179 -0.7550
  660MPD2    C2 9766   2.945   2.938  12.418 -0.4270  0.1880  0.6110
  660MPD2    C3 9767   2.946   2.810  12.471 -0.4344  0.4455  0.3583
  660MPD2    C4 9768   3.056   2.739  12.481  0.5088 -0.0381  0.1486
  660MPD2    C5 9769   3.173   2.793  12.446 -0.1965 -0.7108 -0.4520
  660MPD2     H 9770   2.850   2.989  12.413  0.0515  1.1457  1.2746
  660MPD2    H1 9771   3.069   2.644  12.532 -1.0399 -1.4165 -2.0480
  660MPD2    H2 9772   3.273   2.963  12.367 -0.8213  1.8013 -0.3885
  660MPD2    H3 9773   3.267   2.742  12.463 -1.2921 -1.1247  4.4308
  660MPD2     N 9774   2.831   2.745  12.519  0.4036  0.5216  0.2867
  660MPD2    H5 9775   2.846   2.660  12.571 -1.3969 -0.2587 -0.4674
  660MPD2    N1 9776   3.069   3.136  12.337  0.6071 -0.5707  0.2075
  660MPD2    H7 9777   3.160   3.159  12.299 -0.4309  0.9748 -1.3241
  661TMC3    C1 9778   2.996   3.345  12.263  0.3792 -0.2902 -0.0552
  661TMC3    C2 9779   3.086   3.335  12.160  0.1499  0.0337 -0.1295
  661TMC3    C3 9780   3.068   3.410  12.049 -0.2381  0.5200 -0.2755
  661TMC3    C4 9781   2.892   3.435  12.259  0.2131  0.3310  0.4275
  661TMC3    C5 9782   2.867   3.504  12.146  0.2288 -0.2057 -0.4001
  661TMC3    C6 9783   2.957   3.500  12.048 -0.0171 -0.0393  0.3582
  661TMC3     C 9784   2.965   3.223  12.329 -0.0487  0.1006  0.3962
  661TMC3     O 9785   2.850   3.212  12.371  0.1388 -0.1195  0.2303
  661TMC3     H 9786   3.168   3.264  12.162 -0.2254 -0.5460 -4.0847
  661TMC3    H1 9787   2.809   3.433  12.329  1.3855  1.3334  1.8592
  661TMC3    H2 9788   2.937   3.567  11.965  0.2439 -1.1974 -0.6442
  661TMC3    C7 9789   2.738   3.479  12.094 -0.1157  0.0701 -0.1041
  661TMC3    C8 9790   3.154   3.396  11.927 -0.3011 -0.6885 -0.2406
  661TMC3    O1 9791   2.727   3.427  11.986 -0.3843  0.0230  0.1225
  661TMC3    O2 9792   3.218   3.291  11.916  0.6431  0.0517 -0.1932
  662MPD2     C 9793   2.852   2.559  17.215  0.1462 -0.3617 -0.6091
  662MPD2    C1 9794   2.734   2.491  17.257  0.6832  0.3617  0.3149
  662MPD2    C2 9795   2.631   2.562  17.312  0.3416  0.0253 -0.3484
  662MPD2    C3 9796   2.629   2.699  17.332  0.3139 -0.3215  0.0364
  662MPD2    C4 9797   2.751   2.763  17.303  0.4560 -0.0702  0.0264
  662MPD2    C5 9798   2.858   2.695  17.244  0.1040 -1.1713 -0.2321
  662MPD2     H 9799   2.541   2.508  17.340 -0.3539  1.9254  1.1115
  662MPD2    H1 9800   2.769   2.869  17.316  1.0272 -0.1615  0.0140
  662MPD2    H2 9801   2.945   2.512  17.184 -0.4765  0.2580 -3.3526
  662MPD2    H3 9802   2.941   2.754  17.207  0.8282 -2.4425 -0.6352
  662MPD2     N 9803   2.521   2.762  17.404  0.0247 -0.2572  0.4328
  662MPD2    H5 9804   2.522   2.862  17.420 -0.9260 -0.1250 -0.2994
  662MPD2    N1 9805   2.716   2.351  17.254  0.2958 -0.4053  0.3950
  662MPD2    H7 9806   2.626   2.326  17.293  0.1589  0.5675  0.7135
  663TMC3    C1 9807   2.781   2.124  17.227  0.5371 -0.5716  0.2030
  663TMC3    C2 9808   2.691   2.103  17.323 -0.2584  0.1552  0.2924
  663TMC3    C3 9809   2.585   2.023  17.296 -0.8952  0.1274  0.1993
  663TMC3    C4 9810   2.783   2.053  17.109  0.7937  0.3009  0.8148
  663TMC3    C5 9811   2.691   1.953  17.100 -0.1794  0.1604  0.4073
  663TMC3    C6 9812   2.597   1.932  17.193 -0.3433 -0.1727 -0.1656
  663TMC3     C 9813   2.810   2.268  17.202  0.4325 -0.7204 -0.3580
  663TMC3     O 9814   2.908   2.286  17.126 -0.0487  0.5343  0.4292
  663TMC3     H 9815   2.683   2.163  17.413 -1.4081 -0.3710  0.5448
  663TMC3    H1 9816   2.837   2.095  17.024 -0.6394  1.2241  0.3632
  663TMC3    H2 9817   2.507   1.872  17.182  0.4105 -1.1425 -1.1215
  663TMC3    C7 9818   2.716   1.843  17.008 -0.0799  0.1953 -0.3917
  663TMC3    C8 9819   2.541   1.951  17.415 -0.2077  0.0472 -0.2111
  663TMC3    O1 9820   2.750   1.883  16.899  0.3733  0.1841 -0.3787
  663TMC3    O2 9821   2.539   1.831  17.405  0.2020 -0.6359  0.2371
  664MPD2     C 9822   0.622   0.615  17.314  0.1548  0.8816 -0.0137
  664MPD2    C1 9823   0.711   0.637  17.418 -0.6508 -0.4634 -0.6028
  664MPD2    C2 9824   0.669   0.614  17.549  0.1279  0.2360 -0.2724
  664MPD2    C3 9825   0.535   0.581  17.581  0.7170  0.1100 -0.4756
  664MPD2    C4 9826   0.448   0.574  17.469  0.0446 -0.2080 -0.1777
  664MPD2    C5 9827   0.493   0.589  17.341 -0.2256  0.8319  0.5704
  664MPD2     H 9828   0.738   0.636  17.630 -0.9217  0.5219  0.5412
  664MPD2    H1 9829   0.342   0.553  17.478  0.1608 -0.4712  0.6439
  664MPD2    H2 9830   0.648   0.615  17.208 -3.5634  2.8190 -0.9140
  664MPD2    H3 9831   0.418   0.584  17.263 -1.5850  1.4167  1.8349
  664MPD2     N 9832   0.504   0.555  17.715 -0.1418  0.1001  0.2482
  664MPD2    H5 9833   0.574   0.571   0.070  0.2564 -2.1467  0.3514
  664MPD2    N1 9834   0.843   0.670  17.394  0.2291 -0.1706 -0.4824
  664MPD2    H7 9835   0.912   0.656  17.467 -0.2110 -2.7325 -0.5461
  665TMC3    C1 9836   0.399   0.458   0.171 -0.4258 -0.8920  0.3281
  665TMC3    C2 9837   0.337   0.344   0.201  0.3859 -0.8132  0.7464
  665TMC3    C3 9838   0.333   0.311   0.333 -0.1278 -0.3507  0.2359
  665TMC3    C4 9839   0.459   0.547   0.255 -0.7492 -0.0683 -0.1253
  665TMC3    C5 9840   0.459   0.511   0.393 -0.3060 -0.1675  0.5557
  665TMC3    C6 9841   0.388   0.398   0.430 -0.0215 -0.1269 -0.3166
  665TMC3     C 9842   0.387   0.500   0.038 -0.9803 -0.5158  0.1941
  665TMC3     O 9843   0.294   0.455  17.687  0.3294  0.2495 -0.8134
  665TMC3     H 9844   0.280   0.293   0.124  0.1896 -0.2989  0.5561
  665TMC3    H1 9845   0.505   0.639   0.221  1.0715 -0.2893  1.7112
  665TMC3    H2 9846   0.371   0.387   0.537 -0.2070 -0.7110 -0.4020
  665TMC3    C7 9847   0.484   0.615   0.489 -0.0341  0.2668  0.1079
  665TMC3    C8 9848   0.232   0.222   0.398  0.2416 -0.6281 -0.0290
  665TMC3    O1 9849   0.494   0.581   0.605  0.0206 -0.3412  0.4296
  665TMC3    O2 9850   0.220   0.227   0.520  0.3486 -0.9246  0.4940
  666TMC3    C1 9851   0.011   1.372  10.680  0.0552  0.4892  0.2634
  666TMC3    C2 9852   0.064   1.257  10.614 -0.3636 -0.0781  0.1944
  666TMC3    C3 9853   0.127   1.278  10.492 -0.6550  0.9515  0.7867
  666TMC3    C4 9854   0.029   1.490  10.630 -0.3902 -0.0379 -0.6400
  666TMC3    C5 9855   0.103   1.508  10.517  0.1756 -0.3327 -0.0557
  666TMC3    C6 9856   0.140   1.404  10.437 -0.1665 -0.0187 -0.2430
  666TMC3     C 9857   0.009   1.362  10.825  0.8519 -0.3980  0.4842
  666TMC3     O 9858   0.040   1.462  10.885 -0.4442  0.7221  0.3958
  666TMC3     H 9859   0.072   1.156  10.654  1.4758  0.8522  2.1508
  666TMC3    H1 9860   0.005   1.582  10.683  0.3133 -1.0470  1.4144
  666TMC3    H2 9861   0.180   1.424  10.338 -0.3973  1.7770  0.0144
  666TMC3    C7 9862   0.132   1.646  10.473 -0.2351  0.0914 -0.4924
  666TMC3    C8 9863   0.171   1.162  10.421  0.4103 -0.0508  0.5592
  666TMC3    O1 9864   0.047   1.732  10.503 -0.4739  0.1732  0.3607
  666TMC3    O2 9865   0.147   1.056  10.466  0.5618  0.3597  0.1661
  667MPD2     C 9866   1.888   0.773  14.707  0.2320  0.0351  1.2328
  667MPD2    C1 9867   1.925   0.663  14.784 -0.7404 -0.6585 -0.2857
  667MPD2    C2 9868   1.903   0.533  14.743  0.6925 -0.6385 -0.0462
  667MPD2    C3 9869   1.836   0.514  14.623  0.1015 -0.2801  0.0534
  667MPD2    C4 9870   1.818   0.624  14.540  0.3262 -0.3497  0.2048
  667MPD2    C5 9871   1.840   0.755  14.585  0.6011 -0.2804 -0.2756
  667MPD2     H 9872   1.919   0.452  14.813  0.8879  0.9441  1.7398
  667MPD2    H1 9873   1.764   0.610  14.447 -1.1991 -1.5162  1.2601
  667MPD2    H2 9874   1.891   0.877  14.737  1.5912  0.9129 -1.8869
  667MPD2    H3 9875   1.810   0.837  14.521  1.1650  1.0034  1.1184
  667MPD2     N 9876   1.782   0.389  14.579 -0.3808 -0.3268  0.2438
  667MPD2    H5 9877   1.726   0.388  14.495  0.1069 -0.4529 -0.0778
  667MPD2    N1 9878   1.997   0.689  14.908  0.2434  0.2762 -0.0451
  667MPD2    H7 9879   2.031   0.605  14.954 -1.7392  0.4130  1.6797
  668TMC3    C1 9880   2.091   0.801  15.097 -0.3560  0.2421 -0.3306
  668TMC3    C2 9881   2.173   0.901  15.132 -0.9879 -0.1200 -0.4486
  668TMC3    C3 9882   2.203   0.917  15.265 -0.6586 -0.1778  0.3262
  668TMC3    C4 9883   2.050   0.710  15.193 -0.2541  0.2814  0.3703
  668TMC3    C5 9884   2.088   0.731  15.321  0.2549 -0.1879 -0.4417
  668TMC3    C6 9885   2.166   0.835  15.365 -0.3755 -0.6333 -0.4681
  668TMC3     C 9886   2.021   0.812  14.964  0.2239  0.1706 -0.1527
  668TMC3     O 9887   1.984   0.925  14.936 -0.6317 -0.3166 -0.3105
  668TMC3     H 9888   2.177   0.986  15.066 -0.2695  0.4808  0.3657
  668TMC3    H1 9889   1.987   0.625  15.168 -1.5722  0.4215  3.3140
  668TMC3    H2 9890   2.222   0.835  15.458 -1.3857  0.8345  0.1271
  668TMC3    C7 9891   2.061   0.620  15.415 -0.4943 -0.3868 -0.3185
  668TMC3    C8 9892   2.250   1.043  15.314  0.1309 -0.4076  0.9254
  668TMC3    O1 9893   2.006   0.522  15.365 -0.3749 -0.4202  0.3536
  668TMC3    O2 9894   2.239   1.064  15.435  0.2773 -0.1970  0.3245
  669TMC3    C1 9895   0.266   1.095  14.748  0.3090 -0.1516 -0.4871
  669TMC3    C2 9896   0.143   1.093  14.689  0.2102 -0.6654 -0.1103
  669TMC3    C3 9897   0.132   1.158  14.573  0.7833  0.2912  0.8353
  669TMC3    C4 9898   0.373   1.154  14.688 -0.6526 -0.3977 -0.4703
  669TMC3    C5 9899   0.356   1.225  14.567 -0.0627 -0.2799  0.1413
  669TMC3    C6 9900   0.233   1.230  14.509  0.0315  0.6466 -0.2919
  669TMC3     C 9901   0.280   1.010  14.858  0.3364 -0.6011  0.0548
  669TMC3     O 9902   0.185   0.972  14.930 -0.4057 -0.7350 -0.1743
  669TMC3     H 9903   0.068   1.033  14.738  0.2212 -0.2199  0.4481
  669TMC3    H1 9904   0.465   1.153  14.745 -0.4472 -0.6516 -0.8055
  669TMC3    H2 9905   0.211   1.277  14.414 -0.1299  0.2533 -0.4519
  669TMC3    C7 9906   0.482   1.264  14.498  0.3036 -0.1371  1.1567
  669TMC3    C8 9907   0.007   1.150  14.514 -0.3870 -0.5946 -0.5063
  669TMC3    O1 9908   0.588   1.232  14.548  0.4222  0.8249  0.3491
  669TMC3    O2 9909   4.663   1.049  14.522  0.0855  0.4641  0.0818
  670MPD2     C 9910   3.063   2.684  13.387 -0.7246  0.8027 -0.5869
  670MPD2    C1 9911   3.141   2.710  13.499  0.3403 -0.1935  0.7646
  670MPD2    C2 9912   3.106   2.663  13.623 -1.0214  0.1610  0.0614
  670MPD2    C3 9913   2.995   2.581  13.637 -0.2433 -0.5204 -0.9725
  670MPD2    C4 9914   2.916   2.565  13.523 -0.3480  0.0263 -0.2691
  670MPD2    C5 9915   2.948   2.610  13.403 -0.5441 -0.0898 -0.1687
  670MPD2     H 9916   3.172   2.683  13.707 -1.0753 -0.3422  0.2256
  670MPD2    H1 9917   2.826   2.505  13.532 -1.9370  2.7040  1.7210
  670MPD2    H2 9918   3.089   2.726  13.290  1.5189 -0.5293 -0.5459
  670MPD2    H3 9919   2.871   2.594  13.329 -1.3802 -1.1570  0.9264
  670MPD2     N 9920   2.972   2.522  13.760 -0.3930 -0.4732 -0.2886
  670MPD2    H5 9921   3.040   2.547  13.831 -1.2079  0.6649  0.0982
  670MPD2    N1 9922   3.262   2.788  13.483  0.4937  0.1165 -1.0138
  670MPD2    H7 9923   3.316   2.806  13.567  1.3401  1.3930 -1.8250
  671TMC3    C1 9924   2.895   2.388  13.922 -0.1489  0.2047 -0.7959
  671TMC3    C2 9925   3.004   2.435  13.985  0.3709  0.6605 -0.0240
  671TMC3    C3 9926   3.079   2.338  14.050  0.6059  0.1733  0.0651
  671TMC3    C4 9927   2.860   2.254  13.937  0.7794 -0.2838 -0.0480
  671TMC3    C5 9928   2.950   2.163  13.979 -0.6387  0.2681 -0.1798
  671TMC3    C6 9929   3.059   2.201  14.048 -0.8035 -0.0166 -0.1911
  671TMC3     C 9930   2.879   2.430  13.785 -0.1833 -0.0669  0.6036
  671TMC3     O 9931   2.792   2.379  13.717 -0.2400 -0.1835 -0.3642
  671TMC3     H 9932   3.022   2.541  13.999 -0.4804  0.5809  1.6464
  671TMC3    H1 9933   2.777   2.213  13.881  0.0886  0.6798  0.2688
  671TMC3    H2 9934   3.131   2.126  14.080  2.0997  2.7378 -0.2766
  671TMC3    C7 9935   3.004   2.087  13.868  0.1571 -0.2849  0.6560
  671TMC3    C8 9936   3.211   2.381  14.104 -0.2835  0.0141 -0.1043
  671TMC3    O1 9937   3.126   2.078  13.863  0.1417  0.1634 -0.1930
  671TMC3    O2 9938   3.260   2.478  14.055 -0.5058 -0.5161 -0.0658
  672MPD2     C 9939   3.292   3.755   1.515  0.6253  0.0826  0.6566
  672MPD2    C1 9940   3.211   3.851   1.448  0.0113  0.4378  0.4367
  672MPD2    C2 9941   3.268   3.942   1.368  0.9188  0.3044 -0.4376
  672MPD2    C3 9942   3.406   3.936   1.332 -0.3093 -0.0798  0.7026
  672MPD2    C4 9943   3.483   3.838   1.385 -0.1782 -0.8982  0.0612
  672MPD2    C5 9944   3.427   3.754   1.481 -1.2070 -0.3300  0.1661
  672MPD2     H 9945   3.202   4.017   1.325  1.6190  1.1171 -0.0981
  672MPD2    H1 9946   3.582   3.821   1.344  0.3850  0.7744  0.7114
  672MPD2    H2 9947   3.254   3.694   1.595 -0.9180  1.2695  0.8353
  672MPD2    H3 9948   3.485   3.676   1.529 -0.0995  0.6352  0.3829
  672MPD2     N 9949   3.466   4.033   1.250 -0.1737  0.0477  0.0427
  672MPD2    H5 9950   3.564   4.023   1.228  0.0024 -0.4158  1.0755
  672MPD2    N1 9951   3.072   3.852   1.458 -0.0544  0.3776 -0.0292
  672MPD2    H7 9952   3.018   3.921   1.407  0.7487  0.9897 -0.0438
  673TMC3    C1 9953   2.864   3.744   1.463 -0.3084  0.4353  0.2302
  673TMC3    C2 9954   2.816   3.616   1.426  0.6747 -0.1877  0.7806
  673TMC3    C3 9955   2.694   3.604   1.371  0.0435  0.4736 -0.6249
  673TMC3    C4 9956   2.791   3.856   1.453 -0.0123  0.3875 -0.3157
  673TMC3    C5 9957   2.663   3.837   1.402  0.0846  0.1953  0.1553
  673TMC3    C6 9958   2.614   3.714   1.360  1.0438  0.7520 -0.1973
  673TMC3     C 9959   2.999   3.746   1.512  0.0822  0.7847  0.2662
  673TMC3     O 9960   3.035   3.648   1.582  0.7046  0.4396  0.4426
  673TMC3     H 9961   2.869   3.524   1.443 -0.2930 -1.0405 -0.7832
  673TMC3    H1 9962   2.831   3.950   1.487  1.7393 -0.9746  1.4111
  673TMC3    H2 9963   2.516   3.703   1.315  0.5379  2.0390  0.6024
  673TMC3    C7 9964   2.581   3.951   1.363 -0.4227 -0.9779 -0.2977
  673TMC3    C8 9965   2.674   3.500   1.274 -0.2156  0.6486  0.0240
  673TMC3    O1 9966   2.464   3.941   1.389  0.0104  0.9573 -0.2464
  673TMC3    O2 9967   2.557   3.464   1.249 -0.2357  0.6491  0.6851
  674MPD2     C 9968   3.493   3.437   0.308  0.2154 -0.3690 -0.2070
  674MPD2    C1 9969   3.402   3.343   0.261  0.0880 -0.0772  0.2203
  674MPD2    C2 9970   3.273   3.347   0.308 -0.1381  0.1913  0.5132
  674MPD2    C3 9971   3.235   3.445   0.397  0.2030 -0.2245  0.8836
  674MPD2    C4 9972   3.328   3.539   0.440  0.9455 -0.6381 -0.1529
  674MPD2    C5 9973   3.457   3.539   0.392  0.2603 -0.3111  0.4169
  674MPD2     H 9974   3.206   3.265   0.284 -0.6454  0.4470  1.0693
  674MPD2    H1 9975   3.306   3.630   0.496 -2.1315 -0.4548 -1.6605
  674MPD2    H2 9976   3.592   3.447   0.264 -0.1137  1.1459 -0.5845
  674MPD2    H3 9977   3.530   3.614   0.417 -0.6000  0.1332  1.6378
  674MPD2     N 9978   3.101   3.437   0.451 -0.5858 -0.3831  0.1819
  674MPD2    H5 9979   3.040   3.359   0.427  0.8051 -1.7776  1.2052
  674MPD2    N1 9980   3.450   3.247   0.166 -0.6195  0.4456  0.5315
  674MPD2    H7 9981   3.551   3.245   0.168 -0.6261  0.0894  0.3437
  675TMC3    C1 9982   3.434   3.065   0.012  0.0906  0.4141  0.4007
  675TMC3    C2 9983   3.351   2.960  17.686  0.0497 -0.1542  0.3143
  675TMC3    C3 9984   3.405   2.857  17.615  0.1273 -0.6205  0.4862
  675TMC3    C4 9985   3.568   3.070  17.700 -0.4560  0.1257 -0.1271
  675TMC3    C5 9986   3.616   2.961  17.627 -0.2613 -0.5235 -0.3032
  675TMC3    C6 9987   3.539   2.862  17.576 -0.5373 -0.0947  0.9470
  675TMC3     C 9988   3.374   3.141   0.122 -0.6334 -0.8212 -0.1464
  675TMC3     O 9989   3.263   3.106   0.161  0.1425 -0.0856  0.1778
  675TMC3     H 9990   3.244   2.975  17.687 -0.2898 -2.4747 -0.1342
  675TMC3    H1 9991   3.637   3.141   0.027 -0.3312  0.3153 -0.6315
  675TMC3    H2 9992   3.578   2.779  17.517  0.1860  1.8286 -1.2822
  675TMC3    C7 9993   3.765   2.941  17.611 -0.2628 -0.4186 -0.0289
  675TMC3    C8 9994   3.318   2.766  17.558 -0.0326  0.1697 -0.0635
  675TMC3    O1 9995   3.797   2.853  17.536 -0.0698 -0.2117  0.2120
  675TMC3    O2 9996   3.344   2.733  17.444 -0.2175 -0.6644  0.0725
  676MPD2     C 9997   1.888   1.972  10.827 -0.2591  1.0583  0.2160
  676MPD2    C1 9998   1.790   1.927  10.912 -0.2165  0.0129  0.1263
  676MPD2    C2 9999   1.703   1.829  10.871 -0.1963 -0.0825  0.1881
  676MPD2    C310000   1.707   1.792  10.743 -0.2066 -0.3039 -0.1044
  676MPD2    C410001   1.801   1.841  10.660  0.1739 -0.1561 -0.1609
  676MPD2    C510002   1.900   1.923  10.698  0.4959  0.0023  0.0122
  676MPD2     H10003   1.630   1.789  10.941 -2.3950  0.3040 -1.8698
  676MPD2    H110004   1.808   1.811  10.556 -0.6581 -1.2502  0.0996
  676MPD2    H210005   1.967   2.034  10.867 -0.2530 -0.0158  1.9050
  676MPD2    H310006   1.989   1.949  10.642  1.0308  0.7369  1.1932
  676MPD2     N10007   1.617   1.696  10.688 -0.8079  0.1291 -0.1783
  676MPD2    H510008   1.630   1.682  10.589 -2.5319  0.9294 -0.5313
  676MPD2    N110009   1.772   1.974  11.038 -0.4029 -0.3223 -0.6847
  676MPD2    H710010   1.704   1.923  11.093  0.0883 -0.8278 -0.5508
  677TMC3    C110011   1.783   2.095  11.230  0.1214 -0.4640 -0.1838
  677TMC3    C210012   1.739   1.979  11.287  0.4339  0.5191  0.7500
  677TMC3    C310013   1.646   1.985  11.392 -0.7262 -0.3295  0.3933
  677TMC3    C410014   1.766   2.218  11.285  0.3423  0.4490  0.4122
  677TMC3    C510015   1.697   2.220  11.400 -0.3400  0.5050  0.1354
  677TMC3    C610016   1.627   2.112  11.451 -1.0082  0.4019 -0.0480
  677TMC3     C10017   1.824   2.088  11.090 -0.1348 -0.1365  0.4811
  677TMC3     O10018   1.902   2.171  11.043 -0.5390  0.3499  0.8625
  677TMC3     H10019   1.770   1.880  11.253 -0.3776  0.2536  0.7794
  677TMC3    H110020   1.812   2.305  11.241 -0.2765  1.6971  2.2673
  677TMC3    H210021   1.575   2.112  11.546  0.9296 -1.4985  1.0279
  677TMC3    C710022   1.693   2.337  11.480  0.4897  0.1026  0.4992
  677TMC3    C810023   1.637   1.883  11.489 -0.0356 -0.2707  0.4830
  677TMC3    O110024   1.636   2.327  11.588  0.1135  0.2583  0.0500
  677TMC3    O210025   1.746   1.842  11.530  0.0760  0.0526  0.0688
  678MPD2     C10026   1.472   1.619   1.395  0.0481 -0.4492  0.0151
  678MPD2    C110027   1.473   1.558   1.273 -0.8083 -0.4837 -0.1269
  678MPD2    C210028   1.408   1.435   1.266 -0.0521 -0.2709  0.2877
  678MPD2    C310029   1.309   1.400   1.360 -0.0558  0.3543 -0.1299
  678MPD2    C410030   1.303   1.473   1.471 -0.0863 -0.2877 -0.1003
  678MPD2    C510031   1.394   1.569   1.490  0.0240 -0.2844 -0.4018
  678MPD2     H10032   1.411   1.375   1.175  3.6314  0.6022 -0.1332
  678MPD2    H110033   1.235   1.444   1.550 -2.6706 -1.7777 -2.8685
  678MPD2    H210034   1.536   1.705   1.413 -1.5962  0.9929 -1.0134
  678MPD2    H310035   1.401   1.603   1.593 -0.4468  0.0807 -0.4912
  678MPD2     N10036   1.207   1.307   1.318  0.1234 -0.2793  0.4672
  678MPD2    H510037   1.224   1.261   1.229  1.7656  0.6308  0.2941
  678MPD2    N110038   1.540   1.615   1.165 -0.6236  0.2753  0.4879
  678MPD2    H710039   1.528   1.568   1.076  0.9171 -0.9343  0.9297
  679TMC3    C110040   1.710   1.682   0.805  0.5147 -0.1612 -0.4045
  679TMC3    C210041   1.663   1.652   0.931 -1.1855  0.7920 -0.3466
  679TMC3    C310042   1.644   1.765   1.019 -0.6392  0.1797 -0.1208
  679TMC3    C410043   1.730   1.807   0.758 -0.3941 -0.0811 -0.2677
  679TMC3    C510044   1.716   1.909   0.846 -0.4963  0.0669  0.5533
  679TMC3    C610045   1.672   1.895   0.977  1.2623 -0.3945 -0.2088
  679TMC3     C10046   1.811   1.593   0.747 -0.2896  1.0362 -0.6471
  679TMC3     O10047   1.901   1.652   0.685  0.9857  0.0307  0.2625
  679TMC3     H10048   1.664   1.549   0.966  0.6781  0.7996 -0.3695
  679TMC3    H110049   1.745   1.830   0.653  1.7483  2.1961  0.5377
  679TMC3    H210050   1.645   1.977   1.042 -1.2470 -1.3093 -0.1159
  679TMC3    C710051   1.796   2.025   0.818  0.0697 -0.0323 -0.4981
  679TMC3    C810052   1.596   1.741   1.151 -0.2144  0.8739  0.0918
  679TMC3    O110053   1.868   2.004   0.723 -0.5189 -0.0497 -0.2213
  679TMC3    O210054   1.596   1.833   1.228  0.3406  0.4795 -0.4400
  680MPD2     C10055   2.950   0.470  13.560 -0.6922  0.1087  0.3647
  680MPD2    C110056   2.996   0.408  13.676 -0.1734 -0.2485  0.1811
  680MPD2    C210057   3.061   0.484  13.773  0.3383 -1.1895 -1.2370
  680MPD2    C310058   3.099   0.618  13.746 -0.8634  0.1949  0.0801
  680MPD2    C410059   3.060   0.669  13.626 -0.4500  0.3611  0.2710
  680MPD2    C510060   2.983   0.602  13.537  0.1840 -0.3457 -0.0860
  680MPD2     H10061   3.084   0.438  13.868 -0.7806 -0.6019 -0.6885
  680MPD2    H110062   3.082   0.774  13.608  0.2152  0.1804  0.0247
  680MPD2    H210063   2.907   0.406  13.484 -2.1234  0.4783  0.8696
  680MPD2    H310064   2.957   0.647  13.442 -0.4269 -2.0244 -0.7096
  680MPD2     N10065   3.174   0.692  13.842 -0.3524 -0.6636  0.2934
  680MPD2    H510066   3.202   0.783  13.807 -1.3507 -0.3689  0.2706
  680MPD2    N110067   2.964   0.266  13.695  0.3773 -0.1533  0.2425
  680MPD2    H710068   2.937   0.205  13.618  0.1604  0.3210 -0.0593
  681TMC3    C110069   2.973   0.054  13.787  0.0449  0.0314  0.0083
  681TMC3    C210070   2.941   4.695  13.892 -0.3176 -0.3218 -0.6442
  681TMC3    C310071   2.960   4.564  13.873  0.2350 -0.6023  0.2770
  681TMC3    C410072   3.037   0.007  13.679  0.2280  0.8612  0.4502
  681TMC3    C510073   3.061   4.604  13.660 -0.2044  0.3091  0.2950
  681TMC3    C610074   3.018   4.515  13.755 -0.3979  0.1532 -0.0799
  681TMC3     C10075   2.977   0.198  13.814 -0.1030 -0.2857 -0.5251
  681TMC3     O10076   3.004   0.238  13.924  0.0565 -0.2045  0.0645
  681TMC3     H10077   2.897   0.005  13.982  0.0742  1.9946 -1.4458
  681TMC3    H110078   3.062   0.072  13.595  0.5365  0.3228  0.1253
  681TMC3    H210079   3.026   4.409  13.733 -1.2221  0.1809 -0.5231
  681TMC3    C710080   3.128   4.558  13.540  0.8002  0.6890  0.4964
  681TMC3    C810081   2.960   4.471  13.982  0.7965 -0.4074 -0.1232
  681TMC3    O110082   3.096   4.443  13.501  0.1593  0.0319 -0.4852
  681TMC3    O210083   2.989   4.357  13.952 -0.5921 -0.4278 -0.9298
  682MPD2     C10084   0.664   2.386  11.068 -0.6574 -0.2300 -0.1258
  682MPD2    C110085   0.553   2.310  11.037 -0.4538  0.2521  0.8596
  682MPD2    C210086   0.532   2.202  11.121 -0.1286  0.4384  0.4189
  682MPD2    C310087   0.613   2.168  11.232 -0.3647  0.3776 -0.5493
  682MPD2    C410088   0.704   2.261  11.266 -0.2323 -0.0244  0.5107
  682MPD2    C510089   0.727   2.371  11.185  0.1526 -0.2800 -0.1726
  682MPD2     H10090   0.443   2.143  11.106 -0.8168  1.7155 -0.5072
  682MPD2    H110091   0.764   2.254  11.356 -3.0581  0.8352  2.4426
  682MPD2    H210092   0.694   2.463  10.997 -0.2922  1.9048  2.3536
  682MPD2    H310093   0.812   2.434  11.206  1.3925 -2.6269  1.8694
  682MPD2     N10094   0.594   2.057  11.319 -0.2992 -0.0843  0.4351
  682MPD2    H510095   0.652   2.049  11.401  2.3986  0.7545 -1.3926
  682MPD2    N110096   0.473   2.340  10.926  0.8675 -0.3069 -0.9223
  682MPD2    H710097   0.396   2.276  10.908  1.8219 -1.5975 -0.4308
  683TMC3    C110098   0.465   1.765  11.582  0.0894  0.3295 -0.4835
  683TMC3    C210099   0.410   1.646  11.538  0.0256 -1.2255  0.5699
  683TMC3    C310100   0.411   1.626  11.401 -0.3148 -0.4701  0.2339
  683TMC3    C410101   0.510   1.867  11.491 -0.1494 -0.3212  0.5600
  683TMC3    C510102   0.511   1.837  11.361  0.0471 -0.3257  0.2183
  683TMC3    C610103   0.468   1.720  11.315 -0.6668 -0.4724 -0.3324
  683TMC3     C10104   0.461   1.807  11.718  0.1659 -0.8753  1.7412
  683TMC3     O10105   0.459   1.925  11.744  0.5610  0.2270  0.2360
  683TMC3     H10106   0.370   1.573  11.607  2.2102 -0.1402  3.0001
  683TMC3    H110107   0.533   1.967  11.525 -2.7099  0.5448 -0.3185
  683TMC3    H210108   0.462   1.708  11.207  4.5308 -3.6361 -0.2911
  683TMC3    C710109   0.544   1.943  11.265  0.1259 -0.2617 -0.4604
  683TMC3    C810110   0.302   1.549  11.352  0.4911 -0.5157 -0.9875
  683TMC3    O110111   0.543   1.906  11.149 -0.0189 -0.2477 -0.2118
  683TMC3    O210112   0.254   1.589  11.247 -0.2869  0.0037 -0.1813
  684MPD2     C10113   2.951   0.524  16.161  0.0955 -0.6406  0.2083
  684MPD2    C110114   2.899   0.613  16.060  0.1545 -0.1419  0.0195
  684MPD2    C210115   2.845   0.732  16.107  0.4585 -0.0205 -0.6863
  684MPD2    C310116   2.849   0.767  16.242  0.8856  0.1349 -0.3216
  684MPD2    C410117   2.890   0.675  16.336  0.2131  0.5089 -0.7682
  684MPD2    C510118   2.954   0.561  16.287  0.5406  0.0455  0.0471
  684MPD2     H10119   2.798   0.800  16.038 -1.2180 -0.3051  0.1842
  684MPD2    H110120   2.874   0.672  16.443 -1.3943 -4.1002 -1.1141
  684MPD2    H210121   2.981   0.422  16.142 -1.8259 -1.0767 -0.4681
  684MPD2    H310122   2.989   0.480  16.349  0.8262  1.3108  1.5387
  684MPD2     N10123   2.821   0.900  16.286  0.3514 -0.4300  0.5762
  684MPD2    H510124   2.795   0.906  16.383 -1.6802  0.4114 -0.0168
  684MPD2    N110125   2.916   0.580  15.925  0.2580 -0.0924 -0.4219
  684MPD2    H710126   2.978   0.503  15.903 -1.2194 -1.3322 -0.2499
  685TMC3    C110127   2.879   0.660  15.703  0.4165  0.5406 -0.9579
  685TMC3    C210128   2.794   0.736  15.625 -0.6706  1.1466 -0.0076
  685TMC3    C310129   2.835   0.854  15.566  0.1471 -0.1226 -0.5810
  685TMC3    C410130   3.008   0.695  15.699  0.0555  0.6074 -0.5941
  685TMC3    C510131   3.054   0.802  15.628 -0.2987  0.1020 -0.1450
  685TMC3    C610132   2.966   0.893  15.571 -0.0429 -0.2932  0.6681
  685TMC3     C10133   2.834   0.640  15.834 -0.4172 -0.0345  0.6027
  685TMC3     O10134   2.731   0.705  15.856  1.2447  0.0376  0.5079
  685TMC3     H10135   2.688   0.715  15.631 -0.6445  0.6319 -1.6147
  685TMC3    H110136   3.085   0.633  15.744 -2.4973 -2.2275 -0.0868
  685TMC3    H210137   2.996   0.986  15.524 -0.4902 -0.9976 -1.0140
  685TMC3    C710138   3.176   0.854  15.680 -0.1057  0.3943 -0.2683
  685TMC3    C810139   2.741   0.964  15.586 -0.0176 -0.5708  0.3478
  685TMC3    O110140   3.177   0.944  15.769 -0.4291  0.1883 -0.8698
  685TMC3    O210141   2.736   1.056  15.509 -0.8600  0.2365 -0.4652
  686MPD2     C10142   4.673   1.311  15.322  0.8546  0.2594 -0.0118
  686MPD2    C110143   4.715   1.245  15.444  0.7010 -0.1308 -0.8198
  686MPD2    C210144   0.107   1.180  15.435 -0.6034 -0.1086  0.0915
  686MPD2    C310145   0.179   1.162  15.317  0.0009  0.3399  0.2783
  686MPD2    C410146   0.131   1.203  15.200  0.3685 -0.5574 -0.7437
  686MPD2    C510147   0.016   1.284  15.205 -0.0440  0.5448  0.0702
  686MPD2     H10148   0.141   1.144  15.531  1.6029  0.3012 -0.5459
  686MPD2    H110149   0.191   1.188  15.111 -1.0160  1.1385 -1.9686
  686MPD2    H210150   4.589   1.379  15.323 -0.1351 -0.9482  0.0425
  686MPD2    H310151   4.704   1.327  15.114 -0.2168 -0.4598 -0.3252
  686MPD2     N10152   0.298   1.087  15.309 -0.5541 -0.1427 -0.6773
  686MPD2    H510153   0.347   1.086  15.220 -0.8488  1.1862 -0.8605
  686MPD2    N110154   4.631   1.260  15.557 -0.0895 -0.0198  0.1341
  686MPD2    H710155   4.547   1.317  15.545  1.0868  1.1245 -2.5926
  687TMC3    C110156   0.289   0.960  15.516 -0.1958  0.0938  0.0123
  687TMC3    C210157   0.170   0.889  15.490 -0.7716 -0.3040  1.1305
  687TMC3    C310158   0.124   0.813  15.596 -0.1488  0.8313 -0.2519
  687TMC3    C410159   0.350   0.946  15.638  1.1179  0.2105  0.6137
  687TMC3    C510160   0.293   0.867  15.742 -0.0639 -0.5707  0.8205
  687TMC3    C610161   0.175   0.802  15.723  0.0348  0.5267  0.7445
  687TMC3     C10162   0.367   1.017  15.408 -0.2534  0.1384 -0.3810
  687TMC3     O10163   0.484   0.975  15.403 -0.4162 -0.0657 -0.1664
  687TMC3     H10164   0.110   0.893  15.400  0.3257 -1.4027  0.3589
  687TMC3    H110165   0.450   0.986  15.653  2.0808 -2.2374  0.7732
  687TMC3    H210166   0.125   0.742  15.798  0.7037 -0.4022  0.4437
  687TMC3    C710167   0.335   0.898  15.876  1.1236 -0.3703  0.1081
  687TMC3    C810168   4.719   0.765  15.589  0.1689 -0.1423  0.1760
  687TMC3    O110169   0.405   0.995  15.890 -0.1356 -0.8750  0.1611
  687TMC3    O210170   4.700   0.645  15.575 -0.0335 -0.9768 -0.0317
  688MPD2     C10171   4.181   4.308   0.159  1.0647  0.3267 -0.7607
  688MPD2    C110172   4.079   4.299   0.060  0.0948  0.5991  0.1572
  688MPD2    C210173   4.110   4.290  17.644  0.2634  0.0917  0.5383
  688MPD2    C310174   4.242   4.325  17.601 -0.4210 -0.2096 -0.1292
  688MPD2    C410175   4.334   4.343  17.701  0.7544  0.0899 -0.7125
  688MPD2    C510176   4.307   4.325   0.116 -0.2573 -0.3215  0.1269
  688MPD2     H10177   4.030   4.277  17.572 -0.0071 -0.0005  0.8511
  688MPD2    H110178   4.437   4.372  17.681  0.3535 -0.5078 -3.7345
  688MPD2    H210179   4.172   4.321   0.267  0.3212  0.4479 -0.8343
  688MPD2    H310180   4.385   4.336   0.190  0.5504 -1.1182 -0.6020
  688MPD2     N10181   4.283   4.338  17.463  0.3690  0.1243  0.0459
  688MPD2    H510182   4.380   4.365  17.451  0.2992  0.3728  0.0482
  688MPD2    N110183   3.944   4.307   0.103  0.0818  0.0004  0.6292
  688MPD2    H710184   3.883   4.306   0.022  2.0362 -2.0892 -0.8249
  689TMC3    C110185   3.751   4.299   0.209 -0.5628  0.8949  0.2035
  689TMC3    C210186   3.674   4.390   0.275  0.0426 -0.1442 -0.1808
  689TMC3    C310187   3.536   4.377   0.254 -0.3216 -0.3558  0.5072
  689TMC3    C410188   3.707   4.196   0.130  0.1172  1.2855 -0.3785
  689TMC3    C510189   3.571   4.177   0.122  0.7586 -0.6687  0.0375
  689TMC3    C610190   3.485   4.272   0.177  0.5611 -0.9570 -0.9076
  689TMC3     C10191   3.892   4.313   0.229 -0.0875 -0.0802  0.3679
  689TMC3     O10192   3.939   4.374   0.322 -0.1013 -0.4061 -0.1409
  689TMC3     H10193   3.713   4.473   0.333 -0.9205 -0.3553  0.7580
  689TMC3    H110194   3.776   4.121   0.093 -1.2097 -0.1893  0.1618
  689TMC3    H210195   3.379   4.253   0.171  0.5426 -0.4734 -2.1949
  689TMC3    C710196   3.521   4.040   0.128  0.9524  0.2414 -0.5769
  689TMC3    C810197   3.457   4.496   0.281 -0.8858  0.7168 -0.3348
  689TMC3    O110198   3.477   3.993   0.232  0.2416 -0.2193 -0.3284
  689TMC3    O210199   3.513   4.583   0.344 -0.3040 -0.2992 -0.3233
  690MPD2     C10200   0.848   2.123  15.722 -0.3553  0.2354  0.4824
  690MPD2    C110201   0.850   2.057  15.601  0.1003 -0.0161  0.6274
  690MPD2    C210202   0.965   2.001  15.549 -0.0965 -0.8431  0.4002
  690MPD2    C310203   1.075   1.987  15.628 -0.8688  0.1722  0.0044
  690MPD2    C410204   1.080   2.049  15.750  0.8958  0.2564  0.3060
  690MPD2    C510205   0.964   2.114  15.798  0.7711  0.9615  0.3273
  690MPD2     H10206   0.972   1.946  15.456  1.2400  0.7529 -0.4398
  690MPD2    H110207   1.160   2.024  15.818 -2.2861 -0.6968  3.6892
  690MPD2    H210208   0.761   2.177  15.757  0.1069 -0.2558  2.3979
  690MPD2    H310209   0.969   2.150  15.900 -0.0392 -0.4059  0.8593
  690MPD2     N10210   1.186   1.914  15.571 -0.2765 -0.2790  0.0186
  690MPD2    H510211   1.166   1.885  15.476  1.6492 -1.6060  0.0154
  690MPD2    N110212   0.743   2.062  15.510 -0.2850  0.3735 -0.6554
  690MPD2    H710213   0.742   2.017  15.420 -0.9618 -1.3414  0.2094
  691TMC3    C110214   0.515   2.051  15.479  0.4014 -0.1230  0.3602
  691TMC3    C210215   0.414   2.047  15.569  0.3136 -0.8132  0.0595
  691TMC3    C310216   0.366   1.922  15.596  0.3023 -0.2189  0.7328
  691TMC3    C410217   0.549   1.940  15.403  0.4536 -0.4684  0.1103
  691TMC3    C510218   0.519   1.817  15.452  0.2124  0.3732  0.1353
  691TMC3    C610219   0.422   1.802  15.552 -0.0250 -0.0171  0.5178
  691TMC3     C10220   0.626   2.133  15.523  0.6080  0.1927 -0.6068
  691TMC3     O10221   0.601   2.225  15.600  0.1298 -0.2157  0.2644
  691TMC3     H10222   0.385   2.141  15.616 -0.8493  0.4654 -3.2160
  691TMC3    H110223   0.623   1.954  15.325 -1.3041  4.4336 -0.6822
  691TMC3    H210224   0.392   1.704  15.588 -1.5855  0.7589  1.3551
  691TMC3    C710225   0.645   1.736  15.477  0.2491  0.2317  0.8169
  691TMC3    C810226   0.264   1.904  15.687 -0.6999 -0.3589 -0.6868
  691TMC3    O110227   0.727   1.728  15.385  0.8836 -0.2594 -0.0437
  691TMC3    O210228   0.186   1.811  15.659 -0.2258 -0.2181  0.2020
  692TMC3    C110229   2.923   2.419  15.928  0.0670  0.0095 -0.3614
  692TMC3    C210230   3.054   2.423  15.974 -0.4756  0.5862 -0.2849
  692TMC3    C310231   3.127   2.312  15.999 -0.0701  0.2507  0.3328
  692TMC3    C410232   2.864   2.293  15.928  0.0755  0.1310 -0.0619
  692TMC3    C510233   2.935   2.179  15.964 -0.3351 -0.0888 -0.3598
  692TMC3    C610234   3.068   2.185  15.996 -0.2000 -0.1619  0.2886
  692TMC3     C10235   2.834   2.525  15.975 -0.1926  0.1558 -0.0157
  692TMC3     O10236   2.744   2.485  16.046  0.7129  0.2514 -0.4206
  692TMC3     H10237   3.115   2.505  15.937 -0.1232 -0.4764 -2.0863
  692TMC3    H110238   2.759   2.281  15.908  0.3790 -2.8944  0.1764
  692TMC3    H210239   3.120   2.108  16.052  0.6844  0.4663  0.3428
  692TMC3    C710240   2.889   2.060  15.904  0.5560 -0.2949 -0.8133
  692TMC3    C810241   3.215   2.323  16.117  0.3956 -0.3640 -0.3598
  692TMC3    O110242   2.812   2.059  15.807  0.7635 -0.6092  0.4284
  692TMC3    O210243   3.271   2.231  16.179 -0.8543 -0.1482 -0.2421
  693MPD2     C10244   2.093   1.271  10.711  0.4790 -0.2496 -0.6919
  693MPD2    C110245   2.085   1.139  10.743 -0.9326  0.0792  0.3803
  693MPD2    C210246   2.204   1.071  10.767  1.3255 -0.1629 -0.8507
  693MPD2    C310247   2.324   1.140  10.756  0.4161 -0.0521  0.2742
  693MPD2    C410248   2.333   1.264  10.707 -0.3522 -0.4399  0.1687
  693MPD2    C510249   2.215   1.329  10.690  0.1719  0.0393 -0.3588
  693MPD2     H10250   2.198   0.969  10.802  1.7036  1.0827  2.8911
  693MPD2    H110251   2.420   1.322  10.680 -0.3292 -1.7153 -2.5438
  693MPD2    H210252   2.001   1.329  10.705  1.4930  1.0479 -3.8076
  693MPD2    H310253   2.230   1.435  10.671 -1.7008  0.5668  1.0708
  693MPD2     N10254   2.443   1.070  10.795  0.1925 -0.5071  0.0707
  693MPD2    H510255   2.432   0.977  10.836  2.2928 -1.3335 -1.2123
  693MPD2    N110256   1.956   1.080  10.749  0.0508  0.5590  0.5408
  693MPD2    H710257   1.876   1.142  10.744 -1.2922 -0.9618  3.3437
  694TMC3    C110258   1.813   0.902  10.791 -0.0875 -0.4128 -0.9163
  694TMC3    C210259   1.765   0.785  10.734 -0.5711 -0.4722  0.0099
  694TMC3    C310260   1.686   0.707  10.813 -0.1185 -0.0682 -0.0786
  694TMC3    C410261   1.779   0.940  10.916  0.5481  0.1781 -0.2660
  694TMC3    C510262   1.709   0.857  10.991  0.3696 -0.2373 -0.5838
  694TMC3    C610263   1.657   0.739  10.939 -0.4343 -0.0182  0.9394
  694TMC3     C10264   1.939   0.947  10.746  0.2371  0.2892 -0.0598
  694TMC3     O10265   2.010   0.858  10.707  0.1556  0.0431 -0.7598
  694TMC3     H10266   1.816   0.747  10.646 -1.2573  0.0818 -0.6256
  694TMC3    H110267   1.831   1.022  10.964  0.3173  0.1749 -0.0099
  694TMC3    H210268   1.581   0.684  10.994  0.4262 -2.3960 -0.2607
  694TMC3    C710269   1.695   0.895  11.132  0.2044 -0.0974  0.1299
  694TMC3    C810270   1.579   0.643  10.743 -0.1252  0.2011  0.1862
  694TMC3    O110271   1.753   0.993  11.178 -0.3026 -0.6768 -0.2172
  694TMC3    O210272   1.494   0.586  10.805 -0.3811  0.2595 -0.3447
  695MPD2     C10273   3.949   2.630  13.456 -0.9345 -0.5640  0.3357
  695MPD2    C110274   3.846   2.621  13.551 -0.0742 -0.2713 -0.7112
  695MPD2    C210275   3.715   2.623  13.509 -0.2031  0.8389  0.6705
  695MPD2    C310276   3.683   2.626  13.376 -0.0769  0.1985 -0.1366
  695MPD2    C410277   3.781   2.644  13.286 -0.0006 -0.5543 -0.0279
  695MPD2    C510278   3.910   2.655  13.328 -0.7166 -0.2004 -0.4170
  695MPD2     H10279   3.637   2.627  13.585  0.8618 -2.6050  1.9800
  695MPD2    H110280   3.767   2.646  13.179  0.2694  2.2884 -0.0204
  695MPD2    H210281   4.054   2.621  13.482 -0.0128  1.9885 -2.6401
  695MPD2    H310282   3.989   2.660  13.254  0.1864  0.0528  0.5525
  695MPD2     N10283   3.547   2.614  13.341  0.0993 -0.0602 -0.1178
  695MPD2    H510284   3.491   2.590  13.422 -1.3537 -0.9160 -1.3662
  695MPD2    N110285   3.881   2.607  13.687  0.0795  0.0909 -0.2725
  695MPD2    H710286   3.800   2.594  13.746 -0.2755 -0.7752 -0.9532
  696TMC3    C110287   3.363   2.546  13.215  0.2430  0.2704  0.0052
  696TMC3    C210288   3.330   2.455  13.317  0.1626  0.1702 -0.9001
  696TMC3    C310289   3.208   2.388  13.294 -0.2428  0.3299  0.4488
  696TMC3    C410290   3.296   2.556  13.095  0.0309  0.7153  0.1445
  696TMC3    C510291   3.173   2.494  13.088  0.2980 -1.0052 -0.1270
  696TMC3    C610292   3.129   2.406  13.183  0.2131  0.3895  0.3491
  696TMC3     C10293   3.492   2.611  13.214  0.1847  0.1879 -0.5655
  696TMC3     O10294   3.535   2.638  13.102  0.3530  0.4673 -0.1965
  696TMC3     H10295   3.389   2.426  13.403 -2.0202 -1.5883 -0.0120
  696TMC3    H110296   3.327   2.634  13.026  4.2817 -0.8842  0.3018
  696TMC3    H210297   3.032   2.359  13.173  1.5136 -1.9239 -1.3114
  696TMC3    C710298   3.079   2.535  12.982 -0.6777 -0.4075  0.1982
  696TMC3    C810299   3.175   2.307  13.405  0.1102  0.0066 -0.4686
  696TMC3    O110300   3.131   2.577  12.883  0.0090 -0.2497  0.5589
  696TMC3    O210301   3.232   2.313  13.511  0.2786 -0.1575  0.1430
  697MPD2     C10302   2.349   4.401  15.674 -0.5763 -1.0744 -0.1874
  697MPD2    C110303   2.408   4.327  15.571  0.1716 -0.4797  0.4203
  697MPD2    C210304   2.512   4.384  15.508 -0.2276  0.9650 -0.9230
  697MPD2    C310305   2.531   4.522  15.501  0.0619 -0.0090 -0.3936
  697MPD2    C410306   2.453   4.599  15.587  1.0116  0.6987 -0.3499
  697MPD2    C510307   2.367   4.534  15.676  0.2580  0.0933  0.2116
  697MPD2     H10308   2.565   4.335  15.428 -0.7197 -1.7299  0.4089
  697MPD2    H110309   2.456   4.707  15.593 -0.7443  0.6543  1.3671
  697MPD2    H210310   2.277   4.362  15.745  0.8595  0.3449  2.0475
  697MPD2    H310311   2.295   4.584  15.741  0.1742 -1.4521  1.2942
  697MPD2     N10312   2.623   4.576  15.406  0.4833 -0.2712  0.1217
  697MPD2    H510313   2.657   4.505  15.342  0.0830  1.0299 -1.5580
  697MPD2    N110314   2.392   4.189  15.559 -0.1373  0.0509  0.1615
  697MPD2    H710315   2.465   4.140  15.508  1.1336  1.8779  0.1878
  698TMC3    C110316   2.684   0.016  15.251  0.1116 -0.2067  0.1866
  698TMC3    C210317   2.682   0.157  15.234 -0.2927 -0.0235  0.0046
  698TMC3    C310318   2.675   0.200  15.108 -0.2821  0.3515 -0.0949
  698TMC3    C410319   2.689   4.654  15.153 -0.5362  0.2198 -0.0735
  698TMC3    C510320   2.689   4.708  15.024 -0.1712  0.4079 -0.4250
  698TMC3    C610321   2.683   0.112  14.997 -0.3071  0.1096 -0.1604
  698TMC3     C10322   2.648   4.709  15.387 -0.5443 -0.1570  0.0360
  698TMC3     O10323   2.627   0.067  15.467 -0.6686  0.9046 -0.4753
  698TMC3     H10324   2.674   0.228  15.315 -0.9358  0.4859 -0.5143
  698TMC3    H110325   2.681   4.546  15.165 -1.0828  0.3575  0.8250
  698TMC3    H210326   2.677   0.143  14.894  0.4263  3.0509  0.6824
  698TMC3    C710327   2.669   4.623  14.903  0.0698 -0.5406  0.1660
  698TMC3    C810328   2.685   0.343  15.088  0.3802 -0.0513  0.2411
  698TMC3    O110329   2.582   4.653  14.821  0.8357 -0.5665 -0.0311
  698TMC3    O210330   2.730   0.411  15.177  0.8112 -0.5649  0.0774
  699TMC3    C110331   2.604   2.702  12.580  0.0108  0.5159  0.1541
  699TMC3    C210332   2.639   2.568  12.587 -0.7542  0.5713  0.7167
  699TMC3    C310333   2.554   2.486  12.651 -0.3193  0.0919 -0.0441
  699TMC3    C410334   2.494   2.757  12.639  0.4350 -0.0624  0.0546
  699TMC3    C510335   2.410   2.670  12.706 -0.4618 -0.2268  0.1924
  699TMC3    C610336   2.437   2.535  12.705  0.1930  0.5382  0.1324
  699TMC3     C10337   2.700   2.796  12.525 -1.0479 -0.1718 -0.2217
  699TMC3     O10338   2.654   2.904  12.507  0.2818  0.2325  0.0266
  699TMC3     H10339   2.725   2.537  12.529 -2.8144 -1.5899 -1.1996
  699TMC3    H110340   2.481   2.864  12.634 -2.1976 -0.4250 -0.5984
  699TMC3    H210341   2.359   2.475  12.750 -0.8974  0.9324 -1.2333
  699TMC3    C710342   2.343   2.705  12.831 -0.0625  0.4267 -0.3242
  699TMC3    C810343   2.610   2.367  12.707 -0.1201 -0.3187  0.1360
  699TMC3    O110344   2.355   2.617  12.916 -0.6962 -0.2815 -0.3525
  699TMC3    O210345   2.719   2.335  12.669  0.1324 -0.1699  0.5078
  700TMC3    C110346   1.408   4.404  17.344 -0.4191 -0.8866 -0.8653
  700TMC3    C210347   1.489   4.301  17.377 -1.2014 -0.0276  0.5628
  700TMC3    C310348   1.566   4.308  17.491  0.1255 -0.9518 -0.2460
  700TMC3    C410349   1.393   4.511  17.423 -0.0308  0.2436 -0.0906
  700TMC3    C510350   1.466   4.517  17.545 -0.2372  0.7653 -0.0209
  700TMC3    C610351   1.568   4.420  17.570 -0.4041 -0.2035 -0.4793
  700TMC3     C10352   1.390   4.416  17.205  0.3858  0.6068 -0.1023
  700TMC3     O10353   1.364   4.315  17.134 -0.1443  0.4852 -0.0210
  700TMC3     H10354   1.505   4.226  17.300  2.4927  2.6577 -1.3213
  700TMC3    H110355   1.311   4.582  17.412 -2.0359 -2.1859 -0.8936
  700TMC3    H210356   1.630   4.424  17.659 -1.2549 -0.6381  0.1292
  700TMC3    C710357   1.446   4.629  17.641 -0.4592  0.0743 -0.0442
  700TMC3    C810358   1.688   4.240  17.482  0.3576  0.4882  0.5578
  700TMC3    O110359   1.549   4.679  17.682  0.2723 -0.1981 -0.4831
  700TMC3    O210360   1.790   4.303  17.511 -0.4649  0.3750 -0.1364
  701TMC3    C110361   2.163   3.464  15.696 -0.5333 -0.2980 -0.1766
  701TMC3    C210362   2.258   3.451  15.596 -0.4170  0.7212  0.6497
  701TMC3    C310363   2.248   3.526  15.483 -0.3802  0.2975  0.1024
  701TMC3    C410364   2.069   3.559  15.676 -0.4867 -0.2442  0.2184
  701TMC3    C510365   2.062   3.638  15.565 -0.0313  0.2055  0.2043
  701TMC3    C610366   2.145   3.616  15.461  0.6458  0.1206 -0.8229
  701TMC3     C10367   2.124   3.349  15.777 -0.2308 -0.2234  0.3498
  701TMC3     O10368   2.013   3.360  15.817 -0.7486 -0.1751  0.5062
  701TMC3     H10369   2.334   3.375  15.613 -0.3418  0.8753  0.9941
  701TMC3    H110370   1.994   3.571  15.753 -0.2613 -2.1935  0.7221
  701TMC3    H210371   2.162   3.697  15.390 -1.4911  0.3445 -1.0814
  701TMC3    C710372   1.974   3.752  15.563 -0.3379  0.0702  0.4042
  701TMC3    C810373   2.323   3.485  15.366 -0.5111  0.3597  0.8084
  701TMC3    O110374   1.949   3.802  15.457 -0.0677  0.3015 -0.0163
  701TMC3    O210375   2.427   3.421  15.375 -0.0934 -0.0702 -0.0604
  702MPD2     C10376   1.511   1.406  10.061 -0.2514 -0.3326 -0.1194
  702MPD2    C110377   1.589   1.440  10.165  0.5557 -0.1182 -0.6267
  702MPD2    C210378   1.722   1.482  10.146 -0.5179 -1.2345  0.0878
  702MPD2    C310379   1.771   1.492  10.021  0.1045  0.5209  0.6346
  702MPD2    C410380   1.691   1.459   9.913 -0.3926 -0.1836 -0.0729
  702MPD2    C510381   1.559   1.416   9.935 -0.4942 -0.5100 -0.1285
  702MPD2     H10382   1.770   1.529  10.231  0.1013  1.0759 -1.5406
  702MPD2    H110383   1.722   1.477   9.811  0.2148  2.2581  0.5409
  702MPD2    H210384   1.408   1.375  10.070 -0.5061  0.1893 -1.1990
  702MPD2    H310385   1.499   1.402   9.846 -1.4484 -2.4049  0.8116
  702MPD2     N10386   1.895   1.555   9.990 -0.4693  0.5161  0.3153
  702MPD2    H510387   1.911   1.585   9.894 -0.2262  1.1547  0.5516
  702MPD2    N110388   1.540   1.449  10.296 -0.1358 -0.5561 -0.3678
  702MPD2    H710389   1.585   1.508  10.366 -1.8724  0.2708  0.0413
  703TMC3    C110390   2.078   1.684  10.049 -0.4593 -0.4420  0.3119
  703TMC3    C210391   2.027   1.801   9.992  0.4002 -0.1886 -0.5348
  703TMC3    C310392   2.116   1.906   9.968  0.4321  0.4925  0.4032
  703TMC3    C410393   2.212   1.679  10.096 -0.1868  0.3990  0.2639
  703TMC3    C510394   2.291   1.792  10.073 -0.1942 -0.8218 -0.3407
  703TMC3    C610395   2.246   1.899  10.004 -0.4729 -0.4648  0.4418
  703TMC3     C10396   1.986   1.577  10.087  0.4628  0.3657 -0.2769
  703TMC3     O10397   1.999   1.539  10.200 -0.6856 -0.1124 -0.2177
  703TMC3     H10398   1.923   1.806   9.960 -0.0078  2.8920  1.2256
  703TMC3    H110399   2.247   1.585  10.138 -1.7935 -0.8405 -1.1671
  703TMC3    H210400   2.299   1.987  10.039 -1.8287  1.1741 -1.5765
  703TMC3    C710401   2.409   1.807  10.144  0.1858  0.5059  0.2428
  703TMC3    C810402   2.056   2.035  10.000 -0.3451 -0.3440  0.0358
  703TMC3    O110403   2.495   1.870  10.084  0.0602  0.3560  0.1814
  703TMC3    O210404   2.129   2.132   9.974 -0.1611  0.0046 -0.3288
  704TMC3    C110405   3.715   4.429  12.642 -0.5877 -0.1732 -0.2302
  704TMC3    C210406   3.817   4.429  12.549  0.3153  0.3432 -0.8110
  704TMC3    C310407   3.941   4.406  12.607  0.4894  0.7755 -0.2611
  704TMC3    C410408   3.728   4.402  12.768 -0.0008 -0.2556 -0.0778
  704TMC3    C510409   3.849   4.353  12.809 -0.2543  0.8493  0.0281
  704TMC3    C610410   3.957   4.360  12.731  0.0042 -0.3296 -0.7874
  704TMC3     C10411   3.601   4.363  12.581 -0.2102  0.1342  0.9715
  704TMC3     O10412   3.496   4.343  12.643  0.7220  0.0237 -0.3294
  704TMC3     H10413   3.807   4.471  12.450  0.8346 -2.5867 -2.1156
  704TMC3    H110414   3.646   4.411  12.838 -0.7142  0.0586 -0.9686
  704TMC3    H210415   4.051   4.321  12.769  0.1938  0.8602 -0.0316
  704TMC3    C710416   3.833   4.210  12.841  0.2155 -0.2093 -0.0554
  704TMC3    C810417   4.046   4.384  12.516 -0.6594  0.5276 -0.1009
  704TMC3    O110418   3.927   4.132  12.825  0.4283  0.7581 -0.0874
  704TMC3    O210419   4.008   4.356  12.400  0.6950  0.5022  0.0948
  705MPD2     C10420   3.595   2.253  16.720 -0.8561  0.1592 -0.7667
  705MPD2    C110421   3.525   2.189  16.624  0.0743 -0.3717 -0.5182
  705MPD2    C210422   3.395   2.150  16.645 -0.3443  0.4925  0.2216
  705MPD2    C310423   3.331   2.176  16.764 -0.3673 -0.1949  0.7017
  705MPD2    C410424   3.413   2.239  16.866  0.3596 -0.5224  0.4854
  705MPD2    C510425   3.535   2.285  16.840  0.2967 -0.2310 -0.1248
  705MPD2     H10426   3.339   2.100  16.567  1.0311  1.2576 -1.2531
  705MPD2    H110427   3.373   2.245  16.966 -1.3611  1.9115 -0.3433
  705MPD2    H210428   3.700   2.275  16.702 -1.2010  0.9439 -1.7473
  705MPD2    H310429   3.594   2.327  16.921  0.3094 -1.3064  0.4227
  705MPD2     N10430   3.197   2.144  16.793  0.3401 -0.4207 -0.3535
  705MPD2    H510431   3.166   2.188  16.879 -0.9416 -0.4319 -0.8072
  705MPD2    N110432   3.582   2.175  16.497  0.1324 -0.6259 -0.8166
  705MPD2    H710433   3.536   2.106  16.438 -1.6995  0.7349 -0.9878
  706TMC3    C110434   3.579   2.193  16.116 -0.9818  0.2667  0.1682
  706TMC3    C210435   3.576   2.318  16.065 -0.6129 -0.2300 -0.5363
  706TMC3    C310436   3.619   2.419  16.134 -0.7427  0.3172 -0.2714
  706TMC3    C410437   3.617   2.166  16.234 -0.4080 -0.1690 -0.1821
  706TMC3    C510438   3.675   2.267  16.303  0.3060  0.1677 -0.2698
  706TMC3    C610439   3.679   2.396  16.254  0.4715 -0.2102 -0.8453
  706TMC3     C10440   3.545   2.077  16.032  0.2970 -0.5717 -0.4485
  706TMC3     O10441   3.593   1.965  16.061  0.4102  0.1377  0.2388
  706TMC3     H10442   3.528   2.328  15.968 -1.0657 -1.1810 -0.4117
  706TMC3    H110443   3.596   2.074  16.286 -1.0925  1.1935  1.9429
  706TMC3    H210444   3.740   2.474  16.299  1.3337 -0.9864 -0.6603
  706TMC3    C710445   3.675   2.258  16.443  0.1774  0.0837  0.2135
  706TMC3    C810446   3.614   2.550  16.075  0.2797  0.0335  0.4308
  706TMC3    O110447   3.744   2.347  16.493 -0.8587 -0.4989  0.1588
  706TMC3    O210448   3.614   2.550  15.952 -0.3765  0.0727  0.2519
  707TMC3    C110449   4.633   1.208   1.390  0.4569  0.2636  0.6940
  707TMC3    C210450   4.564   1.083   1.390 -0.4229  0.7673  1.1870
  707TMC3    C310451   4.500   1.048   1.505  0.0786  0.4558  0.2811
  707TMC3    C410452   4.616   1.298   1.494  0.3382 -0.1761 -0.6147
  707TMC3    C510453   4.549   1.259   1.606  0.9620 -1.0725 -0.2196
  707TMC3    C610454   4.497   1.130   1.616  0.0525 -0.0299 -0.2004
  707TMC3     C10455   4.682   1.265   1.271  0.0741 -0.2700 -0.0710
  707TMC3     O10456   4.687   1.389   1.264  0.0119  0.1112 -0.0816
  707TMC3     H10457   4.552   1.037   1.293  2.0098  2.4005  0.1138
  707TMC3    H110458   4.674   1.389   1.487 -0.2016  0.0436 -2.2133
  707TMC3    H210459   4.429   1.108   1.697 -1.3715  0.1571 -1.3475
  707TMC3    C710460   4.530   1.332   1.720 -0.1059 -0.2349 -0.0795
  707TMC3    C810461   4.391   0.949   1.508  0.2250  0.7711  0.1635
  707TMC3    O110462   4.493   1.288   1.827 -0.0510 -0.1512 -0.0979
  707TMC3    O210463   4.330   0.924   1.612  0.5058 -0.2326  0.4692
  708MPD2     C10464   1.733   1.094  13.638  0.3739  0.4938  0.6947
  708MPD2    C110465   1.666   1.042  13.744  0.4729  0.4465 -0.1652
  708MPD2    C210466   1.731   0.946  13.819 -0.9049  0.4851  0.2306
  708MPD2    C310467   1.848   0.891  13.776 -0.0987  0.6497  0.2723
  708MPD2    C410468   1.915   0.957  13.679  0.1039 -0.0473 -0.3327
  708MPD2    C510469   1.856   1.056  13.604  0.3514 -0.0240  0.0457
  708MPD2     H10470   1.670   0.907  13.899 -0.4742 -1.2350 -0.2678
  708MPD2    H110471   2.014   0.920  13.654 -0.4867 -0.2042 -2.3914
  708MPD2    H210472   1.689   1.155  13.560 -2.0688 -1.7905  0.2814
  708MPD2    H310473   1.913   1.099  13.522 -1.9030  2.6657 -0.1137
  708MPD2     N10474   1.911   0.772  13.829  0.4143 -0.0367 -0.0572
  708MPD2    H510475   2.002   0.743  13.793  0.7050 -0.2714  0.8595
  708MPD2    N110476   1.521   1.062  13.753 -0.2236  0.0607 -0.1048
  708MPD2    H710477   1.473   1.105  13.675  1.1146  1.3371 -0.2214
  709TMC3    C110478   1.307   1.070  13.868 -0.2067  0.0150 -0.7575
  709TMC3    C210479   1.232   1.051  13.757 -0.9177 -0.0404  0.1255
  709TMC3    C310480   1.110   0.996  13.757 -0.3679  0.6282  0.2798
  709TMC3    C410481   1.246   1.039  13.991 -0.2956  0.0510 -0.2519
  709TMC3    C510482   1.130   0.973  13.982  0.5040  0.3699  0.5700
  709TMC3    C610483   1.057   0.947  13.873 -0.5176  0.5784  0.3483
  709TMC3     C10484   1.449   1.032  13.865 -0.3169  0.6720  0.1217
  709TMC3     O10485   1.485   0.994  13.976 -0.4199 -0.3970 -0.0438
  709TMC3     H10486   1.285   1.070  13.664 -1.5880 -2.1698 -0.6826
  709TMC3    H110487   1.285   1.062  14.089 -2.5701 -1.8056  1.1073
  709TMC3    H210488   0.971   0.882  13.886  0.8094 -1.3959 -0.6988
  709TMC3    C710489   1.133   0.861  14.068 -0.2491  0.3690 -0.2101
  709TMC3    C810490   1.054   0.932  13.634  0.0510 -0.2836  0.0798
  709TMC3    O110491   1.030   0.818  14.123 -0.3174 -0.7111 -0.0755
  709TMC3    O210492   0.966   0.841  13.645  0.3365 -0.3904  0.1313
  710TMC3    C110493   2.312   2.607   0.410 -0.2536 -0.0753  0.7366
  710TMC3    C210494   2.341   2.523   0.306  1.0662 -0.6365  0.2082
  710TMC3    C310495   2.346   2.390   0.329  0.3416  0.0946  0.7366
  710TMC3    C410496   2.276   2.555   0.532  0.1711 -0.0738  0.7148
  710TMC3    C510497   2.273   2.419   0.540  0.0880  0.5870 -0.1664
  710TMC3    C610498   2.308   2.335   0.446  0.6494  0.0457 -0.2475
  710TMC3     C10499   2.398   2.723   0.404  0.2900 -0.6608  0.9045
  710TMC3     O10500   2.418   2.777   0.295  0.3989  0.0316  0.4323
  710TMC3     H10501   2.400   2.559   0.222 -1.2674  3.3354  0.2701
  710TMC3    H110502   2.246   2.615   0.617 -2.6215 -0.4778  0.0125
  710TMC3    H210503   2.308   2.229   0.468  0.0140  0.0843 -0.0589
  710TMC3    C710504   2.183   2.358   0.640  0.6338  0.2958 -0.0444
  710TMC3    C810505   2.375   2.303   0.216 -0.3955 -0.1435  0.3280
  710TMC3    O110506   2.161   2.236   0.628  0.3968  0.1589 -0.2709
  710TMC3    O210507   2.390   2.358   0.110 -0.0071 -0.1025  0.1218
  711TMC3    C110508   2.883   2.911  14.610  0.5077 -0.5016 -0.5768
  711TMC3    C210509   2.853   3.051  14.630  0.9034 -0.1371 -0.3119
  711TMC3    C310510   2.950   3.137  14.671 -0.9661 -0.4712  0.3571
  711TMC3    C410511   3.012   2.864  14.616 -0.3570  0.3940  0.4858
  711TMC3    C510512   3.101   2.959  14.658 -1.0273  0.1889  0.1241
  711TMC3    C610513   3.076   3.090  14.680  0.6787 -0.0028  0.1674
  711TMC3     C10514   2.784   2.811  14.645  0.0749 -0.2097  0.2543
  711TMC3     O10515   2.674   2.807  14.592  0.3416 -0.0301  0.5252
  711TMC3     H10516   2.753   3.089  14.613  1.8999  2.6934  0.1925
  711TMC3    H110517   3.038   2.767  14.577  0.7303  0.8038  0.2131
  711TMC3    H210518   3.158   3.152  14.712 -0.9947  1.5705  1.4000
  711TMC3    C710519   3.190   2.906  14.754 -0.5983  0.8525  0.5631
  711TMC3    C810520   2.923   3.226  14.775  0.2974  0.1203  1.0534
  711TMC3    O110521   3.193   2.973  14.857 -0.4306  0.5438 -0.2307
  711TMC3    O210522   2.820   3.290  14.769  0.6254  0.2214  0.1119
  712MPD2     C10523   3.656   0.085  14.492  0.4989  0.4772  0.0755
  712MPD2    C110524   3.624   0.048  14.365 -0.3083 -0.5484 -0.0125
  712MPD2    C210525   3.713   0.081  14.259  0.3523 -0.2470  0.3201
  712MPD2    C310526   3.832   0.147  14.292 -0.0091  0.7555 -0.2677
  712MPD2    C410527   3.864   0.177  14.421 -0.0835 -0.2244  0.1003
  712MPD2    C510528   3.780   0.146  14.520 -0.1083 -0.5342  0.0531
  712MPD2     H10529   3.675   0.062  14.159 -0.6053 -0.7442  0.7754
  712MPD2    H110530   3.958   0.224  14.448 -0.3339 -0.0975  0.7612
  712MPD2    H210531   3.580   0.067  14.568  0.7134 -0.0860  0.1576
  712MPD2    H310532   3.810   0.173  14.621 -0.3108  1.4212 -0.4106
  712MPD2     N10533   3.913   0.205  14.192  0.5118  0.2284  0.3489
  712MPD2    H510534   4.002   0.245  14.221  0.3489  0.1780  0.9120
  712MPD2    N110535   3.499   4.716  14.328 -0.4573 -0.4047  0.2817
  712MPD2    H710536   3.487   4.672  14.237 -1.5187  2.8559 -1.1653
  713TMC3    C110537   4.010   0.266  13.997 -0.5025  0.2777  0.2775
  713TMC3    C210538   4.144   0.251  14.016 -0.0585 -1.0849  0.0558
  713TMC3    C310539   4.232   0.312  13.922  0.1365 -0.1156  0.9811
  713TMC3    C410540   3.961   0.329  13.887  0.5776 -0.5603 -0.3170
  713TMC3    C510541   4.048   0.384  13.799 -0.2177 -0.5551 -0.8996
  713TMC3    C610542   4.181   0.379  13.815  0.1245 -0.4276 -0.0481
  713TMC3     C10543   3.905   0.191  14.057  0.7909  0.8615  0.3930
  713TMC3     O10544   3.832   0.122  13.985  0.3520 -0.1040 -0.3404
  713TMC3     H10545   4.189   0.201  14.101  1.3352 -0.3240 -0.2380
  713TMC3    H110546   3.854   0.336  13.900  0.4960  0.0399 -1.3689
  713TMC3    H210547   4.243   0.428  13.741  1.4243 -0.6973  0.8631
  713TMC3    C710548   4.001   0.488  13.706 -0.2396  0.3085 -0.4556
  713TMC3    C810549   4.375   0.300  13.926 -0.9189 -0.0018  0.0133
  713TMC3    O110550   4.086   0.573  13.674  0.5137  0.6137  0.3931
  713TMC3    O210551   4.429   0.313  13.819 -0.6160 -0.5722  0.3882
  714MPD2     C10552   0.579   2.724   1.060  0.0598  0.2297 -0.2555
  714MPD2    C110553   0.660   2.835   1.066 -0.0071  0.6344  0.0891
  714MPD2    C210554   0.618   2.961   1.023 -0.2602 -0.4595  0.0328
  714MPD2    C310555   0.490   2.983   0.979 -0.6227  0.3823  0.1573
  714MPD2    C410556   0.405   2.874   0.966 -0.5238 -0.8596 -0.0459
  714MPD2    C510557   0.444   2.750   1.019 -0.5512 -0.1278  0.5252
  714MPD2     H10558   0.685   3.046   1.023 -0.4395 -0.3173 -1.4388
  714MPD2    H110559   0.310   2.890   0.918  1.3099  3.2672 -2.3282
  714MPD2    H210560   0.621   2.632   1.099 -1.0390  0.9815  2.6480
  714MPD2    H310561   0.376   2.668   1.000 -1.0195  0.3788  0.0100
  714MPD2     N10562   0.436   3.105   0.932 -0.4977 -0.1022 -0.4851
  714MPD2    H510563   0.345   3.093   0.889 -0.1058 -1.3688 -0.9501
  714MPD2    N110564   0.789   2.814   1.116 -0.0349 -0.4643  0.2336
  714MPD2    H710565   0.811   2.720   1.149 -1.3542 -1.3051 -1.2868
  715TMC3    C110566   1.016   2.849   1.138 -0.3154  0.6319  0.3163
  715TMC3    C210567   1.023   2.719   1.097  0.2154 -0.6562  0.5488
  715TMC3    C310568   1.140   2.654   1.107 -0.4842 -0.9844 -0.3282
  715TMC3    C410569   1.125   2.922   1.170 -0.0246 -0.3431 -0.1566
  715TMC3    C510570   1.240   2.858   1.174  0.5556  0.7561 -0.4360
  715TMC3    C610571   1.251   2.726   1.138 -0.1078 -0.2068 -0.0139
  715TMC3     C10572   0.892   2.913   1.120 -0.4006  1.7641  0.7104
  715TMC3     O10573   0.887   3.034   1.120  0.3485  0.1421  0.8392
  715TMC3     H10574   0.945   2.665   1.045  1.0499 -1.6268  0.3076
  715TMC3    H110575   1.111   3.026   1.198  0.6222 -0.4293  0.4806
  715TMC3    H210576   1.349   2.682   1.150  0.1344  0.3471  0.0378
  715TMC3    C710577   1.367   2.938   1.176 -0.2888 -0.0829 -0.0945
  715TMC3    C810578   1.147   2.514   1.080  0.2845  0.0506 -0.7566
  715TMC3    O110579   1.363   3.041   1.235 -0.1666 -0.2611  0.4827
  715TMC3    O210580   1.044   2.462   1.036 -0.1339  0.2136  0.2605
  716MPD2     C10581   1.436   0.819   9.852 -0.2149 -0.2868  0.4206
  716MPD2    C110582   1.388   0.755   9.741 -0.9648  0.3036  0.0117
  716MPD2    C210583   1.403   0.621   9.741  0.0849  0.0446  0.3471
  716MPD2    C310584   1.461   0.550   9.843  0.0785 -0.0145  0.0961
  716MPD2    C410585   1.502   0.616   9.954 -0.1058 -0.0402  0.0265
  716MPD2    C510586   1.490   0.751   9.959  0.4856 -0.2225 -0.1160
  716MPD2     H10587   1.364   0.564   9.657 -2.7018  2.2395  0.1244
  716MPD2    H110588   1.551   0.566  10.037 -0.7542  1.9430  1.6050
  716MPD2    H210589   1.424   0.927   9.860  0.5978 -0.2997  1.6847
  716MPD2    H310590   1.519   0.798  10.052  3.4237 -0.4315 -0.9358
  716MPD2     N10591   1.467   0.411   9.821 -0.0506 -0.0149 -0.5104
  716MPD2    H510592   1.447   0.371   9.730 -0.3322 -2.8611  0.8198
  716MPD2    N110593   1.332   0.832   9.636 -0.0776 -0.2845 -0.1504
  716MPD2    H710594   1.310   0.928   9.659  0.5300 -0.0327 -0.6326
  717TMC3    C110595   1.484   0.185   9.886 -0.2820  0.0703  0.2785
  717TMC3    C210596   1.373   0.158   9.811  0.4941 -0.0527  0.1926
  717TMC3    C310597   1.332   0.032   9.796  0.6763 -0.0452 -0.7054
  717TMC3    C410598   1.545   0.092   9.955 -0.7792  0.9967  0.8111
  717TMC3    C510599   1.496   4.691   9.946  0.2145 -0.6294  0.6676
  717TMC3    C610600   1.395   4.659   9.853  0.2127 -0.1157 -0.5982
  717TMC3     C10601   1.499   0.326   9.923  0.5080 -0.8041  0.5816
  717TMC3     O10602   1.564   0.354  10.027 -0.3037 -0.5439  0.0908
  717TMC3     H10603   1.309   0.232   9.766 -0.0805  1.0176  2.7879
  717TMC3    H110604   1.623   0.115  10.027 -0.2363 -0.9126  0.8350
  717TMC3    H210605   1.342   4.564   9.852  0.0725 -0.0382  0.1780
  717TMC3    C710606   1.576   4.584  10.009  0.3149 -0.0112 -0.3435
  717TMC3    C810607   1.214   0.006   9.721  0.1727 -0.3006  0.4468
  717TMC3    O110608   1.648   4.614  10.107 -0.0596  0.0571  0.1838
  717TMC3    O210609   1.148   0.107   9.696  0.2550 -0.6886  0.1325
  718MPD2     C10610   0.638   4.473  13.218  0.0309 -0.0498 -0.4292
  718MPD2    C110611   0.617   4.412  13.094 -0.1394  0.1574 -0.9350
  718MPD2    C210612   0.526   4.302  13.083 -0.1342 -0.0437 -0.1814
  718MPD2    C310613   0.467   4.249  13.193  0.0624 -0.0471 -0.5056
  718MPD2    C410614   0.494   4.304  13.320 -0.6276  0.0674 -0.6082
  718MPD2    C510615   0.574   4.416  13.326  1.1916  0.6861 -0.3696
  718MPD2     H10616   0.506   4.260  12.985  0.0645 -0.2671 -0.1254
  718MPD2    H110617   0.447   4.268  13.410  1.2164  0.3928  0.4735
  718MPD2    H210618   0.704   4.558  13.228 -0.1350 -0.1747  1.6796
  718MPD2    H310619   0.579   4.452  13.428 -1.5561 -1.1029  0.4015
  718MPD2     N10620   0.366   4.155  13.160  0.3013 -0.6252  0.6321
  718MPD2    H510621   0.361   4.131  13.061 -3.0947 -0.2688  0.6976
  718MPD2    N110622   0.669   4.468  12.978  0.4768  0.3130  0.7148
  718MPD2    H710623   0.620   4.429  12.898  0.9711  1.8325 -0.3325
  719TMC3    C110624   0.784   4.585  12.817 -0.7510 -0.4934 -0.0388
  719TMC3    C210625   0.761   4.471  12.746  0.4284 -0.5026  0.0680
  719TMC3    C310626   0.695   4.483  12.632  0.1896 -0.0887  0.1310
  719TMC3    C410627   0.753   4.706  12.767 -0.3115  0.0439  0.9049
  719TMC3    C510628   0.700   4.719  12.643 -0.3106  0.3523  0.2759
  719TMC3    C610629   0.667   4.605  12.573  0.4203 -0.0395  0.4591
  719TMC3     C10630   0.762   4.563  12.960  0.4784 -0.9610  0.3246
  719TMC3     O10631   0.797   4.647  13.037  0.1254 -0.1656 -0.2163
  719TMC3     H10632   0.785   4.378  12.796 -1.7796 -1.3541 -0.4339
  719TMC3    H110633   0.808   0.056  12.816 -0.8696 -0.0390  1.6611
  719TMC3    H210634   0.621   4.621  12.476 -0.7142 -1.6079  0.7435
  719TMC3    C710635   0.703   0.112  12.565 -0.3926  0.2111 -0.2076
  719TMC3    C810636   0.591   4.392  12.612  0.1386  0.1058  0.6930
  719TMC3    O110637   0.736   0.104  12.450 -0.5040 -0.2585  0.1128
  719TMC3    O210638   0.582   4.309  12.700 -0.4140  0.0352  0.5895
  720MPD2     C10639   3.314   1.648  14.089  0.5617  0.4078 -0.7401
  720MPD2    C110640   3.390   1.732  14.009  0.5967 -0.5294 -0.0168
  720MPD2    C210641   3.528   1.756  14.038  0.1406 -0.4831  0.2598
  720MPD2    C310642   3.589   1.700  14.150  0.0225  0.4752  0.3544
  720MPD2    C410643   3.516   1.610  14.227  0.1248  0.0361  0.3437
  720MPD2    C510644   3.382   1.588  14.197  0.1813 -0.1241 -0.0443
  720MPD2     H10645   3.584   1.827  13.978 -2.7177 -0.3278 -2.2476
  720MPD2    H110646   3.559   1.559  14.313  0.8556  0.6221  0.3312
  720MPD2    H210647   3.217   1.612  14.058  2.0314 -2.6840 -1.7058
  720MPD2    H310648   3.330   1.513  14.255  1.2774  0.7774  2.0818
  720MPD2     N10649   3.731   1.719  14.166 -0.6071 -0.3145 -0.5008
  720MPD2    H510650   3.777   1.759  14.085 -1.2081  1.7536  0.1739
  720MPD2    N110651   3.331   1.780  13.888 -0.0433 -0.2555  0.0775
  720MPD2    H710652   3.397   1.837  13.836  1.8158 -1.9110  0.6272
  721TMC3    C110653   3.936   1.690  14.274  0.2963 -0.9555 -0.3266
  721TMC3    C210654   4.005   1.712  14.385 -0.2234 -0.2286 -0.2408
  721TMC3    C310655   4.143   1.719  14.384 -0.0690 -0.7171  0.1042
  721TMC3    C410656   4.014   1.641  14.169  0.1187  0.0579 -0.4964
  721TMC3    C510657   4.148   1.657  14.161  0.3020 -0.5284 -0.0331
  721TMC3    C610658   4.214   1.700  14.266 -0.8370 -0.2775  0.7084
  721TMC3     C10659   3.794   1.677  14.279  0.8044 -0.8587 -0.2651
  721TMC3     O10660   3.750   1.654  14.392  0.9783  0.1140  0.2795
  721TMC3     H10661   3.956   1.749  14.474  0.1741 -1.6422  0.5434
  721TMC3    H110662   3.958   1.600  14.086  0.2592 -1.2668  0.0694
  721TMC3    H210663   4.319   1.724  14.250 -0.1720 -2.6758  1.5490
  721TMC3    C710664   4.215   1.672  14.030  0.2914  0.3803 -0.1969
  721TMC3    C810665   4.210   1.741  14.508  0.2960 -0.8927 -0.5316
  721TMC3    O110666   4.337   1.674  14.038 -0.3524  0.2577 -0.3992
  721TMC3    O210667   4.327   1.750  14.485  0.2359 -0.2279 -0.7943
  722MPD2     C10668   2.878   0.055  13.334  0.3307 -0.0587  0.2225
  722MPD2    C110669   2.837   0.185  13.286  0.2591 -0.7147  0.0373
  722MPD2    C210670   2.705   0.222  13.277 -0.4750  1.0756 -0.3625
  722MPD2    C310671   2.606   0.136  13.306  0.4414  0.0452 -0.3938
  722MPD2    C410672   2.641   0.011  13.352  0.4309 -0.6799 -0.2180
  722MPD2    C510673   2.774   4.703  13.366  0.0560  0.0224 -0.0650
  722MPD2     H10674   2.680   0.320  13.236 -1.3131  1.5162  1.2037
  722MPD2    H110675   2.569   4.660  13.368  0.0901  0.2495  2.9787
  722MPD2    H210676   2.978   0.015  13.339  1.1509  2.0522  1.0158
  722MPD2    H310677   2.797   4.602  13.397 -0.0023 -0.2456 -0.9026
  722MPD2     N10678   2.474   0.181  13.295  0.0370  0.1916  0.3650
  722MPD2    H510679   2.450   0.278  13.278 -1.2472 -0.2676 -0.4580
  722MPD2    N110680   2.935   0.288  13.269 -0.5844  0.8141  0.1875
  722MPD2    H710681   2.900   0.375  13.231 -0.9344 -0.3407 -2.2005
  723TMC3    C110682   2.241   0.178  13.305  0.5990 -0.7302 -0.2388
  723TMC3    C210683   2.125   0.132  13.361  0.2644  0.3747  0.2294
  723TMC3    C310684   2.004   0.192  13.336  0.4074  0.0896  0.3657
  723TMC3    C410685   2.242   0.291  13.228 -0.3056 -0.4275  0.4466
  723TMC3    C510686   2.123   0.348  13.201 -0.8450  0.1180  0.2107
  723TMC3    C610687   2.004   0.303  13.251 -0.2290  0.0919  0.2361
  723TMC3     C10688   2.363   0.104  13.326  0.4281  0.0707 -0.3849
  723TMC3     O10689   2.348   4.709  13.329 -0.0672 -0.3322  0.2283
  723TMC3     H10690   2.133   0.040  13.417 -1.1717  0.2607  0.2494
  723TMC3    H110691   2.334   0.336  13.193 -0.1314  0.6027  2.2201
  723TMC3    H210692   1.911   0.357  13.240  0.0648  1.0648  2.5677
  723TMC3    C710693   2.133   0.476  13.137 -0.2986 -0.4221 -0.0185
  723TMC3    C810694   1.886   0.106  13.330  0.2013  0.1362  0.3883
  723TMC3    O110695   2.036   0.547  13.160  0.7116  0.2965  0.0682
  723TMC3    O210696   1.786   0.175  13.326  0.1248 -0.1249  0.0200
  724TMC3    C110697   2.824   3.464   9.067  1.2811  0.5403  0.2009
  724TMC3    C210698   2.809   3.403   9.190  0.5831  0.0581  0.0279
  724TMC3    C310699   2.819   3.475   9.302 -0.0940 -0.1892  0.5789
  724TMC3    C410700   2.828   3.598   9.058  0.2340  0.7593  0.0162
  724TMC3    C510701   2.837   3.676   9.173  0.3696 -0.7608 -0.1093
  724TMC3    C610702   2.824   3.616   9.296  0.5433 -0.2964  0.3730
  724TMC3     C10703   2.893   3.385   8.968 -0.0365  0.1608 -0.4144
  724TMC3     O10704   2.992   3.431   8.918  0.5387  0.4410 -0.6304
  724TMC3     H10705   2.842   3.300   9.199 -0.5053 -0.3213 -0.3073
  724TMC3    H110706   2.855   3.640   8.962  0.3998 -0.3581 -0.4219
  724TMC3    H210707   2.822   3.671   9.389  2.2097 -1.4898  1.1007
  724TMC3    C710708   2.948   3.771   9.183 -0.2146 -0.0854 -0.0486
  724TMC3    C810709   2.893   3.417   9.416 -0.0920 -0.0466  0.2938
  724TMC3    O110710   2.992   3.791   9.297  0.0453 -0.0561 -0.8699
  724TMC3    O210711   2.876   3.300   9.436 -0.1333 -0.4313 -0.2472
  725TMC3    C110712   0.080   1.533  12.598 -0.1766  0.1663  0.1599
  725TMC3    C210713   0.136   1.565  12.474  0.2632  0.1972  0.1239
  725TMC3    C310714   0.187   1.460  12.409  1.0109  0.0543 -0.4449
  725TMC3    C410715   0.097   1.420  12.671  0.2277  0.0595  0.0363
  725TMC3    C510716   0.166   1.322  12.604 -0.6098 -0.7432  0.3538
  725TMC3    C610717   0.206   1.340  12.471 -0.4232 -0.0314  0.4416
  725TMC3     C10718   4.715   1.635  12.651  0.0638 -0.7185  0.8368
  725TMC3     O10719   4.722   1.747  12.598 -0.0223  0.1419 -0.2971
  725TMC3     H10720   0.119   1.658  12.420 -1.7243 -0.1535  0.1733
  725TMC3    H110721   0.059   1.415  12.773 -1.9305 -0.9819 -0.8314
  725TMC3    H210722   0.237   1.258  12.408  1.6324  0.1263  1.2473
  725TMC3    C710723   0.182   1.190  12.657 -0.6266 -0.5122 -0.1052
  725TMC3    C810724   0.194   1.452  12.264 -1.3346  0.2430  0.1286
  725TMC3    O110725   0.188   1.101  12.571  0.6042  0.2513 -0.0724
  725TMC3    O210726   0.229   1.342  12.216 -0.0063 -0.7805  0.3993
  726MPD2     C10727   2.887   4.044  10.550  0.1834  0.8117  0.2074
  726MPD2    C110728   2.781   4.084  10.467  0.6905  0.6973 -0.0358
  726MPD2    C210729   2.687   3.994  10.419 -0.0190 -0.0707 -0.2574
  726MPD2    C310730   2.701   3.865  10.454 -0.1794  0.4641 -0.0620
  726MPD2    C410731   2.809   3.814  10.529 -0.0965 -0.1457 -0.5209
  726MPD2    C510732   2.898   3.907  10.576 -0.2336 -0.7926  0.2678
  726MPD2     H10733   2.608   4.028  10.353  0.4824 -0.7323 -1.1958
  726MPD2    H110734   2.807   3.713  10.566  2.8201 -0.6661 -1.7740
  726MPD2    H210735   2.968   4.105  10.588 -0.8460  1.2043  1.7935
  726MPD2    H310736   2.989   3.869  10.622 -0.1399 -1.3190 -0.3343
  726MPD2     N10737   2.599   3.766  10.430 -0.6230  0.2855 -0.0605
  726MPD2    H510738   2.618   3.673  10.467  0.2194  0.8546  0.9356
  726MPD2    N110739   2.765   4.219  10.445  0.5702  0.5763 -0.2954
  726MPD2    H710740   2.709   4.243  10.363 -3.6866  0.1577  2.5397
  727TMC3    C110741   2.750   4.440  10.497  0.0393  0.5234 -0.4054
  727TMC3    C210742   2.747   4.520  10.611  0.6185  0.1622 -0.1908
  727TMC3    C310743   2.832   4.624  10.632  0.3033  0.4992  0.3173
  727TMC3    C410744   2.829   4.486  10.397  0.1853  0.5968  0.5538
  727TMC3    C510745   2.901   4.599  10.416 -0.1252 -0.4489 -0.1105
  727TMC3    C610746   2.924   4.661  10.533 -0.1969 -0.3991 -0.2694
  727TMC3     C10747   2.799   4.311  10.536 -0.5138  0.1069  0.2023
  727TMC3     O10748   2.819   4.287  10.652 -0.3319 -0.4753 -0.0072
  727TMC3     H10749   2.698   4.474  10.696 -0.2729  1.1321 -0.1793
  727TMC3    H110750   2.815   4.447  10.297 -1.2600  1.6397  0.3357
  727TMC3    H210751   3.010   4.726  10.541 -2.7499  3.0148 -0.9098
  727TMC3    C710752   2.926   4.675  10.297  0.2773  0.2573 -0.3172
  727TMC3    C810753   2.871   4.646  10.765  0.1023  0.2600  0.2818
  727TMC3    O110754   2.946   4.624  10.190 -0.8968 -0.6169 -0.4533
  727TMC3    O210755   2.844   4.556  10.844 -0.0014  0.1476  0.0338
  728TMC3    C110756   1.409   1.839  15.541  0.2215 -0.3729  0.2730
  728TMC3    C210757   1.524   1.804  15.605  0.0576  1.0018 -0.9041
  728TMC3    C310758   1.629   1.775  15.529 -0.1408 -0.1378  0.4686
  728TMC3    C410759   1.395   1.839  15.403  0.5087 -0.2694  0.5478
  728TMC3    C510760   1.503   1.807  15.332 -0.4109 -0.0166 -0.2939
  728TMC3    C610761   1.622   1.770  15.392 -0.0992 -0.2961 -0.0805
  728TMC3     C10762   1.304   1.890  15.631 -0.8550  0.1181 -0.3713
  728TMC3     O10763   1.341   1.912  15.743  0.2928 -0.3067  0.3434
  728TMC3     H10764   1.524   1.799  15.714  1.1657 -0.1400 -0.9643
  728TMC3    H110765   1.310   1.880  15.350  0.0263 -0.1557  1.4041
  728TMC3    H210766   1.705   1.735  15.332  0.3129  1.3450 -0.4796
  728TMC3    C710767   1.498   1.805  15.189 -0.1925 -0.2966  0.3905
  728TMC3    C810768   1.764   1.753  15.586  0.4400  0.4329  0.2426
  728TMC3    O110769   1.379   1.798  15.152  0.1727  0.1485  0.3815
  728TMC3    O210770   1.764   1.744  15.709 -0.0826  0.0629 -0.0888
  729MPD2     C10771   3.938   3.043  16.234 -0.2039  0.1659  0.8374
  729MPD2    C110772   3.961   3.168  16.304 -0.6705 -0.1485  0.3235
  729MPD2    C210773   3.912   3.166  16.437  0.6265  0.6546 -0.4734
  729MPD2    C310774   3.864   3.053  16.500  0.8843 -0.4416 -0.4880
  729MPD2    C410775   3.856   2.932  16.430 -0.6231 -0.4281  0.6308
  729MPD2    C510776   3.899   2.930  16.304 -0.2304  0.3610 -0.3858
  729MPD2     H10777   3.930   3.251  16.503  0.8030  0.4398 -0.2464
  729MPD2    H110778   3.814   2.844  16.477 -0.1728 -0.5745  0.7520
  729MPD2    H210779   3.962   3.041  16.128 -0.9676  0.4971  0.6548
  729MPD2    H310780   3.894   2.836  16.250 -2.8343  2.0702 -3.1076
  729MPD2     N10781   3.808   3.053  16.630  0.0764  0.2678 -0.5605
  729MPD2    H510782   3.772   2.968  16.674 -0.5932  0.6037 -0.4568
  729MPD2    N110783   4.022   3.276  16.235 -0.3613  0.6005 -0.5835
  729MPD2    H710784   4.043   3.268  16.136  1.3945  0.3608 -0.1850
  730TMC3    C110785   3.755   3.141  16.844 -0.0321  0.0931 -0.1925
  730TMC3    C210786   3.853   3.073  16.905  0.6736 -0.0852  0.1801
  730TMC3    C310787   3.913   3.124  17.014  0.4580  0.1238 -0.1662
  730TMC3    C410788   3.698   3.248  16.908  0.1748 -0.5091 -0.1635
  730TMC3    C510789   3.757   3.289  17.026 -0.5846  0.2842  0.2701
  730TMC3    C610790   3.865   3.228  17.080  0.5133 -0.2270 -0.4694
  730TMC3     C10791   3.785   3.163  16.706 -0.0651 -1.0141 -0.1786
  730TMC3     O10792   3.763   3.279  16.670 -0.1427  0.2891 -0.1526
  730TMC3     H10793   3.897   2.989  16.853 -3.1970  0.1390 -3.4195
  730TMC3    H110794   3.618   3.309  16.867 -0.0570 -0.7843 -0.1206
  730TMC3    H210795   3.911   3.259  17.173 -1.3621  0.2522  0.2843
  730TMC3    C710796   3.731   3.433  17.052  0.1504 -0.0220 -0.3291
  730TMC3    C810797   4.053   3.097  17.020  0.7716  0.0383  0.0132
  730TMC3    O110798   3.678   3.502  16.967  0.2033  0.8961  0.6342
  730TMC3    O210799   4.096   2.982  16.999 -0.2311 -0.1151  0.1153
  731MPD2     C10800   4.225   1.575  12.559  0.0548  0.2388  0.1351
  731MPD2    C110801   4.279   1.452  12.525 -0.8971 -0.3041  0.8763
  731MPD2    C210802   4.223   1.343  12.585  0.1897 -0.0627  0.0615
  731MPD2    C310803   4.100   1.354  12.655 -0.8008  0.1658 -0.2393
  731MPD2    C410804   4.051   1.478  12.676 -0.3744 -0.6080  0.0576
  731MPD2    C510805   4.116   1.590  12.637 -0.1139  0.2779  0.4058
  731MPD2     H10806   4.276   1.249  12.582  0.8974  0.3198  0.4733
  731MPD2    H110807   3.963   1.497  12.737 -1.9524 -3.3508 -1.3824
  731MPD2    H210808   4.277   1.663  12.523 -0.9186  1.3317  1.3843
  731MPD2    H310809   4.069   1.688  12.640 -2.3523 -0.7670 -0.5395
  731MPD2     N10810   4.048   1.241  12.721 -0.4677 -0.5193 -0.0156
  731MPD2    H510811   4.097   1.152  12.714 -0.2934 -0.6226  2.4885
  731MPD2    N110812   4.383   1.445  12.429  0.1983 -0.1368  0.6863
  731MPD2    H710813   4.401   1.523  12.367  0.6656 -0.2005  0.7394
  732TMC3    C110814   4.514   1.333  12.268 -0.4895  0.3844  0.1497
  732TMC3    C210815   4.444   1.390  12.164  0.4004 -0.5532 -0.9478
  732TMC3    C310816   4.489   1.359  12.041  0.1046 -0.2653 -0.2518
  732TMC3    C410817   4.621   1.250  12.246  0.4027 -0.5533  0.5471
  732TMC3    C510818   4.654   1.224  12.118 -0.2864 -0.4366 -0.4816
  732TMC3    C610819   4.595   1.284  12.010  0.0700 -0.2972  0.9144
  732TMC3     C10820   4.457   1.330  12.402  0.2380  0.7813  0.1251
  732TMC3     O10821   4.477   1.233  12.478 -0.1439  0.1989 -0.0118
  732TMC3     H10822   4.352   1.447  12.177  0.3602 -1.0801  1.1996
  732TMC3    H110823   4.658   1.195  12.331 -0.2153 -0.0564  1.1312
  732TMC3    H210824   4.613   1.262  11.906 -0.2571 -0.7551  0.9560
  732TMC3    C710825   0.035   1.137  12.088  0.1157 -0.1183 -0.8494
  732TMC3    C810826   4.410   1.394  11.928 -0.5327 -0.4744  0.5412
  732TMC3    O110827   0.062   1.129  11.969 -0.5216 -0.2392  0.6014
  732TMC3    O210828   4.452   1.430  11.818 -0.1404  0.3582 -0.3692
  733TMC3    C110829   4.692   4.093  13.097 -0.3288  0.6876 -0.5747
  733TMC3    C210830   0.045   4.050  13.197  0.1241  0.0013 -0.2522
  733TMC3    C310831   0.174   4.025  13.161 -0.4075 -0.1089 -0.6407
  733TMC3    C410832   0.003   4.109  12.960  0.7083  0.1592 -0.3680
  733TMC3    C510833   0.126   4.060  12.930  0.3891  0.0691 -0.6164
  733TMC3    C610834   0.209   4.013  13.029  0.6141  0.8948 -0.1573
  733TMC3     C10835   4.546   4.118  13.120  0.8432  0.1350  0.1878
  733TMC3     O10836   4.487   4.190  13.038 -0.1022 -0.4923 -0.3877
  733TMC3     H10837   0.017   4.058  13.301 -0.1204  0.1144 -0.3277
  733TMC3    H110838   4.657   4.150  12.893 -0.3969  0.3602  0.9928
  733TMC3    H210839   0.303   3.965  13.004 -0.0610 -0.5400  0.0635
  733TMC3    C710840   0.202   4.148  12.849  0.2737  0.7288 -0.3393
  733TMC3    C810841   0.279   4.090  13.240 -0.0281  0.5720 -0.0344
  733TMC3    O110842   0.315   4.176  12.884 -0.1721  0.4262  0.1611
  733TMC3    O210843   0.252   4.116  13.354 -0.3713 -0.4656  0.3160
  734MPD2     C10844   1.874   1.903  12.544 -0.6180 -0.3913  0.8873
  734MPD2    C110845   1.953   1.797  12.494 -0.1621 -0.3210  0.0559
  734MPD2    C210846   2.052   1.831  12.397 -0.0943  0.4211 -0.7378
  734MPD2    C310847   2.065   1.956  12.350  0.4067 -0.2581 -0.4725
  734MPD2    C410848   1.986   2.058  12.408 -0.0610 -0.0814  0.1992
  734MPD2    C510849   1.890   2.032  12.499  0.3880 -0.2661  0.2120
  734MPD2     H10850   2.111   1.760  12.339  0.0990  1.6158 -1.9900
  734MPD2    H110851   1.997   2.165  12.392 -0.4539 -0.4703 -2.7526
  734MPD2    H210852   1.801   1.880  12.621 -1.7950  1.7435  0.4109
  734MPD2    H310853   1.835   2.115  12.540 -0.3948 -1.9590  2.5777
  734MPD2     N10854   2.166   1.979  12.255 -0.2381 -0.1182  0.3136
  734MPD2    H510855   2.230   1.901  12.244  0.9360  0.7690  0.9323
  734MPD2    N110856   1.924   1.663  12.526 -0.2956  0.3656 -0.7613
  734MPD2    H710857   1.850   1.635  12.590  2.1150  0.4037  2.0943
  735TMC3    C110858   1.948   1.440  12.532  0.4732  0.0240 -0.0624
  735TMC3    C210859   1.848   1.413  12.437  0.0998 -0.0821 -0.0352
  735TMC3    C310860   1.862   1.306  12.349 -0.3254 -0.7897  1.0561
  735TMC3    C410861   2.050   1.349  12.541 -0.2902  0.2238 -0.3674
  735TMC3    C510862   2.069   1.257  12.439 -0.4795 -0.7218 -0.4705
  735TMC3    C610863   1.984   1.243  12.337 -0.3991  0.1395  0.1180
  735TMC3     C10864   2.008   1.566  12.488  0.4945  0.1768  0.5096
  735TMC3     O10865   2.111   1.561  12.422 -0.0458 -0.3959  0.5090
  735TMC3     H10866   1.764   1.482  12.435 -0.3354 -0.5871  0.7716
  735TMC3    H110867   2.138   1.376  12.599 -0.2540 -1.6185  0.4212
  735TMC3    H210868   1.993   1.184  12.247 -2.8276 -1.6693  1.0529
  735TMC3    C710869   2.205   1.229  12.394 -0.0311 -0.8265  0.4787
  735TMC3    C810870   1.831   1.355  12.215 -0.2160 -0.2510  0.5754
  735TMC3    O110871   2.227   1.291  12.293 -0.1132  0.1241  0.8477
  735TMC3    O210872   1.713   1.355  12.179  0.1377  0.0184  0.0997
  736MPD2     C10873   2.450   1.002  12.516 -0.4122  0.3933  0.2034
  736MPD2    C110874   2.412   1.120  12.458 -0.5555  0.0268  0.2706
  736MPD2    C210875   2.494   1.194  12.372 -0.1499 -0.0199  0.0639
  736MPD2    C310876   2.616   1.139  12.337 -0.4237 -0.0873  0.4969
  736MPD2    C410877   2.644   1.012  12.378 -0.2734 -0.0787 -0.3674
  736MPD2    C510878   2.562   0.950  12.465  0.6903  0.0097 -0.3434
  736MPD2     H10879   2.462   1.291  12.337 -1.5588 -0.7915 -0.8232
  736MPD2    H110880   2.730   0.958  12.340  1.0204  2.6675 -1.3822
  736MPD2    H210881   2.385   0.929  12.562 -1.0391  0.8883  0.0913
  736MPD2    H310882   2.582   0.845  12.484 -1.2723  0.0308  1.7543
  736MPD2     N10883   2.718   1.200  12.253  0.2807  0.4123 -0.3323
  736MPD2    H510884   2.787   1.138  12.211 -1.3780 -1.7088  0.0995
  736MPD2    N110885   2.278   1.157  12.479 -0.0860  0.0213 -0.0470
  736MPD2    H710886   2.219   1.114  12.549 -1.2683 -0.1825 -1.1797
  737TMC3    C110887   2.841   1.384  12.148 -0.5844 -0.8890  0.0269
  737TMC3    C210888   2.883   1.509  12.166  0.3612  0.4857  0.2663
  737TMC3    C310889   2.955   1.578  12.072 -0.4089  1.1276  0.7230
  737TMC3    C410890   2.902   1.312  12.053 -0.9847 -0.3274  0.6498
  737TMC3    C510891   2.986   1.373  11.966  0.1308  0.3336 -0.0035
  737TMC3    C610892   3.017   1.510  11.974 -0.0490  0.4024  0.4401
  737TMC3     C10893   2.723   1.333  12.220 -0.0817  0.3464  0.1493
  737TMC3     O10894   2.657   1.415  12.278  0.2193 -0.5314 -0.3248
  737TMC3     H10895   2.825   1.574  12.231 -0.6396  0.3365 -0.4665
  737TMC3    H110896   2.857   1.219  12.020 -0.9919 -0.5968  1.4070
  737TMC3    H210897   3.090   1.547  11.903  0.5290 -0.1404  0.7539
  737TMC3    C710898   3.040   1.281  11.867  0.5426  0.0998  0.0264
  737TMC3    C810899   2.980   1.722  12.088  0.0808  0.2505  0.3133
  737TMC3    O110900   3.040   1.162  11.901  0.0817 -0.6314  0.4677
  737TMC3    O210901   3.003   1.750  12.205  0.1048 -0.4151 -0.1726
  738MPD2     C10902   2.608   0.564  14.802 -0.8870  0.6703  0.1355
  738MPD2    C110903   2.668   0.518  14.916 -0.0572 -0.1581  0.9518
  738MPD2    C210904   2.746   0.611  14.984 -0.0223  0.2449  0.5339
  738MPD2    C310905   2.775   0.735  14.934 -0.2149 -0.5948  0.3009
  738MPD2    C410906   2.718   0.775  14.821 -0.1660  0.2927 -0.1098
  738MPD2    C510907   2.634   0.690  14.757 -0.5548  0.1880 -0.1629
  738MPD2     H10908   2.812   0.585  15.066 -1.1750 -1.5770  0.8835
  738MPD2    H110909   2.736   0.869  14.769  0.9541  0.6221  0.8638
  738MPD2    H210910   2.527   0.512  14.751 -0.1822 -0.2748 -0.0345
  738MPD2    H310911   2.582   0.720  14.666 -1.4086  1.5624  0.7892
  738MPD2     N10912   2.885   0.811  14.978 -0.6433 -0.2227 -0.0738
  738MPD2    H510913   2.906   0.885  14.912 -0.6564 -1.1576 -1.1202
  738MPD2    N110914   2.641   0.390  14.966  0.2504 -0.0698  0.5111
  738MPD2    H710915   2.585   0.325  14.913 -0.1586  1.8888 -1.4337
  739TMC3    C110916   3.069   0.880  15.084 -0.2489  0.0883  0.7054
  739TMC3    C210917   3.142   0.870  14.968  0.2897  0.0022 -0.0477
  739TMC3    C310918   3.257   0.938  14.972  0.0839  0.3121  0.1110
  739TMC3    C410919   3.120   0.931  15.199  0.0121 -0.2464 -0.2827
  739TMC3    C510920   3.219   1.026  15.184  0.7692 -0.2732  0.0503
  739TMC3    C610921   3.296   1.028  15.065 -0.1172  0.1186  0.7107
  739TMC3     C10922   2.955   0.794  15.098 -0.4028  0.5996 -0.2666
  739TMC3     O10923   2.929   0.738  15.201  0.2120 -0.3937 -0.3256
  739TMC3     H10924   3.120   0.797  14.890 -0.4014 -1.6883  1.7179
  739TMC3    H110925   3.052   0.939  15.283  0.5585  0.3394  0.0999
  739TMC3    H210926   3.376   1.099  15.049 -3.1462  3.0710 -1.3378
  739TMC3    C710927   3.240   1.126  15.292 -0.2923 -0.5898  0.4938
  739TMC3    C810928   3.333   0.926  14.848 -0.1836  0.1630  0.2516
  739TMC3    O110929   3.178   1.107  15.397  0.1590  1.0262 -0.1829
  739TMC3    O210930   3.280   0.879  14.748 -0.2330  0.4615 -0.3974
  740TMC3    C110931   3.524   1.995  14.689  0.5078 -0.8433 -0.0922
  740TMC3    C210932   3.581   2.018  14.811 -0.0298  0.3140  0.0737
  740TMC3    C310933   3.701   2.076  14.815 -0.0496  0.0079 -1.0453
  740TMC3    C410934   3.583   2.031  14.572  0.3748 -0.6539 -0.5570
  740TMC3    C510935   3.716   2.080  14.576 -0.3609 -0.5961  0.8847
  740TMC3    C610936   3.771   2.094  14.699  0.2871 -0.3297 -0.7944
  740TMC3     C10937   3.385   1.951  14.680  0.5804 -0.1523  0.2873
  740TMC3     O10938   3.322   1.992  14.582  0.2202 -0.0263 -0.0346
  740TMC3     H10939   3.527   1.990  14.901 -0.1652 -0.0010 -0.1078
  740TMC3    H110940   3.532   2.021  14.477 -2.3120 -0.3814  0.8855
  740TMC3    H210941   3.879   2.107  14.707  0.0058  0.9969  0.9304
  740TMC3    C710942   3.812   2.062  14.468  0.0448 -0.3584 -0.8068
  740TMC3    C810943   3.755   2.119  14.945  0.2865 -0.1052 -0.4174
  740TMC3    O110944   3.922   2.019  14.500 -0.1938  0.2379  0.6882
  740TMC3    O210945   3.676   2.092  15.039 -0.1732 -0.3845 -0.4484
  741TMC3    C110946   3.533   1.364  13.879 -0.2711 -0.5377  0.2840
  741TMC3    C210947   3.420   1.292  13.884  0.4898  0.3060  0.3867
  741TMC3    C310948   3.388   1.231  14.000  0.3764  0.6348 -0.8169
  741TMC3    C410949   3.626   1.362  13.981 -0.3352  0.9849  0.2506
  741TMC3    C510950   3.590   1.287  14.089  0.1303 -0.7677 -0.0763
  741TMC3    C610951   3.473   1.222  14.107 -0.2089 -0.6204 -0.2928
  741TMC3     C10952   3.566   1.473  13.781 -0.1806  0.7611  0.3916
  741TMC3     O10953   3.670   1.543  13.798  0.1356  0.0167  0.5970
  741TMC3     H10954   3.353   1.288  13.799  1.7899 -1.3873 -0.5623
  741TMC3    H110955   3.722   1.412  13.981  0.4876 -0.5930  0.6342
  741TMC3    H210956   3.458   1.168  14.200  0.5538  0.2563  0.3519
  741TMC3    C710957   3.667   1.295  14.215  0.2862  0.7676 -0.2912
  741TMC3    C810958   3.264   1.148  14.002  0.4449  0.0544 -0.1874
  741TMC3    O110959   3.614   1.262  14.318  0.6056 -0.0556 -0.0217
  741TMC3    O210960   3.212   1.128  13.892 -0.1341  0.3919 -0.3252
  742TMC3    C110961   2.813   3.953  15.778  0.3225  0.1439 -0.3185
  742TMC3    C210962   2.751   4.030  15.679 -0.0213 -0.0491  0.0154
  742TMC3    C310963   2.827   4.066  15.572  0.1108 -0.6062  0.7241
  742TMC3    C410964   2.949   3.937  15.776  0.5097  0.5388 -0.2109
  742TMC3    C510965   3.024   3.987  15.676  0.2952  0.0467 -0.3489
  742TMC3    C610966   2.964   4.044  15.566 -0.7117  0.5726  0.2998
  742TMC3     C10967   2.738   3.912  15.893 -0.0473 -0.3399  0.1737
  742TMC3     O10968   2.777   3.816  15.958 -0.1522 -0.0280  0.3719
  742TMC3     H10969   2.645   4.013  15.663  0.2189 -1.6456  0.1125
  742TMC3    H110970   2.999   3.870  15.845 -1.8620 -0.2995  0.6958
  742TMC3    H210971   3.016   4.084  15.479  2.0922 -1.1571  1.1912
  742TMC3    C710972   3.163   3.948  15.652  0.1985  0.2062 -0.3861
  742TMC3    C810973   2.746   4.088  15.450 -0.0796 -0.1399 -0.3932
  742TMC3    O110974   3.207   3.972  15.538 -0.0161  0.1503 -0.0171
  742TMC3    O210975   2.623   4.106  15.457  0.3239 -0.3711  0.1944
  743MPD2     C10976   4.253   4.485   1.086  0.6201  0.1985  0.1668
  743MPD2    C110977   4.328   4.529   0.981 -0.2846  0.0254 -0.4564
  743MPD2    C210978   4.416   4.440   0.919 -0.9735  0.1040 -0.1594
  743MPD2    C310979   4.422   4.312   0.973  0.5554  0.4685  0.0953
  743MPD2    C410980   4.354   4.271   1.082 -0.4958 -0.2513  0.5172
  743MPD2    C510981   4.255   4.354   1.128 -0.8237 -0.6830 -0.0153
  743MPD2     H10982   4.487   4.469   0.842 -0.3843  0.5908  0.5612
  743MPD2    H110983   4.367   4.175   1.129 -2.1374 -1.4009 -1.3708
  743MPD2    H210984   4.196   4.559   1.142  1.1084 -0.3897  1.4466
  743MPD2    H310985   4.195   4.321   1.212  0.1318 -0.8874  0.5926
  743MPD2     N10986   4.533   4.236   0.933  0.9337  0.5655  0.3122
  743MPD2    H510987   4.585   4.269   0.853 -0.6533  0.0534 -0.9317
  743MPD2    N110988   4.334   4.667   0.937  0.1766  0.0528  1.0198
  743MPD2    H710989   4.414   4.693   0.881 -0.0815  1.8091  1.4677
  744TMC3    C110990   4.288   0.164   0.910 -0.9348 -0.6104 -0.3137
  744TMC3    C210991   4.287   0.271   0.991  0.8181  0.6786  0.0534
  744TMC3    C310992   4.346   0.381   0.940 -0.4936  0.5379 -0.2885
  744TMC3    C410993   4.353   0.161   0.787  0.5472 -0.8856 -0.4551
  744TMC3    C510994   4.401   0.276   0.735  0.2133  0.8414  0.2999
  744TMC3    C610995   4.409   0.384   0.814 -0.6207  0.0103  0.3946
  744TMC3     C10996   4.250   0.041   0.974  0.6044  0.5000 -0.5482
  744TMC3     O10997   4.143   0.039   1.036  0.3813  0.4289  0.8546
  744TMC3     H10998   4.249   0.263   1.092 -1.4301 -0.5394 -0.8791
  744TMC3    H110999   4.334   0.074   0.724 -0.2387 -1.1470  0.1462
  744TMC3    H211000   4.461   0.475   0.785 -0.2670  0.4784  2.5160
  744TMC3    C711001   4.478   0.282   0.615 -0.5618  0.7788 -0.4394
  744TMC3    C811002   4.348   0.504   1.020  0.2598 -0.1260  0.4326
  744TMC3    O111003   4.551   0.377   0.595  0.1864  0.1821  0.0122
  744TMC3    O211004   4.447   0.576   1.012 -0.4314 -0.0399 -0.2151
  745TMC3    C111005   3.299   0.048  14.257  0.6010 -0.8009 -0.4830
  745TMC3    C211006   3.291   0.171  14.215 -0.6217 -0.2143  0.1641
  745TMC3    C311007   3.304   0.190  14.077 -0.4797  0.4170  0.2184
  745TMC3    C411008   3.307   4.670  14.177 -0.0630 -0.2579  0.4003
  745TMC3    C511009   3.309   4.683  14.039 -0.7700 -0.3026 -0.6229
  745TMC3    C611010   3.313   0.084  13.993 -0.6962 -0.1486 -0.4616
  745TMC3     C11011   3.381   0.033  14.377 -0.1431 -0.0545 -0.4246
  745TMC3     O11012   3.346   0.107  14.470 -0.2649  0.5068 -0.0784
  745TMC3     H11013   3.301   0.245  14.293  0.2995  0.2254 -0.3786
  745TMC3    H111014   3.305   4.571  14.222 -1.9117 -0.3771  0.0740
  745TMC3    H211015   3.321   0.100  13.886  1.4672 -1.2384 -0.4527
  745TMC3    C711016   3.324   4.561  13.954  0.4309 -0.1580  0.0071
  745TMC3    C811017   3.392   0.298  14.033 -0.5434 -0.2499 -0.4293
  745TMC3    O111018   3.311   4.453  14.004 -0.0732  0.1723 -0.1490
  745TMC3    O211019   3.402   0.309  13.911  0.4645 -0.4198  0.3452
  746TMC3    C111020   1.426   1.556  10.660 -0.5739  0.3210  0.0787
  746TMC3    C211021   1.472   1.509  10.541  0.0315 -0.1291 -0.5068
  746TMC3    C311022   1.387   1.438  10.471  0.0624 -0.6905 -0.7978
  746TMC3    C411023   1.307   1.532  10.713  0.5947  0.6060 -0.0777
  746TMC3    C511024   1.222   1.455  10.636 -0.2899 -0.2548 -0.8075
  746TMC3    C611025   1.268   1.408  10.516 -0.1352 -0.2643 -0.1561
  746TMC3     C11026   1.511   1.633  10.748  0.0407  0.1620 -0.8640
  746TMC3     O11027   1.484   1.638  10.864  0.1863  0.3269  0.1617
  746TMC3     H11028   1.578   1.514  10.522  0.2650 -0.5490  0.7072
  746TMC3    H111029   1.261   1.583  10.797  1.6495  1.9844 -0.3391
  746TMC3    H211030   1.199   1.345  10.461 -0.9155  1.0604 -0.6929
  746TMC3    C711031   1.106   1.407  10.699  0.6216  0.4058 -0.5031
  746TMC3    C811032   1.432   1.376  10.348 -0.1473  0.4026  0.6317
  746TMC3    O111033   1.015   1.365  10.630 -0.0458  0.7227  0.6667
  746TMC3    O211034   1.377   1.283  10.289 -0.1246 -0.3479  0.0108
  747TMC3    C111035   3.661   1.549  11.029  0.9578 -0.4383 -0.9236
  747TMC3    C211036   3.556   1.469  11.071 -0.7755  0.5800  0.1507
  747TMC3    C311037   3.530   1.458  11.203 -0.1071 -0.2091  0.2170
  747TMC3    C411038   3.750   1.604  11.124 -0.2640  0.0829  0.1288
  747TMC3    C511039   3.727   1.578  11.257 -0.6963 -0.8969 -0.0897
  747TMC3    C611040   3.617   1.506  11.299 -0.6063 -0.6748 -0.3303
  747TMC3     C11041   3.665   1.602  10.894  0.9038  0.7725 -0.3072
  747TMC3     O11042   3.733   1.701  10.886 -0.0709 -0.0479  0.0589
  747TMC3     H11043   3.488   1.419  11.003  1.4758 -0.6497 -1.2132
  747TMC3    H111044   3.836   1.658  11.086  0.3249 -1.2039 -0.3824
  747TMC3    H211045   3.606   1.489  11.405 -0.1670 -0.1041 -0.1879
  747TMC3    C711046   3.821   1.633  11.359 -0.2853  0.5385  0.2825
  747TMC3    C811047   3.408   1.384  11.234 -0.3920 -0.6354 -0.5233
  747TMC3    O111048   3.777   1.642  11.474 -0.4668 -0.4389  0.3950
  747TMC3    O211049   3.362   1.308  11.144 -0.4990  0.1717 -0.6302
  748MPD2     C11050   0.036   2.297   2.266  0.2740  0.1929  0.3918
  748MPD2    C111051   4.728   2.162   2.256 -0.4477 -0.3018  0.1356
  748MPD2    C211052   0.046   2.091   2.148  0.3795  0.5614  0.6680
  748MPD2    C311053   0.125   2.142   2.045  0.1792 -0.1898 -0.0272
  748MPD2    C411054   0.163   2.273   2.058  0.2598 -0.2200  0.1367
  748MPD2    C511055   0.122   2.348   2.170  0.0177 -0.3170 -1.1916
  748MPD2     H11056   0.021   1.986   2.151 -2.1396  1.1471  0.7291
  748MPD2    H111057   0.223   2.325   1.986  1.4281  0.5394  1.6638
  748MPD2    H211058   0.013   2.364   2.347  1.5186 -0.4670  1.2785
  748MPD2    H311059   0.138   2.455   2.173  2.1403 -0.7611  2.4771
  748MPD2     N11060   0.166   2.061   1.933  0.2131  0.3367  0.2941
  748MPD2    H511061   0.127   1.968   1.925  0.4252  0.3356 -0.8085
  748MPD2    N111062   4.636   2.115   2.350  0.4757  0.0968  0.8308
  748MPD2    H711063   4.586   2.178   2.411 -0.1777  0.8211 -0.4610
  749TMC3    C111064   0.253   1.997   1.722 -0.0575 -0.1223  0.4570
  749TMC3    C211065   0.227   1.867   1.756  0.5633  0.4153  0.4172
  749TMC3    C311066   0.221   1.771   1.662 -0.5303  0.5985  0.2221
  749TMC3    C411067   0.260   2.037   1.593 -0.2206  0.0543 -0.6369
  749TMC3    C511068   0.261   1.930   1.497  0.4579  0.5302 -0.0615
  749TMC3    C611069   0.227   1.799   1.530 -0.3239 -0.4756 -0.0673
  749TMC3     C11070   0.228   2.102   1.820 -0.5829  0.6417 -0.4264
  749TMC3     O11071   0.244   2.217   1.788 -0.8452  0.1984  0.7275
  749TMC3     H11072   0.221   1.843   1.862  0.7776 -0.3793  0.2513
  749TMC3    H111073   0.290   2.135   1.557 -0.2518  0.7277  1.2059
  749TMC3    H211074   0.216   1.723   1.453  0.9516 -0.3211 -0.3973
  749TMC3    C711075   0.278   1.965   1.358  0.3721  0.5881 -0.1916
  749TMC3    C811076   0.220   1.630   1.701  0.1737  0.0626  0.4082
  749TMC3    O111077   0.326   2.074   1.327  0.0842 -0.3572 -0.1810
  749TMC3    O211078   0.190   1.612   1.820  0.0650 -0.0261  0.7101
  750MPD2     C11079   1.601   3.654  11.178 -0.3932 -0.2977  0.0458
  750MPD2    C111080   1.505   3.559  11.156  0.2876  0.3681  0.4410
  750MPD2    C211081   1.546   3.431  11.120  0.2535  0.1204  0.0954
  750MPD2    C311082   1.677   3.406  11.087  0.2856  0.4056  0.1133
  750MPD2    C411083   1.766   3.510  11.091 -0.6444  0.0457  0.1643
  750MPD2    C511084   1.734   3.628  11.150 -0.5613 -0.6564 -0.9890
  750MPD2     H11085   1.472   3.353  11.112  3.6983 -3.0941 -0.6845
  750MPD2    H111086   1.869   3.507  11.058 -0.6018  1.3492  0.1777
  750MPD2    H211087   1.574   3.752  11.217  0.5224  0.4461 -1.1978
  750MPD2    H311088   1.809   3.706  11.147  0.0486 -1.1747  1.0095
  750MPD2     N11089   1.733   3.284  11.041  0.0570 -0.1712  0.0303
  750MPD2    H511090   1.832   3.294  11.022 -0.3013  2.2177 -0.5617
  750MPD2    N111091   1.370   3.597  11.169 -0.4704  0.6281 -0.4406
  750MPD2    H711092   1.353   3.694  11.195  0.2321  0.2558  1.4169
  751TMC3    C111093   1.771   3.054  11.019 -0.3839  0.2579 -0.7267
  751TMC3    C211094   1.752   2.939  11.081 -0.3714  0.0931 -0.2776
  751TMC3    C311095   1.829   2.834  11.054  0.2155  0.4776  0.1552
  751TMC3    C411096   1.871   3.069  10.924  0.0065 -0.6902 -0.1738
  751TMC3    C511097   1.947   2.955  10.899 -1.0577  0.3788 -0.1587
  751TMC3    C611098   1.930   2.836  10.959 -1.2944  0.2703  0.3065
  751TMC3     C11099   1.672   3.161  11.037  0.0349 -0.1902 -0.2557
  751TMC3     O11100   1.564   3.141  11.088  0.4704 -0.2991 -1.2124
  751TMC3     H11101   1.670   2.932  11.151 -0.2659 -1.7678 -0.3528
  751TMC3    H111102   1.890   3.156  10.863 -0.0168 -0.5366  0.0382
  751TMC3    H211103   1.994   2.751  10.937 -2.4835 -0.8150  0.9647
  751TMC3    C711104   1.996   2.936  10.764 -0.0797  0.5197  0.2290
  751TMC3    C811105   1.776   2.697  11.080  0.2230 -0.7413 -0.2693
  751TMC3    O111106   2.092   2.860  10.744  0.1337 -0.5001 -0.4172
  751TMC3    O211107   1.832   2.604  11.026 -0.2616  0.1411  0.4382
  752TMC3    C111108   0.443   3.490  16.583  0.3739  0.2787  0.3106
  752TMC3    C211109   0.539   3.405  16.631  0.0411  0.2387 -0.6461
  752TMC3    C311110   0.561   3.396  16.767  0.0360  0.7924  0.4986
  752TMC3    C411111   0.376   3.578  16.660 -0.5716  0.3829  0.2413
  752TMC3    C511112   0.401   3.566  16.798  0.0559  0.3143 -0.3935
  752TMC3    C611113   0.488   3.469  16.854 -0.2337  0.1902 -0.0823
  752TMC3     C11114   0.406   3.459  16.445 -0.3985  0.8154 -0.0171
  752TMC3     O11115   0.494   3.396  16.382 -0.2736  0.3598 -0.4974
  752TMC3     H11116   0.588   3.330  16.571  1.2566 -0.2278  0.9153
  752TMC3    H111117   0.296   3.638  16.618 -0.7042  2.0910  2.8835
  752TMC3    H211118   0.515   3.465  16.959 -0.5797 -1.2873 -0.0540
  752TMC3    C711119   0.326   3.656  16.879 -0.2677 -0.1234 -0.2001
  752TMC3    C811120   0.641   3.286  16.820 -0.1970 -0.5950  0.4831
  752TMC3    O111121   0.255   3.745  16.829  0.7886  0.4428  0.2453
  752TMC3    O211122   0.706   3.227  16.737  0.4890 -0.5750  0.1606
  753TMC3    C111123   1.851   4.111  13.445  0.4390 -0.6191  0.2320
  753TMC3    C211124   1.961   4.058  13.516 -0.3455 -0.0813  0.0504
  753TMC3    C311125   1.996   3.928  13.491 -0.0619  0.4410 -0.0506
  753TMC3    C411126   1.792   4.030  13.355 -0.3405 -0.0898  0.1142
  753TMC3    C511127   1.833   3.897  13.333 -0.1236 -0.4736  0.2151
  753TMC3    C611128   1.935   3.842  13.401 -0.5100  0.2020 -0.6830
  753TMC3     C11129   1.797   4.243  13.484  0.8091  0.6103 -0.5055
  753TMC3     O11130   1.691   4.280  13.438 -0.7620 -0.3019 -0.8568
  753TMC3     H11131   2.008   4.114  13.597 -0.1313  2.2251 -1.6569
  753TMC3    H111132   1.699   4.056  13.307 -0.9981  0.2766  1.5922
  753TMC3    H211133   1.970   3.740  13.386 -1.3172 -0.0036 -1.1871
  753TMC3    C711134   1.761   3.815  13.227 -0.4517  0.2780 -0.1940
  753TMC3    C811135   2.108   3.872  13.567  0.4506  0.1135 -0.2604
  753TMC3    O111136   1.712   3.878  13.137 -0.0357 -0.2972 -0.6239
  753TMC3    O211137   2.109   3.751  13.580  0.9361  0.0061 -0.4959
  754MPD2     C11138   0.343   2.796  12.524 -0.1474  0.5473  0.1552
  754MPD2    C111139   0.395   2.678  12.568 -0.1061 -0.0309 -0.5509
  754MPD2    C211140   0.318   2.592  12.651 -0.6809 -0.8848 -0.0711
  754MPD2    C311141   0.190   2.632  12.694 -0.0176 -0.1802  0.4189
  754MPD2    C411142   0.145   2.752  12.650  0.3042 -0.2116 -0.2425
  754MPD2    C511143   0.218   2.827  12.566  0.1668  0.2050 -0.1207
  754MPD2     H11144   0.366   2.500  12.682  2.4885  0.8160  0.1003
  754MPD2    H111145   0.053   2.796  12.686  0.9766  1.2356 -0.2721
  754MPD2    H211146   0.397   2.854  12.449 -1.4059  0.6960 -0.6378
  754MPD2    H311147   0.173   2.924  12.547  1.0095  0.6313  0.0838
  754MPD2     N11148   0.110   2.562  12.794 -0.3197  0.3110 -0.1272
  754MPD2    H511149   0.025   2.612  12.815  1.2003  2.9613 -0.2801
  754MPD2    N111150   0.528   2.656  12.519 -0.2648  0.2233  0.0285
  754MPD2    H711151   0.553   2.720  12.444 -2.0465 -0.5061 -1.1666
  755MPD2     C11152   4.154   2.899  13.135 -0.7690 -0.3707  0.8690
  755MPD2    C111153   4.214   2.828  13.234 -0.7109  0.5705  0.2960
  755MPD2    C211154   4.305   2.730  13.202 -0.0801 -0.2389 -0.0128
  755MPD2    C311155   4.338   2.707  13.070 -0.0828 -0.6827  0.2726
  755MPD2    C411156   4.274   2.776  12.969  0.0498  0.3905  0.2574
  755MPD2    C511157   4.182   2.869  12.998 -0.8665  0.3912  0.5139
  755MPD2     H11158   4.365   2.681  13.278 -1.1207 -0.2049  0.8338
  755MPD2    H111159   4.303   2.762  12.865  1.6227  2.9516  0.3620
  755MPD2    H211160   4.076   2.973  13.152 -0.3354  0.5184 -1.0351
  755MPD2    H311161   4.156   2.927  12.910 -0.6641  0.3622  0.4353
  755MPD2     N11162   4.434   2.607  13.036 -0.1292  0.9240  0.1714
  755MPD2    H511163   4.471   2.594  12.943 -0.7419  0.4825 -0.0107
  755MPD2    N111164   4.190   2.853  13.374 -0.8692 -0.3732  0.4715
  755MPD2    H711165   4.242   2.794  13.438  0.8095  0.6520  0.0653
  756MPD2     C11166   1.090   4.098   9.744 -0.1983 -0.2385 -0.3494
  756MPD2    C111167   1.032   4.046   9.856  0.6179  0.2213  0.2450
  756MPD2    C211168   0.929   3.956   9.844  0.1468 -0.1464  0.2137
  756MPD2    C311169   0.879   3.921   9.723 -0.9233 -0.2771  0.6365
  756MPD2    C411170   0.938   3.969   9.610 -0.1697  0.4945 -0.3096
  756MPD2    C511171   1.045   4.055   9.623  0.0583  0.3397 -0.2867
  756MPD2     H11172   0.873   3.908   9.924 -2.8559  1.2677 -1.0306
  756MPD2    H111173   0.898   3.951   9.511  1.8709  0.4510 -1.1137
  756MPD2    H211174   1.169   4.172   9.754 -0.0430 -0.3864 -0.4904
  756MPD2    H311175   1.107   4.094   9.544  0.3351 -0.0701 -0.2687
  756MPD2     N11176   0.782   3.819   9.716  0.2016 -0.1644 -0.0848
  756MPD2    H511177   0.735   3.788   9.801  0.4584  1.7961  0.7661
  756MPD2    N111178   1.084   4.071   9.986 -0.1464  0.3479 -0.0566
  756MPD2    H711179   1.025   4.035  10.060  1.8553 -0.6280  1.0677
  757MPD2     C11180   0.513   3.015  10.185  0.4137 -1.1308 -1.1135
  757MPD2    C111181   0.408   3.009  10.093  0.5106 -0.5137  0.0144
  757MPD2    C211182   0.410   3.090   9.980 -0.3978  0.1092 -0.1308
  757MPD2    C311183   0.506   3.187   9.969  0.2888 -0.2974  0.7326
  757MPD2    C411184   0.602   3.205  10.070  0.2581  0.2886 -0.1516
  757MPD2    C511185   0.606   3.116  10.174  0.2435 -0.3793 -0.0538
  757MPD2     H11186   0.324   3.095   9.914  0.0870  1.1299 -0.6821
  757MPD2    H111187   0.684   3.275  10.062  2.1036 -1.9064 -0.5497
  757MPD2    H211188   0.511   2.957  10.277 -0.9829 -0.2546 -0.6062
  757MPD2    H311189   0.683   3.129  10.249  0.6819 -2.4184 -0.1636
  757MPD2     N11190   0.502   3.286   9.858  0.1246 -0.1728  0.5208
  757MPD2    H511191   0.432   3.270   9.787 -0.7471  0.0832  1.3197
  757MPD2    N111192   0.312   2.909  10.109  0.0885  0.2009  0.0115
  757MPD2    H711193   0.329   2.837  10.179 -0.4790 -1.3877 -1.5091
  758MPD2     C11194   1.153   2.841  15.945 -0.0095  0.6370 -0.7567
  758MPD2    C111195   1.152   2.745  16.044 -0.1359  0.2769 -0.1735
  758MPD2    C211196   1.085   2.764  16.163 -0.9668  0.6533  1.0627
  758MPD2    C311197   1.043   2.895  16.193 -1.1023  0.0647  0.4081
  758MPD2    C411198   1.037   2.988  16.098  0.9743 -0.0336 -0.2484
  758MPD2    C511199   1.084   2.958  15.970 -0.2454 -0.3296 -0.1539
  758MPD2     H11200   1.072   2.686  16.237 -1.0235 -0.4823 -0.1284
  758MPD2    H111201   1.004   3.089  16.120 -1.7266 -0.6746 -1.3923
  758MPD2    H211202   1.198   2.831  15.847 -2.1565  2.4975 -1.9289
  758MPD2    H311203   1.081   3.036  15.895  0.1067  0.7315  0.9249
  758MPD2     N11204   0.980   2.923  16.318  0.0839  0.4258  0.0019
  758MPD2    H511205   0.942   3.017  16.321 -0.9121  0.0048  0.5454
  758MPD2    N111206   1.214   2.619  16.011  0.3534 -0.4810  0.2000
  758MPD2    H711207   1.263   2.618  15.922 -1.5350 -1.1073 -0.8430
  759MPD2     C11208   4.547   1.286  10.234 -0.0632  0.6177 -0.2993
  759MPD2    C111209   4.519   1.157  10.185  0.1014 -0.5430  0.4361
  759MPD2    C211210   4.589   1.113  10.074  0.1749 -0.2486  0.3542
  759MPD2    C311211   4.687   1.198  10.013  0.1968  0.2241 -0.0991
  759MPD2    C411212   4.707   1.329  10.063  0.8985 -0.4229  0.1104
  759MPD2    C511213   4.644   1.366  10.176 -0.2994 -0.4620  0.2993
  759MPD2     H11214   4.578   1.017  10.026 -1.3456  0.0051  0.1743
  759MPD2    H111215   0.024   1.409  10.006  0.8185  1.9555  3.3693
  759MPD2    H211216   4.498   1.319  10.325  1.1139  1.2149  0.1202
  759MPD2    H311217   4.665   1.468  10.207 -2.0857 -0.2114  0.6756
  759MPD2     N11218   0.009   1.155   9.891  0.3622 -0.5319  0.1875
  759MPD2    H511219   4.709   1.066   9.853 -0.6462 -0.5498  1.0001
  759MPD2    N111220   4.417   1.076  10.242  0.1964 -0.0455  1.0689
  759MPD2    H711221   4.382   0.994  10.194  0.1315  0.5952  0.0272
  760MPD2     C11222   4.052   2.430  11.488  0.1050  0.2582 -0.2889
  760MPD2    C111223   4.145   2.523  11.524  0.1260 -0.0831  0.0138
  760MPD2    C211224   4.266   2.472  11.573 -0.9660 -0.0727  0.4567
  760MPD2    C311225   4.286   2.335  11.593  0.7885 -0.5051  0.8307
  760MPD2    C411226   4.186   2.243  11.571 -0.1448  0.4385 -0.8900
  760MPD2    C511227   4.071   2.292  11.506 -0.4489  0.8290  0.4772
  760MPD2     H11228   4.344   2.544  11.598 -0.7511 -0.9206  2.2164
  760MPD2    H111229   4.205   2.139  11.592  3.1445  1.0185 -1.0318
  760MPD2    H211230   3.963   2.462  11.434  0.1064  0.1438 -0.3576
  760MPD2    H311231   3.996   2.224  11.466  0.3855  1.8391 -2.8182
  760MPD2     N11232   4.408   2.278  11.635 -0.4263  0.2084 -0.2394
  760MPD2    H511233   4.415   2.179  11.655 -0.0936  0.7264  2.1006
  760MPD2    N111234   4.132   2.662  11.507  0.3716 -0.3735  1.0913
  760MPD2    H711235   4.050   2.694  11.457  1.4626 -0.9146 -1.0387
  761MPD2     C11236   1.431   2.355  11.218  0.8553  0.2425  0.7355
  761MPD2    C111237   1.513   2.364  11.116  0.4666 -0.8724 -0.4129
  761MPD2    C211238   1.595   2.468  11.095  0.6990 -0.4344 -0.5914
  761MPD2    C311239   1.597   2.576  11.181  0.6127 -0.0463  0.8294
  761MPD2    C411240   1.511   2.575  11.289  0.0795 -0.5974  0.1658
  761MPD2    C511241   1.429   2.457  11.305  0.1423  0.5866  0.3519
  761MPD2     H11242   1.660   2.463  11.008 -1.0302 -0.1236 -1.8898
  761MPD2    H111243   1.500   2.655  11.361 -1.5313 -1.2100  0.5967
  761MPD2    H211244   1.361   2.273  11.229  2.5321 -1.2514  0.1889
  761MPD2    H311245   1.350   2.454  11.380  0.1743 -0.6774  0.3283
  761MPD2     N11246   1.671   2.691  11.166 -0.0545  0.3165 -0.4443
  761MPD2    H511247   1.651   2.772  11.224 -0.5142 -0.1192  0.0078
  761MPD2    N111248   1.509   2.256  11.031 -0.0352  0.1288 -1.0305
  761MPD2    H711249   1.454   2.174  11.055  0.6821  0.1248  0.5910
  762MPD2     C11250   1.747   2.324  10.290 -0.0040 -0.2633  0.9680
  762MPD2    C111251   1.726   2.191  10.321 -0.4240 -0.2252  0.6147
  762MPD2    C211252   1.791   2.094  10.246 -0.2868 -0.4639  0.4302
  762MPD2    C311253   1.882   2.124  10.145 -0.0054 -0.7487  0.4874
  762MPD2    C411254   1.900   2.264  10.113 -0.0912  0.2286 -0.4770
  762MPD2    C511255   1.825   2.356  10.182 -0.2545  0.2844  0.0923
  762MPD2     H11256   1.785   1.994  10.287  1.5333 -0.8708 -0.2635
  762MPD2    H111257   1.968   2.308  10.042  0.0126 -0.5195 -0.8398
  762MPD2    H211258   1.705   2.410  10.340 -0.0303  0.6539 -0.6063
  762MPD2    H311259   1.835   2.462  10.164  2.0199 -0.3304 -2.2601
  762MPD2     N11260   1.954   2.021  10.089 -0.4204 -0.7838  0.3451
  762MPD2    H511261   1.927   1.929  10.124  2.1509 -1.6506  0.0474
  762MPD2    N111262   1.635   2.173  10.425  0.1267  0.4086  0.3965
  762MPD2    H711263   1.598   2.260  10.463 -1.0322  0.7470 -1.5333
  763MPD2     C11264   3.013   2.226  16.406 -0.8369 -0.2033  0.0555
  763MPD2    C111265   2.895   2.284  16.368 -0.4506  0.5855  0.7266
  763MPD2    C211266   2.865   2.412  16.415  0.5003 -1.1840  0.6749
  763MPD2    C311267   2.970   2.488  16.472 -0.2368  0.0412  0.8971
  763MPD2    C411268   3.090   2.425  16.507 -0.1133  0.5601 -0.6885
  763MPD2    C511269   3.114   2.299  16.469  0.0644  0.3826 -0.4176
  763MPD2     H11270   2.762   2.442  16.407  0.8435 -0.1302  0.1869
  763MPD2    H111271   3.171   2.474  16.560 -0.2000  0.6235 -0.6157
  763MPD2    H211272   3.036   2.126  16.370  0.7713 -0.3349  1.4222
  763MPD2    H311273   3.201   2.252  16.512 -0.7964 -1.4784 -0.7394
  763MPD2     N11274   2.950   2.621  16.504 -0.4273  0.2783  0.0980
  763MPD2    H511275   3.029   2.674  16.538  0.2809 -1.3684  1.0489
  763MPD2    N111276   2.791   2.214  16.301  0.2271  0.6919 -0.0225
  763MPD2    H711277   2.703   2.260  16.280  0.3223  0.4449 -0.9584
  764MPD2     C11278   0.554   4.342  17.359  0.1807 -0.1688  0.1617
  764MPD2    C111279   0.427   4.285  17.344  0.4326 -0.7156 -0.0477
  764MPD2    C211280   0.322   4.314  17.428 -0.2795  0.2023  0.2372
  764MPD2    C311281   0.343   4.384  17.547  0.0024  0.0568  0.1570
  764MPD2    C411282   0.466   4.451  17.554 -0.0175  0.3241 -0.2721
  764MPD2    C511283   0.571   4.424  17.463 -1.1767  0.7492  0.0395
  764MPD2     H11284   0.227   4.262  17.430  0.4119 -1.1140 -1.2165
  764MPD2    H111285   0.485   4.528  17.629  0.3633 -2.8608  2.8765
  764MPD2    H211286   0.636   4.331  17.289  1.2593 -0.4011  1.4665
  764MPD2    H311287   0.664   4.478  17.476 -0.3053 -0.8928  0.6444
  764MPD2     N11288   0.250   4.383  17.654 -0.4525 -0.5327  0.3174
  764MPD2    H511289   0.168   4.326  17.638 -0.0713 -0.9398 -0.2089
  764MPD2    N111290   0.396   4.209  17.227 -0.5339 -0.1909  0.4529
  764MPD2    H711291   0.298   4.190  17.207 -1.2511  0.5636  3.2252
  765MPD2     C11292   0.073   1.967  16.157  0.5408  0.6461  0.3265
  765MPD2    C111293   0.156   2.075  16.131  0.1238 -0.7886  0.3071
  765MPD2    C211294   0.228   2.070  16.017  0.0195 -0.6222 -0.3881
  765MPD2    C311295   0.205   1.973  15.919  0.2436  0.2154 -0.7665
  765MPD2    C411296   0.109   1.876  15.944  0.4921 -0.8795 -0.0299
  765MPD2    C511297   0.047   1.869  16.066 -0.1716 -0.2701  0.3956
  765MPD2     H11298   0.302   2.147  15.995  1.1990 -1.2880  1.2439
  765MPD2    H111299   0.087   1.795  15.876  0.9250 -0.2032 -0.9710
  765MPD2    H211300   0.019   1.967  16.251  3.8129 -0.1617  2.1976
  765MPD2    H311301   4.691   1.804  16.079 -0.3553 -0.4252 -1.5195
  765MPD2     N11302   0.279   1.992  15.797 -0.7733  0.1151  0.2594
  765MPD2    H511303   0.356   2.059  15.797 -1.2380  0.6464  0.4380
  765MPD2    N111304   0.164   2.172  16.233  0.0719 -0.5188  0.4209
  765MPD2    H711305   0.103   2.150  16.312  0.7363  1.2438  1.4267
  766MPD2     C11306   4.720   2.160  15.629 -0.4336  0.0525 -1.0177
  766MPD2    C111307   0.083   2.259  15.638 -0.2258  0.8645 -0.2873
  766MPD2    C211308   0.163   2.289  15.528 -0.2035  0.1098  0.4001
  766MPD2    C311309   0.163   2.210  15.415  0.5496 -0.0765 -0.0057
  766MPD2    C411310   0.078   2.101  15.412  0.1944  0.4622 -0.3232
  766MPD2    C511311   4.707   2.094  15.512 -0.2376 -0.1346  0.5507
  766MPD2     H11312   0.240   2.366  15.521 -0.4880  0.2523 -1.2937
  766MPD2    H111313   0.073   2.028  15.332 -1.5521  0.7402 -0.4769
  766MPD2    H211314   4.644   2.143  15.704 -1.3356  0.5475 -1.8278
  766MPD2    H311315   4.629   2.020  15.501 -1.3818  1.0482  0.7468
  766MPD2     N11316   0.256   2.243  15.308 -0.6964  0.0825  0.4647
  766MPD2    H511317   0.327   2.313  15.329  0.3319 -0.0503 -2.4846
  766MPD2    N111318   0.103   2.322  15.764  0.7868  0.1948 -0.0706
  766MPD2    H711319   0.044   2.287  15.839  0.4427 -0.4695 -0.6530
  767MPD2     C11320   4.501   2.438  15.215  0.2209 -0.3577  0.0919
  767MPD2    C111321   4.595   2.467  15.119  0.6863  0.4520 -0.2224
  767MPD2    C211322   4.627   2.370  15.019  0.6750 -0.0897  1.0866
  767MPD2    C311323   4.542   2.265  14.995  0.4922 -0.5014 -0.4571
  767MPD2    C411324   4.437   2.243  15.080 -0.6551 -0.0552 -0.0034
  767MPD2    C511325   4.429   2.325  15.197  0.3351  0.1295  0.3780
  767MPD2     H11326   4.707   2.386  14.947 -1.3144  2.4093 -0.5687
  767MPD2    H111327   4.368   2.159  15.069  1.5235 -1.6218 -1.7401
  767MPD2    H211328   4.469   2.505  15.294 -0.1452 -0.5554  0.1128
  767MPD2    H311329   4.361   2.295  15.275  0.1817 -0.6782 -0.0661
  767MPD2     N11330   4.583   2.181  14.891 -0.6097 -0.1392 -0.7817
  767MPD2    H511331   4.671   2.202  14.845 -0.7000  0.7549 -0.5490
  767MPD2    N111332   4.691   2.569  15.141 -0.4354  1.0116  0.5601
  767MPD2    H711333   4.716   2.593  15.237  1.6370 -0.9535  0.5090
  768MPD2     C11334   0.574   1.087  10.569  0.4496 -0.4168  0.3373
  768MPD2    C111335   0.492   1.036  10.665  0.6557  0.0969 -0.0646
  768MPD2    C211336   0.515   0.910  10.713 -0.2341 -0.0865  0.0143
  768MPD2    C311337   0.617   0.827  10.670 -0.0285  0.8181 -0.1433
  768MPD2    C411338   0.691   0.887  10.564  0.4485  0.3376  0.1380
  768MPD2    C511339   0.664   1.008  10.511  0.8860 -0.2513  0.3602
  768MPD2     H11340   0.452   0.882  10.797 -0.9881  1.1528 -0.1344
  768MPD2    H111341   0.763   0.824  10.514 -0.3341 -0.6027  0.2043
  768MPD2    H211342   0.558   1.186  10.527 -1.7527 -0.0588  2.0434
  768MPD2    H311343   0.724   1.060  10.437 -0.5034  0.6608 -0.1147
  768MPD2     N11344   0.654   0.705  10.728  0.0555  0.1761  0.2760
  768MPD2    H511345   0.750   0.678  10.705 -1.2203 -0.3784 -4.3867
  768MPD2    N111346   0.407   1.125  10.732  0.2778 -0.0698  1.0728
  768MPD2    H711347   0.361   1.084  10.813 -0.2705  0.3550  0.9749
  769MPD2     C11348   2.309   3.358  14.885  0.5196  0.3202 -0.4076
  769MPD2    C111349   2.181   3.365  14.928 -0.5536 -0.0635  0.2309
  769MPD2    C211350   2.165   3.427  15.050  0.1953 -0.2128  0.2806
  769MPD2    C311351   2.269   3.452  15.126  0.3711 -0.2943  0.3804
  769MPD2    C411352   2.399   3.432  15.086 -0.5710 -0.6033  0.5084
  769MPD2    C511353   2.424   3.388  14.958 -0.6040  0.8075  0.4031
  769MPD2     H11354   2.067   3.434  15.095  0.6524 -0.3454  1.2853
  769MPD2    H111355   2.484   3.463  15.146  0.5132 -0.1731 -1.2623
  769MPD2    H211356   2.331   3.338  14.781  1.2700 -0.8727 -0.0082
  769MPD2    H311357   2.525   3.381  14.918  0.7801  2.2269  3.6763
  769MPD2     N11358   2.241   3.497  15.256 -0.5392  0.4476  0.3206
  769MPD2    H511359   2.141   3.514  15.266 -0.6622 -0.5976  0.9308
  769MPD2    N111360   2.079   3.299  14.861 -0.3723  0.6490  0.2519
  769MPD2    H711361   2.102   3.260  14.770 -1.4917 -0.2179  0.3320
  770MPD2     C11362   1.199   2.892  14.770 -0.4445 -0.7675 -0.1857
  770MPD2    C111363   1.328   2.845  14.790 -1.1620 -0.1408  0.0275
  770MPD2    C211364   1.432   2.931  14.770  0.0024  0.2712  0.2653
  770MPD2    C311365   1.411   3.062  14.736  0.6532  0.8474 -0.2038
  770MPD2    C411366   1.288   3.111  14.715 -0.3992 -0.2281  0.4769
  770MPD2    C511367   1.186   3.022  14.726 -0.0973  1.2984  0.3260
  770MPD2     H11368   1.534   2.896  14.782  0.6938  1.8124 -1.1672
  770MPD2    H111369   1.264   3.211  14.680 -1.1533 -0.6764 -0.3091
  770MPD2    H211370   1.113   2.828  14.788 -1.5802  0.5637 -0.8943
  770MPD2    H311371   1.086   3.060  14.704 -0.2017  1.2509  0.7232
  770MPD2     N11372   1.529   3.143  14.731  1.0777  0.0180 -0.0476
  770MPD2    H511373   1.618   3.099  14.752  0.4515 -1.1209  0.2281
  770MPD2    N111374   1.348   2.721  14.843  0.5624  0.4834 -0.0148
  770MPD2    H711375   1.262   2.667  14.849 -0.5677  2.4013  0.8110
  771MPD2     C11376   2.015   1.593  13.685 -0.2533 -0.4838 -0.0149
  771MPD2    C111377   2.104   1.637  13.583  0.1461 -0.5167 -0.4584
  771MPD2    C211378   2.115   1.562  13.465  0.2889 -0.3283  0.2484
  771MPD2    C311379   2.042   1.445  13.451  0.6814 -0.2019  0.0299
  771MPD2    C411380   1.968   1.392  13.559 -0.1184 -0.3389  0.0069
  771MPD2    C511381   1.952   1.467  13.677 -0.6143  0.3587  0.2425
  771MPD2     H11382   2.181   1.589  13.383 -0.0432 -1.3122 -0.3528
  771MPD2    H111383   1.926   1.293  13.552 -1.5995  0.2327  0.7856
  771MPD2    H211384   1.987   1.643  13.777  0.9857 -0.1487  0.1833
  771MPD2    H311385   1.902   1.428  13.766  1.3834  1.1603  1.7201
  771MPD2     N11386   2.057   1.384  13.324  0.2609 -0.0622 -0.8349
  771MPD2    H511387   2.135   1.418  13.270 -1.3208  1.4309 -2.2090
  771MPD2    N111388   2.171   1.764  13.585  0.0742 -0.6738  0.4914
  771MPD2    H711389   2.225   1.781  13.501  0.6902  0.3276  1.1039
  772MPD2     C11390   1.748   2.379  13.409 -0.2363 -0.1616 -0.2715
  772MPD2    C111391   1.761   2.265  13.484 -0.3646  0.6002  0.1626
  772MPD2    C211392   1.647   2.190  13.519  0.5275  0.0901  0.6732
  772MPD2    C311393   1.520   2.230  13.481  0.2349 -0.5052  0.8351
  772MPD2    C411394   1.514   2.340  13.396  0.1807  0.6519 -0.3781
  772MPD2    C511395   1.622   2.410  13.362 -0.0194 -0.0036 -0.6338
  772MPD2     H11396   1.648   2.106  13.587 -0.2357  1.5141  2.4535
  772MPD2    H111397   1.417   2.385  13.376 -0.3269 -0.3319 -0.1629
  772MPD2    H211398   1.826   2.443  13.367 -1.1397  1.2705  0.2462
  772MPD2    H311399   1.601   2.505  13.313  0.5241 -1.0032 -2.7960
  772MPD2     N11400   1.398   2.162  13.511  0.5401  0.2568  0.3850
  772MPD2    H511401   1.310   2.208  13.489  0.7773  0.9203  0.8108
  772MPD2    N111402   1.891   2.211  13.514 -0.1066  0.1382  0.2526
  772MPD2    H711403   1.895   2.128  13.572  2.8400 -0.7470 -1.2976
  773MPD2     C11404   1.269   2.558   0.411  0.7235  0.1366  0.4879
  773MPD2    C111405   1.191   2.500   0.316 -0.3306  0.0826 -0.2733
  773MPD2    C211406   1.142   2.372   0.350 -0.4482 -0.1521 -1.2245
  773MPD2    C311407   1.157   2.313   0.474 -0.1569  0.7891  0.4461
  773MPD2    C411408   1.234   2.383   0.571  0.5814  0.2262  0.1745
  773MPD2    C511409   1.295   2.499   0.531  0.4448 -1.0450  0.9977
  773MPD2     H11410   1.084   2.324   0.272  0.0921  0.8793 -2.2623
  773MPD2    H111411   1.254   2.346   0.671  0.3356  2.2973  0.9907
  773MPD2    H211412   1.313   2.656   0.402  0.0936  0.2533 -1.3189
  773MPD2    H311413   1.348   2.555   0.607  1.6660 -0.3730 -0.3394
  773MPD2     N11414   1.115   2.180   0.490  0.4308  0.2706  0.0429
  773MPD2    H511415   1.097   2.124   0.407  0.6216 -1.2004  0.9939
  773MPD2    N111416   1.175   2.553   0.185 -0.1631  0.2043 -0.1769
  773MPD2    H711417   1.104   2.513   0.124  1.6262 -1.4555 -1.1451
  774MPD2     C11418   0.199   1.783  12.917  0.8438  0.3712  0.3478
  774MPD2    C111419   0.207   1.878  13.013 -0.2363  0.1265  0.0113
  774MPD2    C211420   0.275   1.991  12.980  0.7322 -0.1988  0.3823
  774MPD2    C311421   0.343   2.006  12.856  0.0239  0.0662  0.1757
  774MPD2    C411422   0.341   1.896  12.768 -0.5859  0.4676 -0.4889
  774MPD2    C511423   0.267   1.790  12.804  0.6937  0.0287  0.0029
  774MPD2     H11424   0.270   2.071  13.053  0.2207 -0.9319  1.1418
  774MPD2    H111425   0.400   1.892  12.676 -1.0372  0.7166 -0.7901
  774MPD2    H211426   0.142   1.691  12.926  2.6414 -0.5689  2.2468
  774MPD2    H311427   0.254   1.711  12.730  3.5821  0.4550 -0.9465
  774MPD2     N11428   0.413   2.129  12.846  0.0043 -0.2361 -0.6307
  774MPD2    H511429   0.388   2.194  12.920  1.7256 -0.2684 -0.0161
  774MPD2    N111430   0.170   1.854  13.143 -0.0988  0.4296  0.0719
  774MPD2    H711431   0.116   1.768  13.145 -0.0091  0.4400  2.9892
  775MPD2     C11432   2.422   3.268  16.115  0.2778  0.2746 -0.6646
  775MPD2    C111433   2.338   3.372  16.145  0.2242  0.2445  0.0503
  775MPD2    C211434   2.343   3.484  16.056 -0.5102  0.7666 -0.2208
  775MPD2    C311435   2.429   3.485  15.948  0.4393 -0.3676 -0.6744
  775MPD2    C411436   2.519   3.382  15.929  0.4842 -0.1467  0.2703
  775MPD2    C511437   2.509   3.276  16.011 -0.7974 -0.5194  0.1093
  775MPD2     H11438   2.287   3.573  16.082 -0.8834 -0.2935  2.6435
  775MPD2    H111439   2.607   3.376  15.867  1.5905 -0.2643  1.8529
  775MPD2    H211440   2.425   3.181  16.179  3.1289  0.0422 -1.1151
  775MPD2    H311441   2.581   3.195  16.006 -0.2580 -0.0735  0.7757
  775MPD2     N11442   2.454   3.600  15.867  0.5429  0.1985  0.0874
  775MPD2    H511443   2.547   3.606  15.827 -0.2350  1.4375 -1.5212
  775MPD2    N111444   2.247   3.371  16.257 -0.8888  0.1924  0.1189
  775MPD2    H711445   2.238   3.286  16.312 -2.1586  0.5835  0.5291
  776MPD2     C11446   0.754   4.188  11.061 -0.7242 -0.1141  0.0360
  776MPD2    C111447   0.882   4.145  11.072  0.0689  0.5806 -0.2069
  776MPD2    C211448   0.985   4.238  11.075 -0.2324  0.2981  0.1102
  776MPD2    C311449   0.958   4.372  11.064  0.3595 -0.4287  0.3313
  776MPD2    C411450   0.830   4.416  11.045  0.4652  0.3750 -0.5907
  776MPD2    C511451   0.729   4.319  11.043 -0.2151 -0.6342 -0.2922
  776MPD2     H11452   1.087   4.202  11.077  0.2068  1.4473 -2.1758
  776MPD2    H111453   0.809   4.521  11.036  0.2291  0.4159  0.4269
  776MPD2    H211454   0.671   4.119  11.060 -0.5896 -0.2790  0.1767
  776MPD2    H311455   0.627   4.346  11.017 -0.4892 -0.1038  1.3797
  776MPD2     N11456   1.064   4.463  11.077 -0.0284  0.1413 -0.1066
  776MPD2    H511457   1.034   4.559  11.068 -0.4652 -0.0146 -0.3132
  776MPD2    N111458   0.893   4.003  11.086  0.4688  0.5154 -0.8704
  776MPD2    H711459   0.815   3.942  11.062  0.5993  0.2864 -0.7098
  777MPD2     C11460   0.467   1.104   0.646 -0.2093  0.0778  0.8454
  777MPD2    C111461   0.495   0.989   0.708 -0.3841 -0.6075 -0.3339
  777MPD2    C211462   0.493   0.866   0.641  0.4405  0.5319 -0.5176
  777MPD2    C311463   0.471   0.860   0.504 -0.8907 -0.1562 -0.0143
  777MPD2    C411464   0.449   0.983   0.436  0.2552 -0.3214 -0.8169
  777MPD2    C511465   0.436   1.097   0.513 -0.5278  0.3303 -0.0629
  777MPD2     H11466   0.491   0.777   0.703 -0.2943  0.8077 -0.1508
  777MPD2    H111467   0.423   0.993   0.331 -1.8452 -0.7087 -0.3317
  777MPD2    H211468   0.445   1.192   0.707 -0.6633  1.8707 -1.9236
  777MPD2    H311469   0.412   1.189   0.462 -0.0512 -1.1640 -2.9744
  777MPD2     N11470   0.458   0.739   0.436  0.0973  0.7503 -0.2872
  777MPD2    H511471   0.438   0.750   0.337  2.2621 -1.3182 -0.9552
  777MPD2    N111472   0.501   0.995   0.849 -0.2557  0.1302  0.6093
  777MPD2    H711473   0.479   1.082   0.896 -1.9805  1.1947 -2.1425
  778MPD2     C11474   2.387   1.310  15.365  0.2606 -0.0768  0.4812
  778MPD2    C111475   2.371   1.248  15.242  0.6819  0.1070  0.3469
  778MPD2    C211476   2.446   1.298  15.140  0.0745 -0.5922 -0.0121
  778MPD2    C311477   2.525   1.410  15.159  0.0627 -0.1005  0.1159
  778MPD2    C411478   2.535   1.477  15.274  0.1943 -0.1001  0.1025
  778MPD2    C511479   2.467   1.420  15.377 -0.0805 -0.2475  0.0774
  778MPD2     H11480   2.437   1.246  15.045  2.4776 -0.4759 -0.2938
  778MPD2    H111481   2.591   1.568  15.286 -1.8337  1.1020  0.4643
  778MPD2    H211482   2.334   1.278  15.454 -2.7555  2.2829 -0.4760
  778MPD2    H311483   2.479   1.461  15.477 -0.7215  1.5626 -0.5959
  778MPD2     N11484   2.595   1.445  15.043 -0.6520 -0.4547  0.0537
  778MPD2    H511485   2.577   1.390  14.960 -0.5297 -0.1631 -0.1662
  778MPD2    N111486   2.297   1.128  15.221  0.1639  0.3855 -0.1436
  778MPD2    H711487   2.301   1.098  15.124  0.8752 -0.7222  0.2207
  779MPD2     C11488   2.318   0.185  14.105  0.3688  0.4728 -0.6059
  779MPD2    C111489   2.436   0.165  14.045  0.3491 -0.9119  0.6251
  779MPD2    C211490   2.481   0.262  13.961 -0.6602 -0.0894  0.0248
  779MPD2    C311491   2.417   0.386  13.933 -0.3247  0.1084  0.4424
  779MPD2    C411492   2.296   0.402  13.990 -0.4292 -0.1438  0.2520
  779MPD2    C511493   2.249   0.294  14.065  0.3920 -0.6176  0.1898
  779MPD2     H11494   2.577   0.234  13.918 -0.6801  0.0289 -0.0984
  779MPD2    H111495   2.223   0.473  13.954  1.3483  2.1855  1.2919
  779MPD2    H211496   2.262   0.117  14.169  1.1840  0.1000 -0.2821
  779MPD2    H311497   2.143   0.295  14.091  0.1836  0.6029 -0.7212
  779MPD2     N11498   2.470   0.486  13.849 -0.0236  0.6929 -0.4458
  779MPD2    H511499   2.427   0.578  13.855 -1.0852  0.3882 -3.2883
  779MPD2    N111500   2.497   0.037  14.042 -0.2152 -0.5243 -0.6832
  779MPD2    H711501   2.553   0.008  13.962 -1.9958  0.4092 -2.2476
  780MPD2     C11502   0.617   4.441   0.297 -0.5826 -0.0834 -0.2817
  780MPD2    C111503   0.716   4.361   0.348  0.5535 -0.1152  0.0329
  780MPD2    C211504   0.833   4.416   0.385  0.1362  0.0512 -0.4065
  780MPD2    C311505   0.860   4.549   0.380  0.5275  0.1511  0.7287
  780MPD2    C411506   0.758   4.625   0.332 -0.1500 -0.0590 -0.1768
  780MPD2    C511507   0.631   4.573   0.297  0.6879  0.4858 -0.7630
  780MPD2     H11508   0.919   4.361   0.422  0.0279 -0.7686 -1.3855
  780MPD2    H111509   0.778   0.003   0.334 -0.6773  0.0490 -0.6333
  780MPD2    H211510   0.521   4.400   0.267  0.0877 -2.1575  0.4830
  780MPD2    H311511   0.547   4.634   0.266  0.0666  0.2045  0.3468
  780MPD2     N11512   0.991   4.590   0.415  0.6514  0.5462 -0.2949
  780MPD2    H511513   1.063   4.520   0.430 -0.2066 -0.1906  0.2915
  780MPD2    N111514   0.695   4.226   0.353  0.1962 -0.3646  0.0301
  780MPD2    H711515   0.614   4.189   0.304  0.3497 -0.7465  0.0648
  781MPD2     C11516   3.537   2.198  12.220  0.5927 -0.9490 -0.1678
  781MPD2    C111517   3.585   2.086  12.271  0.1286  0.3435 -0.0469
  781MPD2    C211518   3.709   2.033  12.247  0.5428  0.3745 -0.5283
  781MPD2    C311519   3.784   2.095  12.143 -0.7201 -0.3510 -0.2316
  781MPD2    C411520   3.730   2.206  12.083  0.3400 -0.4852 -0.1099
  781MPD2    C511521   3.603   2.249  12.112  0.4229  0.3015 -0.2045
  781MPD2     H11522   3.737   1.938  12.291 -0.6651 -0.1098 -0.8052
  781MPD2    H111523   3.784   2.250  11.999 -1.4026  0.1294 -0.9206
  781MPD2    H211524   3.440   2.240  12.243  0.3857 -0.3251 -2.1265
  781MPD2    H311525   3.570   2.339  12.061  0.5657  0.7247  0.4402
  781MPD2     N11526   3.908   2.052  12.101  0.1462 -0.5109  0.3756
  781MPD2    H511527   3.943   2.100  12.018 -3.8446  2.3921  0.3625
  781MPD2    N111528   3.506   2.021  12.369  0.4736  0.0163  0.4446
  781MPD2    H711529   3.553   1.948  12.420 -2.2983 -1.1966  1.2633
  782MPD2     C11530   2.262   3.046   9.803  0.6609  0.0217  0.1812
  782MPD2    C111531   2.295   3.005   9.931 -0.7002  1.3267  0.0354
  782MPD2    C211532   2.292   3.093  10.037 -0.1828 -0.1097  0.3059
  782MPD2    C311533   2.245   3.219  10.025 -0.8076 -0.7117  0.1217
  782MPD2    C411534   2.216   3.263   9.896 -0.1092 -0.3907 -0.3604
  782MPD2    C511535   2.225   3.182   9.787  0.6911  0.9881 -0.5704
  782MPD2     H11536   2.323   3.065  10.137  1.5838 -1.3711 -0.5943
  782MPD2    H111537   2.178   3.364   9.889 -0.7515 -0.5497  0.9082
  782MPD2    H211538   2.261   2.976   9.720 -2.7978 -0.3696  0.5646
  782MPD2    H311539   2.189   3.228   9.696  0.0509  2.8777  0.6389
  782MPD2     N11540   2.254   3.306  10.135  0.1715 -0.1457 -0.5363
  782MPD2    H511541   2.282   3.269  10.225 -0.6813 -1.9560 -1.0294
  782MPD2    N111542   2.342   2.872   9.952  0.5868 -0.2395 -0.7236
  782MPD2    H711543   2.335   2.805   9.876  1.3846 -0.5123 -0.5604
  783MPD2     C11544   1.793   2.982  10.463 -0.1799 -0.0473 -0.5010
  783MPD2    C111545   1.893   2.932  10.540  0.8818 -0.3933 -0.2572
  783MPD2    C211546   1.978   2.835  10.479  0.3295 -0.6605 -0.1962
  783MPD2    C311547   1.960   2.803  10.348  0.0792  0.4690 -0.2571
  783MPD2    C411548   1.867   2.865  10.267 -0.2458  0.0771  0.2020
  783MPD2    C511549   1.788   2.955  10.329 -0.5655 -0.3690  0.3497
  783MPD2     H11550   2.050   2.779  10.537 -0.2022 -2.3019 -1.1181
  783MPD2    H111551   1.845   2.837  10.165 -1.2601  1.4010  0.0647
  783MPD2    H211552   1.724   3.059  10.495  1.5499  0.6795  1.5111
  783MPD2    H311553   1.708   2.998  10.269  1.0970  0.8670 -0.9769
  783MPD2     N11554   2.055   2.705  10.299  0.4403 -0.6452  0.8183
  783MPD2    H511555   2.119   2.663  10.366  0.9230  0.3025  0.9458
  783MPD2    N111556   1.898   2.976  10.678  0.0812 -0.1847  0.5515
  783MPD2    H711557   1.814   3.021  10.713  0.2425  0.9225 -0.4560
  784MPD2     C11558   2.857   3.225   0.881 -0.4549 -0.3248  0.4301
  784MPD2    C111559   2.962   3.287   0.941 -0.6187 -0.8704  0.7637
  784MPD2    C211560   2.941   3.364   1.058  0.1830 -0.8941 -0.4867
  784MPD2    C311561   2.811   3.376   1.103  0.2601  0.1076 -0.6517
  784MPD2    C411562   2.706   3.311   1.043  0.3280 -0.5681 -0.1733
  784MPD2    C511563   2.727   3.236   0.928  0.0605  0.1405 -0.7963
  784MPD2     H11564   3.022   3.404   1.119 -1.7004  2.4252 -0.1233
  784MPD2    H111565   2.605   3.326   1.080  0.6299 -2.8734  1.6001
  784MPD2    H211566   2.873   3.164   0.793  1.7384 -0.1260  0.6979
  784MPD2    H311567   2.656   3.195   0.858 -2.3012  1.2973  0.9101
  784MPD2     N11568   2.792   3.462   1.213 -0.4083  0.3584  0.8250
  784MPD2    H511569   2.879   3.503   1.246  0.4637 -0.2987 -0.6638
  784MPD2    N111570   3.092   3.275   0.891  0.0092 -0.0108  0.1567
  784MPD2    H711571   3.167   3.323   0.940  0.8895  2.1578 -3.3466
  785MPD2     C11572   4.149   0.699  11.170  0.3961  0.2397 -0.5631
  785MPD2    C111573   4.142   0.826  11.124  0.3964  0.5117 -0.0378
  785MPD2    C211574   4.031   0.865  11.042 -0.0018 -0.1939 -0.1180
  785MPD2    C311575   3.937   0.769  11.009  0.1920 -0.0108 -0.5926
  785MPD2    C411576   3.954   0.637  11.048  0.1395  0.0946 -0.6758
  785MPD2    C511577   4.059   0.607  11.125 -0.0151 -0.2245 -0.7623
  785MPD2     H11578   4.008   0.968  11.018 -0.0505  0.1017  1.1582
  785MPD2    H111579   3.884   0.561  11.014  0.6000 -0.1097 -1.1717
  785MPD2    H211580   4.226   0.663  11.237 -0.8651 -0.8054  0.3295
  785MPD2    H311581   4.081   0.505  11.156  2.7773  0.9593  1.1648
  785MPD2     N11582   3.830   0.813  10.930 -0.1462 -0.6537 -0.4142
  785MPD2    H511583   3.823   0.910  10.901 -1.4538 -0.5930  0.1063
  785MPD2    N111584   4.235   0.924  11.169 -0.2471 -0.2602 -0.2903
  785MPD2    H711585   4.229   1.016  11.127  0.0552 -0.0294  0.1857
  786MPD2     C11586   2.640   4.095  14.944  0.2046 -0.0265 -0.5743
  786MPD2    C111587   2.739   4.000  14.965 -0.2842 -0.3301  0.4660
  786MPD2    C211588   2.784   3.988  15.093  0.2534 -0.7825 -0.1420
  786MPD2    C311589   2.737   4.058  15.204  0.0820 -0.1714  0.0759
  786MPD2    C411590   2.637   4.145  15.173 -0.6964 -0.1822  0.4743
  786MPD2    C511591   2.587   4.161  15.046  0.5979 -0.3776 -0.2185
  786MPD2     H11592   2.862   3.916  15.115  2.4321  1.7386  0.2358
  786MPD2    H111593   2.595   4.204  15.253 -0.2417  0.0954  0.5076
  786MPD2    H211594   2.588   4.128  14.854 -0.7279  0.8196  0.2777
  786MPD2    H311595   2.499   4.222  15.027  1.4829  1.2468  0.9357
  786MPD2     N11596   2.803   4.052  15.330 -0.6046  0.2376 -0.1832
  786MPD2    H511597   2.891   4.003  15.322 -0.5008  0.3908  0.0118
  786MPD2    N111598   2.799   3.930  14.863  0.3037  0.6103 -0.1490
  786MPD2    H711599   2.880   3.876  14.890  2.2430  3.1078 -1.0222
  787MPD2     C11600   3.197   3.489  14.992  0.1740 -0.0123 -0.4951
  787MPD2    C111601   3.196   3.472  14.855 -0.6838 -0.2616 -0.0261
  787MPD2    C211602   3.277   3.380  14.800  0.0355 -0.2376 -0.3966
  787MPD2    C311603   3.349   3.293  14.890  0.1999 -0.0460  0.4964
  787MPD2    C411604   3.348   3.310  15.025 -0.1937 -0.3504 -0.0621
  787MPD2    C511605   3.275   3.413  15.074  0.3197  0.1560 -0.3339
  787MPD2     H11606   3.292   3.370  14.693 -1.4727 -0.4242 -0.5858
  787MPD2    H111607   3.413   3.247  15.084  0.5432 -1.7264 -2.3488
  787MPD2    H211608   3.150   3.576  15.038  1.5532  1.0888 -1.1638
  787MPD2    H311609   3.263   3.422  15.181 -0.2006  1.2458 -0.4768
  787MPD2     N11610   3.432   3.198  14.826  0.5479 -0.3011  0.3062
  787MPD2    H511611   3.439   3.199  14.725 -0.2830 -2.2719  0.2257
  787MPD2    N111612   3.120   3.570  14.787  0.3037  0.1843 -0.3534
  787MPD2    H711613   3.085   3.637  14.855  2.3171 -0.4064  1.2638
  788MPD2     C11614   0.278   2.061   0.562 -0.4924  0.2688  0.0249
  788MPD2    C111615   0.162   2.006   0.526  0.5249  0.4141 -0.4454
  788MPD2    C211616   0.074   2.081   0.453  0.0955  0.4840 -1.3244
  788MPD2    C311617   0.104   2.213   0.413  0.7686  0.7182  0.1700
  788MPD2    C411618   0.223   2.262   0.452  0.2134 -0.0664 -0.3822
  788MPD2    C511619   0.316   2.187   0.523  0.8218  0.0632 -0.2448
  788MPD2     H11620   4.717   2.029   0.413 -0.8723  0.1433  1.2208
  788MPD2    H111621   0.248   2.364   0.425  0.9564  0.1336  1.0726
  788MPD2    H211622   0.345   2.009   0.630 -1.3822 -1.5682 -0.5071
  788MPD2    H311623   0.419   2.219   0.536  0.4554  0.0163  2.9081
  788MPD2     N11624   0.023   2.286   0.322  0.8453 -0.3513 -0.7309
  788MPD2    H511625   0.046   2.381   0.296  1.5252  0.0572  1.3814
  788MPD2    N111626   0.130   1.874   0.558  0.0736  0.1882 -0.5477
  788MPD2    H711627   0.210   1.823   0.594 -0.5651 -1.6726 -1.7494
  789MPD2     C11628   0.706   2.077  16.537 -0.6004 -0.8420  0.1179
  789MPD2    C111629   0.641   2.040  16.658 -0.0910  0.2174  0.2090
  789MPD2    C211630   0.512   2.082  16.691 -0.6348 -0.2663 -0.6927
  789MPD2    C311631   0.446   2.174  16.604 -0.0373 -0.3954  0.0726
  789MPD2    C411632   0.518   2.225  16.498 -0.4063 -0.3657 -0.4545
  789MPD2    C511633   0.644   2.186  16.474 -0.0739  0.0571 -0.1217
  789MPD2     H11634   0.455   2.045  16.775 -1.0876 -0.8118 -1.2420
  789MPD2    H111635   0.477   2.295  16.426  1.4952 -0.6776 -1.8619
  789MPD2    H211636   0.794   2.031  16.493 -0.3803  0.6863 -1.0571
  789MPD2    H311637   0.704   2.223  16.391  1.2309 -1.6840  0.0415
  789MPD2     N11638   0.314   2.220  16.624  0.6698 -0.2682 -0.1604
  789MPD2    H511639   0.289   2.301  16.568  0.4050 -0.4881 -0.3558
  789MPD2    N111640   0.680   1.920  16.714  0.1305 -0.6941  0.4353
  789MPD2    H711641   0.623   1.888  16.792 -0.6679 -2.1046 -0.7380
  790MPD2     C11642   0.983   3.955  13.805  0.0318 -0.5361  0.2103
  790MPD2    C111643   1.081   3.886  13.738  0.1055  0.5962 -0.1922
  790MPD2    C211644   1.076   3.865  13.600 -0.8900 -0.0233  0.4434
  790MPD2    C311645   0.960   3.912  13.534 -0.1391  0.2247  0.2833
  790MPD2    C411646   0.871   3.985  13.602 -0.0771 -0.2129  0.2088
  790MPD2    C511647   0.884   4.011  13.734 -0.2695  0.2220 -0.2740
  790MPD2     H11648   1.139   3.795  13.547  1.8233  1.6736  1.4271
  790MPD2    H111649   0.793   4.032  13.543  1.0619 -0.8780 -1.8342
  790MPD2    H211650   0.980   3.971  13.913 -1.9001  1.1290 -0.0911
  790MPD2    H311651   0.814   4.073  13.790 -0.6517  0.5847 -1.1575
  790MPD2     N11652   0.944   3.882  13.397 -0.1755 -0.1420 -0.5507
  790MPD2    H511653   1.034   3.862  13.355 -0.3699 -1.0519 -0.5444
  790MPD2    N111654   1.186   3.838  13.819 -0.7337  0.0102  0.5284
  790MPD2    H711655   1.174   3.845  13.919 -0.5053  1.5017  0.4560
  791MPD2     C11656   0.394   3.943  12.623  1.2498 -0.4452 -0.0101
  791MPD2    C111657   0.414   3.852  12.726  0.2773  1.0963 -0.5106
  791MPD2    C211658   0.348   3.727  12.723  0.3218 -0.1988  0.0648
  791MPD2    C311659   0.255   3.700  12.620 -0.2902  0.1580 -0.4639
  791MPD2    C411660   0.226   3.802  12.529  0.4700 -0.3216  0.0079
  791MPD2    C511661   0.304   3.915  12.531  0.3294  0.2355  0.1243
  791MPD2     H11662   0.349   3.652  12.802 -1.9395 -0.9857 -0.6666
  791MPD2    H111663   0.171   3.782  12.438 -2.6138  0.0561  1.8048
  791MPD2    H211664   0.454   4.032  12.609 -1.2191  1.6032  2.3167
  791MPD2    H311665   0.285   3.995  12.460  2.1981 -0.2664 -0.9480
  791MPD2     N11666   0.184   3.577  12.626  0.2311  0.1120 -0.0905
  791MPD2    H511667   0.202   3.526  12.713 -0.1359  0.1770  0.0224
  791MPD2    N111668   0.518   3.877  12.820  0.2053 -0.3100  0.0777
  791MPD2    H711669   0.572   3.959  12.796 -2.0257  1.6233  1.6614
  792MPD2     C11670   2.072   3.854  10.857 -0.1815  0.1557 -0.0224
  792MPD2    C111671   1.942   3.894  10.823  0.2609 -0.2697 -0.0453
  792MPD2    C211672   1.855   3.799  10.770  0.3776  0.1938 -0.3976
  792MPD2    C311673   1.895   3.664  10.763 -0.7992 -0.3681  0.3152
  792MPD2    C411674   2.023   3.627  10.785 -0.3416 -0.2917  0.2918
  792MPD2    C511675   2.112   3.724  10.828 -0.3163  0.2734  0.2543
  792MPD2     H11676   1.750   3.824  10.758  0.2628  0.9850  2.1992
  792MPD2    H111677   2.053   3.523  10.776 -0.6904 -0.2631 -1.2845
  792MPD2    H211678   2.138   3.922  10.910  1.8424 -0.6173 -1.5465
  792MPD2    H311679   2.212   3.685  10.847  0.4108  2.1963  0.3121
  792MPD2     N11680   1.811   3.557  10.740  0.7871 -0.0033 -0.0049
  792MPD2    H511681   1.859   3.468  10.750  2.0874  0.9145  1.8384
  792MPD2    N111682   1.904   4.026  10.848  0.3422 -1.0451 -0.2437
  792MPD2    H711683   1.983   4.071  10.894 -2.1477  1.3516  1.6816
  793MPD2     C11684   0.985   3.787  10.645 -0.2972  0.5153  0.1268
  793MPD2    C111685   1.117   3.818  10.623  1.0377 -0.1213 -0.2323
  793MPD2    C211686   1.207   3.731  10.681 -0.0303 -0.3126 -0.4013
  793MPD2    C311687   1.168   3.617  10.748  0.1919  0.3578 -0.4043
  793MPD2    C411688   1.032   3.586  10.757  0.3083  0.0084 -0.1481
  793MPD2    C511689   0.946   3.679  10.721  0.1831  0.1035  0.2928
  793MPD2     H11690   1.312   3.742  10.652  0.4024 -1.7935  0.6449
  793MPD2    H111691   0.996   3.501  10.815  0.0097  0.5696  0.4926
  793MPD2    H211692   0.905   3.849  10.607 -0.2904 -0.2673 -1.1701
  793MPD2    H311693   0.840   3.659  10.735 -0.6602  2.9974 -2.0225
  793MPD2     N11694   1.267   3.534  10.798  0.1472  0.3766 -0.2241
  793MPD2    H511695   1.363   3.568  10.798  0.6005 -0.8780 -2.6114
  793MPD2    N111696   1.156   3.928  10.542  0.5636  0.4119  0.4708
  793MPD2    H711697   1.256   3.945  10.540  0.3430  1.9148  1.6019
  794MPD2     C11698   1.265   3.259  17.353 -0.6751  0.0326 -0.5099
  794MPD2    C111699   1.209   3.144  17.294  0.3017 -0.2901 -0.2809
  794MPD2    C211700   1.177   3.142  17.162  0.1235  0.5021 -0.3354
  794MPD2    C311701   1.189   3.260  17.078  0.7064  0.1681 -0.4712
  794MPD2    C411702   1.207   3.380  17.141  0.8192 -0.1560  0.5347
  794MPD2    C511703   1.265   3.367  17.268 -0.2086  0.2601 -0.5778
  794MPD2     H11704   1.146   3.057  17.103  0.7582 -1.9365  2.8544
  794MPD2    H111705   1.205   3.471  17.082 -1.6839  0.1277  1.0445
  794MPD2    H211706   1.305   3.269  17.453 -1.1839  1.9602 -0.5093
  794MPD2    H311707   1.307   3.457  17.311  2.1984 -1.6004  0.9669
  794MPD2     N11708   1.166   3.255  16.941 -0.6715  0.0556  0.0420
  794MPD2    H511709   1.176   3.346  16.897 -0.5761  0.5594  1.0942
  794MPD2    N111710   1.194   3.021  17.371 -0.0002 -0.0217 -0.6591
  794MPD2    H711711   1.145   2.946  17.324  0.5271  1.4606 -3.5986
  795MPD2     C11712   3.608   0.743  13.483 -0.2382  0.4703 -0.3645
  795MPD2    C111713   3.580   0.608  13.474  0.3699  0.9397  0.7421
  795MPD2    C211714   3.658   0.515  13.541  0.1747  0.1951 -0.0497
  795MPD2    C311715   3.771   0.559  13.612 -0.3073  0.5956  0.0252
  795MPD2    C411716   3.802   0.697  13.616 -0.1907  0.2019  0.3340
  795MPD2    C511717   3.716   0.787  13.555 -0.7016 -0.0400  0.5031
  795MPD2     H11718   3.638   0.410  13.528 -1.1420  0.6176 -1.4366
  795MPD2    H111719   3.884   0.736  13.675  1.6808 -1.5437 -1.1242
  795MPD2    H211720   3.552   0.819  13.430  0.8787 -0.4883 -2.9596
  795MPD2    H311721   3.740   0.892  13.557 -1.9083  0.2037  2.7709
  795MPD2     N11722   3.869   0.464  13.669  0.1694  0.1642 -0.1735
  795MPD2    H511723   3.851   0.366  13.687 -1.4786  0.5584  0.3066
  795MPD2    N111724   3.472   0.554  13.397  0.3177  0.4099 -0.1127
  795MPD2    H711725   3.442   0.457  13.398 -2.1881  1.1718  0.0452
  796MPD2     C11726   2.961   1.560  15.881  0.1840 -0.5056  0.1166
  796MPD2    C111727   2.950   1.593  16.014 -0.0457  0.1594  0.1459
  796MPD2    C211728   2.940   1.729  16.042 -0.3129  0.2606  0.0972
  796MPD2    C311729   2.924   1.823  15.946 -0.1572  0.1037 -0.1722
  796MPD2    C411730   2.929   1.793  15.811  0.6094 -0.1551 -0.0164
  796MPD2    C511731   2.950   1.659  15.784 -0.2155  0.0902 -0.5023
  796MPD2     H11732   2.929   1.769  16.142  0.3267  0.5217  0.0612
  796MPD2    H111733   2.913   1.855  15.723 -1.4083  0.3031  0.6643
  796MPD2    H211734   2.986   1.464  15.837  0.2146 -0.2702 -0.3751
  796MPD2    H311735   2.951   1.634  15.678  1.1941 -1.3314 -0.1563
  796MPD2     N11736   2.922   1.958  15.982  0.1851  0.1074  0.0717
  796MPD2    H511737   2.950   1.975  16.078 -0.2010 -0.6116  0.3102
  796MPD2    N111738   2.927   1.485  16.102  0.1775  0.0292  0.1018
  796MPD2    H711739   2.924   1.396  16.054 -1.2319  0.6418 -0.9665
  797MPD2     C11740   3.156   0.973  17.603 -0.3921 -0.0295 -0.4034
  797MPD2    C111741   3.177   1.104  17.655 -0.2785  0.3975 -0.3069
  797MPD2    C211742   3.089   1.203  17.618  0.0068  0.0430 -0.0527
  797MPD2    C311743   2.985   1.179  17.532  0.6962 -0.1806  0.5183
  797MPD2    C411744   2.949   1.049  17.496  0.2714 -0.3661  0.8779
  797MPD2    C511745   3.040   0.948  17.535  0.3163  0.1971 -0.1586
  797MPD2     H11746   3.114   1.306  17.640  0.1098  0.2873 -1.2754
  797MPD2    H111747   2.865   1.021  17.433  0.1397  1.6953  0.1489
  797MPD2    H211748   3.227   0.891  17.615 -1.3441 -0.8669 -0.5318
  797MPD2    H311749   3.011   0.844  17.525  0.9291  0.1321 -1.2819
  797MPD2     N11750   2.902   1.287  17.482  0.5993  0.6414 -0.0116
  797MPD2    H511751   2.840   1.270  17.403  0.3131 -0.1180  0.3686
  797MPD2    N111752   3.282   1.144   0.017 -0.0464 -0.2206 -0.2489
  797MPD2    H711753   3.271   1.237   0.054  0.4792  0.4069 -1.6365
  798MPD2     C11754   3.135   1.927  17.707  0.1587 -0.0156 -0.0467
  798MPD2    C111755   3.099   1.796  17.689 -0.2659 -0.2987 -0.3923
  798MPD2    C211756   3.174   1.695   0.029  0.7098 -0.0079 -0.5435
  798MPD2    C311757   3.289   1.725   0.096 -0.1617 -0.0524  0.3688
  798MPD2    C411758   3.323   1.859   0.112 -0.6601 -0.1600  0.4252
  798MPD2    C511759   3.248   1.958   0.057  0.4314 -0.2983 -0.0483
  798MPD2     H11760   3.139   1.594   0.007 -0.6535  0.2570  0.4273
  798MPD2    H111761   3.412   1.891   0.164 -0.9914  3.7408 -1.3821
  798MPD2    H211762   3.087   2.011  17.658  0.6156  0.1532 -0.2013
  798MPD2    H311763   3.289   2.058   0.062 -1.1925  0.3114  1.0888
  798MPD2     N11764   3.383   1.627   0.135 -0.4724  0.3440 -0.2189
  798MPD2    H511765   3.471   1.651   0.179 -0.4098  1.2508 -0.8486
  798MPD2    N111766   2.998   1.756  17.607  0.4551 -0.4022 -0.3945
  798MPD2    H711767   2.984   1.655  17.599  1.6038 -0.3872 -2.4911
  799MPD2     C11768   2.790   2.911  14.017 -0.3496  0.1629 -0.8996
  799MPD2    C111769   2.710   2.802  14.004  0.0047  0.7833  0.1167
  799MPD2    C211770   2.614   2.817  13.900 -0.1566  0.2496 -0.2614
  799MPD2    C311771   2.604   2.931  13.819  0.3319 -0.4449 -0.6922
  799MPD2    C411772   2.694   3.033  13.838 -0.1925 -0.0545 -0.2322
  799MPD2    C511773   2.788   3.021  13.941 -1.0495 -0.0764 -0.0413
  799MPD2     H11774   2.550   2.733  13.875  0.7006 -0.5385  0.2050
  799MPD2    H111775   2.691   3.122  13.777 -0.6969  0.9022  1.2182
  799MPD2    H211776   2.872   2.914  14.088 -1.2480 -1.6134  0.2013
  799MPD2    H311777   2.857   3.104  13.949 -2.4084  0.9506  0.9320
  799MPD2     N11778   2.503   2.940  13.719  0.4457  1.0083  0.3666
  799MPD2    H511779   2.485   3.030  13.674 -0.0492 -0.0979 -1.6236
  799MPD2    N111780   2.709   2.698  14.096 -0.2054  0.0763 -0.3425
  799MPD2    H711781   2.630   2.634  14.088  1.9212 -2.7178  1.1410
  800MPD2     C11782   3.806   0.569  14.141  0.5125  0.1848 -0.4363
  800MPD2    C111783   3.756   0.518  14.255  0.0462  0.3781 -0.6125
  800MPD2    C211784   3.638   0.454  14.254  0.2324 -0.4408 -0.3577
  800MPD2    C311785   3.584   0.430  14.132 -0.2740 -0.4440 -0.5741
  800MPD2    C411786   3.635   0.474  14.015 -0.3384 -0.1451  0.3112
  800MPD2    C511787   3.741   0.553  14.022 -0.0725 -0.3341  0.6204
  800MPD2     H11788   3.605   0.413  14.349  1.1400 -0.6166 -0.1169
  800MPD2    H111789   3.589   0.462  13.918  0.3956 -0.6755  0.0301
  800MPD2    H211790   3.903   0.617  14.141  0.1602  0.8946  0.5961
  800MPD2    H311791   3.788   0.579  13.928 -1.5039  0.1585  0.0452
  800MPD2     N11792   3.463   0.354  14.141 -0.2211 -0.0481 -0.1934
  800MPD2    H511793   3.440   0.324  14.235  0.5804  0.6865  0.2407
  800MPD2    N111794   3.832   0.527  14.371 -0.8542  0.7864 -0.3018
  800MPD2    H711795   3.928   0.559  14.365  0.2550 -2.4706  0.3687
  801MPD2     C11796   3.487   0.680  15.049 -0.1033 -0.3319  0.4312
  801MPD2    C111797   3.524   0.613  14.936  0.3895  0.2136  0.3805
  801MPD2    C211798   3.434   0.530  14.880 -0.3331  0.5237 -0.0894
  801MPD2    C311799   3.319   0.490  14.946 -0.1900  0.3104 -0.0307
  801MPD2    C411800   3.284   0.555  15.062 -0.0546  0.5609  0.6092
  801MPD2    C511801   3.367   0.657  15.103  0.4699  0.1334 -0.9966
  801MPD2     H11802   3.456   0.479  14.786  0.4854  2.3201 -0.8768
  801MPD2    H111803   3.188   0.533  15.108 -0.1018 -0.0629  0.2151
  801MPD2    H211804   3.545   0.764  15.085 -1.8167  0.5101  1.1835
  801MPD2    H311805   3.336   0.707  15.194 -0.0465 -2.0844  0.0298
  801MPD2     N11806   3.236   0.404  14.883  0.7425 -0.5291 -0.1956
  801MPD2    H511807   3.276   0.358  14.802  0.5603 -1.3336  0.1730
  801MPD2    N111808   3.641   0.643  14.861 -0.3863 -0.8442 -0.5591
  801MPD2    H711809   3.640   0.606  14.767 -1.4307  1.0655 -1.2921
  802MPD2     C11810   2.641   4.442   0.074  0.2314 -0.3342 -0.2436
  802MPD2    C111811   2.621   4.560   0.004  0.1035  0.5032 -0.6466
  802MPD2    C211812   2.700   4.584  17.610 -1.2292  0.0628 -0.2455
  802MPD2    C311813   2.805   4.495  17.570 -0.6884 -0.5393 -0.2802
  802MPD2    C411814   2.819   4.377  17.644 -0.2511 -0.6817  0.2417
  802MPD2    C511815   2.733   4.351   0.031  0.6506  0.2866 -0.3880
  802MPD2     H11816   2.683   4.683  17.569 -0.3051  0.3699  0.1345
  802MPD2    H111817   2.896   4.302  17.629 -0.5796 -0.8019 -0.8345
  802MPD2    H211818   2.577   4.417   0.158  0.3181 -0.1852 -0.1337
  802MPD2    H311819   2.744   4.251   0.072  0.5533  0.4574  0.0422
  802MPD2     N11820   2.888   4.537  17.463 -0.1782 -0.4007 -0.6088
  802MPD2    H511821   2.868   4.627  17.420 -1.3773 -0.3300  0.0967
  802MPD2    N111822   2.522   4.650   0.037 -0.0172  0.2796 -0.0689
  802MPD2    H711823   2.508   0.002  17.693  0.9042 -1.1826 -2.2616
  803MPD2     C11824   4.178   3.687  11.764  0.2855  0.0391  0.0846
  803MPD2    C111825   4.184   3.772  11.876  0.2030 -0.3497 -0.6964
  803MPD2    C211826   4.099   3.752  11.985  0.3809  0.5719  0.2519
  803MPD2    C311827   4.010   3.643  11.990  0.1504  0.0920  0.0970
  803MPD2    C411828   4.010   3.560  11.880  0.3798  0.0399  0.4960
  803MPD2    C511829   4.094   3.586  11.774 -0.3390 -1.2240 -0.2313
  803MPD2     H11830   4.119   3.819  12.069 -0.7978  0.8104  0.3384
  803MPD2    H111831   3.953   3.468  11.877 -2.1959  1.7373 -2.0003
  803MPD2    H211832   4.239   3.703  11.675  0.0358 -2.1936 -0.4771
  803MPD2    H311833   4.092   3.516  11.691  0.6937 -1.0956 -0.3577
  803MPD2     N11834   3.913   3.606  12.090  0.6934 -0.8597  0.3467
  803MPD2    H511835   3.872   3.513  12.089  2.6081 -1.7015 -0.9675
  803MPD2    N111836   4.270   3.892  11.888 -0.1131  0.0568  0.2023
  803MPD2    H711837   4.291   3.924  11.982  2.1244  1.6260 -0.8215
  804MPD2     C11838   3.358   0.095  17.237  0.0001  0.5088 -0.7503
  804MPD2    C111839   3.394   0.048  17.363  0.1398 -0.1994  0.2275
  804MPD2    C211840   3.418   0.139  17.461  0.9560  0.3088 -0.1242
  804MPD2    C311841   3.401   0.273  17.448 -0.1401  0.0138  0.1005
  804MPD2    C411842   3.380   0.320  17.318 -0.1659 -0.0667  0.6367
  804MPD2    C511843   3.353   0.231  17.216  0.0612  0.5013 -0.0197
  804MPD2     H11844   3.437   0.106  17.563 -1.0360  0.0957  0.1895
  804MPD2    H111845   3.370   0.427  17.305 -1.1709 -0.2692 -0.3221
  804MPD2    H211846   3.326   0.032  17.156 -0.6445 -0.0495 -0.0632
  804MPD2    H311847   3.304   0.272  17.129  1.4205 -2.0308 -1.9741
  804MPD2     N11848   3.435   0.349  17.555  0.1734 -0.5640 -0.5621
  804MPD2    H511849   3.449   0.301  17.643  0.5644  0.6806  0.0523
  804MPD2    N111850   3.382   4.638  17.390 -0.3230 -0.0482 -0.2681
  804MPD2    H711851   3.406   4.601  17.482 -0.4990 -0.3214 -0.3330
  805MPD2     C11852   2.870   3.286  15.057  0.3819  0.0553  0.4461
  805MPD2    C111853   2.975   3.214  15.013  0.1000 -0.2110 -0.2149
  805MPD2    C211854   3.064   3.169  15.110 -0.1174 -0.4746 -0.1131
  805MPD2    C311855   3.058   3.203  15.242  0.7021 -1.2313 -0.0464
  805MPD2    C411856   2.952   3.274  15.281 -0.1923  0.1469 -1.2018
  805MPD2    C511857   2.856   3.310  15.188 -0.2948  0.1890 -0.0727
  805MPD2     H11858   3.154   3.117  15.076  1.3417  0.3598  2.4498
  805MPD2    H111859   2.940   3.317  15.380 -0.2144 -1.1823 -0.6307
  805MPD2    H211860   2.790   3.328  14.997  0.3144 -0.7128  0.0063
  805MPD2    H311861   2.777   3.376  15.220 -0.5812  0.0948 -0.5805
  805MPD2     N11862   3.165   3.166  15.328  0.1054 -0.2350  0.2904
  805MPD2    H511863   3.235   3.106  15.286  0.6214  0.1477  0.6093
  805MPD2    N111864   2.994   3.182  14.882  0.1233 -0.5791  0.0639
  805MPD2    H711865   3.070   3.119  14.860  0.4385  0.2146 -1.1676
  806MPD2     C11866   2.956   2.420  17.551  0.2216 -0.1604 -0.1959
  806MPD2    C111867   2.946   2.480  17.674  1.4846 -0.3687  0.6294
  806MPD2    C211868   3.033   2.582  17.698  0.0117 -0.1005  0.4019
  806MPD2    C311869   3.113   2.637  17.596  0.1055  0.4726 -0.6061
  806MPD2    C411870   3.104   2.572  17.468  0.1484  0.4036 -0.0979
  806MPD2    C511871   3.030   2.459  17.448 -0.6173  0.0669  0.1033
  806MPD2     H11872   3.029   2.626   0.081  0.6164 -1.9692  1.2558
  806MPD2    H111873   3.166   2.598  17.383 -1.0709  0.1506 -1.0687
  806MPD2    H211874   2.905   2.325  17.538 -1.0174  0.5149 -0.2454
  806MPD2    H311875   3.049   2.408  17.354 -0.1900  1.6708 -0.6825
  806MPD2     N11876   3.207   2.735  17.640 -0.3477  0.5847  0.3226
  806MPD2    H511877   3.207   2.778   0.015 -1.5154  0.3993  0.4084
  806MPD2    N111878   2.865   2.417   0.063 -0.7222 -0.0799 -0.0899
  806MPD2    H711879   2.835   2.323   0.038 -1.1888 -0.0856  0.5014
  807MPD2     C11880   2.547   2.478   0.886 -0.2221  0.3365  0.1433
  807MPD2    C111881   2.518   2.361   0.818  0.0352  0.3816  0.0058
  807MPD2    C211882   2.425   2.278   0.872 -0.8929 -0.7946 -0.0217
  807MPD2    C311883   2.358   2.311   0.991 -0.3708  0.2015  0.0722
  807MPD2    C411884   2.387   2.438   1.043 -0.2811  0.5151 -0.2390
  807MPD2    C511885   2.485   2.515   0.996  0.1951 -0.4351 -0.3507
  807MPD2     H11886   2.399   2.187   0.818 -0.0933 -2.5292  2.4902
  807MPD2    H111887   2.339   2.478   1.132  0.8575  0.5621  0.3664
  807MPD2    H211888   2.621   2.546   0.847  0.2254 -0.0475  0.3235
  807MPD2    H311889   2.511   2.613   1.034 -0.9696 -0.2914  0.1002
  807MPD2     N11890   2.250   2.235   1.041 -0.3621 -0.2656  0.2045
  807MPD2    H511891   2.229   2.158   0.979  1.6017 -1.1216  0.6073
  807MPD2    N111892   2.571   2.329   0.689  0.0387  0.5199 -0.4806
  807MPD2    H711893   2.540   2.242   0.648  1.1412 -1.4361  2.8034
  808MPD2     C11894   3.814   4.434   9.602  0.0033 -0.1508 -0.3061
  808MPD2    C111895   3.852   4.354   9.705  0.2209  0.2092  0.0131
  808MPD2    C211896   3.957   4.389   9.790  0.6843  0.2115  0.9810
  808MPD2    C311897   4.012   4.510   9.781 -0.1133  0.5605  0.2379
  808MPD2    C411898   3.971   4.600   9.682 -0.1981  0.7641  0.2707
  808MPD2    C511899   3.875   4.559   9.594  0.7228 -0.3040 -0.6100
  808MPD2     H11900   3.984   4.312   9.861 -0.3793 -0.0038  1.1660
  808MPD2    H111901   4.018   4.696   9.663  0.3888  0.9888  2.8532
  808MPD2    H211902   3.738   4.410   9.528 -0.3656  0.1666 -0.0303
  808MPD2    H311903   3.852   4.624   9.511 -0.5220  0.1744  0.0996
  808MPD2     N11904   4.117   4.551   9.866 -0.0310  0.2188  0.3533
  808MPD2    H511905   4.155   4.644   9.856 -1.1956  0.6640  0.1033
  808MPD2    N111906   3.785   4.236   9.740  0.5672  0.3893 -0.0719
  808MPD2    H711907   3.815   4.188   9.824  0.1059  2.3578  1.2147
  809MPD2     C11908   0.045   4.110  10.446 -0.1650 -0.2735  0.0231
  809MPD2    C111909   0.032   4.229  10.514  0.1408 -0.3685  0.0929
  809MPD2    C211910   4.705   4.337  10.452  0.5696  0.3642 -0.1139
  809MPD2    C311911   4.660   4.327  10.319 -0.0163 -0.1293 -0.2513
  809MPD2    C411912   4.677   4.201  10.255  0.7857 -0.4147 -0.4719
  809MPD2    C511913   0.012   4.103  10.316  0.2166 -0.7730  0.0128
  809MPD2     H11914   4.704   4.432  10.504 -0.4248  0.6804 -0.7086
  809MPD2    H111915   4.655   4.195  10.149 -1.2485 -2.4544  0.0620
  809MPD2    H211916   0.094   4.019  10.478  1.5812  0.9814  0.8353
  809MPD2    H311917   0.042   4.013  10.265 -0.9067 -1.3827  0.4242
  809MPD2     N11918   4.590   4.421  10.244  0.0240 -0.0837  0.1557
  809MPD2    H511919   4.561   4.390  10.152 -1.8082 -1.3694  1.1660
  809MPD2    N111920   0.085   4.242  10.652  0.1592 -0.3435 -0.6145
  809MPD2    H711921   0.065   4.333  10.694  0.0531 -0.0688 -1.2608
  810MPD2     C11922   3.589   3.925  10.803 -0.0213 -0.3270 -0.5858
  810MPD2    C111923   3.473   3.866  10.847  0.0899  0.9777 -0.3480
  810MPD2    C211924   3.414   3.931  10.958 -0.5749 -0.2039  0.3849
  810MPD2    C311925   3.467   4.053  11.004 -0.4096 -0.2400  0.5525
  810MPD2    C411926   3.564   4.118  10.934  0.4992  0.4036 -0.0193
  810MPD2    C511927   3.634   4.046  10.840  0.3008  0.2808  0.5958
  810MPD2     H11928   3.331   3.885  11.012  0.3877 -4.0842 -1.4917
  810MPD2    H111929   3.601   4.219  10.946  0.0057  0.7869 -1.6508
  810MPD2    H211930   3.633   3.884  10.714 -1.1703 -3.1433  0.1358
  810MPD2    H311931   3.710   4.095  10.781  1.1732 -3.1363 -1.1067
  810MPD2     N11932   3.419   4.114  11.117  0.8228 -0.5144 -0.6743
  810MPD2    H511933   3.448   4.209  11.137 -0.5369  0.0594 -1.4372
  810MPD2    N111934   3.434   3.755  10.770 -0.4079 -0.0412  0.2461
  810MPD2    H711935   3.482   3.733  10.683  0.2054 -2.0387  1.1036
  811MPD2     C11936   2.859   3.623  10.178 -0.3673 -0.5163 -0.7630
  811MPD2    C111937   2.964   3.687  10.238 -0.7166 -0.2587 -0.0878
  811MPD2    C211938   2.991   3.815  10.224  0.4219  0.3102 -0.5699
  811MPD2    C311939   2.909   3.890  10.143 -0.2720  0.7762  0.0574
  811MPD2    C411940   2.806   3.836  10.070  0.9344 -0.2859 -0.3956
  811MPD2    C511941   2.784   3.700  10.093  0.3297 -0.2229 -0.2104
  811MPD2     H11942   3.070   3.870  10.273 -0.6481  0.2023  1.2696
  811MPD2    H111943   2.748   3.893   9.998  1.2281  0.2168 -0.2287
  811MPD2    H211944   2.825   3.523  10.201  3.0944 -0.9957  2.2277
  811MPD2    H311945   2.706   3.647  10.040  0.7885  0.1858 -1.2984
  811MPD2     N11946   2.932   4.028  10.159 -0.0589 -0.0637  0.0092
  811MPD2    H511947   3.009   4.067  10.214 -0.5214 -0.4792  0.9509
  811MPD2    N111948   3.042   3.598  10.323 -0.6898 -0.6530 -0.2394
  811MPD2    H711949   3.010   3.502  10.332 -0.3636 -0.5681  1.8315
  812MPD2     C11950   2.127   3.912  12.226  0.1277 -0.2849  0.6564
  812MPD2    C111951   1.986   3.897  12.234  0.8362 -0.1744  0.3437
  812MPD2    C211952   1.939   3.795  12.319  0.2948  0.2511 -0.8322
  812MPD2    C311953   2.024   3.728  12.405  0.1541  0.2406  0.3953
  812MPD2    C411954   2.164   3.749  12.396  0.6741 -0.1669  0.4637
  812MPD2    C511955   2.218   3.834  12.302 -0.1326 -0.1228 -0.3250
  812MPD2     H11956   1.833   3.772  12.319  0.4820 -0.6440  0.5077
  812MPD2    H111957   2.241   3.699  12.455 -1.2913  0.2768  3.4151
  812MPD2    H211958   2.166   3.985  12.157  0.3308 -0.0051  1.0709
  812MPD2    H311959   2.323   3.857  12.287 -0.3459  0.8752 -0.3470
  812MPD2     N11960   1.962   3.644  12.496 -0.4612 -0.0148  0.0165
  812MPD2    H511961   1.861   3.646  12.512 -0.4311 -0.4053  0.2659
  812MPD2    N111962   1.899   3.978  12.155 -0.0509  0.4328 -0.5332
  812MPD2    H711963   1.944   4.046  12.095 -0.3635  1.2996  0.2081
  813MPD2     C11964   0.923   0.939  12.663 -0.5870  0.3677  0.0935
  813MPD2    C111965   0.904   1.075  12.684 -0.2126 -0.1111 -0.1732
  813MPD2    C211966   0.808   1.109  12.784 -0.7147 -0.8231 -0.1742
  813MPD2    C311967   0.742   1.008  12.859 -0.5056 -0.5852  0.3643
  813MPD2    C411968   0.772   0.876  12.840 -0.0595 -0.0282  0.6409
  813MPD2    C511969   0.860   0.842  12.740 -0.0329 -0.3076  0.2688
  813MPD2     H11970   0.778   1.209  12.814  0.1677 -0.4617 -0.5056
  813MPD2    H111971   0.720   0.791  12.882  1.1232 -0.3853  1.3648
  813MPD2    H211972   1.002   0.903  12.598 -1.1539 -0.5170 -0.0911
  813MPD2    H311973   0.873   0.741  12.703 -0.6534  0.3137 -1.6061
  813MPD2     N11974   0.658   1.058  12.958 -1.1508 -0.2831  0.1628
  813MPD2    H511975   0.654   1.159  12.966 -0.4992 -0.0143 -2.6768
  813MPD2    N111976   0.984   1.165  12.614  0.1810  0.5476 -0.3687
  813MPD2    H711977   1.037   1.124  12.538 -0.9143  2.4623 -2.1874
  814MPD2     C11978   1.538   2.543  12.405  0.0807  1.0689  0.7156
  814MPD2    C111979   1.624   2.525  12.296  0.0079 -0.3466  0.0431
  814MPD2    C211980   1.667   2.633  12.232  0.8706 -0.3236 -0.3783
  814MPD2    C311981   1.626   2.763  12.263 -0.2906 -0.3461 -0.9166
  814MPD2    C411982   1.551   2.779  12.376 -0.0768  0.4347 -1.3698
  814MPD2    C511983   1.509   2.669  12.451 -0.1162 -0.0084 -0.9015
  814MPD2     H11984   1.730   2.617  12.145  1.8355 -1.7141  0.5661
  814MPD2    H111985   1.535   2.881  12.409 -1.5800  0.0621 -0.9647
  814MPD2    H211986   1.487   2.455  12.445 -0.3707  0.6554 -0.7725
  814MPD2    H311987   1.444   2.690  12.535 -1.3861  0.8172 -2.0896
  814MPD2     N11988   1.657   2.885  12.193 -0.3262  0.0131 -0.4756
  814MPD2    H511989   1.606   2.972  12.205 -0.2691  0.3614 -2.6320
  814MPD2    N111990   1.660   2.397  12.248  0.5228  0.3253  0.1545
  814MPD2    H711991   1.717   2.402  12.165  1.0704  0.7567  0.5520
  815MPD2     C11992   1.671   1.095  11.977  0.0776  0.4933 -0.8583
  815MPD2    C111993   1.676   0.957  11.950 -0.0014 -0.6611 -0.5579
  815MPD2    C211994   1.565   0.878  11.963  0.4208  0.0831  0.5380
  815MPD2    C311995   1.445   0.932  12.008  0.1848 -1.1823  0.1280
  815MPD2    C411996   1.444   1.064  12.043 -0.0734 -0.2012 -0.6621
  815MPD2    C511997   1.553   1.140  12.027 -0.2353 -0.3445 -1.0009
  815MPD2     H11998   1.558   0.776  11.927 -1.8262  1.1369 -1.9961
  815MPD2    H111999   1.348   1.106  12.070 -0.9067 -1.9362 -0.9568
  815MPD2    H212000   1.758   1.158  11.979  1.1433 -0.9894 -0.6736
  815MPD2    H312001   1.545   1.245  12.052  2.1078 -0.7626  1.5967
  815MPD2     N12002   1.331   0.846  12.017 -0.7409  0.1023  0.3110
  815MPD2    H512003   1.346   0.749  11.991  0.9457 -0.3957  3.1781
  815MPD2    N112004   1.799   0.898  11.911  0.4165  0.4042  0.6084
  815MPD2    H712005   1.873   0.966  11.897  0.2723  1.0005  2.8265
  816MPD2     C12006   1.721   3.875  17.418 -0.1245 -0.7112  0.6749
  816MPD2    C112007   1.758   4.012  17.415  0.0665 -0.6349 -0.6900
  816MPD2    C212008   1.880   4.046  17.369 -0.6015 -0.6402 -1.2300
  816MPD2    C312009   1.969   3.955  17.319  0.2183  0.6199 -0.5723
  816MPD2    C412010   1.934   3.823  17.331 -0.6533 -0.3023 -0.4985
  816MPD2    C512011   1.820   3.787  17.396  0.0600 -0.3001 -0.0540
  816MPD2     H12012   1.899   4.152  17.356  1.1411 -0.4862  2.7361
  816MPD2    H112013   1.990   3.738  17.296 -1.3092 -1.2000  0.6376
  816MPD2    H212014   1.625   3.838  17.453 -1.4065  0.7060 -1.3748
  816MPD2    H312015   1.812   3.685  17.431  0.0913 -0.2825  0.0053
  816MPD2     N12016   2.076   4.003  17.236  0.2879 -0.0872 -0.4093
  816MPD2    H512017   2.074   4.104  17.226  1.8471  0.2017  2.1926
  816MPD2    N112018   1.665   4.112  17.453 -0.1989  0.3672 -0.0137
  816MPD2    H712019   1.567   4.086  17.465 -0.8786  2.8262 -0.3139
  817MPD2     C12020   1.591   1.042   9.388  0.4885  0.2626  0.0565
  817MPD2    C112021   1.579   0.911   9.347 -0.4080  0.3087  0.1660
  817MPD2    C212022   1.514   0.871   9.236 -0.8071  1.1732  0.4188
  817MPD2    C312023   1.447   0.974   9.163  0.0396  0.1249  0.1298
  817MPD2    C412024   1.465   1.105   9.194  0.6328 -0.4006 -0.4189
  817MPD2    C512025   1.542   1.137   9.304 -0.2524  0.1596 -0.2775
  817MPD2     H12026   1.499   0.767   9.208  0.7162  0.8737  0.7026
  817MPD2    H112027   1.409   1.177   9.135 -0.3173  0.9088  2.0509
  817MPD2    H212028   1.646   1.067   9.479 -0.6002 -0.2294  0.8395
  817MPD2    H312029   1.547   1.239   9.340 -0.6948 -0.4493  1.5364
  817MPD2     N12030   1.380   0.926   9.048 -0.8303  0.1289 -0.1382
  817MPD2    H512031   1.381   0.825   9.037 -0.5467  0.2937 -1.7574
  817MPD2    N112032   1.631   0.809   9.425 -0.0373  0.4400 -0.5376
  817MPD2    H712033   1.631   0.720   9.375 -1.3289 -0.5197  1.1642
  818MPD2     C12034   0.493   1.966  10.328  0.1618  0.1383 -0.2893
  818MPD2    C112035   0.382   1.987  10.405 -0.5118 -0.0145  0.3108
  818MPD2    C212036   0.291   1.884  10.433  0.4215  0.1217 -0.0872
  818MPD2    C312037   0.323   1.762  10.373  0.3215 -1.3823  0.0649
  818MPD2    C412038   0.430   1.737  10.294  0.3215  0.8314  0.2836
  818MPD2    C512039   0.519   1.839  10.283 -0.3947 -0.5742 -0.0776
  818MPD2     H12040   0.199   1.895  10.489 -0.6421 -2.4304 -1.3262
  818MPD2    H112041   0.445   1.637  10.255  0.4922  1.0603 -0.2344
  818MPD2    H212042   0.554   2.050  10.298  0.0340  0.1793 -0.4357
  818MPD2    H312043   0.603   1.840  10.213 -0.4708  0.4301 -0.1485
  818MPD2     N12044   0.250   1.649  10.409 -0.4151  0.1278  0.1181
  818MPD2    H512045   0.299   1.562  10.390  0.3054  0.0251  2.4574
  818MPD2    N112046   0.352   2.109  10.468  0.1056 -0.6292 -0.5186
  818MPD2    H712047   0.279   2.109  10.538 -0.4260  0.9698 -1.0783
  819MPD2     C12048   3.855   2.864  15.785 -0.8401  0.1182  0.7234
  819MPD2    C112049   3.860   2.762  15.690  0.3127  0.1633 -0.2187
  819MPD2    C212050   3.981   2.692  15.676 -0.1581 -0.3176  0.7088
  819MPD2    C312051   4.094   2.738  15.735 -0.4428  0.5400 -0.1260
  819MPD2    C412052   4.085   2.851  15.815 -0.2546 -0.4694  0.3085
  819MPD2    C512053   3.968   2.909  15.842 -0.3793  0.1968 -0.2151
  819MPD2     H12054   3.982   2.600  15.619  1.5178  0.1527  0.0029
  819MPD2    H112055   4.163   2.880  15.884 -0.3628  0.3963  0.0654
  819MPD2    H212056   3.762   2.915  15.806 -1.1316  0.0856 -0.5187
  819MPD2    H312057   3.963   3.001  15.899 -1.7744 -1.1907  1.9000
  819MPD2     N12058   4.223   2.681  15.728 -0.8641 -0.1576  0.4736
  819MPD2    H512059   4.291   2.729  15.786  0.5728 -2.4392  0.6681
  819MPD2    N112060   3.748   2.710  15.621  0.0151  0.4710 -0.4469
  819MPD2    H712061   3.764   2.631  15.559  2.8925  1.1287 -0.5166
  820MPD2     C12062   3.411   2.612  14.764  0.5371 -0.5367  0.0493
  820MPD2    C112063   3.357   2.727  14.803  0.1608 -0.7696 -0.7543
  820MPD2    C212064   3.371   2.761  14.937  0.3406 -0.2281  0.3444
  820MPD2    C312065   3.425   2.673  15.033  0.6445 -0.7970  0.6160
  820MPD2    C412066   3.469   2.555  14.986  0.2112  0.4503 -0.4595
  820MPD2    C512067   3.464   2.523  14.849 -0.2422 -0.0071 -0.4119
  820MPD2     H12068   3.336   2.854  14.981  0.4312 -0.0139 -0.0355
  820MPD2    H112069   3.519   2.485  15.052  0.0321  0.3115 -0.4700
  820MPD2    H212070   3.407   2.593  14.658 -0.1066 -1.6862  0.2714
  820MPD2    H312071   3.509   2.428  14.825  2.0897  1.0452 -0.2482
  820MPD2     N12072   3.436   2.694  15.172  0.3439 -0.1190 -0.6295
  820MPD2    H512073   3.486   2.621  15.221 -2.3350  0.1934  2.5284
  820MPD2    N112074   3.271   2.797  14.715  0.0928 -0.9939  0.5330
  820MPD2    H712075   3.262   2.766  14.619  0.2290 -2.4619  0.9988
  821MPD2     C12076   3.381   4.372  13.740  0.5608 -0.2028 -0.7715
  821MPD2    C112077   3.433   4.503  13.743 -0.0006 -0.3532 -0.1256
  821MPD2    C212078   3.525   4.539  13.646 -0.6766 -0.4019 -0.3341
  821MPD2    C312079   3.579   4.445  13.558 -0.7531 -0.7596  0.0628
  821MPD2    C412080   3.527   4.314  13.567 -0.7177 -0.4259  0.1282
  821MPD2    C512081   3.428   4.286  13.650  0.0599 -0.0693 -0.2051
  821MPD2     H12082   3.578   4.633  13.648 -1.5487  0.0901 -0.2655
  821MPD2    H112083   3.545   4.240  13.490 -0.3385  0.3200 -0.5041
  821MPD2    H212084   3.295   4.338  13.798  2.6902 -0.5927  2.1861
  821MPD2    H312085   3.379   4.189  13.643 -1.8601  0.8145  1.0029
  821MPD2     N12086   3.676   4.470  13.462 -0.0642 -0.2086  0.3918
  821MPD2    H512087   3.706   4.386  13.412 -2.4368 -1.5530  1.2010
  821MPD2    N112088   3.395   4.593  13.841  0.8541 -0.3989  0.0313
  821MPD2    H712089   3.429   4.689  13.839  1.5023 -0.6410 -0.3861
  822MPD2     C12090   4.245   4.665  15.902 -0.5606  0.9371 -0.2690
  822MPD2    C112091   4.252   4.605  16.028  0.1946  0.4218 -0.4635
  822MPD2    C212092   4.199   4.678  16.131 -0.2144 -0.5438  0.1531
  822MPD2    C312093   4.126   0.064  16.106 -0.6022 -0.2339  0.2908
  822MPD2    C412094   4.120   0.108  15.977 -0.4802 -0.0039 -0.4637
  822MPD2    C512095   4.181   0.049  15.875  0.1211  0.3862  0.7302
  822MPD2     H12096   4.203   4.639  16.232 -3.3642  1.6899  1.1226
  822MPD2    H112097   4.069   0.198  15.945  0.6119  1.1566  1.0340
  822MPD2    H212098   4.286   4.620  15.812 -0.3929 -1.8720  1.2210
  822MPD2    H312099   4.170   0.098  15.779  0.3169  0.1258  0.5759
  822MPD2     N12100   4.063   0.139  16.214  0.5382 -0.6410  0.7329
  822MPD2    H512101   4.058   0.104  16.309 -1.2347 -0.9148  0.5457
  822MPD2    N112102   4.323   4.485  16.055  0.4457  0.5487 -0.3652
  822MPD2    H712103   4.319   4.453  16.151  1.7710 -0.2528 -0.5753
  823MPD2     C12104   3.695   0.256  16.985  0.0889  0.0287  0.0917
  823MPD2    C112105   3.733   0.182  16.871 -0.1117 -0.6280 -0.3453
  823MPD2    C212106   3.746   0.046  16.885 -0.2048 -0.4569 -0.1546
  823MPD2    C312107   3.727   4.716  17.009 -0.1544  0.5189 -0.5760
  823MPD2    C412108   3.695   0.056  17.120  0.0273 -0.5182  0.3465
  823MPD2    C512109   3.669   0.192  17.099  0.1879 -0.2681  0.2821
  823MPD2     H12110   3.768   4.713  16.800 -1.1252 -1.4727  0.3396
  823MPD2    H112111   3.665   0.011  17.214  2.8245 -0.2564  1.3457
  823MPD2    H212112   3.686   0.364  16.987  0.6137  0.0588  0.7186
  823MPD2    H312113   3.653   0.263  17.178 -1.1558 -2.0178  1.5703
  823MPD2     N12114   3.759   4.583  17.023 -0.3604  0.3688 -0.4397
  823MPD2    H512115   3.762   4.552  17.120 -0.0270  0.7613 -0.3217
  823MPD2    N112116   3.774   0.249  16.751  0.2702 -0.2859 -0.3445
  823MPD2    H712117   3.784   0.349  16.763 -1.0995 -0.2099  0.1701
  824MPD2     C12118   4.679   3.721  15.777 -0.1582  0.0758 -0.4338
  824MPD2    C112119   0.018   3.799  15.870 -0.6116 -0.4462  0.0469
  824MPD2    C212120   0.135   3.743  15.919  0.8044  0.4233 -0.0785
  824MPD2    C312121   0.189   3.627  15.864 -0.0924  0.0973 -0.4708
  824MPD2    C412122   0.125   3.552  15.769 -0.7451  0.4293  0.2021
  824MPD2    C512123   4.727   3.599  15.741  0.0678  0.3516  0.3627
  824MPD2     H12124   0.200   3.802  15.982  0.5729 -1.7060  2.1256
  824MPD2    H112125   0.164   3.460  15.728 -2.5888  0.0508 -0.6964
  824MPD2    H212126   4.588   3.751  15.727 -1.8299  0.6258  2.9438
  824MPD2    H312127   4.662   3.540  15.677 -2.2752  1.6263  1.5798
  824MPD2     N12128   0.320   3.580  15.912  0.1641 -0.0972  0.4416
  824MPD2    H512129   0.371   3.647  15.968  1.2884 -1.0879  0.6025
  824MPD2    N112130   4.701   3.926  15.915 -0.5401  0.4745 -0.0535
  824MPD2    H712131   0.017   3.976  15.991  0.2919  0.9984 -0.8896
  825MPD2     C12132   1.058   3.655  15.607 -0.4961 -0.0547  0.5475
  825MPD2    C112133   0.980   3.725  15.693 -0.6657 -0.2528  0.0769
  825MPD2    C212134   0.969   3.863  15.683 -0.3945  0.7637  0.2947
  825MPD2    C312135   1.038   3.926  15.582  0.1516  0.8897  0.0683
  825MPD2    C412136   1.121   3.852  15.504 -0.9406 -0.1777 -0.2833
  825MPD2    C512137   1.139   3.720  15.518 -0.2126 -0.1444 -0.3129
  825MPD2     H12138   0.911   3.912  15.760 -0.6201  0.7760  0.1145
  825MPD2    H112139   1.185   3.902  15.432  0.1389 -0.6930  0.3227
  825MPD2    H212140   1.060   3.547  15.612  0.7976 -0.0427  0.2711
  825MPD2    H312141   1.206   3.665  15.453  1.3664  0.1818  1.0417
  825MPD2     N12142   1.005   4.057  15.544  0.0374  0.1143  0.5698
  825MPD2    H512143   1.039   4.079  15.451  0.0039  0.3820  0.6218
  825MPD2    N112144   0.903   3.646  15.789 -0.8217  0.3176 -0.0309
  825MPD2    H712145   0.912   3.545  15.783 -0.5743  0.3400 -0.0218
  826MPD2     C12146   4.604   3.002  13.756 -0.0263  0.2405 -0.4710
  826MPD2    C112147   4.525   3.067  13.672  0.2871  0.0094 -0.4081
  826MPD2    C212148   4.435   3.164  13.711 -0.7620 -0.0489 -0.4080
  826MPD2    C312149   4.423   3.187  13.848 -0.3930  0.1333  0.2593
  826MPD2    C412150   4.504   3.116  13.937  0.0599 -0.2605  0.0124
  826MPD2    C512151   4.593   3.027  13.887  0.2672 -0.1621 -0.1844
  826MPD2     H12152   4.356   3.204  13.648 -0.6351  0.8243 -0.0120
  826MPD2    H112153   4.496   3.136  14.043  2.5722  0.4005  0.0672
  826MPD2    H212154   4.676   2.927  13.726 -1.7365 -1.8527  0.6659
  826MPD2    H312155   4.665   2.977  13.950 -0.1112 -1.1972 -0.5850
  826MPD2     N12156   4.333   3.277  13.905  0.4974 -0.3120  0.1293
  826MPD2    H512157   4.338   3.284  14.006  0.5790 -1.0694  0.1815
  826MPD2    N112158   4.543   3.039  13.536 -0.0064 -0.0586 -0.2697
  826MPD2    H712159   4.626   2.987  13.509  0.9343  0.2402  2.0383
  827MPD2     C12160   0.667   0.378  10.104  0.0595  0.2458  0.6650
  827MPD2    C112161   0.697   0.252  10.152 -0.9324  0.1987  0.3924
  827MPD2    C212162   0.632   0.143  10.104  0.1398 -0.3594 -0.4145
  827MPD2    C312163   0.526   0.152  10.011  0.3476  0.2542 -1.2182
  827MPD2    C412164   0.487   0.284   9.976  0.3638 -0.1516 -0.3533
  827MPD2    C512165   0.559   0.392  10.023  0.8622  0.5273 -0.0165
  827MPD2     H12166   0.647   0.044  10.146 -1.5644 -2.2051 -4.1347
  827MPD2    H112167   0.410   0.308   9.903  0.5599  0.7851 -0.2545
  827MPD2    H212168   0.717   0.461  10.153  1.9540 -2.8907  4.0652
  827MPD2    H312169   0.524   0.490   9.994 -1.4953 -0.0531  0.8359
  827MPD2     N12170   0.466   0.036   9.958  0.5182  0.6717  0.1032
  827MPD2    H512171   0.503   4.676   9.989 -0.2577  0.6252  0.9018
  827MPD2    N112172   0.799   0.236  10.248 -0.1286  0.0757  0.0253
  827MPD2    H712173   0.851   0.320  10.270  0.0428  0.2716 -1.1536
  828MPD2     C12174   3.964   0.016  12.684 -0.2185 -0.7987  0.2454
  828MPD2    C112175   3.943   0.030  12.547  0.0506  0.0233 -0.1487
  828MPD2    C212176   4.044   0.029  12.456 -0.1648  0.8744 -0.2306
  828MPD2    C312177   4.173   0.028  12.491  0.5882  0.4997 -0.0483
  828MPD2    C412178   4.195   0.016  12.625 -0.1901 -0.3360 -0.0803
  828MPD2    C512179   4.094   0.004  12.714 -0.0447  1.0248  0.6087
  828MPD2     H12180   4.012   0.046  12.354 -1.4435 -1.9409 -0.3175
  828MPD2    H112181   4.292   0.015  12.671  0.1489  1.2952 -0.7253
  828MPD2    H212182   3.892   0.000  12.764  0.5753 -0.1600  1.0833
  828MPD2    H312183   4.118   4.720  12.819  0.3023 -2.0210  0.1620
  828MPD2     N12184   4.284   0.017  12.401 -0.2306  0.4218  0.3502
  828MPD2    H512185   4.374   0.046  12.440  1.0267 -2.0682 -0.6802
  828MPD2    N112186   3.814   0.042  12.500  0.0419  0.3720  0.4723
  828MPD2    H712187   3.807   0.050  12.399  2.7325  2.7602  0.4579
  829MPD2     C12188   3.708   0.119  11.713  0.0193 -0.2190  0.7709
  829MPD2    C112189   3.636   0.229  11.759 -0.8804  0.4678  0.3999
  829MPD2    C212190   3.595   0.230  11.885  0.4529 -0.2759 -0.5028
  829MPD2    C312191   3.622   0.122  11.973 -0.0803  0.1601 -0.9853
  829MPD2    C412192   3.689   0.009  11.928  0.1986 -0.4752  0.3332
  829MPD2    C512193   3.736   0.016  11.799  0.1804  0.1896 -0.7951
  829MPD2     H12194   3.534   0.310  11.927  1.2252 -0.2283  0.5449
  829MPD2    H112195   3.718   4.654  11.989  0.8105 -0.3474  0.2137
  829MPD2    H212196   3.730   0.111  11.607 -2.1910  1.7140  0.1521
  829MPD2    H312197   3.790   4.657  11.765  1.5699  0.8615 -0.3217
  829MPD2     N12198   3.579   0.124  12.110  0.5355 -0.5678 -0.5951
  829MPD2    H512199   3.611   0.048  12.169  0.0151  0.1996  0.6828
  829MPD2    N112200   3.611   0.331  11.667  0.0213  0.0434  0.0790
  829MPD2    H712201   3.664   0.334  11.581  0.0285  3.6492  0.1943
  830MPD2     C12202   0.297   2.763  15.506 -0.0083 -0.0509 -0.2825
  830MPD2    C112203   0.164   2.759  15.479  0.2944  0.0220 -0.6642
  830MPD2    C212204   0.111   2.848  15.384 -0.6216  0.6934 -0.9424
  830MPD2    C312205   0.194   2.941  15.317  0.4635 -0.4164 -0.3737
  830MPD2    C412206   0.330   2.930  15.339 -0.6708 -0.0486 -0.2988
  830MPD2    C512207   0.380   2.844  15.435  0.4781 -0.7019 -0.7657
  830MPD2     H12208   0.004   2.845  15.364 -0.8083  0.8346  0.0553
  830MPD2    H112209   0.398   2.998  15.289  0.5558 -1.1635 -0.1581
  830MPD2    H212210   0.340   2.691  15.575  1.4759 -0.4406 -1.6293
  830MPD2    H312211   0.488   2.845  15.442  0.4073 -0.8086  0.4516
  830MPD2     N12212   0.152   3.031  15.221 -0.4030  0.5654  0.3754
  830MPD2    H512213   0.219   3.103  15.195 -2.2143  1.2289 -2.4602
  830MPD2    N112214   0.081   2.663  15.544  0.5014 -0.4965 -0.1700
  830MPD2    H712215   0.121   2.609  15.620 -0.2633  0.3442  0.8270
  831MPD2     C12216   4.246   0.092  16.640  0.2436 -0.4017  0.5791
  831MPD2    C112217   4.271   0.005  16.536  0.7236  0.6408 -0.2805
  831MPD2    C212218   4.170   4.643  16.514  0.7663 -0.0363 -0.2113
  831MPD2    C312219   4.050   4.642  16.580  0.3293 -0.3942  0.0107
  831MPD2    C412220   4.044   4.709  16.694  0.6912  0.7250  0.7887
  831MPD2    C512221   4.136   0.083  16.712  0.4721 -0.1884  0.9549
  831MPD2     H12222   4.178   4.563  16.441 -1.4163  1.8017 -2.4503
  831MPD2    H112223   3.959   4.700  16.761 -0.7154 -0.7516 -1.2158
  831MPD2    H212224   4.319   0.167  16.667 -0.9510  1.7320 -2.2139
  831MPD2    H312225   4.120   0.151  16.795  3.3663  0.6410  0.8322
  831MPD2     N12226   3.941   4.549  16.548 -0.1201 -0.3390  0.2759
  831MPD2    H512227   3.864   4.539  16.614 -0.7162 -0.1277 -0.3872
  831MPD2    N112228   4.391   0.021  16.462  0.3419 -0.0966  0.3257
  831MPD2    H712229   4.448   0.098  16.495  1.7033 -0.9285 -0.0908
  832MPD2     C12230   2.438   0.408  17.307 -0.4479  0.1778 -0.3469
  832MPD2    C112231   2.397   0.529  17.246  0.8661  0.7278  0.4146
  832MPD2    C212232   2.297   0.531  17.151  0.2231  0.2273  0.2138
  832MPD2    C312233   2.241   0.418  17.119  0.2355 -0.4767  0.0836
  832MPD2    C412234   2.278   0.293  17.172 -0.4198  0.1107 -0.5825
  832MPD2    C512235   2.372   0.291  17.278  0.3889  1.2919  0.1546
  832MPD2     H12236   2.255   0.626  17.120 -2.3862 -0.4854  1.5561
  832MPD2    H112237   2.236   0.196  17.149 -2.8327  0.9171  0.4370
  832MPD2    H212238   2.518   0.412  17.380  0.5655 -3.4416 -1.2417
  832MPD2    H312239   2.387   0.200  17.335  1.1911  1.9226  0.9514
  832MPD2     N12240   2.130   0.413  17.029 -1.0163  0.3299  0.2521
  832MPD2    H512241   2.087   0.322  17.012  0.0304  0.0694 -0.9419
  832MPD2    N112242   2.466   0.646  17.279  0.7609 -0.1300 -0.0649
  832MPD2    H712243   2.524   0.642  17.362  0.8728  3.6173  0.0517
  833MPD2     C12244   4.310   2.001  12.431 -0.6641 -0.9563  0.7026
  833MPD2    C112245   4.395   2.074  12.354  0.1734  0.5730  0.3506
  833MPD2    C212246   4.529   2.080  12.392 -0.3886 -0.2917 -0.3290
  833MPD2    C312247   4.572   2.035  12.511 -0.8733  0.4034  0.3035
  833MPD2    C412248   4.486   1.946  12.578  0.5561 -0.1875  0.8003
  833MPD2    C512249   4.355   1.935  12.541  0.2932  0.2243 -0.1745
  833MPD2     H12250   4.606   2.124  12.329 -2.8873  1.8663 -1.8584
  833MPD2    H112251   4.516   1.903  12.673  1.6359 -0.4499  0.3492
  833MPD2    H212252   4.204   2.007  12.410 -0.3698  1.1086 -0.2218
  833MPD2    H312253   4.284   1.886  12.605  0.8529  0.1329  0.3701
  833MPD2     N12254   4.700   2.057  12.568 -0.6508  0.2854  0.0615
  833MPD2    H512255   4.722   2.002  12.650  2.9886 -1.3908 -2.0467
  833MPD2    N112256   4.339   2.142  12.246  0.6526  0.0252  0.0179
  833MPD2    H712257   4.239   2.152  12.227  1.3886  2.7958 -2.5779
  834MPD2     C12258   0.520   1.588  12.007 -0.9388  0.0908  0.1035
  834MPD2    C112259   0.475   1.696  11.940 -0.1888  0.0286  0.1052
  834MPD2    C212260   0.437   1.807  12.012  0.0460  0.4499 -0.5206
  834MPD2    C312261   0.426   1.795  12.154  0.0929 -0.1120  0.5897
  834MPD2    C412262   0.450   1.675  12.214 -0.8629 -0.2597 -1.0053
  834MPD2    C512263   0.500   1.573  12.141 -0.2084  0.4453 -0.8031
  834MPD2     H12264   0.407   1.897  11.959  0.9869  0.5340 -0.9043
  834MPD2    H112265   0.452   1.657  12.321 -0.3699  0.2052 -0.9423
  834MPD2    H212266   0.545   1.500  11.949 -0.3176  0.7132 -0.5762
  834MPD2    H312267   0.521   1.478  12.189  0.5637  1.6176  1.2117
  834MPD2     N12268   0.398   1.916  12.228  0.7351 -0.7115 -0.3559
  834MPD2    H512269   0.402   2.002  12.176  0.1897 -1.5598 -1.7994
  834MPD2    N112270   0.475   1.698  11.801  0.3798  0.3211 -0.7681
  834MPD2    H712271   0.499   1.608  11.760 -1.1084 -0.5481  0.2870
  835MPD2     C12272   4.651   4.289  11.179 -0.2130 -0.2198  0.2333
  835MPD2    C112273   4.605   4.414  11.139  0.6618  0.0146  0.0968
  835MPD2    C212274   4.633   4.520  11.223  0.2603 -0.0883  0.3070
  835MPD2    C312275   4.689   4.498  11.346  0.1989 -0.5336 -0.1967
  835MPD2    C412276   4.721   4.367  11.385 -0.5417  0.5954  0.3198
  835MPD2    C512277   4.711   4.267  11.299  0.5802 -0.4572  0.0007
  835MPD2     H12278   4.594   4.617  11.197  1.1891  0.4722  1.0079
  835MPD2    H112279   0.035   4.344  11.482 -1.9481  2.6279  1.4323
  835MPD2    H212280   4.647   4.204  11.112 -1.4656  2.1423 -2.7008
  835MPD2    H312281   0.018   4.166  11.318 -1.4693 -0.7233  2.3939
  835MPD2     N12282   4.715   4.598  11.443 -0.1080 -0.5882 -0.5551
  835MPD2    H512283   0.022   4.571  11.534  1.1305  0.2279 -0.7936
  835MPD2    N112284   4.540   4.445  11.014  0.2926 -0.1127  0.1183
  835MPD2    H712285   4.510   4.541  11.000  0.4411  0.1607  1.6142
  836MPD2     C12286   4.187   0.227  11.796  0.3178 -0.4814  0.4027
  836MPD2    C112287   4.299   0.241  11.872 -0.0837 -0.1565  0.3947
  836MPD2    C212288   4.298   0.291  11.999  0.2714 -0.8970 -0.3454
  836MPD2    C312289   4.178   0.317  12.060 -0.1089  0.1643 -0.0088
  836MPD2    C412290   4.062   0.304  11.987 -0.3255 -0.1582 -0.1440
  836MPD2    C512291   4.069   0.259  11.859 -0.0653 -0.4890  0.4796
  836MPD2     H12292   4.390   0.319  12.050  0.8256 -0.2756 -1.6678
  836MPD2    H112293   3.967   0.338  12.028 -0.0206 -0.9651  1.2295
  836MPD2    H212294   4.191   0.179  11.699  1.4081 -1.3565  0.8832
  836MPD2    H312295   3.985   0.236  11.795 -0.5754 -2.1071  1.7298
  836MPD2     N12296   4.171   0.392  12.181  0.1585  0.4351 -0.2337
  836MPD2    H512297   4.093   0.458  12.183  0.8023  1.1727  0.4396
  836MPD2    N112298   4.413   0.210  11.795  0.0889 -0.6030 -0.0059
  836MPD2    H712299   4.397   0.143  11.721 -2.5513 -1.1436  1.0685
  837MPD2     C12300   3.269   4.563  10.563 -0.3689 -0.4394 -0.0266
  837MPD2    C112301   3.272   4.591  10.428 -0.5216 -0.0806  0.3039
  837MPD2    C212302   3.278   0.000  10.393  0.3598  0.1444  0.4644
  837MPD2    C312303   3.315   0.093  10.492 -0.8983  0.2689 -0.4488
  837MPD2    C412304   3.331   0.056  10.623  0.5185  0.3364  0.4276
  837MPD2    C512305   3.295   4.656  10.665  0.2013  0.2084  0.0104
  837MPD2     H12306   3.269   0.025  10.288  0.3312 -2.5403 -0.1729
  837MPD2    H112307   3.345   0.133  10.699 -0.6582  1.3737 -0.4165
  837MPD2    H212308   3.230   4.468  10.598  1.1315 -1.3702 -0.8854
  837MPD2    H312309   3.286   4.624  10.768 -0.2937 -0.0637 -0.1211
  837MPD2     N12310   3.345   0.235  10.464  0.3828 -0.0653  0.0183
  837MPD2    H512311   3.354   0.300  10.541  1.2212  0.8484 -0.8540
  837MPD2    N112312   3.239   4.503  10.322 -0.9537 -0.4188  0.6013
  837MPD2    H712313   3.235   4.546  10.230 -0.2633  0.8312  1.1545
  838MPD2     C12314   1.468   3.379  11.480  0.5859  0.1127 -0.2913
  838MPD2    C112315   1.532   3.259  11.496 -0.2696  0.2787 -0.3938
  838MPD2    C212316   1.469   3.141  11.532  0.2260 -0.2094  0.0167
  838MPD2    C312317   1.330   3.143  11.524 -0.7006  0.2181  0.2254
  838MPD2    C412318   1.266   3.264  11.502 -0.1779  0.8666 -0.0590
  838MPD2    C512319   1.333   3.382  11.481  0.4584  0.1532 -0.3314
  838MPD2     H12320   1.528   3.052  11.550  0.0666 -0.0202  1.5075
  838MPD2    H112321   1.158   3.273  11.505 -0.1723  1.0467 -0.4054
  838MPD2    H212322   1.520   3.469  11.450  0.1744  0.9034  1.3802
  838MPD2    H312323   1.284   3.479  11.474  2.3999  1.1225 -0.5155
  838MPD2     N12324   1.264   3.018  11.538  0.2942 -0.5031 -0.7310
  838MPD2    H512325   1.324   2.938  11.557  3.4431  2.3307  1.2688
  838MPD2    N112326   1.672   3.237  11.473  0.3299 -0.4430 -0.2322
  838MPD2    H712327   1.698   3.139  11.481  1.3241 -0.2442 -0.9425
  839MPD2     C12328   1.777   2.552  11.675  0.8543 -0.1786 -0.9981
  839MPD2    C112329   1.808   2.551  11.543 -0.3348  0.1348 -1.4022
  839MPD2    C212330   1.871   2.662  11.491 -0.7941  0.7646 -0.2640
  839MPD2    C312331   1.903   2.771  11.574 -0.0032  0.2793 -0.8978
  839MPD2    C412332   1.862   2.773  11.705 -0.5415  0.1127  0.5824
  839MPD2    C512333   1.800   2.662  11.752 -0.0761 -0.0728  1.3566
  839MPD2     H12334   1.900   2.660  11.387 -0.4389  2.5392 -0.2057
  839MPD2    H112335   1.888   2.848  11.779 -0.5160  0.7910 -0.1117
  839MPD2    H212336   1.725   2.470  11.722  1.3430 -0.6837 -1.3353
  839MPD2    H312337   1.771   2.647  11.855  1.0726 -0.8398  1.5673
  839MPD2     N12338   1.962   2.888  11.531  0.0833  0.0194 -0.1422
  839MPD2    H512339   1.978   2.960  11.602 -1.4000 -0.9041  1.1320
  839MPD2    N112340   1.781   2.441  11.453 -0.3552  0.2356 -0.4216
  839MPD2    H712341   1.825   2.441  11.362  0.0343  0.1335 -0.2311
  840MPD2     C12342   1.280   0.604  10.324 -0.4955 -0.9141 -0.1346
  840MPD2    C112343   1.270   0.545  10.444  0.2153 -0.3292 -0.0738
  840MPD2    C212344   1.368   0.566  10.535  0.5169  0.2230  0.6746
  840MPD2    C312345   1.479   0.648  10.509 -0.2766  0.3139 -0.0313
  840MPD2    C412346   1.480   0.713  10.386 -0.0999 -1.0634 -0.1654
  840MPD2    C512347   1.380   0.690  10.300  0.3092 -0.5305  0.5423
  840MPD2     H12348   1.379   0.516  10.631  1.0409  0.7095  0.8654
  840MPD2    H112349   1.559   0.783  10.362 -1.0892  0.1750  0.2199
  840MPD2    H212350   1.202   0.583  10.251 -0.1290  1.8891 -1.3174
  840MPD2    H312351   1.383   0.747  10.208  1.1991 -1.0744  0.2280
  840MPD2     N12352   1.579   0.688  10.607 -0.5081  0.1403 -0.6290
  840MPD2    H512353   1.658   0.744  10.577 -0.4288  0.9104  1.0371
  840MPD2    N112354   1.167   0.452  10.458 -0.0145  0.1204  0.2233
  840MPD2    H712355   1.089   0.455  10.393  0.1001 -1.6161  0.0025
  841MPD2     C12356   0.926   4.720  14.677 -0.8048  0.4079  0.0975
  841MPD2    C112357   0.994   4.613  14.620  0.7994  0.2083  0.0855
  841MPD2    C212358   1.114   4.638  14.561 -0.4479  0.1201 -1.3386
  841MPD2    C312359   1.162   0.033  14.542  0.3233 -0.2119  0.1066
  841MPD2    C412360   1.090   0.141  14.587  0.1100  0.5835  0.0615
  841MPD2    C512361   0.973   0.117  14.655 -0.1557 -0.2959  0.4156
  841MPD2     H12362   1.169   4.556  14.517  1.8933  0.4905  0.9293
  841MPD2    H112363   1.129   0.242  14.583 -0.3994  0.8048  0.7918
  841MPD2    H212364   0.836   4.704  14.735  1.1958  0.5601  3.2622
  841MPD2    H312365   0.928   0.196  14.714 -0.1709 -0.6431  0.8614
  841MPD2     N12366   1.298   0.033  14.494  0.0528 -0.0766  0.5300
  841MPD2    H512367   1.348   4.674  14.491 -0.9752 -0.6959  1.6501
  841MPD2    N112368   0.966   4.474  14.639  0.6634 -0.1270 -0.0763
  841MPD2    H712369   1.027   4.403  14.599 -1.0597 -0.9109 -1.2816
  842MPD2     C12370   1.632   0.891  16.726  0.1867 -0.2571 -0.6423
  842MPD2    C112371   1.499   0.873  16.719 -0.0671 -0.2337 -1.2085
  842MPD2    C212372   1.434   0.804  16.822  0.4056 -0.1734 -0.3229
  842MPD2    C312373   1.504   0.754  16.930  0.0946 -0.4678 -0.2934
  842MPD2    C412374   1.642   0.776  16.937 -0.4017 -0.5519 -0.1824
  842MPD2    C512375   1.704   0.840  16.833 -0.1026  0.1573  0.5071
  842MPD2     H12376   1.326   0.794  16.819  0.4611 -0.7508 -0.4396
  842MPD2    H112377   1.710   0.754  17.019  1.2755 -0.0404 -1.4428
  842MPD2    H212378   1.691   0.928  16.644  0.6586  1.0736  0.3023
  842MPD2    H312379   1.804   0.881  16.842 -0.0930 -0.2966  2.4614
  842MPD2     N12380   1.449   0.701  17.049  0.2691 -0.1863 -0.7173
  842MPD2    H512381   1.504   0.683  17.132 -1.4877 -0.4639  0.3848
  842MPD2    N112382   1.427   0.932  16.609 -0.0775 -0.1724  0.5513
  842MPD2    H712383   1.479   0.983  16.538  0.6814  0.0090  1.2474
  843MPD2     C12384   3.880   0.760   0.460 -0.1455  0.1357 -0.8196
  843MPD2    C112385   3.786   0.846   0.396 -0.2228  0.3305 -0.0929
  843MPD2    C212386   3.828   0.975   0.355  0.2997 -0.4030 -0.0927
  843MPD2    C312387   3.952   1.019   0.387  0.9853  0.3411  0.0495
  843MPD2    C412388   4.046   0.929   0.432  0.1605 -0.1624  0.2001
  843MPD2    C512389   4.014   0.804   0.475  0.5328  0.3602 -0.2913
  843MPD2     H12390   3.754   1.028   0.296 -0.6142 -2.8995 -1.2018
  843MPD2    H112391   4.151   0.956   0.441  0.4229 -1.7545  1.9654
  843MPD2    H212392   3.850   0.660   0.489 -0.6118  0.4470 -0.2327
  843MPD2    H312393   4.086   0.735   0.517  0.6129 -0.7943 -2.3252
  843MPD2     N12394   3.999   1.147   0.362  0.3871  0.4311  0.1156
  843MPD2    H512395   4.099   1.157   0.378  0.3537  0.3881  0.3473
  843MPD2    N112396   3.663   0.790   0.369 -0.1292  0.5306 -0.4726
  843MPD2    H712397   3.641   0.704   0.419 -0.0353  1.6798  1.5374
  844MPD2     C12398   1.929   4.564  16.787 -0.7707 -0.1151 -0.6381
  844MPD2    C112399   1.910   4.657  16.688 -0.0497 -0.3060  0.3968
  844MPD2    C212400   1.994   0.045  16.687  0.3945  0.5717  0.0294
  844MPD2    C312401   2.097   0.054  16.776  0.3594  0.4305  0.4656
  844MPD2    C412402   2.112   4.681  16.870 -0.1395  0.3128  0.3926
  844MPD2    C512403   2.024   4.578  16.881 -0.1225  0.3471 -0.1071
  844MPD2     H12404   1.981   0.117  16.607  1.5231  1.9154  1.0352
  844MPD2    H112405   2.184   4.694  16.950 -2.4188  0.0603  2.4785
  844MPD2    H212406   1.866   4.479  16.810 -0.5445 -0.2463 -0.5009
  844MPD2    H312407   2.041   4.509  16.964  1.6794  1.8484  0.7566
  844MPD2     N12408   2.184   0.163  16.797  0.1196  0.7017  0.0400
  844MPD2    H512409   2.243   0.171  16.879 -1.8151  1.7637  1.3485
  844MPD2    N112410   1.806   4.649  16.589  0.0521  0.1009  0.2568
  844MPD2    H712411   1.806   4.728  16.526  0.5836 -1.4136 -1.6444
  845MPD2     C12412   2.310   1.225  16.836 -0.7787  0.1028 -0.0986
  845MPD2    C112413   2.285   1.158  16.950 -0.2818  0.1370  0.1526
  845MPD2    C212414   2.279   1.019  16.948  0.3430 -0.3356  0.1228
  845MPD2    C312415   2.307   0.948  16.830  0.1470  0.0280 -0.1569
  845MPD2    C412416   2.329   1.020  16.712  0.1458 -0.2578 -0.5416
  845MPD2    C512417   2.336   1.160  16.718 -0.0508 -0.0811 -0.0634
  845MPD2     H12418   2.262   0.953  17.033 -0.4090 -1.2473 -0.7272
  845MPD2    H112419   2.365   0.967  16.625  2.1573 -1.5656  1.1196
  845MPD2    H212420   2.329   1.331  16.832  1.0525 -0.1861  1.0866
  845MPD2    H312421   2.370   1.216  16.631 -0.1121  0.3463  0.1915
  845MPD2     N12422   2.328   0.805  16.832  0.0514  0.2074 -0.1320
  845MPD2    H512423   2.357   0.769  16.922 -1.6631 -1.0041 -0.0581
  845MPD2    N112424   2.263   1.225  17.068 -0.5663  0.3652  0.1853
  845MPD2    H712425   2.259   1.326  17.064  1.1807  0.4328  0.0398
  846MPD2     C12426   3.954   2.013  13.978  0.1194  0.4763 -0.4738
  846MPD2    C112427   3.836   2.076  13.979 -0.4793 -0.0894 -0.2427
  846MPD2    C212428   3.771   2.109  14.098 -0.2037  0.0978  0.5818
  846MPD2    C312429   3.816   2.058  14.221  0.2087 -0.0032  0.2699
  846MPD2    C412430   3.940   1.993  14.214 -0.5970 -0.1327  0.1069
  846MPD2    C512431   3.999   1.969  14.097 -0.8510 -0.0424 -0.0216
  846MPD2     H12432   3.680   2.168  14.096  1.1385  2.1313  0.4522
  846MPD2    H112433   4.000   1.962  14.299 -0.5189 -1.0065 -0.2675
  846MPD2    H212434   4.007   1.984  13.888 -1.9906 -1.8373 -0.9745
  846MPD2    H312435   4.099   1.928  14.091 -0.9929 -0.3985  0.0126
  846MPD2     N12436   3.755   2.077  14.347  0.0202 -0.0849  0.2770
  846MPD2    H512437   3.669   2.130  14.345  0.5068  0.6011 -2.3282
  846MPD2    N112438   3.787   2.126  13.856  0.0224 -0.1326  0.6862
  846MPD2    H712439   3.712   2.193  13.846  1.0593  0.5855 -2.0780
  847MPD2     C12440   4.554   3.032  14.577  0.0729  0.4563 -0.0128
  847MPD2    C112441   4.572   3.167  14.564 -0.7472  0.7256 -0.1142
  847MPD2    C212442   4.688   3.226  14.604  0.0360  0.1157  0.2360
  847MPD2    C312443   0.066   3.151  14.663 -0.0124 -0.4427 -0.6423
  847MPD2    C412444   0.041   3.019  14.689 -0.3773 -0.6003  0.3222
  847MPD2    C512445   4.659   2.960  14.636 -0.5138  0.2940  0.5382
  847MPD2     H12446   4.691   3.334  14.601 -1.2248  0.1624  0.8791
  847MPD2    H112447   0.112   2.951  14.734  2.0418  1.4802 -0.3882
  847MPD2    H212448   4.467   2.975  14.545 -0.1439 -0.6621  2.6094
  847MPD2    H312449   4.650   2.852  14.639  0.8135  0.1595 -0.3511
  847MPD2     N12450   0.193   3.205  14.708 -0.2031 -0.2831  0.2526
  847MPD2    H512451   0.262   3.138  14.740  0.4866  0.9672  1.3698
  847MPD2    N112452   4.481   3.250  14.512  0.3043  0.1015  0.1664
  847MPD2    H712453   4.513   3.346  14.505 -1.5210  0.7325  0.4474
  848MPD2     C12454   1.703   0.724  16.357 -0.7788  0.0103 -0.1253
  848MPD2    C112455   1.796   0.751  16.451 -0.4590  0.4024 -0.0048
  848MPD2    C212456   1.876   0.863  16.430  0.5683 -0.0953 -0.2982
  848MPD2    C312457   1.853   0.945  16.318 -0.5367  0.5065 -0.4710
  848MPD2    C412458   1.755   0.918  16.228  0.7343  0.0499 -0.9089
  848MPD2    C512459   1.677   0.812  16.256 -0.3009 -0.5803  0.5125
  848MPD2     H12460   1.952   0.879  16.506 -0.3982  1.6963  0.2745
  848MPD2    H112461   1.748   0.982  16.141  1.1987  0.8117 -0.3900
  848MPD2    H212462   1.634   0.641  16.366  0.8182 -1.5034 -1.9547
  848MPD2    H312463   1.594   0.786  16.190  1.2128 -3.1722 -0.3801
  848MPD2     N12464   1.934   1.059  16.291  0.0182  0.0043 -0.0086
  848MPD2    H512465   1.908   1.116  16.211 -2.7692 -1.5467 -0.1938
  848MPD2    N112466   1.813   0.678  16.569  0.1859 -0.2598  0.6857
  848MPD2    H712467   1.874   0.707  16.645  0.5054 -2.1479  1.1654
  849MPD2     C12468   1.233   0.640  14.250  0.0138 -0.2647 -0.1206
  849MPD2    C112469   1.311   0.719  14.168  0.8064  0.4373  0.1394
  849MPD2    C212470   1.445   0.690  14.151  0.7654  0.2224 -0.0767
  849MPD2    C312471   1.500   0.570  14.203 -0.3893 -0.5553 -0.0384
  849MPD2    C412472   1.416   0.488  14.275  0.3867 -0.0953  0.5001
  849MPD2    C512473   1.290   0.527  14.304 -0.3240 -0.6182  0.0048
  849MPD2     H12474   1.516   0.753  14.099  0.8235  0.2676  0.0572
  849MPD2    H112475   1.451   0.389  14.302 -2.6552 -0.9889  1.2371
  849MPD2    H212476   1.127   0.660  14.259 -0.0362  0.3253 -2.0657
  849MPD2    H312477   1.230   0.463  14.368 -0.6007  1.2525  1.5837
  849MPD2     N12478   1.637   0.552  14.181  0.2401  0.0503  0.0618
  849MPD2    H512479   1.688   0.614  14.119  0.1170 -0.5692 -0.6519
  849MPD2    N112480   1.266   0.819  14.082  0.4548  0.1334  0.0040
  849MPD2    H712481   1.332   0.865  14.020 -0.5153  0.7575 -0.5637
  850MPD2     C12482   4.063   4.088  14.859  0.0227  0.5084  0.6497
  850MPD2    C112483   4.039   4.085  14.991  0.6316 -0.0396  0.2058
  850MPD2    C212484   4.141   4.127  15.074 -0.8881 -0.7407  0.1834
  850MPD2    C312485   4.264   4.154  15.025  0.1805 -0.0299 -0.3157
  850MPD2    C412486   4.281   4.162  14.886  0.0065  0.5853  0.5474
  850MPD2    C512487   4.171   4.145  14.805  0.0495 -0.2236  0.3688
  850MPD2     H12488   4.122   4.119  15.180 -1.6607  0.0912  0.1077
  850MPD2    H112489   4.374   4.179  14.834 -0.5478 -1.0130 -0.9774
  850MPD2    H212490   3.988   4.052  14.791 -1.8490  1.3758  2.2624
  850MPD2    H312491   4.189   4.144  14.698 -0.2607  1.1237  0.3060
  850MPD2     N12492   4.373   4.151  15.116 -0.1594 -0.0968 -0.1911
  850MPD2    H512493   4.461   4.169  15.067  0.1404 -0.9125  0.0589
  850MPD2    N112494   3.927   4.016  15.030  0.4738  0.4658 -0.0395
  850MPD2    H712495   3.893   3.951  14.960 -0.8185 -0.8848  1.8251
  851MPD2     C12496   4.371   3.712  15.424  0.3440  0.2598 -0.0752
  851MPD2    C112497   4.301   3.659  15.314 -0.1563 -0.5911  0.5556
  851MPD2    C212498   4.374   3.596  15.215 -0.1526  0.2431 -0.0336
  851MPD2    C312499   4.511   3.578  15.228  0.8966 -0.2572 -0.7409
  851MPD2    C412500   4.576   3.640  15.331 -0.1992  0.1063 -0.0918
  851MPD2    C512501   4.505   3.706  15.422 -0.0957 -0.2330  0.0679
  851MPD2     H12502   4.323   3.555  15.129  0.9131 -2.1075  0.4641
  851MPD2    H112503   4.679   3.676  15.330  0.1219 -0.7762  0.4652
  851MPD2    H212504   4.325   3.762  15.508  1.1637 -0.2774  0.6868
  851MPD2    H312505   4.542   3.765  15.505 -0.2444  0.7076 -0.5369
  851MPD2     N12506   4.580   3.496  15.135  0.1753  0.2247 -0.8797
  851MPD2    H512507   4.526   3.463  15.056  0.7430 -1.4978 -0.5540
  851MPD2    N112508   4.165   3.684  15.305  0.9507 -0.5256 -0.5549
  851MPD2    H712509   4.123   3.744  15.375  0.4701 -1.9764  0.3918
  852MPD2     C12510   3.856   1.082  10.282  0.5138  0.2577 -0.4915
  852MPD2    C112511   3.879   1.143  10.404  0.8972  1.2585 -0.3283
  852MPD2    C212512   3.966   1.252  10.403 -0.0240  0.8628 -0.9182
  852MPD2    C312513   4.035   1.287  10.288  0.0446 -0.0881 -0.4200
  852MPD2    C412514   4.015   1.215  10.173  0.4662 -0.1991  0.3963
  852MPD2    C512515   3.940   1.104  10.178  0.3407 -0.0320 -0.2565
  852MPD2     H12516   3.991   1.299  10.497 -0.3233  0.5296 -0.6686
  852MPD2    H112517   4.065   1.232  10.078  0.8020 -2.2568  0.1931
  852MPD2    H212518   3.790   0.997  10.270 -0.1933  0.6876  0.3962
  852MPD2    H312519   3.923   1.053  10.084  1.6242  0.1998 -0.6135
  852MPD2     N12520   4.113   1.403  10.302  0.4582 -0.6394 -0.2508
  852MPD2    H512521   4.119   1.445  10.394 -0.0922  1.2602 -1.0731
  852MPD2    N112522   3.815   1.113  10.524  0.1917 -0.3833  0.5271
  852MPD2    H712523   3.844   1.176  10.598 -0.6023  0.3814  0.1784
  853MPD2     C12524   0.805   1.205  12.143  0.2047  0.8199  0.7608
  853MPD2    C112525   0.846   1.335  12.111 -0.7208 -0.6309 -0.3836
  853MPD2    C212526   0.928   1.356  11.993  0.6523 -0.5766 -0.0159
  853MPD2    C312527   0.974   1.246  11.921  0.2972  0.3031  0.2969
  853MPD2    C412528   0.934   1.117  11.962  0.0326 -0.1639  0.0042
  853MPD2    C512529   0.851   1.103  12.069  0.6493 -0.6399  0.6794
  853MPD2     H12530   0.954   1.458  11.965 -0.5762 -0.3640 -0.3968
  853MPD2    H112531   0.968   1.028  11.909 -2.1702 -0.6535 -0.5657
  853MPD2    H212532   0.771   1.186  12.244 -0.8627 -0.5754  0.1427
  853MPD2    H312533   0.823   1.003  12.100 -0.0284 -0.5210  0.4464
  853MPD2     N12534   1.052   1.246  11.804 -0.2125  0.3155 -0.4531
  853MPD2    H512535   1.067   1.154  11.764 -0.4153  0.2435 -0.3611
  853MPD2    N112536   0.823   1.430  12.205  0.1161 -0.3089  0.4172
  853MPD2    H712537   0.747   1.415  12.271 -1.3104 -0.2446 -1.2060
  854MPD2     C12538   2.573   1.088  12.807 -0.4109 -0.1120 -0.1028
  854MPD2    C112539   2.651   1.194  12.770  0.2598  0.1983  0.0251
  854MPD2    C212540   2.776   1.216  12.834 -0.4775 -0.4277 -0.9823
  854MPD2    C312541   2.818   1.129  12.936 -0.0052 -0.5662 -0.8643
  854MPD2    C412542   2.727   1.033  12.975 -0.0822 -0.3313  0.0916
  854MPD2    C512543   2.609   1.005  12.906  0.0088 -0.0192 -0.7952
  854MPD2     H12544   2.841   1.297  12.801 -1.3449  0.9741  0.7245
  854MPD2    H112545   2.757   0.978  13.063 -0.9183  0.5679  0.9303
  854MPD2    H212546   2.473   1.069  12.771 -0.2432  1.0175 -1.1583
  854MPD2    H312547   2.547   0.922  12.939  1.0856 -1.4243 -2.2996
  854MPD2     N12548   2.946   1.114  12.992  0.6004  0.2526  0.2834
  854MPD2    H512549   2.960   1.037  13.057 -0.2124  0.0151  0.1780
  854MPD2    N112550   2.588   1.287  12.687  0.1472 -0.3185  0.1298
  854MPD2    H712551   2.489   1.272  12.668 -0.2553  1.1944  1.0225
  855MPD2     C12552   3.700   1.128  13.680  0.0040  0.2009  0.6888
  855MPD2    C112553   3.583   1.059  13.672 -0.6159  0.1811 -0.6115
  855MPD2    C212554   3.507   1.075  13.556 -0.4696  0.2069  0.5468
  855MPD2    C312555   3.551   1.145  13.447  0.3409  0.2297 -0.2746
  855MPD2    C412556   3.671   1.209  13.452  0.5458 -0.3322  0.3856
  855MPD2    C512557   3.745   1.196  13.566  0.0031  0.0794  0.4976
  855MPD2     H12558   3.409   1.028  13.547 -0.0212 -0.8313  1.1498
  855MPD2    H112559   3.706   1.272  13.372  0.0331 -2.4728 -1.5198
  855MPD2    H212560   3.766   1.133  13.766  2.3951  1.5424 -1.2320
  855MPD2    H312561   3.836   1.253  13.580 -0.8669  1.4339  0.7012
  855MPD2     N12562   3.477   1.150  13.330 -0.7139  0.2310  0.3539
  855MPD2    H512563   3.517   1.193  13.247  1.6608 -2.0250  0.3084
  855MPD2    N112564   3.530   0.974  13.768 -0.0414  0.4017  0.4558
  855MPD2    H712565   3.429   0.963  13.762 -0.1142  0.3661  1.7216
  856MPD2     C12566   0.412   1.662  13.926 -0.4500 -0.0450  1.1059
  856MPD2    C112567   0.468   1.779  13.979  0.1342  0.1870 -0.4774
  856MPD2    C212568   0.376   1.868  14.038  0.6615  1.0458  0.0303
  856MPD2    C312569   0.242   1.832  14.063  0.2693 -0.0998  0.0657
  856MPD2    C412570   0.196   1.707  14.029 -0.0709  0.2254  0.0013
  856MPD2    C512571   0.279   1.624  13.957 -0.0736  0.3848 -0.1134
  856MPD2     H12572   0.406   1.967  14.072  1.6699  1.2316 -1.4035
  856MPD2    H112573   0.093   1.681  14.054  0.0709  0.2683  0.6283
  856MPD2    H212574   0.460   1.581  13.872  1.0313  1.3898  0.2677
  856MPD2    H312575   0.240   1.527  13.927  0.3520 -0.5383  2.3318
  856MPD2     N12576   0.144   1.929  14.104 -0.8711 -0.7704  0.0232
  856MPD2    H512577   0.052   1.891  14.123 -1.6690  1.7858  1.2133
  856MPD2    N112578   0.613   1.809  13.975  0.1273 -0.5297 -0.6223
  856MPD2    H712579   0.657   1.882  14.030 -0.6028 -0.2894 -0.3539
  857MPD2     C12580   1.626   4.447  13.123  0.4067  0.7375 -0.2226
  857MPD2    C112581   1.759   4.416  13.112 -0.4549  0.0958  0.1046
  857MPD2    C212582   1.852   4.503  13.169  0.1339  0.9317 -0.4553
  857MPD2    C312583   1.807   4.619  13.230 -0.1462  0.2975  0.4317
  857MPD2    C412584   1.673   4.644  13.248 -0.3161  0.0643 -0.1083
  857MPD2    C512585   1.585   4.552  13.193 -0.5125 -0.3490  0.9183
  857MPD2     H12586   1.955   4.475  13.183  0.3943  3.1108  1.9545
  857MPD2    H112587   1.635   4.728  13.305  1.0245 -0.0319  0.9343
  857MPD2    H212588   1.557   4.376  13.079 -1.5243  1.5918  1.4077
  857MPD2    H312589   1.479   4.559  13.215 -0.6851 -0.8396  0.2430
  857MPD2     N12590   1.913   4.708  13.276 -0.5519 -0.0053  0.3394
  857MPD2    H512591   2.009   4.696  13.243  0.1184  1.2618  1.8230
  857MPD2    N112592   1.791   4.300  13.044 -0.9042 -0.1398 -0.4187
  857MPD2    H712593   1.718   4.232  13.025 -1.7601  0.7516 -0.2984
  858MPD2     C12594   2.943   3.458  16.597 -0.4586  0.1432  0.6976
  858MPD2    C112595   2.966   3.356  16.687 -0.1812 -0.0070  0.4533
  858MPD2    C212596   2.954   3.381  16.822  0.1284 -0.0784 -0.2543
  858MPD2    C312597   2.911   3.508  16.870 -0.7290 -0.4830  0.2334
  858MPD2    C412598   2.866   3.595  16.776 -0.5737 -0.6701  0.5423
  858MPD2    C512599   2.889   3.577  16.642 -0.2443  0.3419  0.6383
  858MPD2     H12600   2.981   3.298  16.887  1.9006  0.5941 -0.1472
  858MPD2    H112601   2.818   3.684  16.816  1.0869  0.4536  0.0259
  858MPD2    H212602   2.959   3.453  16.490 -1.8464 -3.8175  0.6878
  858MPD2    H312603   2.863   3.651  16.567  0.4269  0.5381  0.6051
  858MPD2     N12604   2.900   3.549  17.002 -0.6430 -0.5071  0.3019
  858MPD2    H512605   2.857   3.640  17.013 -1.5476 -0.7482 -1.1814
  858MPD2    N112606   2.994   3.235  16.627 -0.2220  0.0351  0.1307
  858MPD2    H712607   3.003   3.225  16.527  0.6051  0.8859  0.1181
  859MPD2     C12608   1.696   0.392  15.463  0.0343 -0.6691 -0.0468
  859MPD2    C112609   1.585   0.453  15.409 -0.2818  0.2697 -0.0702
  859MPD2    C212610   1.465   0.379  15.393  0.2550 -0.3977 -0.3260
  859MPD2    C312611   1.466   0.245  15.436  0.2888 -0.4226 -0.3429
  859MPD2    C412612   1.575   0.191  15.500 -0.0384  0.0844  0.2336
  859MPD2    C512613   1.683   0.267  15.513 -0.5387  0.3886  0.7227
  859MPD2     H12614   1.385   0.418  15.331  0.0528  2.4349  1.7260
  859MPD2    H112615   1.572   0.091  15.541 -3.0166 -0.0342 -0.2461
  859MPD2    H212616   1.791   0.443  15.473  0.4973 -1.3239 -1.2117
  859MPD2    H312617   1.765   0.221  15.569 -0.7765  0.2065  0.9221
  859MPD2     N12618   1.355   0.162  15.417  0.4477  0.6310 -0.2306
  859MPD2    H512619   1.376   0.063  15.426  1.4432  0.7028 -1.6939
  859MPD2    N112620   1.612   0.583  15.356  0.7916 -0.1104 -0.5780
  859MPD2    H712621   1.707   0.613  15.337  1.3437 -0.3923  1.8621
  860MPD2     C12622   4.179   1.470  11.762  0.6716 -0.7504  0.2236
  860MPD2    C112623   4.172   1.389  11.872  0.4254 -0.0823 -0.5658
  860MPD2    C212624   4.051   1.322  11.903 -0.3167 -0.3184 -0.1405
  860MPD2    C312625   3.932   1.343  11.831  0.6893  0.1538  0.3335
  860MPD2    C412626   3.944   1.429  11.721 -0.7205 -0.3302 -0.3285
  860MPD2    C512627   4.071   1.485  11.688 -0.0877 -0.7229 -0.6468
  860MPD2     H12628   4.060   1.249  11.982 -2.7660  0.1444  0.5680
  860MPD2    H112629   3.859   1.447  11.656  0.3868 -2.5288 -2.3461
  860MPD2    H212630   4.269   1.519  11.726  1.4426 -0.1820  2.9438
  860MPD2    H312631   4.075   1.546  11.599  1.8917 -0.9413 -0.7041
  860MPD2     N12632   3.816   1.285  11.877  0.6308  0.0388  0.8252
  860MPD2    H512633   3.827   1.247  11.971  1.3644  0.3845  0.8821
  860MPD2    N112634   4.287   1.360  11.956 -0.9956  0.1551  0.5521
  860MPD2    H712635   4.269   1.309  12.041 -0.0584 -0.6772  0.2562
  861MPD2     C12636   2.865   0.139  11.264 -0.0483 -0.8590 -1.5243
  861MPD2    C112637   2.745   0.107  11.324  0.6366  0.2765  0.6956
  861MPD2    C212638   2.624   0.119  11.255  0.4509 -0.7283 -0.0678
  861MPD2    C312639   2.620   0.156  11.115  0.1531  0.2030 -0.2946
  861MPD2    C412640   2.742   0.189  11.059  0.9737 -0.2731 -0.3607
  861MPD2    C512641   2.862   0.187  11.131 -0.2000 -0.7201  0.1889
  861MPD2     H12642   2.532   0.091  11.304  0.4962 -1.7299 -0.5606
  861MPD2    H112643   2.754   0.197  10.951 -0.5532  3.3846 -0.2514
  861MPD2    H212644   2.961   0.138  11.314 -0.3439 -1.0534 -0.9694
  861MPD2    H312645   2.955   0.219  11.086  0.8115 -2.0378  1.3426
  861MPD2     N12646   2.503   0.154  11.036  0.1173 -0.6786  0.4389
  861MPD2    H512647   2.519   0.191  10.943 -2.1855  0.0572  0.3325
  861MPD2    N112648   2.740   0.060  11.457  0.3795  0.0424 -0.2667
  861MPD2    H712649   2.651   0.054  11.505  1.1014  1.7633  1.2972
  862MPD2     C12650   2.223   0.051  10.356  0.3872 -0.5467 -0.6190
  862MPD2    C112651   2.272   0.014  10.480  0.5236 -0.7529 -0.0034
  862MPD2    C212652   2.316   4.617  10.491  0.5719 -0.3468  0.1188
  862MPD2    C312653   2.300   4.520  10.392 -0.5152  0.0664  0.1920
  862MPD2    C412654   2.245   4.561  10.270  0.4901 -0.5981  0.2600
  862MPD2    C512655   2.213   4.690  10.254 -1.0029 -0.0922  0.8374
  862MPD2     H12656   2.355   4.589  10.588  2.8225 -1.8048 -1.2012
  862MPD2    H112657   2.226   4.495  10.186  0.1557  0.5118 -0.5424
  862MPD2    H212658   2.184   0.148  10.328 -0.0450 -0.4277  0.4222
  862MPD2    H312659   2.182   0.001  10.158  0.8456  2.5333  1.3266
  862MPD2     N12660   2.328   4.379  10.408 -0.3044 -0.1098  0.0074
  862MPD2    H512661   2.302   4.314  10.334 -3.3744  0.6449  0.4070
  862MPD2    N112662   2.281   0.090  10.592 -0.1495  0.1179 -0.1607
  862MPD2    H712663   2.306   0.037  10.675 -0.0421  1.2756  0.5493
  863MPD2     C12664   0.672   2.538  17.124  0.5891  0.3053  0.0325
  863MPD2    C112665   0.767   2.540  17.022  0.2545  0.3025  0.0157
  863MPD2    C212666   0.855   2.436  17.019 -1.1852 -0.3892 -0.4703
  863MPD2    C312667   0.871   2.339  17.118  0.3629 -0.3236  0.1355
  863MPD2    C412668   0.778   2.347  17.219  0.1155 -0.4258 -0.5200
  863MPD2    C512669   0.677   2.443  17.219  0.7961  1.0888  0.2710
  863MPD2     H12670   0.927   2.451  16.939  1.2863  1.8386  2.1563
  863MPD2    H112671   0.781   2.277  17.302 -0.3944  0.0187 -0.1305
  863MPD2    H212672   0.588   2.606  17.114 -1.0903 -1.8023 -0.2125
  863MPD2    H312673   0.604   2.457  17.298 -1.3744 -1.6716 -1.2468
  863MPD2     N12674   0.976   2.246  17.129 -0.5952 -0.0296 -0.2636
  863MPD2    H512675   0.966   2.174  17.200 -1.1518 -0.7270 -1.0612
  863MPD2    N112676   0.767   2.648  16.926 -0.0356  0.2791 -0.2183
  863MPD2    H712677   0.685   2.707  16.930  0.1574  0.5691 -0.5093
  864MPD2     C12678   1.537   3.284  17.561 -0.1719 -0.1755 -0.2697
  864MPD2    C112679   1.577   3.231  17.442  0.6353  0.7803 -0.0460
  864MPD2    C212680   1.645   3.313  17.356 -0.1032  0.5143  0.4896
  864MPD2    C312681   1.673   3.446  17.380  0.1936 -0.0313 -0.3758
  864MPD2    C412682   1.632   3.494  17.497 -0.0142  0.2825  0.2308
  864MPD2    C512683   1.568   3.414  17.585 -0.1503  0.8982  0.6359
  864MPD2     H12684   1.670   3.279  17.256  1.6811  0.1247  1.0696
  864MPD2    H112685   1.627   3.596  17.533  0.8990  0.3928  0.0349
  864MPD2    H212686   1.480   3.223  17.630  1.5772 -1.8119 -0.2813
  864MPD2    H312687   1.537   3.456  17.680 -3.4604 -1.2788  0.4976
  864MPD2     N12688   1.720   3.536  17.275  0.4775 -0.4509  0.0571
  864MPD2    H512689   1.713   3.636  17.292 -0.2538 -0.2952 -1.1463
  864MPD2    N112690   1.550   3.096  17.409  0.5088 -0.0873  0.2454
  864MPD2    H712691   1.499   3.052  17.485  2.0140 -0.4610  1.0394
  865MPD2     C12692   1.652   3.821  16.463 -0.3535 -0.7154 -0.2092
  865MPD2    C112693   1.695   3.745  16.571 -0.0811 -0.5726 -0.3346
  865MPD2    C212694   1.702   3.799  16.695 -0.5402  0.2853 -0.3631
  865MPD2    C312695   1.667   3.929  16.727  0.7548  0.3511  0.2982
  865MPD2    C412696   1.620   4.006  16.621  0.6734  0.0696  0.2440
  865MPD2    C512697   1.614   3.951  16.493 -0.0670 -0.2517 -0.4733
  865MPD2     H12698   1.737   3.734  16.774 -1.7595  1.4444  1.1320
  865MPD2    H112699   1.597   4.110  16.638 -3.6240 -0.9664  0.6937
  865MPD2    H212700   1.647   3.780  16.363  1.1340 -1.1339 -0.1100
  865MPD2    H312701   1.580   4.011  16.410  0.0199 -0.8422 -0.9388
  865MPD2     N12702   1.685   3.995  16.855 -0.6358  0.0460  0.4220
  865MPD2    H512703   1.670   4.095  16.860 -1.2331  0.0702 -2.2320
  865MPD2    N112704   1.755   3.621  16.539 -0.3918  0.4925 -0.5544
  865MPD2    H712705   1.781   3.607  16.442 -0.4320 -1.4506 -0.2738
  866MPD2     C12706   2.961   0.366  11.864 -0.0756  0.4609  0.5013
  866MPD2    C112707   2.971   0.370  11.722  0.3361  0.5587  0.5283
  866MPD2    C212708   2.865   0.406  11.639  0.9521  0.7195 -0.6670
  866MPD2    C312709   2.747   0.443  11.696 -0.0237 -0.6134  0.4055
  866MPD2    C412710   2.729   0.446  11.832 -0.5936  0.5140  0.2640
  866MPD2    C512711   2.839   0.408  11.910 -0.7184 -0.6284 -0.2794
  866MPD2     H12712   2.877   0.392  11.532  0.3914 -0.9906 -0.5017
  866MPD2    H112713   2.642   0.480  11.887  1.1604  1.1809  2.6046
  866MPD2    H212714   3.041   0.348  11.934  1.1449  1.8633 -0.5464
  866MPD2    H312715   2.821   0.414  12.017  1.2046  0.5240 -0.0225
  866MPD2     N12716   2.622   0.470  11.619 -0.5635  0.4773 -0.2471
  866MPD2    H512717   2.535   0.483  11.671 -0.5633 -0.1595 -0.0941
  866MPD2    N112718   3.092   0.324  11.662  0.0206 -0.2855  0.2142
  866MPD2    H712719   3.157   0.274  11.722 -1.0606  1.0895  2.5196
  867MPD2     C12720   0.736   3.653  16.344 -0.0537  0.4962  0.5098
  867MPD2    C112721   0.775   3.636  16.476 -0.1698 -0.0248  0.5049
  867MPD2    C212722   0.713   3.716  16.579  0.5422  0.0739 -0.4735
  867MPD2    C312723   0.628   3.815  16.543 -0.5500 -0.3510 -0.4307
  867MPD2    C412724   0.613   3.841  16.409  0.2974  0.4727  0.4604
  867MPD2    C512725   0.653   3.758  16.312 -0.0081  0.3176  0.3672
  867MPD2     H12726   0.741   3.707  16.683  1.0453 -2.9560 -0.8858
  867MPD2    H112727   0.554   3.929  16.384 -1.0889 -0.9545 -1.3026
  867MPD2    H212728   0.773   3.590  16.264 -0.9085  0.0162  0.4911
  867MPD2    H312729   0.623   3.787  16.211 -0.7725  0.3621  0.6059
  867MPD2     N12730   0.562   3.896  16.633  0.4273 -0.5510 -0.2380
  867MPD2    H512731   0.501   3.966  16.592 -1.7816 -0.9375  2.3593
  867MPD2    N112732   0.868   3.533  16.493 -0.2577 -0.2035 -0.0808
  867MPD2    H712733   0.889   3.474  16.414  1.4547  0.0677  0.1527
  868MPD2     C12734   2.232   3.032  12.962  0.1555  0.3692 -0.1083
  868MPD2    C112735   2.244   2.894  12.956  0.0479  0.2263  0.1854
  868MPD2    C212736   2.194   2.822  13.061  0.2189 -0.1491  0.7217
  868MPD2    C312737   2.128   2.873  13.170  0.0470 -0.2217  0.4686
  868MPD2    C412738   2.116   3.011  13.176 -0.1529  0.7518 -0.0793
  868MPD2    C512739   2.170   3.084  13.073 -0.0586 -0.1419  0.0133
  868MPD2     H12740   2.193   2.713  13.062  2.7231 -0.1722 -0.7659
  868MPD2    H112741   2.070   3.058  13.263 -0.8044  0.6287 -0.3548
  868MPD2    H212742   2.266   3.099  12.884  1.2395 -0.6735 -0.5546
  868MPD2    H312743   2.145   3.189  13.072  0.2885 -0.0753 -1.2214
  868MPD2     N12744   2.079   2.787  13.269  0.0117 -0.6682  0.3912
  868MPD2    H512745   2.120   2.694  13.267 -0.4118 -0.8240 -1.3377
  868MPD2    N112746   2.303   2.838  12.840 -0.4171  0.1673 -0.2254
  868MPD2    H712747   2.311   2.892  12.754 -1.5385 -1.5659 -1.4236
  869MPD2     C12748   2.857   2.053   0.842  0.0489 -0.4629  0.1919
  869MPD2    C112749   2.739   2.003   0.893  0.2353 -0.2985  0.0721
  869MPD2    C212750   2.681   1.888   0.844 -0.7736 -0.0086  0.3893
  869MPD2    C312751   2.738   1.820   0.741 -0.1089  0.9331 -0.3025
  869MPD2    C412752   2.854   1.869   0.688 -0.1252  0.3540  0.8407
  869MPD2    C512753   2.908   1.982   0.739  0.3567  0.0543  0.0436
  869MPD2     H12754   2.582   1.867   0.883 -0.6042 -1.2769  0.1191
  869MPD2    H112755   2.917   1.824   0.612  1.1282  1.1811  1.3984
  869MPD2    H212756   2.909   2.141   0.877 -0.7318  0.1453 -0.1846
  869MPD2    H312757   2.999   2.021   0.696  0.3063  0.6535  0.4815
  869MPD2     N12758   2.670   1.703   0.699 -0.2730 -0.0999 -0.4390
  869MPD2    H512759   2.582   1.683   0.745 -0.0312  0.0401  0.0842
  869MPD2    N112760   2.667   2.065   1.000 -0.7847 -0.3089  0.0987
  869MPD2    H712761   2.585   2.016   1.033  1.4765 -2.4433  2.5646
  870MPD2     C12762   2.313   0.156   1.728  0.6044 -0.1748  0.4526
  870MPD2    C112763   2.358   0.074   1.627 -0.4989  0.0977 -0.4546
  870MPD2    C212764   2.392   0.132   1.507  0.2470 -0.5482 -0.0798
  870MPD2    C312765   2.386   0.271   1.492 -0.4605 -0.0018 -0.5712
  870MPD2    C412766   2.338   0.351   1.593 -0.1314  0.8772 -0.6160
  870MPD2    C512767   2.303   0.284   1.709  0.1477 -0.3936  0.2825
  870MPD2     H12768   2.441   0.067   1.435 -1.3923 -0.7378 -1.0244
  870MPD2    H112769   2.310   0.455   1.584  1.7025  1.2853 -1.7222
  870MPD2    H212770   2.280   0.115   1.822  0.4533 -0.3319  0.3321
  870MPD2    H312771   2.264   0.336   1.796  0.1187  1.2081 -0.7007
  870MPD2     N12772   2.431   0.326   1.370 -0.0454  0.1975  0.2222
  870MPD2    H512773   2.431   0.274   1.283 -3.1443  1.0152 -0.2624
  870MPD2    N112774   2.362   4.664   1.647 -0.4855 -0.6610 -0.0324
  870MPD2    H712775   2.346   4.633   1.743  1.1004 -2.1137 -0.2371
  871MPD2     C12776   4.134   4.265  16.470 -0.8695 -1.0191 -0.4148
  871MPD2    C112777   4.095   4.149  16.537 -1.1683 -0.0209  0.0659
  871MPD2    C212778   4.105   4.026  16.484 -0.0653 -0.3157 -0.8570
  871MPD2    C312779   4.153   4.012  16.354  0.3607 -0.5711  0.0610
  871MPD2    C412780   4.201   4.128  16.288 -0.2451 -0.2982  0.6690
  871MPD2    C512781   4.200   4.253  16.349 -0.2336  0.6334 -0.6001
  871MPD2     H12782   4.079   3.943  16.549  3.0786 -1.2231 -0.7814
  871MPD2    H112783   4.240   4.120  16.187  0.7810 -1.5290  1.1602
  871MPD2    H212784   4.132   4.358  16.526 -3.6992  0.3507 -2.8078
  871MPD2    H312785   4.225   4.340  16.289 -2.1217  1.4578 -0.2243
  871MPD2     N12786   4.163   3.881  16.310  0.0011  0.3437 -0.3571
  871MPD2    H512787   4.110   3.807  16.354  2.6466 -1.0901  0.4183
  871MPD2    N112788   4.049   4.171  16.667  0.0138 -0.1504 -0.0089
  871MPD2    H712789   4.077   4.261  16.703  0.5217 -1.4130  2.7402
  872MPD2     C12790   4.227   1.851  13.541  0.4133  0.1782 -0.2343
  872MPD2    C112791   4.323   1.838  13.631 -0.8166  0.0981  0.2940
  872MPD2    C212792   4.293   1.782  13.753 -0.0816  1.2725  0.3473
  872MPD2    C312793   4.170   1.754  13.794  0.1914 -0.1386 -0.1462
  872MPD2    C412794   4.075   1.761  13.699  0.3987 -0.3589  0.0061
  872MPD2    C512795   4.101   1.821  13.578  0.3382 -0.2014  0.0564
  872MPD2     H12796   4.378   1.764  13.817  0.9253 -0.6694 -1.5444
  872MPD2    H112797   3.978   1.713  13.706 -0.2860  1.0848  0.3275
  872MPD2    H212798   4.248   1.885  13.440 -0.6906  1.5765 -0.0017
  872MPD2    H312799   4.025   1.835  13.503 -0.0093 -0.7198  0.3062
  872MPD2     N12800   4.134   1.700  13.922 -0.3580  0.0061 -0.2854
  872MPD2    H512801   4.035   1.679  13.934 -0.0702 -0.4420  1.3280
  872MPD2    N112802   4.461   1.857  13.614  0.8673  0.3390  0.7099
  872MPD2    H712803   4.523   1.846  13.694  1.3183  0.6318  0.3953
  873MPD2     C12804   1.244   0.776   0.994 -0.6455  0.0634  0.1107
  873MPD2    C112805   1.118   0.810   0.972  0.6357 -0.4690 -0.9455
  873MPD2    C212806   1.024   0.714   0.915 -0.1929 -0.4411 -0.0822
  873MPD2    C312807   1.068   0.589   0.892 -0.4038  0.0754  0.2095
  873MPD2    C412808   1.201   0.563   0.914  0.1515 -0.0189 -0.3119
  873MPD2    C512809   1.293   0.658   0.954  0.1889  0.4631 -0.2250
  873MPD2     H12810   0.919   0.738   0.914  0.2199  1.4464  0.8302
  873MPD2    H112811   1.243   0.463   0.914 -0.2936 -0.2077 -0.1500
  873MPD2    H212812   1.306   0.831   1.064  1.8959 -0.5875 -1.6378
  873MPD2    H312813   1.393   0.635   0.990 -0.6957 -4.5738 -0.9847
  873MPD2     N12814   0.978   0.486   0.859 -0.6336  0.5215  0.4195
  873MPD2    H512815   1.010   0.390   0.869 -2.4825 -0.0435  0.8099
  873MPD2    N112816   1.082   0.937   1.030 -0.4118 -0.4376  0.5367
  873MPD2    H712817   1.159   0.985   1.076  0.8160 -3.0957  1.2818
  874MPD2     C12818   1.488   1.482  16.008 -0.1159  0.5740 -0.4122
  874MPD2    C112819   1.516   1.384  16.092  0.6798  0.2524 -0.2903
  874MPD2    C212820   1.649   1.363  16.117 -0.2179 -0.2725 -0.1931
  874MPD2    C312821   1.749   1.436  16.062  0.1997 -0.5319 -0.2314
  874MPD2    C412822   1.722   1.521  15.956  0.6001 -0.1874  0.2419
  874MPD2    C512823   1.587   1.544  15.935  0.3789 -0.4292 -0.1031
  874MPD2     H12824   1.686   1.288  16.186 -0.7765 -0.4813 -0.1197
  874MPD2    H112825   1.786   1.558  15.878 -0.8232 -0.8756 -1.2540
  874MPD2    H212826   1.386   1.503  15.977 -0.9144 -2.2596  0.2674
  874MPD2    H312827   1.564   1.621  15.862  0.0758  0.1097  0.5617
  874MPD2     N12828   1.874   1.392  16.106  0.7306  0.7343 -0.4952
  874MPD2    H512829   1.880   1.327  16.183  0.0564 -1.6745 -2.5028
  874MPD2    N112830   1.413   1.309  16.155  0.0827 -0.1377  0.0809
  874MPD2    H712831   1.318   1.320  16.120 -0.8623  0.0785  2.7230
  875MPD2     C12832   2.833   4.249  14.591 -0.7065 -0.2015 -0.7058
  875MPD2    C112833   2.741   4.348  14.566 -0.0390  0.6234  0.1816
  875MPD2    C212834   2.712   4.438  14.668 -0.0764 -0.5075  0.5042
  875MPD2    C312835   2.768   4.426  14.790 -0.2219  0.8429  0.4265
  875MPD2    C412836   2.848   4.319  14.818 -0.5603  0.0156  0.2571
  875MPD2    C512837   2.883   4.236  14.720 -0.7959 -0.0082  0.1031
  875MPD2     H12838   2.650   4.522  14.640  0.2097 -0.9054 -1.3235
  875MPD2    H112839   2.910   4.325  14.907  0.1935 -0.1435 -0.2584
  875MPD2    H212840   2.866   4.183  14.511 -0.8467  1.5986 -2.2276
  875MPD2    H312841   2.954   4.157  14.739 -1.0329 -0.1112  0.5503
  875MPD2     N12842   2.748   4.509  14.905  0.1948  0.0728  0.4235
  875MPD2    H512843   2.802   4.493  14.990  1.0764 -1.5929 -0.4470
  875MPD2    N112844   2.687   4.374  14.440  0.5027  0.2575  0.0846
  875MPD2    H712845   2.652   4.468  14.425 -1.3376 -0.3792  0.4359
  876MPD2     C12846   1.202   1.045  15.955  0.2487  0.5722  0.0564
  876MPD2    C112847   1.336   1.018  15.943 -0.1781  0.1414  0.1195
  876MPD2    C212848   1.374   0.900  16.008 -0.1202 -0.4249 -0.4551
  876MPD2    C312849   1.284   0.830  16.086  0.4810 -0.4898  0.4013
  876MPD2    C412850   1.157   0.865  16.112  0.8727 -0.1420  0.0441
  876MPD2    C512851   1.119   0.972  16.041  0.5840  0.7385  0.2475
  876MPD2     H12852   1.473   0.856  16.005  0.4051  0.5960  2.1886
  876MPD2    H112853   1.095   0.814  16.184  1.0065 -1.4880 -0.8005
  876MPD2    H212854   1.159   1.138  15.919 -0.6124  0.3473  0.4872
  876MPD2    H312855   1.020   1.010  16.063  0.7146  0.0565  1.9805
  876MPD2     N12856   1.338   0.707  16.144  0.0243  0.5791  0.2977
  876MPD2    H512857   1.409   0.660  16.088  0.2787  1.8266 -0.4286
  876MPD2    N112858   1.436   1.095  15.874 -0.5265 -0.1174  0.0933
  876MPD2    H712859   1.407   1.179  15.825  3.0916  0.7115 -0.6630
  877MPD2     C12860   1.483   1.479  15.262  0.6522 -0.4216 -0.6051
  877MPD2    C112861   1.616   1.446  15.290 -0.0927  0.0387 -0.5779
  877MPD2    C212862   1.699   1.445  15.174 -0.4405 -0.0488  0.3328
  877MPD2    C312863   1.655   1.465  15.046 -0.4973 -0.6348 -0.7310
  877MPD2    C412864   1.525   1.505  15.032 -0.3725  0.6900 -0.1858
  877MPD2    C512865   1.440   1.514  15.136  0.0378 -0.6356  0.3881
  877MPD2     H12866   1.798   1.404  15.187  1.2471  3.4852 -1.4841
  877MPD2    H112867   1.492   1.532  14.933 -2.4243 -0.5693  0.1604
  877MPD2    H212868   1.407   1.473  15.339  1.2459 -1.1472 -0.0714
  877MPD2    H312869   1.335   1.537  15.120  0.1850 -0.8105 -0.8316
  877MPD2     N12870   1.747   1.455  14.935  0.2557 -0.1604  0.5055
  877MPD2    H512871   1.733   1.505  14.848  0.8880  0.8213  0.9589
  877MPD2    N112872   1.668   1.411  15.417  0.5961 -0.0771  0.2243
  877MPD2    H712873   1.763   1.382  15.432  1.4972  0.3509 -4.6702
  878MPD2     C12874   0.955   0.974  13.133  0.4872  0.6709  0.3931
  878MPD2    C112875   1.034   1.082  13.171 -0.5959 -0.3924  0.1673
  878MPD2    C212876   1.073   1.092  13.306  0.4105  0.2135 -0.0372
  878MPD2    C312877   1.042   0.995  13.395  0.4983 -0.6965 -0.1841
  878MPD2    C412878   0.965   0.891  13.357  0.1137  0.4371 -0.0446
  878MPD2    C512879   0.916   0.885  13.228  0.3526  0.0918  0.4694
  878MPD2     H12880   1.128   1.181  13.336  2.1995 -1.3119  1.1403
  878MPD2    H112881   0.923   0.819  13.426 -0.4046  1.0882  0.3118
  878MPD2    H212882   0.917   0.960  13.032  2.2257 -0.2818 -0.1372
  878MPD2    H312883   0.854   0.801  13.198  2.3290 -1.4146  0.6160
  878MPD2     N12884   1.090   1.005  13.524  0.1876  0.0400 -0.1202
  878MPD2    H512885   1.149   1.086  13.538  0.8638 -0.7160  1.2762
  878MPD2    N112886   1.059   1.173  13.071  0.0169  0.3747  0.1468
  878MPD2    H712887   1.039   1.146  12.975 -0.0383  1.8704 -0.2740
  879MPD2     C12888   2.004   2.057  17.349  0.5850  0.0864 -0.0361
  879MPD2    C112889   1.930   1.953  17.395  0.9578 -0.1312  0.9609
  879MPD2    C212890   1.852   1.876  17.313  0.3946 -0.1419 -0.1289
  879MPD2    C312891   1.845   1.910  17.173 -0.4384  0.1807 -0.1952
  879MPD2    C412892   1.912   2.022  17.133 -0.3163  0.0239 -0.1099
  879MPD2    C512893   1.995   2.088  17.215  0.5713 -0.7890 -0.9940
  879MPD2     H12894   1.802   1.788  17.351 -2.1165  2.6304  3.0106
  879MPD2    H112895   1.914   2.057  17.030  0.5524 -2.6986 -1.0069
  879MPD2    H212896   2.070   2.111  17.416 -2.2017  1.8018  1.3755
  879MPD2    H312897   2.062   2.163  17.173 -0.2594  0.3252 -0.3492
  879MPD2     N12898   1.754   1.847  17.083 -0.2610  0.0947 -0.5788
  879MPD2    H512899   1.751   1.897  16.994  1.6585 -0.2616 -0.8499
  879MPD2    N112900   1.947   1.920  17.529 -0.7580 -0.5223  0.7031
  879MPD2    H712901   2.007   1.982  17.582 -0.2092  0.0239 -0.5652
  880MPD2     C12902   2.553   4.375   1.087 -0.5449 -0.6251  0.1445
  880MPD2    C112903   2.665   4.301   1.043  0.0421  0.1911  0.0997
  880MPD2    C212904   2.688   4.187   1.109  0.9672 -0.2225  0.0613
  880MPD2    C312905   2.614   4.151   1.217 -0.6074  0.6454 -0.4144
  880MPD2    C412906   2.510   4.229   1.265 -0.0142  0.7840  0.4717
  880MPD2    C512907   2.484   4.345   1.204 -0.1347  0.0128 -0.6920
  880MPD2     H12908   2.773   4.125   1.083  2.0462  0.2143  2.5628
  880MPD2    H112909   2.454   4.201   1.353  0.2601 -0.7776  0.1485
  880MPD2    H212910   2.535   4.469   1.036  1.1446 -0.1153  0.4868
  880MPD2    H312911   2.418   4.416   1.253  0.7215  0.5646 -0.3317
  880MPD2     N12912   2.661   4.031   1.278  0.1978  0.6847 -0.3374
  880MPD2    H512913   2.756   4.003   1.257  0.2038 -0.7284  1.5686
  880MPD2    N112914   2.736   4.353   0.934 -0.0107 -0.2633  0.0462
  880MPD2    H712915   2.710   4.443   0.895  0.0945 -0.6406 -0.9110
  881MPD2     C12916   2.935   4.041   0.012 -0.5296  0.5733 -0.7342
  881MPD2    C112917   3.052   4.106   0.039 -0.5600  0.2406 -0.1445
  881MPD2    C212918   3.051   4.185   0.158  0.7422 -0.2130 -0.3981
  881MPD2    C312919   2.955   4.167   0.253 -0.0619 -1.1555  0.0005
  881MPD2    C412920   2.845   4.089   0.230 -0.6471 -0.5702  0.1685
  881MPD2    C512921   2.841   4.018   0.112  0.4426  0.0541  0.3252
  881MPD2     H12922   3.132   4.253   0.182  2.1242 -2.6500  1.9121
  881MPD2    H112923   2.770   4.063   0.304 -0.9230  1.6021  0.6590
  881MPD2    H212924   2.932   3.970  17.646 -0.7612 -1.8348  1.3408
  881MPD2    H312925   2.751   3.963   0.089  0.6073  0.8193 -2.1422
  881MPD2     N12926   2.952   4.223   0.383  0.1675 -0.1660 -0.0897
  881MPD2    H512927   2.866   4.217   0.438 -0.6726  0.2224 -1.3724
  881MPD2    N112928   3.129   4.133  17.643  0.4155  0.0941  0.3170
  881MPD2    H712929   3.115   4.087  17.553  0.5255 -0.1118  0.4046
  882MPD2     C12930   1.782   1.476  14.173  0.1677 -0.0863 -0.0283
  882MPD2    C112931   1.780   1.536  14.300 -0.3256 -0.2748  0.2366
  882MPD2    C212932   1.670   1.613  14.332 -0.4333  0.2509  0.6980
  882MPD2    C312933   1.564   1.631  14.241 -0.6772 -0.2531  0.0599
  882MPD2    C412934   1.574   1.575  14.119 -0.1963 -0.6432 -0.6788
  882MPD2    C512935   1.679   1.500  14.085 -0.1127 -1.1756  0.1411
  882MPD2     H12936   1.654   1.652  14.431 -0.8503 -1.7549  1.4158
  882MPD2    H112937   1.493   1.600  14.051 -2.0767  0.6599  2.0093
  882MPD2    H212938   1.869   1.422  14.137 -0.0100 -1.1400  1.1269
  882MPD2    H312939   1.687   1.460  13.984  2.5863  2.5674 -1.1440
  882MPD2     N12940   1.441   1.684  14.275 -0.3806  0.2965  0.1144
  882MPD2    H512941   1.368   1.643  14.218  0.6801  0.2007 -1.1707
  882MPD2    N112942   1.880   1.500  14.392  0.2297 -0.1262 -0.3292
  882MPD2    H712943   1.935   1.422  14.358 -0.6364 -1.1208  0.5668
  883MPD2     C12944   3.613   1.808  16.698 -0.4837  0.3150  0.4661
  883MPD2    C112945   3.675   1.777  16.574 -0.3868 -0.3494  0.6718
  883MPD2    C212946   3.815   1.764  16.577  0.1706 -0.1325 -0.0065
  883MPD2    C312947   3.883   1.742  16.695  1.5236  0.0291 -0.9491
  883MPD2    C412948   3.818   1.747  16.810  0.2335  0.2291  0.5792
  883MPD2    C512949   3.689   1.791  16.813  0.7709 -0.0852  0.1469
  883MPD2     H12950   3.866   1.745  16.483  0.7288 -0.1158  0.2922
  883MPD2    H112951   3.869   1.740  16.905  0.3726 -1.3482  0.3858
  883MPD2    H212952   3.506   1.825  16.708 -0.9954 -1.6213 -1.5871
  883MPD2    H312953   3.654   1.808  16.914 -1.5436  0.0452 -0.6752
  883MPD2     N12954   4.025   1.733  16.683  0.5559 -0.1092 -0.1455
  883MPD2    H512955   4.068   1.751  16.593 -1.5560 -2.6635 -1.6553
  883MPD2    N112956   3.601   1.753  16.454 -0.7366 -0.5951  0.1567
  883MPD2    H712957   3.659   1.741  16.372  1.6687  0.3827  1.6854
  884MPD2     C12958   0.946   2.386  15.325  0.3980 -0.2256 -0.4536
  884MPD2    C112959   0.949   2.436  15.195  0.3930  0.1885  0.3376
  884MPD2    C212960   0.827   2.506  15.151  0.0959 -0.2850  0.2224
  884MPD2    C312961   0.711   2.507  15.233  0.3875  0.5299 -0.2952
  884MPD2    C412962   0.719   2.456  15.363 -0.1490  0.4947 -0.1133
  884MPD2    C512963   0.837   2.408  15.404 -0.0052 -0.1613 -0.3024
  884MPD2     H12964   0.823   2.562  15.058 -0.6270  1.2986  1.2002
  884MPD2    H112965   0.633   2.461  15.428 -1.5168 -0.6453 -1.8534
  884MPD2    H212966   1.025   2.325  15.368  0.7178  0.7747  0.3780
  884MPD2    H312967   0.844   2.375  15.507 -2.8132 -2.8730 -0.9743
  884MPD2     N12968   0.591   2.573  15.188  0.2052  0.1374 -0.4035
  884MPD2    H512969   0.600   2.612  15.095  0.5453  1.2846  0.1130
  884MPD2    N112970   1.055   2.421  15.103  0.7339  0.0690 -0.8579
  884MPD2    H712971   1.049   2.450  15.006  1.3745 -2.2262 -1.5860
  885MPD2     C12972   3.396   2.341   0.008 -0.1863 -0.3885  0.6921
  885MPD2    C112973   3.535   2.358   0.020 -0.2527  1.0220 -0.4044
  885MPD2    C212974   3.611   2.405  17.624 -0.7089 -0.8276  0.4164
  885MPD2    C312975   3.542   2.439  17.511 -0.6279 -0.1431 -0.1398
  885MPD2    C412976   3.408   2.417  17.500 -0.0534 -0.4947  0.0994
  885MPD2    C512977   3.334   2.375  17.608  0.3513 -0.7632  0.2326
  885MPD2     H12978   3.719   2.420  17.621 -1.2954  2.9740 -2.0341
  885MPD2    H112979   3.348   2.451  17.416 -2.4376 -1.5463  1.3887
  885MPD2    H212980   3.331   2.319   0.091 -0.9974  0.0962  0.1825
  885MPD2    H312981   3.226   2.365  17.603  0.4329 -0.8301 -1.4005
  885MPD2     N12982   3.616   2.493  17.404 -0.5120  0.5554 -0.7062
  885MPD2    H512983   3.712   2.520  17.426 -0.7757  0.6894  0.2659
  885MPD2    N112984   3.592   2.329   0.146 -0.1523 -0.1175 -0.1831
  885MPD2    H712985   3.528   2.315   0.223  1.3971  0.8334  1.2616
  886MPD2     C12986   0.252   1.449  15.936  0.5480  0.3763  0.6613
  886MPD2    C112987   0.364   1.383  15.909  0.2953 -0.7112 -0.6951
  886MPD2    C212988   0.414   1.373  15.778 -0.4855 -0.7288  0.2571
  886MPD2    C312989   0.334   1.414  15.670  0.6835 -0.5281  0.2363
  886MPD2    C412990   0.212   1.475  15.697 -0.3775 -0.3073 -0.7103
  886MPD2    C512991   0.178   1.494  15.831  0.2729 -0.6540  0.3229
  886MPD2     H12992   0.513   1.330  15.767  0.1453  0.8529 -0.3085
  886MPD2    H112993   0.144   1.518  15.624 -0.5543 -0.7339 -0.7953
  886MPD2    H212994   0.210   1.452  16.036  1.2836 -0.0589  0.9768
  886MPD2    H312995   0.081   1.536  15.857 -0.6487 -1.3969 -1.8405
  886MPD2     N12996   0.385   1.406  15.534  0.2057  0.2649  1.1348
  886MPD2    H512997   0.329   1.453  15.464 -2.1056  0.2585  2.9659
  886MPD2    N112998   0.452   1.334  16.008 -0.2983  0.9713  0.6693
  886MPD2    H712999   0.546   1.302  15.986 -0.1299  0.1892  2.5694
  887MPD2     C13000   0.915   1.393  15.765  0.4957 -0.1466 -1.1476
  887MPD2    C113001   0.799   1.431  15.827  0.9175  0.0335 -0.1355
  887MPD2    C213002   0.710   1.520  15.769  0.8507  0.4804 -0.1973
  887MPD2    C313003   0.735   1.573  15.645 -0.3209 -0.1694  0.4896
  887MPD2    C413004   0.843   1.522  15.577  0.3546 -0.5116  0.1834
  887MPD2    C513005   0.935   1.446  15.643  0.6152 -0.2598  0.1743
  887MPD2     H13006   0.629   1.562  15.828  0.1339  1.0580 -1.5824
  887MPD2    H113007   0.869   1.550  15.476  0.7437  1.6431  0.8789
  887MPD2    H213008   0.981   1.314  15.797  0.6933 -0.1352 -1.5232
  887MPD2    H313009   1.022   1.409  15.589  0.2600  0.7706 -1.1106
  887MPD2     N13010   0.639   1.667  15.595  0.3760  0.9545  1.0100
  887MPD2    H513011   0.569   1.694  15.663 -0.9179  2.5101 -0.9752
  887MPD2    N113012   0.776   1.385  15.962 -0.4436 -0.0527 -0.2057
  887MPD2    H713013   0.703   1.440  16.007 -1.3079 -1.1292 -0.2743
  888MPD2     C13014   2.470   0.874  15.032 -0.2996 -0.0595 -0.0620
  888MPD2    C113015   2.521   0.834  15.157  0.3375 -0.0217 -0.2843
  888MPD2    C213016   2.611   0.915  15.226  0.0985  0.4258  0.2597
  888MPD2    C313017   2.661   1.018  15.152 -0.5650  0.0627 -0.2668
  888MPD2    C413018   2.616   1.050  15.028  0.4093 -0.0362  0.4557
  888MPD2    C513019   2.518   0.984  14.967  0.2658  0.3618 -0.1401
  888MPD2     H13020   2.657   0.899  15.323 -1.0699  0.1308  0.7672
  888MPD2    H113021   2.665   1.131  14.976 -1.6937  0.4309 -0.8393
  888MPD2    H213022   2.405   0.807  14.976 -1.8336  2.1075 -0.8704
  888MPD2    H313023   2.491   1.005  14.864 -0.0387 -2.3247 -0.6102
  888MPD2     N13024   2.751   1.096  15.220  0.1946 -0.1415  0.6316
  888MPD2    H513025   2.753   1.084  15.321  2.3967 -1.5176  0.4179
  888MPD2    N113026   2.475   0.713  15.214 -0.1766 -0.2001  0.0758
  888MPD2    H713027   2.487   0.701  15.314  2.2728  2.6790  0.1277
  889MPD2     C13028   2.355   0.605  12.874  0.1641  0.0063 -0.3030
  889MPD2    C113029   2.250   0.610  12.964 -0.0054  0.5463 -0.0066
  889MPD2    C213030   2.212   0.733  13.013  0.7350  0.7486  0.1253
  889MPD2    C313031   2.243   0.847  12.937  0.1866 -0.1065  0.0869
  889MPD2    C413032   2.317   0.834  12.823 -0.4944 -0.4792  0.6834
  889MPD2    C513033   2.380   0.719  12.799  0.3107 -0.2065 -0.8508
  889MPD2     H13034   2.138   0.744  13.091 -0.5572 -2.2282 -0.6859
  889MPD2    H113035   2.335   0.913  12.751 -1.7676 -1.2434 -0.4813
  889MPD2    H213036   2.396   0.508  12.848  1.0777  0.8274 -1.9236
  889MPD2    H313037   2.444   0.713  12.712  1.9757 -0.4251  0.4076
  889MPD2     N13038   2.182   0.968  12.975 -0.0736  0.5693  0.3695
  889MPD2    H513039   2.128   0.979  13.061 -0.2954  1.8543  0.0676
  889MPD2    N113040   2.223   0.493  13.032  0.1204 -1.0766  0.1310
  889MPD2    H713041   2.267   0.409  12.997 -0.2509  0.0861 -3.1605
  890MPD2     C13042   1.634   1.976  14.730 -0.0489 -1.0447 -0.1253
  890MPD2    C113043   1.741   1.989  14.814  0.1277  0.4269  0.3848
  890MPD2    C213044   1.737   1.950  14.952 -0.2619  0.2744 -0.3436
  890MPD2    C313045   1.620   1.897  15.000  0.6409  0.4355  0.5844
  890MPD2    C413046   1.514   1.867  14.915 -0.6457 -0.0755 -0.0761
  890MPD2    C513047   1.527   1.910  14.782  0.2992  0.0370 -0.2265
  890MPD2     H13048   1.815   1.966  15.025 -0.5220  1.3055 -0.2971
  890MPD2    H113049   1.421   1.823  14.947 -2.6961  1.1393 -4.2231
  890MPD2    H213050   1.636   2.009  14.627  2.0279 -3.0135 -0.7178
  890MPD2    H313051   1.436   1.901  14.723  0.8194 -2.9447 -0.5611
  890MPD2     N13052   1.610   1.863  15.133 -0.3086 -0.2321 -0.2596
  890MPD2    H513053   1.698   1.866  15.183 -0.7966 -1.1288  0.6383
  890MPD2    N113054   1.858   2.049  14.763 -0.5250 -0.0350  0.2359
  890MPD2    H713055   1.848   2.085  14.668  0.3200  2.1201  0.9755
  891MPD2     C13056   4.292   1.240  16.349  0.9429 -0.3536  0.0518
  891MPD2    C113057   4.188   1.192  16.427  0.0179 -0.6825  0.4649
  891MPD2    C213058   4.216   1.178  16.563  0.1080  0.0002 -0.2458
  891MPD2    C313059   4.340   1.190  16.618  0.4008 -0.8094  0.2613
  891MPD2    C413060   4.440   1.239  16.540  0.5739 -0.2843  0.3895
  891MPD2    C513061   4.408   1.272  16.410  0.1335  0.1950  0.3386
  891MPD2     H13062   4.139   1.137  16.628 -2.8798  3.7031 -1.4224
  891MPD2    H113063   4.541   1.258  16.575  0.6782  0.3435 -0.2345
  891MPD2    H213064   4.279   1.261  16.244 -0.2805 -1.6863 -0.0732
  891MPD2    H313065   4.480   1.326  16.349  0.7449 -1.6617 -0.5775
  891MPD2     N13066   4.351   1.153  16.752 -0.5701 -0.0062 -0.4931
  891MPD2    H513067   4.267   1.136  16.804 -0.9369  0.5206 -0.9066
  891MPD2    N113068   4.059   1.175  16.372 -0.7518 -0.3895  0.1468
  891MPD2    H713069   4.049   1.201  16.274  0.0784  0.2168  0.2152
  892MPD2     C13070   0.990   2.038  15.104 -0.7137 -0.6593 -0.3043
  892MPD2    C113071   0.917   2.084  14.990  0.3707 -0.6748 -0.0714
  892MPD2    C213072   0.965   2.033  14.869 -0.5515 -0.0737 -0.0070
  892MPD2    C313073   1.081   1.959  14.863 -0.0892  0.1548  0.7661
  892MPD2    C413074   1.151   1.926  14.975  0.4040  0.7400  0.2075
  892MPD2    C513075   1.106   1.967  15.099 -0.0260 -0.4109  0.1688
  892MPD2     H13076   0.914   2.065  14.779 -0.8284  1.2872  0.6366
  892MPD2    H113077   1.232   1.855  14.967  0.4801  1.1682 -2.8405
  892MPD2    H213078   0.964   2.061  15.207  0.9207  0.5338 -0.1588
  892MPD2    H313079   1.155   1.939  15.191  0.5858  0.3177  0.0631
  892MPD2     N13080   1.123   1.897  14.748  0.7972 -0.0233 -0.5438
  892MPD2    H513081   1.210   1.844  14.744  1.8973  1.7168  0.2169
  892MPD2    N113082   0.807   2.170  15.001  0.0171  0.4699  0.8685
  892MPD2    H713083   0.764   2.210  14.919 -0.1339 -1.9119 -0.2323
  893MPD2     C13084   2.000   0.993   1.249  0.0291  0.5573  0.1171
  893MPD2    C113085   2.072   0.945   1.143 -0.4074  0.9605 -0.0821
  893MPD2    C213086   2.033   0.826   1.083 -0.1526 -0.4129  0.1060
  893MPD2    C313087   1.936   0.743   1.141 -0.6085  0.6616  0.2764
  893MPD2    C413088   1.875   0.787   1.261  0.1001  0.1690  0.9537
  893MPD2    C513089   1.905   0.909   1.303  0.2524 -0.4631  0.2470
  893MPD2     H13090   2.081   0.807   0.987 -0.9984 -0.1495 -0.3674
  893MPD2    H113091   1.797   0.725   1.305 -1.6641  0.6734 -1.5063
  893MPD2    H213092   2.012   1.088   1.299  0.9069  0.1839  0.6238
  893MPD2    H313093   1.856   0.958   1.386  0.8322 -1.4704  1.1788
  893MPD2     N13094   1.896   0.616   1.084 -0.4348 -0.3808 -0.4075
  893MPD2    H513095   1.820   0.568   1.132 -0.3640 -1.4419 -1.3383
  893MPD2    N113096   2.170   1.036   1.090 -0.2006  0.1804  0.5260
  893MPD2    H713097   2.190   1.109   1.158 -0.5569  2.9480 -2.3491
  894MPD2     C13098   4.529   3.065   0.427 -0.4665  0.2587  0.0195
  894MPD2    C113099   4.551   3.026   0.553 -0.5955 -0.6297 -0.7970
  894MPD2    C213100   4.644   3.092   0.630 -0.0537  0.1149 -0.1314
  894MPD2    C313101   4.707   3.205   0.584  0.5839 -0.7342  0.1649
  894MPD2    C413102   4.683   3.239   0.455  0.1443 -0.3897  0.9813
  894MPD2    C513103   4.593   3.178   0.378  0.2529  0.1922  0.7124
  894MPD2     H13104   4.658   3.065   0.734 -0.2654  1.1607  0.1724
  894MPD2    H113105   0.006   3.321   0.405  0.4699 -0.7147  0.7823
  894MPD2    H213106   4.445   3.014   0.381 -2.2989  1.0192  2.5640
  894MPD2    H313107   4.567   3.229   0.285  1.3938 -2.7668 -1.2286
  894MPD2     N13108   0.084   3.255   0.670 -0.5062 -0.0488  0.2986
  894MPD2    H513109   0.099   3.211   0.760 -1.3537  0.1439  0.5360
  894MPD2    N113110   4.495   2.908   0.610 -0.9180 -0.0540  0.5107
  894MPD2    H713111   4.510   2.890   0.709  1.0585  0.0571  0.2279
  895MPD2     C13112   0.261   1.397  13.650  0.4864  1.2448  0.4018
  895MPD2    C113113   0.148   1.323  13.642  0.4270  0.1879  0.2406
  895MPD2    C213114   0.150   1.182  13.655  0.0344 -0.2035  0.3068
  895MPD2    C313115   0.267   1.120  13.690  0.2152 -0.5093 -0.3026
  895MPD2    C413116   0.378   1.191  13.701  0.1883  0.4229 -0.7240
  895MPD2    C513117   0.375   1.324  13.677 -0.7952  0.0364 -0.0789
  895MPD2     H13118   0.056   1.128  13.648 -1.7325  2.7076  1.5401
  895MPD2    H113119   0.474   1.145  13.723 -1.2054 -2.8815 -1.4723
  895MPD2    H213120   0.274   1.502  13.627  0.6254  1.0260 -0.5393
  895MPD2    H313121   0.470   1.376  13.673 -1.2935  1.0696  1.5705
  895MPD2     N13122   0.270   0.977  13.695 -0.8050  0.3894 -0.0045
  895MPD2    H513123   0.204   0.913  13.652 -0.6831  1.6305 -2.0388
  895MPD2    N113124   0.023   1.381  13.600 -0.5072  0.2583 -0.0867
  895MPD2    H713125   4.668   1.324  13.603 -2.1551  2.7228  0.6495
  896MPD2     C13126   1.366   3.663   1.418  0.1086 -0.3618 -0.5085
  896MPD2    C113127   1.433   3.564   1.345  0.9590 -0.2699 -0.8250
  896MPD2    C213128   1.361   3.484   1.258  0.0687 -0.7501 -0.3666
  896MPD2    C313129   1.227   3.504   1.238  0.4466  0.4691 -0.5546
  896MPD2    C413130   1.167   3.598   1.315  0.0822  0.0347  0.0071
  896MPD2    C513131   1.232   3.664   1.419  0.2258  0.0221 -0.2384
  896MPD2     H13132   1.411   3.407   1.200  0.5310 -0.5081 -0.2875
  896MPD2    H113133   1.063   3.630   1.307  0.3309  0.8511  0.0601
  896MPD2    H213134   1.429   3.713   1.491  0.0539  0.3108 -0.9242
  896MPD2    H313135   1.176   3.734   1.480  0.1397  1.1190 -1.5954
  896MPD2     N13136   1.162   3.445   1.128 -0.0537  0.4245  0.2743
  896MPD2    H513137   1.213   3.372   1.080 -1.8258 -1.2875  0.9598
  896MPD2    N113138   1.576   3.550   1.367  0.1954 -0.4977 -0.1846
  896MPD2    H713139   1.619   3.624   1.422  1.2452 -0.2985 -1.2690
  897MPD2     C13140   3.370   0.779  10.551 -0.9067  0.3070 -1.1144
  897MPD2    C113141   3.285   0.878  10.491  0.5586 -0.0554  0.4706
  897MPD2    C213142   3.164   0.897  10.555  1.0970  0.9429 -0.5839
  897MPD2    C313143   3.130   0.836  10.669 -0.2720 -0.2924  0.2628
  897MPD2    C413144   3.215   0.747  10.724 -0.2660 -0.0066  0.2026
  897MPD2    C513145   3.334   0.721  10.668  1.0363 -0.3578 -0.0016
  897MPD2     H13146   3.088   0.959  10.510  1.4082  1.8803  0.1829
  897MPD2    H113147   3.199   0.686  10.813 -0.0385 -0.2280  0.0942
  897MPD2    H213148   3.466   0.749  10.510 -1.2093  0.4237 -1.9064
  897MPD2    H313149   3.398   0.652  10.721 -0.8263 -1.7908  0.3826
  897MPD2     N13150   3.011   0.879  10.730  0.1600  0.3574 -0.4323
  897MPD2    H513151   2.950   0.939  10.676  0.1283  1.8358  1.2594
  897MPD2    N113152   3.329   0.934  10.370 -0.0186  0.1440 -0.5940
  897MPD2    H713153   3.422   0.903  10.344 -0.5341 -1.9516  0.0764
  898MPD2     C13154   4.406   1.263  17.326  0.7330  0.8316  0.3287
  898MPD2    C113155   4.537   1.297  17.298  0.2665  0.5454 -0.2038
  898MPD2    C213156   4.559   1.412  17.229 -0.7234  0.4590 -0.3226
  898MPD2    C313157   4.465   1.506  17.196 -0.1846  0.8155 -0.1854
  898MPD2    C413158   4.335   1.474  17.225  0.5511 -0.0288 -0.5915
  898MPD2    C513159   4.308   1.350  17.288 -0.2206  0.9809  0.4631
  898MPD2     H13160   4.662   1.438  17.209 -0.4213  1.0395  1.9800
  898MPD2    H113161   4.255   1.545  17.204 -0.0855 -0.2777  1.0243
  898MPD2    H213162   4.377   1.169  17.372 -1.1079  0.3379 -1.8208
  898MPD2    H313163   4.206   1.316  17.302 -0.3676  1.9257  1.6739
  898MPD2     N13164   4.510   1.638  17.161  0.5259 -0.3348  0.7909
  898MPD2    H513165   4.611   1.651  17.161  0.7115 -1.7421 -0.6975
  898MPD2    N113166   4.644   1.205  17.323 -0.5479 -0.0512  0.2717
  898MPD2    H713167   0.012   1.226  17.300 -0.2948 -0.4332  0.9788
  899MPD2     C13168   1.186   1.738  17.567  0.2278 -0.6268 -0.2779
  899MPD2    C113169   1.117   1.840  17.511  0.0710 -0.4366 -0.5254
  899MPD2    C213170   1.000   1.881  17.578  0.3794 -0.3200  0.2368
  899MPD2    C313171   0.957   1.816  17.695 -0.1461  0.0560  0.8063
  899MPD2    C413172   1.034   1.717   0.037 -1.1969  0.5405 -0.4009
  899MPD2    C513173   1.147   1.678  17.683 -0.2074  0.8355  0.0623
  899MPD2     H13174   0.932   1.949  17.527  1.1402 -0.4092 -0.8954
  899MPD2    H113175   1.002   1.662   0.124  0.0161 -2.4222 -1.8205
  899MPD2    H213176   1.277   1.699  17.523  2.3805  3.1284  0.8318
  899MPD2    H313177   1.205   1.593   0.002 -0.5717 -0.7115 -3.0490
  899MPD2     N13178   0.834   1.849   0.039 -0.1778 -0.2643 -0.2728
  899MPD2    H513179   0.818   1.808   0.130 -0.4839  2.4726  0.8995
  899MPD2    N113180   1.148   1.890  17.382  0.0195  0.6559  0.2400
  899MPD2    H713181   1.078   1.953  17.344  0.6037  0.3589 -1.3542
  900MPD2     C13182   0.585   4.079  12.308  0.5613 -0.6088 -0.0168
  900MPD2    C113183   0.575   3.940  12.292  0.0838 -0.2920  0.1634
  900MPD2    C213184   0.466   3.886  12.226  0.2335 -0.0895 -0.0047
  900MPD2    C313185   0.356   3.967  12.188  0.1406 -0.1789 -0.2064
  900MPD2    C413186   0.363   4.103  12.215  0.0775 -0.1589 -0.2248
  900MPD2    C513187   0.482   4.156  12.258 -0.1333 -0.5938  0.6072
  900MPD2     H13188   0.455   3.783  12.196  1.5384 -0.1869 -0.1161
  900MPD2    H113189   0.282   4.172  12.194 -2.4354 -2.8753  0.4760
  900MPD2    H213190   0.676   4.125  12.347  0.7236 -0.1055 -0.9923
  900MPD2    H313191   0.506   4.260  12.276  1.2864 -0.7736 -0.2147
  900MPD2     N13192   0.250   3.915  12.114 -0.2440 -0.1540 -0.2485
  900MPD2    H513193   0.259   3.828  12.063  1.3909 -0.5120  0.6395
  900MPD2    N113194   0.681   3.862  12.343 -0.1146  0.2841 -0.0526
  900MPD2    H713195   0.764   3.904  12.384 -0.0303 -0.8435  0.9189
  901MPD2     C13196   0.786   2.994  12.992 -0.1290 -0.1303  0.1176
  901MPD2    C113197   0.838   2.971  12.866 -0.6808 -0.0394  0.1878
  901MPD2    C213198   0.841   3.077  12.782  0.2426 -0.4585  0.5586
  901MPD2    C313199   0.775   3.192  12.803 -0.4517 -0.9526 -0.0298
  901MPD2    C413200   0.715   3.211  12.923 -0.2710  0.6726  0.4091
  901MPD2    C513201   0.731   3.120  13.019 -0.1110 -0.4077 -0.2942
  901MPD2     H13202   0.881   3.056  12.683  2.6186 -0.4572  1.5147
  901MPD2    H113203   0.648   3.296  12.933  0.3470  0.9211  2.4078
  901MPD2    H213204   0.791   2.920  13.070 -0.9070 -0.4662 -0.1611
  901MPD2    H313205   0.689   3.144  13.116 -1.6971  0.3133 -1.1503
  901MPD2     N13206   0.790   3.288  12.701  0.6095 -0.0640 -0.1204
  901MPD2    H513207   0.827   3.266  12.609 -0.0482 -1.4373 -0.0586
  901MPD2    N113208   0.899   2.848  12.842 -0.3984 -0.2094  0.6117
  901MPD2    H713209   0.908   2.787  12.922 -0.8247  0.6911  1.3547
  902MPD2     C13210   0.217   1.112  13.014 -0.2399 -0.6916 -0.2162
  902MPD2    C113211   0.209   1.087  12.882 -0.8061  0.4329  0.3205
  902MPD2    C213212   0.207   0.955  12.839 -0.1682  0.1520  0.0111
  902MPD2    C313213   0.209   0.847  12.919  0.1761 -0.4298  0.8203
  902MPD2    C413214   0.225   0.876  13.050 -0.3049 -0.3753 -0.3870
  902MPD2    C513215   0.230   1.007  13.097  0.4892  0.3728 -0.0176
  902MPD2     H13216   0.182   0.945  12.734 -1.7761 -1.4041  0.5410
  902MPD2    H113217   0.242   0.792  13.117 -1.7009 -0.8073 -0.5756
  902MPD2    H213218   0.225   1.211  13.059  2.5042 -1.7920  1.6671
  902MPD2    H313219   0.249   1.012  13.203  2.0066  2.8272 -0.4134
  902MPD2     N13220   0.213   0.713  12.870 -0.0321 -0.0865 -0.6843
  902MPD2    H513221   0.192   0.637  12.934  1.1341 -0.4506 -0.7239
  902MPD2    N113222   0.184   1.197  12.792  0.5681 -0.0151  0.3713
  902MPD2    H713223   0.181   1.288  12.836  0.5643  1.0605 -1.8638
  903MPD2     C13224   0.257   0.691  12.143  0.0549 -0.1649 -0.5298
  903MPD2    C113225   0.203   0.732  12.265 -0.5832 -0.4112  0.5610
  903MPD2    C213226   0.169   0.860  12.281  0.3330  0.6458  0.8146
  903MPD2    C313227   0.153   0.940  12.172  0.5516  0.4616 -0.1746
  903MPD2    C413228   0.207   0.898  12.052  0.0279  0.8024 -0.5176
  903MPD2    C513229   0.273   0.781  12.045 -0.2613 -0.6214 -0.4887
  903MPD2     H13230   0.126   0.884  12.378  0.0072  2.2195  0.2920
  903MPD2    H113231   0.191   0.947  11.957 -0.8408  1.6097  0.0533
  903MPD2    H213232   0.306   0.596  12.130 -1.4109 -0.5649 -3.1495
  903MPD2    H313233   0.322   0.749  11.953  0.6861 -0.4162 -0.0494
  903MPD2     N13234   0.074   1.055  12.191  0.6955  1.3789 -0.3895
  903MPD2    H513235   0.050   1.074  12.287  1.0292 -0.1610  0.0001
  903MPD2    N113236   0.202   0.643  12.379  0.9293  0.3806 -0.2007
  903MPD2    H713237   0.194   0.689  12.469  0.4804  0.3396 -0.2197
  904MPD2     C13238   4.552   0.740  13.947 -0.1649 -0.2332  0.3309
  904MPD2    C113239   4.531   0.741  14.082  0.1822  0.2448  1.3486
  904MPD2    C213240   4.643   0.773  14.160 -0.0331 -1.0048  0.2514
  904MPD2    C313241   0.024   0.838  14.106 -0.3681  0.5318  0.9060
  904MPD2    C413242   0.020   0.867  13.966  0.3963 -0.3447  0.0315
  904MPD2    C513243   4.649   0.817  13.888 -0.1791  0.1071 -0.1131
  904MPD2     H13244   4.636   0.768  14.268 -0.7988 -0.2771  0.2287
  904MPD2    H113245   0.108   0.903  13.913  0.8027 -2.1116 -0.4902
  904MPD2    H213246   4.488   0.684  13.880  1.5755 -2.1655  0.2732
  904MPD2    H313247   4.642   0.831  13.781  0.7312 -0.2161 -0.2099
  904MPD2     N13248   0.137   0.863  14.183 -0.2432  0.2518 -0.1515
  904MPD2    H513249   0.137   0.816  14.274  0.6131  0.8232  0.1446
  904MPD2    N113250   4.411   0.676  14.134  0.3291 -0.7818  0.0230
  904MPD2    H713251   4.409   0.657  14.234  0.1247 -0.3763  0.0951
  905MPD2     C13252   4.365   0.512  13.479 -0.1150  0.0261  0.9300
  905MPD2    C113253   4.417   0.625  13.542  0.2719  0.1143  0.8485
  905MPD2    C213254   4.551   0.648  13.543 -0.1781  0.5126  0.1753
  905MPD2    C313255   4.635   0.556  13.501 -0.0004 -0.3125  1.0808
  905MPD2    C413256   4.580   0.441  13.442  0.1317  0.2472 -0.1818
  905MPD2    C513257   4.445   0.416  13.431 -0.5737 -0.3405  0.0171
  905MPD2     H13258   4.595   0.735  13.591 -2.0228  2.0509 -0.9179
  905MPD2    H113259   4.650   0.364  13.412  1.6834  2.5619 -2.4930
  905MPD2    H213260   4.258   0.495  13.472  0.0752 -2.0532  2.9821
  905MPD2    H313261   4.416   0.325  13.380 -3.5558  0.7551 -0.2211
  905MPD2     N13262   0.048   0.557  13.507  0.7343 -0.0068  0.1100
  905MPD2    H513263   0.090   0.469  13.481  1.3940  1.2594 -3.1493
  905MPD2    N113264   4.325   0.703  13.613 -0.0089 -0.6862 -0.0052
  905MPD2    H713265   4.232   0.664  13.627 -0.9175  1.3817 -0.2256
  906MPD2     C13266   1.683   0.882  11.440  0.2365  0.2845 -0.0662
  906MPD2    C113267   1.605   0.807  11.349  0.5140  0.3359  0.2685
  906MPD2    C213268   1.516   0.714  11.394  1.0578 -0.0446 -0.7411
  906MPD2    C313269   1.500   0.693  11.528 -0.2443  0.6085 -0.0107
  906MPD2    C413270   1.575   0.768  11.619 -0.3780 -0.6042  0.4223
  906MPD2    C513271   1.671   0.853  11.572  0.0914  0.2855 -0.3526
  906MPD2     H13272   1.453   0.658  11.325 -0.1845  0.0068  0.3471
  906MPD2    H113273   1.559   0.761  11.726  0.7347 -0.5598  0.5927
  906MPD2    H213274   1.760   0.951  11.406 -0.9710  0.5914 -2.1977
  906MPD2    H313275   1.746   0.902  11.632 -0.9003 -2.8855  3.4996
  906MPD2     N13276   1.407   0.588  11.566 -0.0742  0.3904  0.0311
  906MPD2    H513277   1.364   0.538  11.488 -1.6067  1.8040 -0.0522
  906MPD2    N113278   1.611   0.807  11.206 -0.3237 -0.8419  0.4165
  906MPD2    H713279   1.567   0.728  11.161 -0.3601 -0.7816  0.3462
  907MPD2     C13280   0.640   0.064  15.804  0.4722 -0.1350  0.4340
  907MPD2    C113281   0.723   4.684  15.823  0.1749  0.1490  0.4266
  907MPD2    C213282   0.800   4.676  15.937 -0.6842 -0.3575 -0.1944
  907MPD2    C313283   0.803   0.049  16.026  0.1634  0.0015  0.6052
  907MPD2    C413284   0.715   0.159  16.006  0.4519 -0.5131  0.3985
  907MPD2    C513285   0.642   0.167  15.893 -0.4501 -0.0039 -0.2386
  907MPD2     H13286   0.845   4.581  15.964 -1.0638 -0.1701  1.0989
  907MPD2    H113287   0.726   0.252  16.061 -0.0588  0.5527 -1.3037
  907MPD2    H213288   0.570   0.068  15.722  0.0406  0.4533  0.8281
  907MPD2    H313289   0.589   0.261  15.877 -3.7009 -1.8897 -0.6725
  907MPD2     N13290   0.899   0.036  16.134  0.1687  0.3441 -0.7522
  907MPD2    H513291   0.960   4.683  16.136 -0.3638 -0.0287  0.5359
  907MPD2    N113292   0.734   4.571  15.743 -0.2787  0.5114  0.3052
  907MPD2    H713293   0.799   4.500  15.777 -1.2302 -1.0427 -1.1513
  908MPD2     C13294   3.709   0.416   9.938  0.0090 -0.5828 -0.0648
  908MPD2    C113295   3.593   0.442   9.866 -0.3235 -0.3746  0.1303
  908MPD2    C213296   3.535   0.570   9.870 -0.2006  0.1063  0.5819
  908MPD2    C313297   3.603   0.667   9.949  0.3300  0.0479  0.6572
  908MPD2    C413298   3.712   0.632  10.029 -0.2376  0.5638 -0.1841
  908MPD2    C513299   3.771   0.510  10.012  0.2844 -0.1323  0.3653
  908MPD2     H13300   3.452   0.586   9.803  0.4861 -1.6000 -0.6871
  908MPD2    H113301   3.760   0.699  10.100 -0.0765  2.0315 -1.6862
  908MPD2    H213302   3.756   0.319   9.924  1.7076  0.0052  1.4976
  908MPD2    H313303   3.857   0.481  10.071 -0.6168 -0.0851  1.7116
  908MPD2     N13304   3.541   0.794   9.957 -0.7964  0.4078  0.6401
  908MPD2    H513305   3.446   0.801   9.922 -0.7871  0.3160  0.5967
  908MPD2    N113306   3.552   0.333   9.787 -0.3040  0.0822 -0.1684
  908MPD2    H713307   3.610   0.250   9.792 -0.6868 -0.2472 -1.2197
  909MPD2     C13308   3.720   3.246  11.880  0.2550 -0.0480 -0.2705
  909MPD2    C113309   3.698   3.357  11.803 -0.5855 -0.4615  0.1006
  909MPD2    C213310   3.610   3.458  11.849  0.3221  0.1602 -0.3831
  909MPD2    C313311   3.549   3.446  11.973 -0.2055  0.0719 -0.0067
  909MPD2    C413312   3.595   3.341  12.055  0.1688 -0.0285  0.1980
  909MPD2    C513313   3.670   3.242  12.007 -0.0600  0.7415 -0.4093
  909MPD2     H13314   3.590   3.545  11.789  1.6767  0.3893 -0.5137
  909MPD2    H113315   3.589   3.359  12.162 -0.7440 -3.0008  0.6375
  909MPD2    H213316   3.792   3.171  11.848 -1.0267 -1.2046 -0.4303
  909MPD2    H313317   3.704   3.177  12.087 -0.8790 -1.7364 -2.0833
  909MPD2     N13318   3.466   3.550  12.026  0.3104  0.6283 -0.4028
  909MPD2    H513319   3.446   3.636  11.976  0.9697  0.9858 -0.0493
  909MPD2    N113320   3.748   3.365  11.671 -0.2040  0.0879  0.4700
  909MPD2    H713321   3.744   3.457  11.628  2.0424  0.9905  2.2058
  910MPD2     C13322   0.131   0.414  16.044 -0.0657 -0.0535  0.0829
  910MPD2    C113323   0.193   0.313  15.970  1.0389 -0.1455  0.6405
  910MPD2    C213324   0.160   0.302  15.839  0.1748 -0.3047 -0.1218
  910MPD2    C313325   0.078   0.398  15.777  0.0445 -0.3903  0.1639
  910MPD2    C413326   0.021   0.501  15.851  0.5590  0.0425 -0.3485
  910MPD2    C513327   0.042   0.507  15.990 -0.0129  0.4302 -0.1350
  910MPD2     H13328   0.220   0.232  15.782 -0.8449 -0.4297 -1.0306
  910MPD2    H113329   4.678   0.568  15.805 -0.2825  0.6445  1.8559
  910MPD2    H213330   0.130   0.412  16.152 -1.1905 -0.2457  0.0708
  910MPD2    H313331   4.715   0.578  16.050  0.7874  1.5697 -0.7350
  910MPD2     N13332   0.069   0.395  15.636  0.2848 -0.4578  0.4686
  910MPD2    H513333   0.023   0.474  15.591  2.1550  0.1043 -0.4769
  910MPD2    N113334   0.286   0.219  16.032 -0.2423 -0.3441  0.1875
  910MPD2    H713335   0.323   0.144  15.974  0.3022  0.9993 -1.1978
  911MPD2     C13336   2.762   0.198  16.457 -0.0903 -0.7770  0.1576
  911MPD2    C113337   2.773   0.329  16.501  0.3516  0.2304  0.7465
  911MPD2    C213338   2.670   0.422  16.474  0.5502 -0.3378  0.1403
  911MPD2    C313339   2.553   0.371  16.403  0.1977  0.2374  0.8525
  911MPD2    C413340   2.545   0.241  16.376 -0.0087 -0.0731  0.6218
  911MPD2    C513341   2.647   0.156  16.393  0.2778  0.3111  0.6232
  911MPD2     H13342   2.672   0.525  16.507  1.4850  0.2178 -1.6321
  911MPD2    H113343   2.455   0.201  16.330 -1.3357  2.5338  0.9477
  911MPD2    H213344   2.833   0.116  16.461  1.3881  0.5468  1.0295
  911MPD2    H313345   2.629   0.050  16.384 -0.9144  0.5551  0.1558
  911MPD2     N13346   2.440   0.448  16.362  0.2852  0.4358 -0.1153
  911MPD2    H513347   2.375   0.400  16.301  1.2204  1.1334 -1.6644
  911MPD2    N113348   2.880   0.361  16.588 -0.0701 -0.1747 -0.2525
  911MPD2    H713349   2.951   0.290  16.604  0.2610 -0.1223 -1.4461
  912MPD2     C13350   1.788   0.427  15.938  0.2106  0.4423 -0.5594
  912MPD2    C113351   1.838   0.414  16.068  0.0906  0.2367 -1.1170
  912MPD2    C213352   1.813   0.291  16.129  0.0565 -0.7661  0.0784
  912MPD2    C313353   1.742   0.193  16.065  0.0074  0.5835  0.1696
  912MPD2    C413354   1.686   0.212  15.938 -0.6146 -0.5755 -0.2604
  912MPD2    C513355   1.708   0.330  15.873  0.2308  0.4365 -0.6828
  912MPD2     H13356   1.849   0.271  16.230  1.3062  0.3945 -0.1453
  912MPD2    H113357   1.629   0.131  15.893 -0.8691 -0.7129  0.3218
  912MPD2    H213358   1.818   0.511  15.877  0.7451  0.4931 -0.2275
  912MPD2    H313359   1.679   0.350  15.770 -1.0171  0.1235 -0.3968
  912MPD2     N13360   1.738   0.071  16.141  0.1551 -0.4668 -0.4914
  912MPD2    H513361   1.767   0.078  16.238  0.1302 -1.3652 -0.4188
  912MPD2    N113362   1.901   0.525  16.127  0.2943 -0.7203 -0.0454
  912MPD2    H713363   1.915   0.607  16.069 -1.2970 -0.4302 -0.0200
  913MPD2     C13364   3.027   1.776  10.310 -0.3738 -0.2091  0.0274
  913MPD2    C113365   3.079   1.846  10.417 -0.1321  1.1693 -0.1986
  913MPD2    C213366   3.192   1.933  10.395 -0.6690  0.2385 -0.1027
  913MPD2    C313367   3.236   1.956  10.261  0.4540  0.0214  1.0156
  913MPD2    C413368   3.176   1.887  10.158  0.5945 -0.2805 -0.1482
  913MPD2    C513369   3.084   1.789  10.183 -0.1752 -0.1962  0.4315
  913MPD2     H13370   3.231   1.990  10.478  1.6806 -2.3512  0.5347
  913MPD2    H113371   3.208   1.894  10.055 -2.4809  0.5691 -1.0410
  913MPD2    H213372   2.947   1.707  10.332 -1.1348  0.4906 -0.5377
  913MPD2    H313373   3.045   1.731  10.101  1.5234  1.4654 -1.5379
  913MPD2     N13374   3.339   2.045  10.231  0.1349  0.4043  0.1182
  913MPD2    H513375   3.370   2.049  10.135 -2.3937 -1.8857 -0.7968
  913MPD2    N113376   3.019   1.822  10.539 -0.1906 -0.3582  0.3779
  913MPD2    H713377   2.962   1.739  10.549  0.3820 -0.8127 -0.0819
  914MPD2     C13378   1.304   2.486  11.995 -0.4078 -0.2674 -0.6820
  914MPD2    C113379   1.204   2.577  12.017 -0.0726 -0.3273  0.2726
  914MPD2    C213380   1.151   2.590  12.146 -0.5346 -0.2079  0.4612
  914MPD2    C313381   1.192   2.505  12.249 -0.2128 -0.5493  0.1641
  914MPD2    C413382   1.292   2.414  12.229  0.1950 -0.3118 -0.2275
  914MPD2    C513383   1.337   2.400  12.097 -0.3636 -0.4628 -0.2757
  914MPD2     H13384   1.067   2.657  12.160 -1.6023 -1.4663  0.1693
  914MPD2    H113385   1.337   2.349  12.304 -0.9207 -2.0905 -1.1136
  914MPD2    H213386   1.352   2.483  11.898  0.7267  2.0157 -0.2020
  914MPD2    H313387   1.405   2.319  12.072  0.4537  0.1221  0.0709
  914MPD2     N13388   1.124   2.525  12.367 -0.4992 -0.0141  0.3541
  914MPD2    H513389   1.054   2.599  12.366  0.8431  1.2900  2.0022
  914MPD2    N113390   1.154   2.646  11.899 -0.0796 -0.0136 -0.1618
  914MPD2    H713391   1.200   2.626  11.810 -0.4627 -0.3681 -0.2779
  915MPD2     C13392   3.269   1.795  15.694  0.3672 -0.0242  0.3505
  915MPD2    C113393   3.250   1.929  15.655 -1.4317  0.3313 -0.0463
  915MPD2    C213394   3.308   2.024  15.739  0.1416  0.5733 -0.3236
  915MPD2    C313395   3.384   1.996  15.852 -0.0613  0.4616 -0.6148
  915MPD2    C413396   3.383   1.864  15.892 -0.6918 -0.0379  0.5504
  915MPD2    C513397   3.324   1.767  15.818  0.0580  0.3164 -0.1565
  915MPD2     H13398   3.296   2.128  15.710  1.4081  1.4078  2.1599
  915MPD2    H113399   3.422   1.825  15.986  1.5659  1.0099  0.0680
  915MPD2    H213400   3.211   1.712  15.657 -1.1680  0.3387  1.9274
  915MPD2    H313401   3.315   1.664  15.850  1.0570  0.5002  0.7151
  915MPD2     N13402   3.454   2.098  15.924  0.5379 -0.5162  0.6602
  915MPD2    H513403   3.431   2.194  15.902 -2.0613 -1.3982 -0.5316
  915MPD2    N113404   3.159   1.958  15.555 -0.1073  0.1798  0.1586
  915MPD2    H713405   3.139   2.055  15.533  1.4799  0.1109 -1.5517
  916MPD2     C13406   1.088   0.214  15.891  0.2687  0.2501 -0.2771
  916MPD2    C113407   1.208   0.163  15.934 -0.0960 -0.0540 -0.0956
  916MPD2    C213408   1.249   0.044  15.884  0.6388  0.1092  0.6821
  916MPD2    C313409   1.175   4.707  15.783  0.7880  0.0500  0.3161
  916MPD2    C413410   1.063   0.041  15.734  0.3631  0.1622 -0.7648
  916MPD2    C513411   1.014   0.159  15.787  0.6245 -0.2083  0.0437
  916MPD2     H13412   1.341   4.725  15.916  0.3146 -0.7568  0.3159
  916MPD2    H113413   1.015   0.003  15.644 -2.5355  1.2745  0.2795
  916MPD2    H213414   1.039   0.302  15.932  1.3759  0.3565  0.8014
  916MPD2    H313415   0.911   0.190  15.769  1.0379  1.6126  0.8445
  916MPD2     N13416   1.236   4.601  15.716 -0.0601 -0.0307  0.5203
  916MPD2    H513417   1.336   4.591  15.728 -0.3670 -2.2193  1.2221
  916MPD2    N113418   1.278   0.235  16.035 -1.0977 -0.1050 -0.7653
  916MPD2    H713419   1.247   0.332  16.040 -0.0869  0.0943  1.3820
  917MPD2     C13420   2.305   2.847  11.205 -1.2610 -0.5687 -0.6123
  917MPD2    C113421   2.375   2.912  11.303 -0.0765  0.1389  0.6776
  917MPD2    C213422   2.482   3.003  11.263 -0.1192  0.7382 -0.2359
  917MPD2    C313423   2.517   3.016  11.131 -0.2073  0.2574  0.1019
  917MPD2    C413424   2.437   2.951  11.036  0.5860  0.1403 -0.5836
  917MPD2    C513425   2.339   2.869  11.075 -0.3214 -0.0627  0.0035
  917MPD2     H13426   2.543   3.048  11.340 -0.0991  0.1821  0.0709
  917MPD2    H113427   2.457   2.962  10.930  0.0355  0.2372 -0.6740
  917MPD2    H213428   2.221   2.780  11.218 -1.9623  0.5221  0.5049
  917MPD2    H313429   2.286   2.821  10.994 -1.5344  0.7203  0.3358
  917MPD2     N13430   2.629   3.094  11.088  0.0973 -0.5177 -0.6555
  917MPD2    H513431   2.647   3.105  10.988  1.4235  2.3963 -0.0713
  917MPD2    N113432   2.341   2.894  11.437  0.0537  0.4675  0.9457
  917MPD2    H713433   2.272   2.822  11.454  1.3745 -1.1169 -0.3779
  918MPD2     C13434   2.429   3.463  12.281 -0.1335 -0.7398 -0.2193
  918MPD2    C113435   2.514   3.430  12.181  0.0974  0.0632 -0.2195
  918MPD2    C213436   2.476   3.336  12.085  0.5799 -0.2784  0.8279
  918MPD2    C313437   2.366   3.254  12.096 -0.6863  0.0572  0.2321
  918MPD2    C413438   2.280   3.288  12.202 -0.0665 -0.2978 -0.7065
  918MPD2    C513439   2.315   3.385  12.294  0.1866  0.0720  0.1118
  918MPD2     H13440   2.545   3.307  12.006 -0.5463  1.5401 -0.8355
  918MPD2    H113441   2.192   3.229  12.228 -0.9459  1.5325  0.5466
  918MPD2    H213442   2.458   3.533  12.358  2.2161 -1.4273 -0.4941
  918MPD2    H313443   2.246   3.404  12.375  0.5000 -0.7203  0.5594
  918MPD2     N13444   2.341   3.156  12.001  0.9109 -0.5704  0.1287
  918MPD2    H513445   2.398   3.156  11.916  1.0109 -0.7560  0.1952
  918MPD2    N113446   2.638   3.494  12.183 -0.2209 -0.1059 -0.2231
  918MPD2    H713447   2.656   3.566  12.253 -0.2059 -1.7251  1.4571
  919MPD2     C13448   3.064   2.012  12.056 -0.4805 -0.3873 -0.5795
  919MPD2    C113449   3.009   1.931  11.957  0.8302  0.3689 -0.0464
  919MPD2    C213450   2.964   1.993  11.838 -0.5524 -0.0706  0.6805
  919MPD2    C313451   2.944   2.129  11.820  0.2596  0.9130  0.0655
  919MPD2    C413452   2.991   2.204  11.927  0.0846  0.0066 -0.1054
  919MPD2    C513453   3.055   2.147  12.032  0.2865  0.0866 -0.1026
  919MPD2     H13454   2.925   1.927  11.761 -0.4372  3.7685 -2.6470
  919MPD2    H113455   2.979   2.311  11.932  0.2388 -0.0629  1.8432
  919MPD2    H213456   3.111   1.981  12.149  0.2144  1.2375 -0.3849
  919MPD2    H313457   3.076   2.215  12.113 -2.4181 -0.5990  1.1618
  919MPD2     N13458   2.876   2.185  11.709 -0.0618  0.1202 -0.3477
  919MPD2    H513459   2.879   2.286  11.698 -0.7584  0.3299  1.5298
  919MPD2    N113460   2.983   1.792  11.970  0.0132  0.0476 -0.3285
  919MPD2    H713461   2.958   1.740  11.887 -0.3022  0.1320 -0.2838
  920MPD2     C13462   3.174   2.499  10.808 -0.4019 -0.4164  0.5470
  920MPD2    C113463   3.080   2.402  10.786  0.3144  0.0325 -0.4997
  920MPD2    C213464   3.005   2.349  10.894  0.2640 -0.1345 -0.1664
  920MPD2    C313465   3.007   2.413  11.015 -0.7395 -0.2566 -0.5117
  920MPD2    C413466   3.094   2.516  11.039 -0.2600  0.3408 -0.4003
  920MPD2    C513467   3.174   2.555  10.928  0.2052  1.1669 -0.1243
  920MPD2     H13468   2.938   2.267  10.873  0.5910 -0.4327 -0.0408
  920MPD2    H113469   3.097   2.566  11.135 -1.4810 -1.2739  0.4780
  920MPD2    H213470   3.235   2.547  10.732 -0.2833  0.1998  1.0309
  920MPD2    H313471   3.240   2.640  10.913  2.5602 -0.7768 -0.6377
  920MPD2     N13472   2.930   2.353  11.117  0.0331  0.0089  0.0292
  920MPD2    H513473   2.882   2.266  11.094 -0.7208  0.5724 -0.5373
  920MPD2    N113474   3.050   2.358  10.661 -0.5509 -0.3993  0.2543
  920MPD2    H713475   2.971   2.295  10.654 -1.2648  0.6414 -1.0721
  921MPD2     C13476   3.338   1.135  16.756  0.3344  0.4232 -0.1152
  921MPD2    C113477   3.393   1.032  16.682  0.3765 -0.0894  0.1820
  921MPD2    C213478   3.350   0.905  16.710 -0.4166 -0.2544 -0.5629
  921MPD2    C313479   3.268   0.876  16.818 -0.2644 -0.1052 -0.1331
  921MPD2    C413480   3.230   0.980  16.905  0.3425  0.5239 -0.5930
  921MPD2    C513481   3.261   1.112  16.868 -0.7266  0.4504 -0.1101
  921MPD2     H13482   3.395   0.825  16.652  0.9019  0.4346 -0.4984
  921MPD2    H113483   3.183   0.966  17.002  1.2389  1.9254  0.0483
  921MPD2    H213484   3.349   1.236  16.719  3.4280 -0.2795 -1.0470
  921MPD2    H313485   3.222   1.193  16.928  1.7993 -0.4926  2.8145
  921MPD2     N13486   3.238   0.743  16.855 -0.1942  0.3374 -0.0575
  921MPD2    H513487   3.273   0.677  16.786 -2.1654 -0.0048 -0.7317
  921MPD2    N113488   3.484   1.069  16.578 -0.4467 -0.1164  0.0126
  921MPD2    H713489   3.511   1.167  16.577 -0.0786 -0.2196 -0.1071
  922MPD2     C13490   4.509   3.280  16.915 -0.2038  0.2579 -0.2542
  922MPD2    C113491   4.442   3.387  16.979  0.1411  0.1178  0.5925
  922MPD2    C213492   4.317   3.361  17.023 -0.0403 -0.3788 -0.9985
  922MPD2    C313493   4.252   3.236  17.003  0.5253 -0.7390  0.1703
  922MPD2    C413494   4.322   3.142  16.937 -0.0229 -0.6307  0.8638
  922MPD2    C513495   4.451   3.159  16.904 -0.0121 -0.7706  0.0581
  922MPD2     H13496   4.266   3.445  17.069 -0.3278  0.0030 -2.0023
  922MPD2    H113497   4.280   3.048  16.902 -1.9305  1.0822 -1.4271
  922MPD2    H213498   4.610   3.285  16.877  0.9734  0.0825  2.8652
  922MPD2    H313499   4.515   3.074  16.881  1.2197  0.5019 -1.2395
  922MPD2     N13500   4.119   3.214  17.041  0.0946 -0.2539 -0.2467
  922MPD2    H513501   4.071   3.299  17.069 -1.8140 -1.0290 -1.1519
  922MPD2    N113502   4.491   3.521  16.998 -0.0624 -0.2912  0.2770
  922MPD2    H713503   4.424   3.581  17.044  1.2190  0.2364  1.4394
  923MPD2     C13504   0.888   4.457   9.437 -0.2429  0.8763  0.1124
  923MPD2    C113505   0.900   4.594   9.444  0.1573  0.3828  0.0903
  923MPD2    C213506   1.010   4.641   9.516 -0.1107  0.2319  1.0394
  923MPD2    C313507   1.079   4.559   9.608  0.0077  0.6212  0.8458
  923MPD2    C413508   1.054   4.421   9.605  0.5397  0.4727 -0.1775
  923MPD2    C513509   0.965   4.378   9.515  0.3791  0.4715  0.5606
  923MPD2     H13510   1.048   0.013   9.522  1.7769 -0.4206  0.2030
  923MPD2    H113511   1.102   4.350   9.670 -0.2369  1.9782  2.0512
  923MPD2    H213512   0.818   4.401   9.375  0.1820  1.3589 -0.8020
  923MPD2    H313513   0.955   4.271   9.498  2.4328  0.4035 -0.3213
  923MPD2     N13514   1.190   4.601   9.689 -0.1271  0.2182  0.4753
  923MPD2    H513515   1.248   4.533   9.737  2.9918  1.0898 -2.1120
  923MPD2    N113516   0.834   4.678   9.350 -0.0683 -0.5911  0.4327
  923MPD2    H713517   0.770   4.627   9.290  0.0652  0.2382 -0.4250
  924MPD2     C13518   1.344   4.178  16.062  0.3049 -0.1565  0.4549
  924MPD2    C113519   1.332   4.191  16.195  0.4199 -0.4236 -0.9100
  924MPD2    C213520   1.315   4.317  16.254  0.1499  0.5182  0.9338
  924MPD2    C313521   1.337   4.432  16.181 -0.7320  0.0327 -0.2246
  924MPD2    C413522   1.382   4.415  16.048 -0.0137 -0.1519  0.1273
  924MPD2    C513523   1.374   4.290  15.985 -0.1204  0.0489 -0.8750
  924MPD2     H13524   1.279   4.325  16.356 -0.5175 -2.0169  0.9036
  924MPD2    H113525   1.410   4.499  15.985  0.9897 -0.2449  0.4468
  924MPD2    H213526   1.362   4.082  16.013 -3.5794  0.4627 -2.2498
  924MPD2    H313527   1.425   4.276  15.890  3.9678 -0.1785  1.3285
  924MPD2     N13528   1.314   4.560  16.234  0.3122 -0.1049  0.6655
  924MPD2    H513529   1.309   4.635  16.166  2.8025  0.5541  1.2025
  924MPD2    N113530   1.319   4.066  16.268 -0.4033 -0.1955  0.0052
  924MPD2    H713531   1.338   3.984  16.212  0.3400 -0.3826  0.5312
  925MPD2     C13532   4.336   1.747  14.772  0.7834  0.1157 -0.3480
  925MPD2    C113533   4.214   1.683  14.751  0.0174 -0.8324 -0.3988
  925MPD2    C213534   4.161   1.615  14.859  0.2126 -0.0182  0.2719
  925MPD2    C313535   4.243   1.589  14.974  0.9347  0.6681  0.2018
  925MPD2    C413536   4.373   1.624  14.966  0.5646  0.7653  0.6882
  925MPD2    C513537   4.418   1.707  14.870 -0.1844  0.1626  0.0460
  925MPD2     H13538   4.060   1.578  14.847 -0.9259  3.2142 -0.2718
  925MPD2    H113539   4.439   1.591  15.045 -1.3413  0.5404  2.1709
  925MPD2    H213540   4.380   1.818  14.703  2.5709 -2.4473 -1.8651
  925MPD2    H313541   4.516   1.747  14.890 -0.3191  0.4985  0.0354
  925MPD2     N13542   4.197   1.523  15.090 -0.1587 -0.0754 -0.0547
  925MPD2    H513543   4.264   1.495  15.160 -1.4857  0.5295  1.4397
  925MPD2    N113544   4.144   1.694  14.623 -0.2196 -0.7047 -0.2718
  925MPD2    H713545   4.051   1.655  14.618 -0.9455  0.8023  1.1828
  926MPD2     C13546   3.276   4.522  13.281  0.1055  0.3401  0.3983
  926MPD2    C113547   3.274   4.637  13.363  0.0036 -0.0490 -0.3758
  926MPD2    C213548   3.353   0.020  13.326 -0.4018  0.2469  0.6751
  926MPD2    C313549   3.424   0.020  13.207 -0.2914  0.0975 -0.3620
  926MPD2    C413550   3.410   4.639  13.125  0.3784 -0.0584 -0.0794
  926MPD2    C513551   3.344   4.524  13.163 -0.4887  0.7429 -0.3737
  926MPD2     H13552   3.351   0.115  13.378  2.4632  0.3037  0.6919
  926MPD2    H113553   3.466   4.630  13.033 -1.3090 -5.0269 -0.6554
  926MPD2    H213554   3.216   4.436  13.307  1.6586 -0.5577  1.0210
  926MPD2    H313555   3.344   4.445  13.089 -2.3765  0.7276 -0.3747
  926MPD2     N13556   3.500   0.129  13.158 -0.1197  0.5604  1.2454
  926MPD2    H513557   3.552   0.118  13.071 -0.4971 -2.4188  1.3912
  926MPD2    N113558   3.213   4.644  13.486 -0.2573  1.0280 -0.3219
  926MPD2    H713559   3.226   4.724  13.546  2.9316  0.5115 -0.3465
  927MPD2     C13560   2.323   1.941   0.171 -0.4922 -0.2964  0.5008
  927MPD2    C113561   2.377   2.061   0.144 -0.0835 -0.1651  0.0622
  927MPD2    C213562   2.424   2.085   0.013  0.3054 -0.2989 -0.1217
  927MPD2    C313563   2.445   1.985  17.640  0.9236  0.6169 -0.7076
  927MPD2    C413564   2.397   1.859  17.670 -0.3359 -0.0045  0.7713
  927MPD2    C513565   2.326   1.852   0.071  0.2057 -0.0607  0.4579
  927MPD2     H13566   2.455   2.182  17.694 -0.0839 -0.3891 -0.7034
  927MPD2    H113567   2.396   1.782  17.594 -0.7310  0.4228  0.3494
  927MPD2    H213568   2.292   1.910   0.270 -2.6316  1.9823  0.5231
  927MPD2    H313569   2.286   1.758   0.109 -2.8005  0.9266 -0.3078
  927MPD2     N13570   2.506   2.032  17.522 -0.2232  0.2257  0.8408
  927MPD2    H513571   2.521   2.132  17.511 -1.8070  0.1250 -2.2662
  927MPD2    N113572   2.350   2.165   0.235  0.1442 -0.2317 -0.1515
  927MPD2    H713573   2.330   2.137   0.330 -0.1050  1.2212  0.2158
  928MPD2     C13574   4.498   0.019   0.358 -0.1120 -0.2522  0.0890
  928MPD2    C113575   4.538   0.132   0.433 -0.0329  0.4608 -0.2099
  928MPD2    C213576   4.667   0.167   0.420  0.1951  0.4591 -0.1687
  928MPD2    C313577   0.023   0.107   0.329  0.3567 -0.3170  0.6092
  928MPD2    C413578   4.706   0.013   0.240  0.5060 -0.3154  0.2999
  928MPD2    C513579   4.581   4.699   0.259 -0.4046  0.6581  0.3810
  928MPD2     H13580   4.715   0.246   0.477  0.6153 -1.1112  1.6569
  928MPD2    H113581   0.039   4.705   0.158  1.7181  0.9478  0.6469
  928MPD2    H213582   4.393   4.722   0.361 -0.0115 -0.5703  0.8257
  928MPD2    H313583   4.521   4.634   0.196 -1.7407  0.0840  2.2602
  928MPD2     N13584   0.157   0.153   0.303 -0.4443 -0.3148  0.3542
  928MPD2    H513585   0.200   0.118   0.218 -1.9098 -0.1174 -0.4633
  928MPD2    N113586   4.450   0.180   0.535  0.2762  0.0279  0.0691
  928MPD2    H713587   4.365   0.132   0.562  0.4228 -0.5701 -0.5487
  929MPD2     C13588   0.569   0.969  10.159 -0.0434  0.3348 -0.7332
  929MPD2    C113589   0.471   0.906  10.227 -0.0736 -0.1211 -0.7923
  929MPD2    C213590   0.358   0.975  10.270  0.0092  0.2264 -0.0559
  929MPD2    C313591   0.351   1.114  10.250  0.1841 -0.0618  0.0381
  929MPD2    C413592   0.437   1.175  10.171 -0.1170  0.4851  0.3070
  929MPD2    C513593   0.542   1.101  10.128 -0.4784  0.5747 -0.2087
  929MPD2     H13594   0.305   0.932  10.353 -1.4383  0.0649 -1.0694
  929MPD2    H113595   0.425   1.278  10.141  0.2887  0.3546 -0.3186
  929MPD2    H213596   0.654   0.916  10.119 -1.4043 -1.6104 -1.0284
  929MPD2    H313597   0.618   1.156  10.074 -0.6535  0.2192 -0.8143
  929MPD2     N13598   0.269   1.197  10.327 -0.3040  0.3816 -0.2909
  929MPD2    H513599   0.297   1.294  10.325 -1.2159  0.6537  0.1991
  929MPD2    N113600   0.490   0.768  10.258 -0.1787  0.4171  0.2469
  929MPD2    H713601   0.578   0.722  10.236  0.1954  0.6360  1.2992
  930MPD2     C13602   2.855   1.942  13.572  0.3344 -0.3152 -0.4614
  930MPD2    C113603   2.942   2.018  13.644 -0.3017  0.6766  0.4110
  930MPD2    C213604   3.026   2.106  13.576  0.3972  0.0720  0.3283
  930MPD2    C313605   3.010   2.119  13.437 -0.1686  0.2932 -0.0656
  930MPD2    C413606   2.921   2.036  13.365  0.2697  0.2707  0.1118
  930MPD2    C513607   2.842   1.950  13.439  0.7117  0.1854  0.2827
  930MPD2     H13608   3.094   2.174  13.627 -0.0547  1.3738 -0.7999
  930MPD2    H113609   2.925   2.043  13.257  1.1804 -0.6456  0.0781
  930MPD2    H213610   2.775   1.888  13.623  0.1821  0.0540 -0.3120
  930MPD2    H313611   2.787   1.876  13.382 -0.1872  1.2185 -0.1851
  930MPD2     N13612   3.085   2.211  13.359 -0.0019  0.3738 -0.5240
  930MPD2    H513613   3.074   2.216  13.258 -2.5495  0.9905 -0.2193
  930MPD2    N113614   2.922   2.022  13.786  0.0992 -0.9139 -0.3866
  930MPD2    H713615   2.827   2.011  13.820  0.8246 -2.5247  1.1282
  931MPD2     C13616   1.969   2.499   0.903 -0.0388  0.2430 -0.4701
  931MPD2    C113617   2.005   2.409   0.802  0.3628  0.2209  0.0708
  931MPD2    C213618   1.940   2.278   0.804 -0.3262 -0.1135 -0.6048
  931MPD2    C313619   1.838   2.253   0.887  0.0135 -0.2348  0.2057
  931MPD2    C413620   1.796   2.347   0.976  0.1689 -0.1992  0.2603
  931MPD2    C513621   1.863   2.465   0.976  0.3299 -0.0026 -0.2872
  931MPD2     H13622   1.971   2.209   0.727 -0.9202 -0.6010 -0.4064
  931MPD2    H113623   1.715   2.327   1.045 -1.1741 -0.4655 -1.3877
  931MPD2    H213624   2.018   2.594   0.922 -0.4287  0.7743 -2.1420
  931MPD2    H313625   1.845   2.536   1.056  1.5599  1.0444 -0.9534
  931MPD2     N13626   1.778   2.132   0.892 -0.2954 -0.5121 -0.5734
  931MPD2    H513627   1.696   2.129   0.952 -0.6417  1.8481 -0.9226
  931MPD2    N113628   2.121   2.445   0.726 -0.8418  0.0814  0.2471
  931MPD2    H713629   2.161   2.538   0.733  0.5409 -0.5986  1.2391
  932MPD2     C13630   0.019   1.550  11.417  0.1488 -0.1836  0.2084
  932MPD2    C113631   0.103   1.457  11.470 -0.4340 -0.0341 -0.2227
  932MPD2    C213632   0.048   1.352  11.543  0.3381 -0.1735 -0.2913
  932MPD2    C313633   4.641   1.352  11.568  0.3240  0.3169 -0.5657
  932MPD2    C413634   4.558   1.449  11.517 -0.0300  0.6631  0.2504
  932MPD2    C513635   4.617   1.550  11.445  0.0638  0.3613 -0.3757
  932MPD2     H13636   0.115   1.284  11.595 -1.2056 -1.2358  0.2812
  932MPD2    H113637   4.450   1.448  11.530  0.1872  1.2833  2.1651
  932MPD2    H213638   0.052   1.641  11.369  0.8602 -0.7086 -0.2957
  932MPD2    H313639   4.552   1.632  11.416 -1.2161 -0.5636 -0.1621
  932MPD2     N13640   4.570   1.248  11.638  0.0546 -0.6592 -0.3417
  932MPD2    H513641   4.475   1.267  11.668  0.1984 -0.1470 -0.2177
  932MPD2    N113642   0.246   1.465  11.447 -0.1158 -0.0074 -0.4941
  932MPD2    H713643   0.311   1.425  11.513 -1.6825  1.4286  1.9057
  933MPD2     C13644   4.131   0.558   1.316 -0.0853 -0.3453 -0.6587
  933MPD2    C113645   4.245   0.578   1.234  0.4388 -0.9226 -0.5356
  933MPD2    C213646   4.334   0.679   1.265 -0.1591  0.0613 -0.5463
  933MPD2    C313647   4.307   0.764   1.370  0.1888 -0.2316  0.1698
  933MPD2    C413648   4.187   0.756   1.429  0.4968  0.3164 -0.4070
  933MPD2    C513649   4.102   0.653   1.409  0.0704  0.3726  0.0108
  933MPD2     H13650   4.428   0.691   1.212  0.3072 -2.7660 -0.4068
  933MPD2    H113651   4.154   0.825   1.505  0.6794 -3.5514  3.2072
  933MPD2    H213652   4.062   0.477   1.299 -0.2784 -0.1931 -0.5955
  933MPD2    H313653   4.008   0.643   1.463  0.8915 -0.2793  1.2992
  933MPD2     N13654   4.400   0.868   1.397 -1.3250 -0.1087  0.6184
  933MPD2    H513655   4.490   0.884   1.352 -2.4098  0.2222 -1.3948
  933MPD2    N113656   4.256   0.499   1.122 -0.3890  0.2058  0.3218
  933MPD2    H713657   4.181   0.432   1.111  1.4338 -1.4891 -1.6596
  934MPD2     C13658   1.878   2.931   1.146 -0.2768  0.0330 -0.3478
  934MPD2    C113659   1.797   2.998   1.236 -0.6132  0.0612  0.1851
  934MPD2    C213660   1.657   2.982   1.217 -0.4009  0.8624 -0.8572
  934MPD2    C313661   1.606   2.914   1.113  0.3879  0.8865  0.0621
  934MPD2    C413662   1.688   2.855   1.023  0.2372  0.0274 -0.6742
  934MPD2    C513663   1.819   2.852   1.047  0.0478  0.3079  0.2636
  934MPD2     H13664   1.589   3.030   1.286  0.2164  0.8889 -0.2705
  934MPD2    H113665   1.645   2.796   0.943  1.0831 -0.3958 -0.8174
  934MPD2    H213666   1.986   2.928   1.154 -0.1511  0.0094 -2.1966
  934MPD2    H313667   1.884   2.800   0.977  2.3321  0.1642  2.4681
  934MPD2     N13668   1.464   2.885   1.096  0.0296 -0.7375  0.5647
  934MPD2    H513669   1.439   2.811   1.031  0.6427  0.0800 -0.6058
  934MPD2    N113670   1.841   3.077   1.340 -0.5949 -0.0062 -0.9125
  934MPD2    H713671   1.783   3.102   1.419  1.4280  1.8488  0.0007
  935MPD2     C13672   1.362   2.062   1.180 -0.8668 -0.1606 -0.0827
  935MPD2    C113673   1.250   2.086   1.105  0.5641  0.3427 -0.2801
  935MPD2    C213674   1.214   2.216   1.082  0.1462 -0.1086 -0.2412
  935MPD2    C313675   1.287   2.320   1.138  1.1040  0.1415 -0.1761
  935MPD2    C413676   1.405   2.291   1.201 -0.2163 -0.4830 -0.3969
  935MPD2    C513677   1.437   2.163   1.229 -0.1400  0.1402  0.3570
  935MPD2     H13678   1.123   2.227   1.023 -2.0709  0.5074  3.2417
  935MPD2    H113679   1.466   2.369   1.246  0.1491 -0.9359 -0.1159
  935MPD2    H213680   1.404   1.962   1.193  1.5674  1.0385  1.1615
  935MPD2    H313681   1.524   2.141   1.290  0.5938  1.1482 -0.3129
  935MPD2     N13682   1.256   2.455   1.127  0.4871 -1.1523  0.6475
  935MPD2    H513683   1.334   2.514   1.156 -1.1974 -0.1554  3.1532
  935MPD2    N113684   1.178   1.981   1.039  0.6676  0.1155 -0.0624
  935MPD2    H713685   1.098   2.000   0.980  1.1932  1.1313 -0.4467
  936MPD2     C13686   0.118   4.270  12.507 -0.6424  0.7705 -0.2327
  936MPD2    C113687   0.191   4.261  12.626 -0.0704 -0.5684  0.7146
  936MPD2    C213688   0.319   4.315  12.629 -0.3224  0.0184  0.4714
  936MPD2    C313689   0.374   4.370  12.513 -0.0748  0.4421  0.0037
  936MPD2    C413690   0.297   4.383  12.400  0.0837  0.2533  0.3344
  936MPD2    C513691   0.168   4.335  12.397 -0.7501 -0.2918  0.4900
  936MPD2     H13692   0.373   4.314  12.723 -0.8717 -0.5763  0.7857
  936MPD2    H113693   0.333   4.438  12.314 -1.2765 -2.1478 -1.7716
  936MPD2    H213694   0.019   4.228  12.502  0.1298 -1.1650  0.8266
  936MPD2    H313695   0.102   4.342  12.311  0.7370  2.7946 -0.3899
  936MPD2     N13696   0.507   4.415  12.510  0.4566  0.6011  0.3633
  936MPD2    H513697   0.538   4.469  12.430  1.7782 -1.6870 -0.6862
  936MPD2    N113698   0.140   4.177  12.729 -0.0258 -0.2405 -0.4981
  936MPD2    H713699   0.045   4.144  12.715  0.4306 -1.6125 -0.2706
  937MPD2     C13700   3.176   1.174  11.633 -0.1989  1.5181 -0.0962
  937MPD2    C113701   3.156   1.308  11.646  0.0237  0.7456  0.6119
  937MPD2    C213702   3.215   1.385  11.552 -0.6200 -0.4795  0.0489
  937MPD2    C313703   3.268   1.342  11.426  0.6301  0.5534  0.1454
  937MPD2    C413704   3.262   1.205  11.404 -0.0269 -1.0065 -0.0297
  937MPD2    C513705   3.228   1.128  11.514  0.3487  0.5852  0.0990
  937MPD2     H13706   3.229   1.492  11.565 -1.0739 -0.4993  0.6879
  937MPD2    H113707   3.284   1.149  11.314 -2.0475 -1.6987 -0.0929
  937MPD2    H213708   3.150   1.099  11.707 -0.2655  0.0358 -1.6324
  937MPD2    H313709   3.236   1.020  11.504  1.5706  0.6386  0.4984
  937MPD2     N13710   3.344   1.425  11.342  0.3788 -0.5933 -0.1983
  937MPD2    H513711   3.390   1.509  11.376  0.7698 -0.6909 -0.4944
  937MPD2    N113712   3.108   1.358  11.766 -0.0601  0.1102  0.1765
  937MPD2    H713713   3.095   1.459  11.771  2.1045  0.3948  0.2149
  938MPD2     C13714   0.075   1.991   0.885  0.3183  0.2929  0.6254
  938MPD2    C113715   0.175   2.059   0.945 -0.0477 -0.1334 -0.3623
  938MPD2    C213716   0.229   2.030   1.067  0.1482 -0.6400  0.2245
  938MPD2    C313717   0.174   1.919   1.133 -0.3726  0.2415 -0.1798
  938MPD2    C413718   0.083   1.834   1.065  0.5596  0.1521 -0.6301
  938MPD2    C513719   0.018   1.886   0.953  0.4208  0.0355 -0.0376
  938MPD2     H13720   0.320   2.080   1.099 -1.1368  0.3988  2.2507
  938MPD2    H113721   0.037   1.758   1.128  1.3021  0.1472 -0.1046
  938MPD2    H213722   0.032   2.024   0.792 -0.2877 -1.5464  0.2537
  938MPD2    H313723   4.659   1.836   0.913  0.4457  2.2708 -2.9296
  938MPD2     N13724   0.201   1.888   1.270  0.5085  0.6259 -0.0932
  938MPD2    H513725   0.149   1.808   1.306  0.9548  0.0318 -0.7880
  938MPD2    N113726   0.218   2.181   0.878 -0.3487  0.9394 -0.3675
  938MPD2    H713727   0.171   2.213   0.794 -0.4714 -0.3739 -0.8073
  939MPD2     C13728   1.969   3.459   0.827 -0.3186 -0.1786 -0.4119
  939MPD2    C113729   1.942   3.591   0.863  0.4237 -0.3899  0.5514
  939MPD2    C213730   2.038   3.680   0.833 -0.6878 -0.0652  0.2693
  939MPD2    C313731   2.154   3.648   0.767 -0.1208  0.1136 -0.2722
  939MPD2    C413732   2.178   3.515   0.729  0.7756 -0.3654 -0.5407
  939MPD2    C513733   2.087   3.422   0.769 -0.3500  0.2867 -0.3582
  939MPD2     H13734   2.019   3.784   0.853  1.0051  0.2254  0.3977
  939MPD2    H113735   2.271   3.473   0.692  0.3016  0.0309 -2.1916
  939MPD2    H213736   1.904   3.377   0.856 -0.2366  0.4394  1.5507
  939MPD2    H313737   2.113   3.319   0.749  1.1090  0.2958  1.4451
  939MPD2     N13738   2.252   3.745   0.733  0.2543 -0.6851  0.4078
  939MPD2    H513739   2.244   3.836   0.778 -1.3200 -0.1670 -0.9018
  939MPD2    N113740   1.825   3.625   0.933  0.0538 -0.1393 -0.6297
  939MPD2    H713741   1.756   3.551   0.936  0.2654 -0.3243 -0.3694
  940MPD2     C13742   0.920   4.247  13.366  0.5349  0.0930 -0.1994
  940MPD2    C113743   1.059   4.278  13.375  0.6053  0.7492  0.0531
  940MPD2    C213744   1.132   4.284  13.255  0.6389  0.9706  0.5876
  940MPD2    C313745   1.068   4.273  13.132  0.2659  0.7295 -0.1830
  940MPD2    C413746   0.943   4.216  13.128 -0.4212 -0.4046 -0.5272
  940MPD2    C513747   0.864   4.213  13.242 -0.4068 -0.1448  0.0070
  940MPD2     H13748   1.235   4.316  13.252  0.4338  1.9397  3.8673
  940MPD2    H113749   0.896   4.185  13.035 -1.7634  0.7465 -0.2268
  940MPD2    H213750   0.861   4.245  13.456 -0.9737 -0.4622 -1.2038
  940MPD2    H313751   0.758   4.198  13.224 -0.7306  1.4413  0.6610
  940MPD2     N13752   1.135   4.278  13.007 -0.3336  0.3898 -0.2777
  940MPD2    H513753   1.083   4.261  12.921 -1.0798 -0.9720  0.4556
  940MPD2    N113754   1.134   4.307  13.496  0.0544 -1.2333 -0.1920
  940MPD2    H713755   1.236   4.306  13.489  0.1082  0.5407  0.2143
  941MPD2     C13756   0.212   3.718   9.657 -0.7088 -0.7254 -0.3524
  941MPD2    C113757   0.271   3.738   9.783  0.4689 -0.6769 -0.1245
  941MPD2    C213758   0.268   3.641   9.881  0.5366  0.0825 -0.3790
  941MPD2    C313759   0.205   3.520   9.866  0.4108 -0.1423  0.5607
  941MPD2    C413760   0.143   3.499   9.742 -0.1013 -0.2835  0.4345
  941MPD2    C513761   0.141   3.598   9.642 -0.3023 -0.4996  0.5696
  941MPD2     H13762   0.310   3.661   9.978  0.0537  1.6917 -0.5010
  941MPD2    H113763   0.069   3.422   9.724  0.6187 -0.9151  0.1726
  941MPD2    H213764   0.211   3.791   9.577  2.5809 -0.4374 -0.1352
  941MPD2    H313765   0.080   3.577   9.555 -0.3915 -0.5193  0.6370
  941MPD2     N13766   0.184   3.430   9.975 -0.5070  0.1648 -0.3992
  941MPD2    H513767   0.131   3.346   9.957 -1.8255  1.1378 -1.0336
  941MPD2    N113768   0.337   3.857   9.823 -0.4478  0.0940 -0.0286
  941MPD2    H713769   0.367   3.872   9.919 -0.6519  1.6841 -0.2201
  942MPD2     C13770   4.662   4.583   9.980  0.0679  0.2448  0.4593
  942MPD2    C113771   4.578   4.599   9.872 -0.3966  0.1363  0.3803
  942MPD2    C213772   4.548   4.726   9.832 -0.1732  0.7533  0.0736
  942MPD2    C313773   4.584   0.112   9.904  0.3989  0.1102  0.8306
  942MPD2    C413774   4.677   0.093  10.006  0.4689  0.5606 -0.0236
  942MPD2    C513775   4.711   4.691  10.046 -0.1783 -0.8006  0.0783
  942MPD2     H13776   4.488   0.000   9.742 -1.2648 -2.0428  0.6948
  942MPD2    H113777   4.717   0.177  10.062  1.5644  1.0884 -1.5788
  942MPD2    H213778   4.696   4.489  10.020  0.6391  0.3944  0.3238
  942MPD2    H313779   0.052   4.684  10.129  0.0076  1.4342  0.1064
  942MPD2     N13780   4.551   0.247   9.868  0.9992  0.1131 -0.2434
  942MPD2    H513781   4.576   0.321   9.933 -1.0661  0.6485 -0.0849
  942MPD2    N113782   4.517   4.494   9.803  0.1922  0.3178 -0.5890
  942MPD2    H713783   4.460   4.516   9.722 -0.3062 -0.3189 -0.4116
  943MPD2     C13784   3.631   3.225   9.671  0.6313 -0.3797  0.8052
  943MPD2    C113785   3.640   3.344   9.746  0.0803 -0.0171  0.0551
  943MPD2    C213786   3.652   3.466   9.671  0.2885 -0.8527  0.5662
  943MPD2    C313787   3.666   3.468   9.534  0.6931  0.2186  0.1237
  943MPD2    C413788   3.646   3.351   9.458 -0.8199 -0.2150 -0.0678
  943MPD2    C513789   3.639   3.232   9.532  0.0965 -0.4139  1.2217
  943MPD2     H13790   3.654   3.564   9.718 -0.1730 -0.4353 -0.2961
  943MPD2    H113791   3.650   3.347   9.350  0.1917 -0.5869 -0.0154
  943MPD2    H213792   3.618   3.131   9.722  0.6209 -0.0875  1.3336
  943MPD2    H313793   3.617   3.140   9.481  0.9733 -0.1804  0.4226
  943MPD2     N13794   3.693   3.587   9.461 -0.0492  0.1830 -0.0800
  943MPD2    H513795   3.677   3.583   9.360 -2.6740  1.1699  0.2803
  943MPD2    N113796   3.609   3.331   9.882  0.6886  0.0432 -0.4163
  943MPD2    H713797   3.619   3.237   9.917 -0.7747  0.8179  2.0964
  944MPD2     C13798   3.558   2.429  11.037 -0.0049  0.7350 -0.2050
  944MPD2    C113799   3.669   2.503  10.996 -0.0058 -0.7643  0.3396
  944MPD2    C213800   3.685   2.630  11.049 -0.5391  0.5855 -1.6458
  944MPD2    C313801   3.593   2.692  11.130  0.0803  0.4140  0.3303
  944MPD2    C413802   3.478   2.621  11.158 -0.4324  0.0717  0.3005
  944MPD2    C513803   3.465   2.496  11.108  0.3463  0.3007 -0.4649
  944MPD2     H13804   3.769   2.692  11.019 -2.5224  4.5886  1.0283
  944MPD2    H113805   3.393   2.661  11.214 -1.8031 -0.5352 -1.3348
  944MPD2    H213806   3.535   2.330  10.999  2.6195 -0.4743  1.3376
  944MPD2    H313807   3.377   2.441  11.140  0.1499  0.5602 -0.5507
  944MPD2     N13808   3.615   2.825  11.173 -0.3169 -0.0487 -0.0038
  944MPD2    H513809   3.686   2.876  11.120  0.0207  2.9977  3.4030
  944MPD2    N113810   3.760   2.434  10.903  0.0059 -0.2729  0.5272
  944MPD2    H713811   3.740   2.340  10.871  0.5711  0.1511 -1.0619
    1TCq1    O113812   1.981   2.968  13.823  1.1559 -0.3015 -0.3070
    1TCq1    C113813   1.985   3.085  13.765  0.1445 -0.5782 -0.4467
    1TCq1    O213814   2.076   3.121  13.695 -0.0935 -0.7543 -0.4618
    1TCq1    C213815   1.920   3.170  13.862  0.4571  0.0557 -0.7154
    1TCq1    C313816   1.786   3.168  13.864 -0.3096 -0.3067 -0.0936
    1TCq1    C413817   1.722   3.203  13.975  0.5545 -0.4588 -0.4707
    1TCq1    C513818   1.790   3.271  14.074  0.0418  0.5703 -0.6011
    1TCq1    C613819   1.925   3.256  14.079 -0.0698  0.4483  0.5247
    1TCq1    C713820   1.997   3.203  13.972 -1.1402  0.2957 -1.0078
    1TCq1    C813821   1.995   3.281  14.203 -0.0066  0.5881  0.4226
    1TCq1    O413822   2.087   3.207  14.230  0.0054  0.5368  0.3188
    1TCq1    C913823   1.580   3.205  13.982 -0.0002  0.9982 -0.2037
    1TCq1    O513824   1.533   3.210  14.098 -0.5778  0.0825  0.4309
    1TCq1    O613825   1.518   3.160  13.885 -0.2009 -0.2532 -0.5670
    1TCq1    H113826   1.895   2.965  13.869  1.1057  1.2905 -0.3042
    1TCq1    H213827   1.724   3.117  13.791 -0.5135  0.4425 -0.4466
    1TCq1    H313828   1.729   3.309  14.155  2.3868  1.0484  0.9563
    1TCq1    H413829   2.104   3.189  13.976 -1.1575  0.4133 -0.2065
    2MPD2     C13830   2.067   3.583  14.606  0.6342  0.5683 -0.4311
    2MPD2    C113831   1.969   3.641  14.534  0.1152 -0.4019 -0.1189
    2MPD2    C213832   1.925   3.566  14.420  0.0795 -0.1661 -0.8271
    2MPD2    C313833   1.987   3.449  14.383 -0.2714 -0.0331 -0.3756
    2MPD2    C413834   2.090   3.391  14.459  0.5409  0.2862  0.1254
    2MPD2    C513835   2.131   3.468  14.567 -0.1278 -0.3247  0.4518
    2MPD2     H13836   1.837   3.603  14.369 -2.1770 -2.2706  1.5277
    2MPD2    H113837   2.138   3.296  14.440  0.3350  0.1999  0.0410
    2MPD2    H213838   2.099   3.633  14.697  3.2195  0.0370 -1.0634
    2MPD2    H313839   2.212   3.431  14.629 -0.0921 -1.3622 -0.2280
    2MPD2     N13840   1.936   3.391  14.267 -0.4739 -0.6996 -0.3662
    2MPD2    H513841   1.856   3.433  14.220  0.7881  0.0273 -1.8617
    2MPD2    N113842   1.916   3.768  14.571  0.4603  0.2735  0.6304
    2MPD2    H713843   1.959   3.813  14.651  1.0996 -0.7636  0.8699
    3TMC2    C113844   1.801   3.973  14.549  0.4829 -0.3439  0.9537
    3TMC2    C213845   1.867   4.026  14.655 -0.3831 -0.4509 -0.0139
    3TMC2    C313846   1.853   4.159  14.671  0.1814  0.4285 -0.9059
    3TMC2    C413847   1.719   4.049  14.465  0.4340  0.5376  0.2478
    3TMC2    C513848   1.701   4.183  14.498 -1.1421 -1.0853  0.2994
    3TMC2    C613849   1.766   4.239  14.603  0.5076  0.1507  0.0257
    3TMC2     C13850   1.810   3.835  14.506  0.4932 -0.1803 -0.1331
    3TMC2     O13851   1.744   3.803  14.411  0.1105 -0.7142 -0.4667
    3TMC2     H13852   1.930   3.966  14.720  0.4202  0.8988  0.4675
    3TMC2    H113853   1.652   4.001  14.394  1.7202  1.0110 -1.2843
    3TMC2    H213854   1.750   4.344  14.625 -0.2922 -0.4577  2.3337
    3TMC2    C713855   1.655   4.277  14.395  0.4347 -1.3887 -0.2524
    3TMC2    C813856   1.893   4.209  14.798  0.3776  0.3300 -0.1281
    3TMC2    O113857   1.617   4.389  14.429  0.0380  0.2459  0.2826
    3TMC2    O213858   1.836   4.303  14.851 -0.4810  1.1404 -0.2625
    3TMC2    O513859   2.025   4.209  14.801 -0.4608 -0.5053  0.1035
    3TMC2    H513860   2.066   4.139  14.747  0.1595  0.1980 -0.3390
    4MPD2     C13861   0.767   0.291  14.233  0.6899 -0.4037  0.0148
    4MPD2    C113862   0.835   0.169  14.252  0.0525  1.0271 -0.0509
    4MPD2    C213863   0.967   0.166  14.212 -0.1703 -0.7680  0.4897
    4MPD2    C313864   1.032   0.269  14.151  0.1713  1.3574 -0.0176
    4MPD2    C413865   0.962   0.382  14.135 -0.6536  0.6439 -0.0271
    4MPD2    C513866   0.833   0.394  14.179  0.6200  0.4369 -0.2825
    4MPD2     H13867   1.024   0.077  14.235  0.2887 -0.6860 -0.3098
    4MPD2    H113868   0.997   0.469  14.081  0.7819  0.1258  0.0469
    4MPD2    H213869   0.664   0.309  14.260  1.5172  3.1092  0.7861
    4MPD2    H313870   0.777   0.484  14.154 -1.5831 -1.7117 -3.0793
    4MPD2     N13871   1.170   0.262  14.111  0.2040  0.2400  0.2684
    4MPD2    H513872   1.222   0.177  14.127 -1.1541 -0.5116  0.7368
    4MPD2    N113873   0.764   0.059  14.314 -0.0493 -0.4974  0.4084
    4MPD2    H713874   0.666   0.070  14.341  0.4203  2.4733  0.9418
    5TCq2    C113875   1.241   0.349  14.032 -0.2794  0.5894  0.4097
    5TCq2    O213876   1.209   0.447  13.969 -0.1094 -0.3156  0.1481
    5TCq2    C213877   1.369   0.290  14.015 -0.6946  0.2994 -0.8057
    5TCq2    C313878   1.445   0.350  13.915  0.3369  0.1315 -0.4209
    5TCq2    C413879   1.559   0.284  13.871 -0.1260 -0.0797 -0.1072
    5TCq2    C513880   1.603   0.168  13.931  0.1404  0.2160  0.3719
    5TCq2    C613881   1.523   0.118  14.028 -0.1184  0.2489  0.6190
    5TCq2    C713882   1.407   0.178  14.080  0.4149  0.0159 -0.1093
    5TCq2    C813883   1.549   4.720  14.085  0.2291 -0.0371 -0.6208
    5TCq2    O413884   1.516   4.703  14.202  0.1467  0.3218 -0.3491
    5TCq2    C913885   1.633   0.339  13.759 -0.6043  1.0942 -0.1012
    5TCq2    O513886   1.723   0.266  13.715  0.2470  0.5660 -0.2370
    5TCq2    O613887   1.595   0.443  13.703 -0.5453  0.0753  0.0884
    5TCq2    H213888   1.413   0.445  13.873  1.8761 -0.0355 -1.9550
    5TCq2    H313889   1.700   0.127  13.902  1.0664  1.6495  1.4387
    5TCq2    H413890   1.357   0.123  14.159  1.2390 -1.5123 -0.6582
    6MPD1     C13891   4.000   0.191  13.504  0.1172 -0.0999  0.4205
    6MPD1    C113892   3.974   0.116  13.615  0.0146 -0.5583  0.1054
    6MPD1    C213893   4.077   0.057  13.686 -0.3549  0.6032 -0.6784
    6MPD1    C313894   4.206   0.067  13.628 -0.7555 -0.2268  0.2082
    6MPD1    C413895   4.232   0.118  13.509 -0.3970  0.7736  0.0014
    6MPD1    C513896   4.127   0.186  13.442  0.7420 -0.0470 -0.2183
    6MPD1     H13897   4.050   4.724  13.771  1.6929 -0.2771 -0.6629
    6MPD1    H113898   4.328   0.118  13.459 -0.4280  2.0779 -0.0389
    6MPD1    H213899   3.921   0.249  13.459  0.0056 -0.1660  0.5317
    6MPD1    H313900   4.146   0.238  13.349 -0.5641  0.9931  0.0896
    6MPD1     N13901   4.315   0.013  13.701 -0.5255 -0.5061  0.4230
    6MPD1    H513902   4.408   0.048  13.681 -0.5296 -0.2957  0.7688
    6MPD1    N113903   3.845   0.131  13.667  0.6184 -0.0729 -0.4440
    6MPD1    H613904   3.776   0.139  13.593 -0.0846 -0.7487  0.1405
    6MPD1    H713905   3.824   0.055  13.732 -2.6141  1.7140  0.5996
    7MPD2     C13906   4.707   0.075  14.466 -0.3774 -0.0900 -0.6893
    7MPD2    C113907   0.027   0.001  14.363  0.2851  0.2950  0.5743
    7MPD2    C213908   0.150   4.672  14.383 -0.1178 -0.0625 -0.5989
    7MPD2    C313909   0.222   4.681  14.494  0.1157  0.5549 -0.0901
    7MPD2    C413910   0.176   0.036  14.598  0.5148  0.7145  0.4720
    7MPD2    C513911   0.056   0.096  14.574 -0.5251 -0.1328 -0.3230
    7MPD2     H13912   0.184   4.610  14.301 -0.1201  0.0286 -0.6698
    7MPD2    H113913   0.220   0.059  14.694 -0.0076  2.4504  0.2959
    7MPD2    H213914   4.622   0.142  14.459 -0.2461  0.2013  0.3768
    7MPD2    H313915   0.029   0.173  14.645  1.4251 -0.6733  1.0101
    7MPD2     N13916   0.344   4.602  14.498  0.6155  0.1979  0.4758
    7MPD2    H513917   0.357   4.554  14.409 -2.3143  0.3648 -0.0423
    7MPD2    N113918   4.689   4.708  14.243 -0.3633 -0.5213  0.0077
    7MPD2    H713919   0.010   4.655  14.173  2.9347  0.2054  1.7831
    8TMC3    C113920   0.544   4.525  14.540 -0.4512  0.2583 -0.7243
    8TMC3    C213921   0.647   4.602  14.502  0.0455  0.3155  0.2445
    8TMC3    C313922   0.702   4.576  14.378  0.3706  0.1041 -0.3761
    8TMC3    C413923   0.503   4.416  14.465 -0.2526 -0.1079 -0.2638
    8TMC3    C513924   0.563   4.386  14.344  0.0674 -0.2880 -0.2451
    8TMC3    C613925   0.664   4.469  14.300  0.0913 -0.4475 -0.0129
    8TMC3     C13926   0.439   4.597  14.600  0.0910 -0.1316  0.1779
    8TMC3     O13927   0.449   4.665  14.701 -0.3381  0.5010 -0.1407
    8TMC3     H13928   0.681   4.691  14.554  0.8222  0.4770 -0.5222
    8TMC3    H113929   0.410   4.369  14.495 -1.0081  1.3111 -0.3315
    8TMC3    H213930   0.723   4.452  14.210 -0.7220  1.5986 -0.9388
    8TMC3    C713931   0.461   4.374  14.244  0.5604  0.3710  0.2141
    8TMC3    C813932   0.808   4.663  14.328 -0.2588  0.3483 -0.3015
    8TMC3    O113933   0.345   4.387  14.284  0.4456  0.0297 -0.3453
    8TMC3    O213934   0.897   4.609  14.265 -0.4176  0.0259 -0.5272
    9TMC3    C113935   4.423   4.627  13.881  0.4690 -0.7341  0.4719
    9TMC3    C213936   4.540   4.622  13.810  0.3926 -0.2261 -0.3979
    9TMC3    C313937   4.658   4.663  13.866 -0.1110  0.0209 -0.4868
    9TMC3    C413938   4.425   4.662  14.012  0.0169 -0.3033 -1.1235
    9TMC3    C513939   4.543   4.707  14.066  0.7189  0.0598  0.2459
    9TMC3    C613940   4.665   4.706  13.994 -0.0797  0.1616  0.0565
    9TMC3     C13941   4.307   4.649  13.803  0.6319 -0.0156  0.6677
    9TMC3     O13942   4.213   4.598  13.857 -0.3930  0.0632 -0.1229
    9TMC3     H13943   4.535   4.595  13.706  1.6584 -0.0916 -0.4995
    9TMC3    H113944   4.337   4.660  14.075 -0.9151 -1.8219 -2.4612
    9TMC3    H213945   0.033   0.010  14.030 -0.2208 -0.5113  1.0535
    9TMC3    C713946   4.561   0.014  14.206  0.3317 -1.0668  0.0247
    9TMC3    C813947   0.044   4.606  13.809  0.3499  0.3604  0.2416
    9TMC3    O113948   4.464   0.055  14.265 -0.0041  0.1278 -0.5445
    9TMC3    O213949   0.049   4.600  13.688  0.2685  0.3960  0.3134
   10MPD2     C13950   0.513   4.421  13.885  0.1512 -0.1383  0.0804
   10MPD2    C113951   0.441   4.405  14.003 -1.1211  0.2908 -0.0675
   10MPD2    C213952   0.310   4.449  14.006  0.1992 -0.2795  0.6169
   10MPD2    C313953   0.253   4.498  13.894 -0.0692  0.7569  0.8243
   10MPD2    C413954   0.314   4.494  13.771 -0.3442 -0.3536  0.3028
   10MPD2    C513955   0.442   4.467  13.778 -0.4330  0.7477  0.3517
   10MPD2     H13956   0.260   4.463  14.101 -0.7570 -2.4279  0.4213
   10MPD2    H113957   0.267   4.531  13.680 -0.1654 -0.1339  0.2985
   10MPD2    H213958   0.620   4.423  13.875  0.1983 -0.4805  0.5058
   10MPD2    H313959   0.495   4.477  13.685  1.5636 -0.7186  1.3227
   10MPD2     N13960   0.121   4.555  13.907 -0.2081  0.1919 -0.1218
   10MPD2    H513961   0.071   4.532  13.993  0.2028  1.4253  0.4329
   10MPD2    N113962   0.511   4.353  14.117  0.6977 -0.0864 -0.7164
   10MPD2    H713963   0.608   4.330  14.100  0.9536 -0.8610  1.7085
   11MPD2     C13964   1.698   4.234  14.036 -0.3549  0.1589 -0.2529
   11MPD2    C113965   1.656   4.302  14.149 -0.0981  0.4968 -0.0329
   11MPD2    C213966   1.604   4.430  14.137 -0.3272 -0.1792 -0.0714
   11MPD2    C313967   1.610   4.491  14.012  0.3620  0.1787 -0.6608
   11MPD2    C413968   1.648   4.424  13.899 -1.0669 -0.4940  0.3101
   11MPD2    C513969   1.672   4.288  13.912 -0.3159 -0.1220  0.2469
   11MPD2     H13970   1.555   4.482  14.219  2.9056 -1.5978  2.7632
   11MPD2    H113971   1.653   4.466  13.800  1.0234 -0.0180  0.6256
   11MPD2    H213972   1.728   4.130  14.031  1.1436  0.5542  0.5337
   11MPD2    H313973   1.705   4.232  13.825 -0.3577 -1.2567  0.9556
   11MPD2     N13974   1.579   4.630  13.989  0.2159  0.1569 -0.0570
   11MPD2    H513975   1.582   4.658  13.891  1.8170 -0.1536 -0.0981
   11MPD2    N113976   1.677   4.232  14.272 -0.3524 -0.5446  0.0572
   11MPD2    H713977   1.706   4.135  14.266 -1.1978 -0.8609  0.9680
    1MPD1     C13978   3.860   0.482  17.172  0.0681 -0.0186  1.4628
    1MPD1    C113979   3.904   0.537  17.054 -0.5366 -0.0165 -1.2139
    1MPD1    C213980   3.856   0.665  17.027 -0.9288 -0.5334  0.2642
    1MPD1    C313981   3.776   0.747  17.109 -0.8667  0.0744  0.3225
    1MPD1    C413982   3.742   0.691  17.229 -0.5181  0.1528 -0.3131
    1MPD1    C513983   3.786   0.560  17.256  0.0903  0.1287  0.4070
    1MPD1     H13984   3.871   0.691  16.923  1.9039 -2.7862  0.0953
    1MPD1    H113985   3.678   0.745  17.297 -1.2522 -0.5751 -0.4320
    1MPD1    H213986   3.889   0.383  17.205  1.2617 -0.0645  0.2409
    1MPD1    H313987   3.757   0.520  17.353 -1.4231 -1.0005 -0.5146
    1MPD1     N13988   3.711   0.870  17.064 -0.3857 -0.5844 -0.5206
    1MPD1    H513989   3.639   0.907  17.124  2.6592  1.4954  1.8417
    1MPD1    N113990   3.960   0.454  16.955  0.3050  0.3602 -0.4385
    1MPD1    H613991   4.012   0.378  16.998 -0.0662  0.1657 -0.3409
    1MPD1    H713992   4.021   0.505  16.891  1.6858  1.2760  1.5994
    2MPD1     C13993   3.319   1.683  17.428  0.3805  0.2767 -0.1081
    2MPD1    C113994   3.407   1.725  17.332 -0.2039 -0.9461 -0.5659
    2MPD1    C213995   3.448   1.635  17.234 -0.3908 -0.5859 -0.7835
    2MPD1    C313996   3.407   1.502  17.236  0.4804  0.0369 -0.2598
    2MPD1    C413997   3.329   1.467  17.342  0.1942 -0.2901  0.5341
    2MPD1    C513998   3.276   1.557  17.431  0.7837  0.4848  0.3196
    2MPD1     H13999   3.517   1.664  17.156 -0.5585 -0.9980 -1.0862
    2MPD1    H114000   3.293   1.365  17.352 -0.1904 -0.3136 -0.9927
    2MPD1    H214001   3.282   1.757  17.499  1.9297  1.1673 -0.2479
    2MPD1    H314002   3.203   1.529  17.505  4.5948 -0.1996  3.8219
    2MPD1     N14003   3.470   1.409  17.157  0.3990 -0.1370 -0.0851
    2MPD1    H514004   3.545   1.433  17.093  0.3303 -2.2143 -0.9400
    2MPD1    N114005   3.450   1.861  17.317  0.3809 -0.7982 -0.0908
    2MPD1    H614006   3.539   1.870  17.268  0.8347 -0.6547  0.7653
    2MPD1    H714007   3.453   1.913  17.405 -0.2787 -1.1096  0.1119
    3TMC3    C114008   3.517   1.219  17.040  0.1459 -0.0927 -0.2612
    3TMC3    C214009   3.550   1.299  16.936 -0.2691  0.1710  0.2325
    3TMC3    C314010   3.664   1.282  16.858  0.0473 -0.5687 -0.4416
    3TMC3    C414011   3.586   1.102  17.059 -0.1816 -0.0028 -0.1223
    3TMC3    C514012   3.683   1.078  16.962 -1.1404  0.1806 -0.4369
    3TMC3    C614013   3.716   1.156  16.851 -0.1356  0.3702  0.0775
    3TMC3     C14014   3.437   1.275  17.141  0.2765  0.3958 -0.0243
    3TMC3     O14015   3.355   1.199  17.199 -0.8510 -0.2798  0.2402
    3TMC3     H14016   3.493   1.391  16.924 -1.0282  0.0779  2.9516
    3TMC3    H114017   3.568   1.042  17.147  1.5692 -0.7356 -0.2545
    3TMC3    H214018   3.787   1.136  16.771 -2.5958 -0.3263 -1.9648
    3TMC3    C714019   3.751   0.951  16.964 -0.8423 -0.5403 -0.7702
    3TMC3    C814020   3.661   1.350  16.738 -0.0732 -0.4094 -0.5089
    3TMC3    O114021   3.852   0.939  16.897  0.5506 -0.1792  0.1607
    3TMC3    O214022   3.555   1.340  16.678  0.3856 -0.3966 -0.7083
    4MPD1     C14023   3.880   1.513  16.284 -0.8975 -0.1266  0.1144
    4MPD1    C114024   3.981   1.490  16.376 -0.8800 -0.2673 -0.7119
    4MPD1    C214025   3.940   1.467  16.505 -0.3882 -0.6990  1.2142
    4MPD1    C314026   3.811   1.422  16.539  0.1908  1.1587 -0.1279
    4MPD1    C414027   3.713   1.426  16.439 -0.3545  0.0362  0.3612
    4MPD1    C514028   3.757   1.478  16.315 -0.0786  1.0414 -0.0515
    4MPD1     H14029   4.012   1.461  16.586  2.4538  3.0917 -0.9988
    4MPD1    H114030   3.608   1.399  16.452 -0.7239  0.9778 -0.6191
    4MPD1    H214031   3.897   1.560  16.188  4.8630 -0.6850  0.8706
    4MPD1    H314032   3.690   1.499  16.233  0.5644  1.5241 -0.4504
    4MPD1     N14033   3.787   1.390  16.675 -0.2580 -0.0058 -0.3650
    4MPD1    H514034   3.867   1.364  16.732  0.2508 -0.1044 -1.1286
    4MPD1    N114035   4.113   1.522  16.345 -0.0696  0.1856  0.5702
    4MPD1    H614036   4.172   1.460  16.400 -2.8626  0.1921  3.6232
    4MPD1    H714037   4.131   1.506  16.247  1.9091  0.6305  0.8752
    1TCq1    O114038   0.757   1.823  11.911  0.1662 -0.4322 -0.1683
    1TCq1    C114039   0.888   1.818  11.893 -1.3185 -0.3695 -0.0497
    1TCq1    O214040   0.969   1.902  11.933 -0.3152  0.2931 -0.3667
    1TCq1    C214041   0.890   1.756  11.763 -0.3118 -0.1926 -0.3620
    1TCq1    C314042   0.806   1.659  11.737 -0.7005 -0.0888 -0.5739
    1TCq1    C414043   0.808   1.608  11.608 -0.2383  0.1711  0.5429
    1TCq1    C514044   0.846   1.691  11.504  0.1826  0.0512 -0.3341
    1TCq1    C614045   0.927   1.795  11.530 -0.1289  0.2881 -0.5149
    1TCq1    C714046   0.955   1.826  11.664  0.2241  0.7379  0.4366
    1TCq1    C814047   0.983   1.885  11.432  0.2880 -0.8770 -0.0255
    1TCq1    O414048   1.089   1.934  11.458 -0.6718  0.2538  0.0712
    1TCq1    C914049   0.710   1.504  11.585 -0.5845 -0.1544  0.9267
    1TCq1    O514050   0.633   1.479  11.681  0.5581  0.1111  0.0689
    1TCq1    O614051   0.697   1.451  11.466 -0.3789  0.0735 -0.4115
    1TCq1    H114052   0.699   1.764  11.858  0.4245  0.2539 -1.2293
    1TCq1    H214053   0.777   1.599  11.822  2.2660 -0.6825  0.0285
    1TCq1    H314054   0.820   1.663  11.402  3.5402 -2.6051 -0.4757
    1TCq1    H414055   1.016   1.909  11.700 -0.9864  1.9031 -0.2048
    2MPD1     C14056   0.965   2.162  10.998  0.0926 -0.1338 -0.1945
    2MPD1    C114057   0.869   2.070  10.984  0.0120 -0.6262 -0.5630
    2MPD1    C214058   0.859   1.981  11.092  0.2166 -0.3790 -0.6443
    2MPD1    C314059   0.931   1.991  11.209  0.1287  0.3605 -0.6663
    2MPD1    C414060   1.020   2.093  11.223 -0.0729  0.4148  0.2338
    2MPD1    C514061   1.035   2.178  11.114 -0.9218 -0.5230  0.0924
    2MPD1     H14062   0.789   1.899  11.078 -2.0697  1.6571 -1.1628
    2MPD1    H114063   1.077   2.119  11.312  2.9833  0.2287 -1.6876
    2MPD1    H214064   0.991   2.234  10.921  0.3959  0.6710  0.6620
    2MPD1    H314065   1.099   2.265  11.120 -2.7107  0.8621 -0.8679
    2MPD1     N14066   0.910   1.894  11.315 -0.4438 -0.3605 -0.1812
    2MPD1    H514067   0.820   1.847  11.306 -0.7814  0.3575 -0.5963
    2MPD1    N114068   0.803   2.043  10.865 -0.7957 -0.4854  0.1544
    2MPD1    H614069   0.716   1.999  10.893  0.0800 -1.9018  0.6770
    2MPD1    H714070   0.772   2.129  10.820  1.0772  0.2337  0.2263
    1TCq1    O114071   2.782   0.312   1.569 -0.3584 -0.1956  0.2307
    1TCq1    C114072   2.700   0.211   1.539 -0.0584  0.0061 -0.6032
    1TCq1    O214073   2.701   0.151   1.431 -0.1766  0.2788  0.4714
    1TCq1    C214074   2.678   0.167   1.671  1.2524 -0.5271 -0.1262
    1TCq1    C314075   2.652   0.253   1.777  0.1575  0.4560  0.2650
    1TCq1    C414076   2.628   0.207   1.903 -0.1810 -0.0091 -0.0884
    1TCq1    C514077   2.624   0.073   1.917  0.1361  0.3939  0.5455
    1TCq1    C614078   2.659   4.717   1.818  0.1700 -0.9444 -0.2033
    1TCq1    C714079   2.695   0.033   1.695  0.1558 -0.1605  0.1542
    1TCq1    C814080   2.702   4.586   1.850 -0.0251  0.2339 -0.2728
    1TCq1    O414081   2.732   4.506   1.764  0.2744 -0.5233  0.5551
    1TCq1    C914082   2.555   0.290   2.005 -0.5275  0.5838 -0.6411
    1TCq1    O514083   2.522   0.407   1.971  0.3590 -0.6240  0.1767
    1TCq1    O614084   2.588   0.256   2.122  0.1804  0.2045  0.4040
    1TCq1    H114085   2.777   0.335   1.664  2.2930 -0.3464  0.4071
    1TCq1    H214086   2.602   0.346   1.751  0.0070  0.2585 -0.1487
    1TCq1    H314087   2.570   0.032   2.002  1.0412 -0.8346  0.5436
    1TCq1    H414088   2.703   4.697   1.608 -5.9861 -2.0148  1.0213
    2MPD1     C14089   2.800   4.200   2.174 -0.2506  1.0379 -0.0743
    2MPD1    C114090   2.797   4.317   2.248 -0.3997 -0.8971 -0.0759
    2MPD1    C214091   2.780   4.434   2.181  0.1091 -0.5077  0.0728
    2MPD1    C314092   2.756   4.452   2.042  0.5389  0.1966  0.7307
    2MPD1    C414093   2.766   4.327   1.976 -0.7946  0.2165 -0.2078
    2MPD1    C514094   2.787   4.207   2.040 -0.2262  0.4326  0.5370
    2MPD1     H14095   2.769   4.520   2.247  1.2337  0.4284 -0.9499
    2MPD1    H114096   2.754   4.320   1.868  0.9377 -2.3091 -0.2181
    2MPD1    H214097   2.814   4.106   2.227 -0.4770  1.7434  1.2572
    2MPD1    H314098   2.795   4.108   1.995 -4.7913  0.4576 -0.3109
    2MPD1     N14099   2.719   4.575   1.985  0.3727  0.3596 -0.7543
    2MPD1    H514100   2.698   4.654   2.045 -2.8821 -1.5806  0.6476
    2MPD1    N114101   2.774   4.316   2.387 -0.3781 -0.2027 -0.2713
    2MPD1    H614102   2.768   4.410   2.426 -0.1280 -0.3663  0.1669
    2MPD1    H714103   2.839   4.258   2.441 -0.7315  1.5084  2.0060
    1MPD1     C14104   2.516   0.495  12.464  0.1682 -0.6601 -0.0786
    1MPD1    C114105   2.574   0.481  12.339 -1.0413  0.2174 -0.0623
    1MPD1    C214106   2.536   0.572  12.242  0.5209 -0.3881  0.3039
    1MPD1    C314107   2.427   0.651  12.256  0.3683  0.3795  0.8121
    1MPD1    C414108   2.360   0.649  12.376  0.7444 -0.7344 -0.0259
    1MPD1    C514109   2.407   0.579  12.487  0.8265 -0.3945 -0.4704
    1MPD1     H14110   2.582   0.576  12.144 -1.3179  2.2804 -0.4520
    1MPD1    H114111   2.276   0.715  12.395 -0.0918 -1.6885 -0.4219
    1MPD1    H214112   2.548   0.429  12.544 -1.7606 -0.1769  1.1003
    1MPD1    H314113   2.367   0.576  12.588 -0.3386 -0.9588 -0.9409
    1MPD1     N14114   2.391   0.736  12.147  0.0805 -0.3216 -0.0347
    1MPD1    H514115   2.460   0.745  12.074 -1.2879  1.1622 -1.1486
    1MPD1    N114116   2.683   0.387  12.324  0.3084  0.3700 -0.8356
    1MPD1    H614117   2.670   0.312  12.391 -1.3543 -0.1709 -1.7707
    1MPD1    H714118   2.681   0.345  12.231  2.2209  1.2968 -1.3044
    2MPD1     C14119   1.477   1.300  11.724 -0.4391  0.3758  0.6851
    2MPD1    C114120   1.502   1.183  11.653 -0.2665 -0.2475  0.1792
    2MPD1    C214121   1.551   1.201  11.524  0.4521 -0.0696  0.2460
    2MPD1    C314122   1.587   1.329  11.476  0.2564 -0.3230 -0.0309
    2MPD1    C414123   1.570   1.442  11.560  0.3950  0.0038  0.3893
    2MPD1    C514124   1.515   1.425  11.681 -0.2183 -0.2278  0.4977
    2MPD1     H14125   1.575   1.117  11.460 -0.6971 -1.2650  1.3953
    2MPD1    H114126   1.588   1.540  11.518 -0.8306  0.2433  0.4260
    2MPD1    H214127   1.420   1.295  11.817  1.2289 -1.7914  1.5886
    2MPD1    H314128   1.494   1.511  11.744  0.8592  0.3614  0.0487
    2MPD1     N14129   1.632   1.352  11.347  0.4599 -0.2078  0.4296
    2MPD1    H514130   1.684   1.437  11.328 -1.3115  0.8668  0.3385
    2MPD1    N114131   1.448   1.062  11.701  0.4096  0.3047  0.0741
    2MPD1    H614132   1.468   0.980  11.645 -1.8330  0.6814 -1.2590
    2MPD1    H714133   1.445   1.046  11.802 -2.5564  0.1461 -0.0599
    3MPD1     C14134   1.294   0.986  10.525 -0.0901  0.0913 -0.5994
    3MPD1    C114135   1.244   1.020  10.653  0.1081  0.3155 -0.5645
    3MPD1    C214136   1.320   1.107  10.735  0.3099 -0.5967  0.0801
    3MPD1    C314137   1.440   1.154  10.693 -0.2497 -0.7827 -0.6684
    3MPD1    C414138   1.487   1.108  10.570  0.2492  0.0428  0.1218
    3MPD1    C514139   1.419   1.022  10.496  0.1988 -0.5574 -0.1357
    3MPD1     H14140   1.282   1.138  10.832  0.3172  0.0710 -0.1296
    3MPD1    H114141   1.589   1.132  10.543  0.2446  0.0579  0.1181
    3MPD1    H214142   1.248   0.933  10.442 -1.0668 -1.7231  1.0816
    3MPD1    H314143   1.458   0.993  10.399 -1.4061  0.5564 -1.1149
    3MPD1     N14144   1.513   1.240  10.782  0.4769 -0.2304 -0.7605
    3MPD1    H514145   1.471   1.269  10.869  1.3595  0.2748 -0.5036
    3MPD1    N114146   1.110   0.992  10.678 -0.9137  0.0814 -0.1692
    3MPD1    H614147   1.085   0.897  10.651  0.5829 -0.4606  0.3081
    3MPD1    H714148   1.075   1.006  10.772  0.6772  3.5786 -0.0728
    4MPD2     C14149   1.973   1.330  11.676  0.5698 -0.0169  0.3146
    4MPD2    C114150   2.089   1.352  11.746  0.8278  0.2953 -0.1349
    4MPD2    C214151   2.174   1.446  11.703  0.1858 -0.2297 -0.0264
    4MPD2    C314152   2.146   1.516  11.587  0.0663 -0.1271 -0.3730
    4MPD2    C414153   2.040   1.479  11.510  0.3861  0.0243 -0.0185
    4MPD2    C514154   1.951   1.386  11.552  0.5912  0.4428 -0.7184
    4MPD2     H14155   2.253   1.479  11.769 -0.9542  2.2780  0.0915
    4MPD2    H114156   2.016   1.528  11.416  2.3896 -0.2273 -0.6541
    4MPD2    H214157   1.893   1.263  11.704 -0.6503  2.0392  1.7866
    4MPD2    H314158   1.871   1.368  11.482 -1.1232 -1.3591  1.7194
    4MPD2     N14159   2.234   1.614  11.527  0.4828 -0.4702  0.3892
    4MPD2    H514160   2.204   1.666  11.445  0.9170 -2.2130 -0.8789
    4MPD2    N114161   2.127   1.289  11.864  0.3335 -0.2350 -0.2822
    4MPD2    H714162   2.220   1.307  11.900 -0.1992  2.9817 -0.5284
    5TMC3    C114163   2.162   1.111  12.006  0.1491 -0.0141 -0.3556
    5TMC3    C214164   2.172   0.975  12.002  0.8144 -0.1998 -0.1899
    5TMC3    C314165   2.295   0.920  12.025 -0.2043  0.5658 -0.4055
    5TMC3    C414166   2.271   1.186  12.025  0.7991 -0.2113  0.6962
    5TMC3    C514167   2.394   1.132  12.038 -0.8363 -0.0876  0.3255
    5TMC3    C614168   2.405   0.995  12.033  0.0179 -0.2978  0.0059
    5TMC3     C14169   2.072   1.169  11.908 -0.5245  0.0409 -0.1874
    5TMC3     O14170   1.975   1.108  11.873 -0.3151  0.0263  0.0768
    5TMC3     H14171   2.076   0.926  11.997  0.6315  0.2196 -0.9622
    5TMC3    H114172   2.256   1.288  12.058 -0.1926 -1.0388  2.8161
    5TMC3    H214173   2.500   0.946  12.051  0.0063 -0.4746 -0.4010
    5TMC3    C714174   2.499   1.221  11.994 -0.1830  0.7740  0.0587
    5TMC3    C814175   2.287   0.826  12.138  0.1091  0.1766 -0.2198
    5TMC3    O114176   2.454   1.336  11.992  0.3232  0.0215 -0.0729
    5TMC3    O214177   2.191   0.835  12.219 -0.0831 -0.4206 -0.3816
    6TMC3    C114178   1.696   1.307  11.121 -0.1074 -0.6593  0.1774
    6TMC3    C214179   1.649   1.269  11.001  0.4057 -0.1885  0.7304
    6TMC3    C314180   1.690   1.330  10.891  0.9260  0.1612  0.5661
    6TMC3    C414181   1.786   1.412  11.128  0.6370  0.0244 -0.1298
    6TMC3    C514182   1.819   1.472  11.011  0.2571 -0.3180  0.0202
    6TMC3    C614183   1.785   1.425  10.886  0.3366  0.2144 -0.1141
    6TMC3     C14184   1.609   1.271  11.239  0.4123 -0.4478 -1.3468
    6TMC3     O14185   1.516   1.191  11.227  0.2954  0.0267 -0.1650
    6TMC3     H14186   1.588   1.179  10.999 -1.7552  1.3580 -1.7115
    6TMC3    H114187   1.853   1.428  11.211 -0.3053  1.3251  0.3906
    6TMC3    H214188   1.804   1.479  10.794 -1.5528  1.2488  0.1195
    6TMC3    C714189   1.939   1.553  11.018 -0.4094  0.0133 -0.0585
    6TMC3    C814190   1.647   1.271  10.768  0.5454  0.1138  0.1093
    6TMC3    O114191   1.970   1.587  11.132  0.0136  0.7057  0.1406
    6TMC3    O214192   1.740   1.246  10.686 -0.6333  0.2118 -0.3787
    7MPD2     C14193   2.816   1.339  11.619  0.1857 -0.0646  0.2585
    7MPD2    C114194   2.718   1.419  11.677  0.1381  0.4322  0.5351
    7MPD2    C214195   2.645   1.361  11.778 -0.1166 -0.8230  0.0085
    7MPD2    C314196   2.668   1.226  11.811  0.6559 -0.1396  0.2517
    7MPD2    C414197   2.752   1.149  11.738  0.0455  0.5180 -0.3365
    7MPD2    C514198   2.836   1.206  11.641  0.1067  0.5203  0.7102
    7MPD2     H14199   2.561   1.421  11.811  1.3481  1.0296  0.3727
    7MPD2    H114200   2.783   1.049  11.764  0.3591  1.1728  1.8135
    7MPD2    H214201   2.881   1.370  11.538  2.2159 -1.9774  1.1670
    7MPD2    H314202   2.908   1.143  11.589 -0.0390  0.8121  0.1531
    7MPD2     N14203   2.598   1.164  11.915  0.1646  0.4553 -0.2186
    7MPD2    H514204   2.603   1.063  11.919 -1.1615  0.2968 -2.6809
    7MPD2    N114205   2.676   1.542  11.622  0.2050  0.4545 -0.3577
    7MPD2    H714206   2.587   1.584  11.648 -1.0657 -2.5857  0.1948
    8TMC3    C114207   2.656   1.733  11.498  0.0291  0.4375  0.2123
    8TMC3    C214208   2.641   1.750  11.364  0.3535  0.2150 -0.0850
    8TMC3    C314209   2.515   1.760  11.309 -0.1518  0.7671  0.4859
    8TMC3    C414210   2.545   1.757  11.574  0.7026  0.1716 -0.6116
    8TMC3    C514211   2.423   1.748  11.517 -0.3582  0.0285 -0.0786
    8TMC3    C614212   2.408   1.740  11.383  0.3362  0.0845  0.0634
    8TMC3     C14213   2.732   1.615  11.525 -0.1029  0.3902 -0.1120
    8TMC3     O14214   2.814   1.576  11.443  0.1136  0.7621 -0.0001
    8TMC3     H14215   2.720   1.749  11.290  0.1066 -1.7400 -0.3165
    8TMC3    H114216   2.558   1.754  11.681  0.1567 -1.5999 -0.5982
    8TMC3    H214217   2.308   1.749  11.343  0.1761 -2.0284  0.0011
    8TMC3    C714218   2.349   1.648  11.588 -0.2267 -0.4112 -0.0349
    8TMC3    C814219   2.503   1.774  11.163 -0.3822 -0.0920  0.3016
    8TMC3    O114220   2.415   1.585  11.668  0.6704 -0.1345  0.1960
    8TMC3    O214221   2.592   1.833  11.102  0.2754 -0.0917  0.0690
    9MPD2     C14222   2.379   1.770  10.899  0.1400 -0.8431  0.2424
    9MPD2    C114223   2.338   1.688  11.005  0.6633 -0.2986 -0.6318
    9MPD2    C214224   2.220   1.626  11.005  0.4659  0.1780  0.2160
    9MPD2    C314225   2.129   1.642  10.902  0.4150 -0.2508 -0.2285
    9MPD2    C414226   2.170   1.712  10.789 -0.0694  0.7448 -0.4137
    9MPD2    C514227   2.289   1.780  10.797 -0.1921 -0.1341 -0.4377
    9MPD2     H14228   2.196   1.570  11.095  0.8801 -0.7337 -0.2433
    9MPD2    H114229   2.109   1.732  10.702 -0.9992 -1.5851 -0.2827
    9MPD2    H214230   2.470   1.827  10.908  0.5635 -1.1367 -2.4568
    9MPD2    H314231   2.331   1.825  10.708  0.9895 -0.8927 -0.2722
    9MPD2     N14232   2.001   1.581  10.899  0.6272  0.2626 -0.2611
    9MPD2    H514233   1.945   1.578  10.815  0.1719 -0.9160  0.0888
    9MPD2    N114234   2.406   1.684  11.125 -0.5951 -0.1850  0.3517
    9MPD2    H714235   2.370   1.615  11.190  2.0972  0.9988  3.0575
    1MPD1     C14236   2.193   0.006  15.939  0.9307 -0.3587  0.2392
    1MPD1    C114237   2.171   4.629  16.022  0.0164  0.0287  0.1058
    1MPD1    C214238   2.268   4.599  16.116 -0.6160  0.6825  0.6601
    1MPD1    C314239   2.392   4.660  16.108  0.3802 -0.7104  0.5147
    1MPD1    C414240   2.408   0.027  16.012 -0.0425 -0.2640 -0.4714
    1MPD1    C514241   2.311   0.070  15.926  0.4290 -0.1279  0.4807
    1MPD1     H14242   2.247   4.523  16.190 -2.9385  0.1818 -0.4986
    1MPD1    H114243   2.505   0.072  15.991  0.1028 -0.6225 -0.5732
    1MPD1    H214244   2.119   0.031  15.864 -2.2346 -1.0341  3.1453
    1MPD1    H314245   2.322   0.152  15.856 -2.1964 -1.0727 -1.0258
    1MPD1     N14246   2.505   4.633  16.193 -0.1751 -0.3560 -0.0079
    1MPD1    H514247   2.594   4.679  16.173 -0.5325  0.2508 -0.2148
    1MPD1    N114248   2.044   4.576  16.039 -0.0648  0.0856  0.4326
    1MPD1    H614249   2.053   4.481  16.073 -1.1547  0.5527  2.0429
    1MPD1    H714250   1.988   4.585  15.954  2.9007 -1.5831 -1.7038
    2MPD1     C14251   2.684   4.429  17.168 -0.0167 -0.3490  0.6984
    2MPD1    C114252   2.652   4.316  17.094  0.3560  0.7448  0.4269
    2MPD1    C214253   2.662   4.325  16.958 -0.0803 -0.3670 -0.0131
    2MPD1    C314254   2.718   4.435  16.893  0.9583  0.0234  0.3875
    2MPD1    C414255   2.749   4.546  16.968  0.5944  0.2006  0.0660
    2MPD1    C514256   2.728   4.541  17.103 -0.0117 -0.1579 -0.3432
    2MPD1     H14257   2.643   4.245  16.886  0.9960 -1.7663  1.2586
    2MPD1    H114258   2.785   4.639  16.924 -0.9832 -0.1750 -1.9975
    2MPD1    H214259   2.679   4.433  17.276  0.0672 -0.6765  0.7134
    2MPD1    H314260   2.758   4.628  17.160 -0.0666  0.2955 -1.0182
    2MPD1     N14261   2.714   4.440  16.753 -0.1409  0.9937  0.2568
    2MPD1    H514262   2.650   4.377  16.705  0.8940  0.3777 -0.3106
    2MPD1    N114263   2.603   4.204  17.157  0.0746 -0.4700 -0.1330
    2MPD1    H614264   2.616   4.122  17.099 -0.3849 -0.5672 -0.1015
    2MPD1    H714265   2.641   4.183  17.249  1.7749  1.5016 -0.3695
    3TCq2    C114266   2.787   4.528  16.680  0.4944 -0.7036 -0.0637
    3TCq2    O214267   2.874   4.600  16.719 -0.1051 -0.1631 -0.4374
    3TCq2    C214268   2.776   4.523  16.536 -0.4717  0.1027  0.7951
    3TCq2    C314269   2.875   4.589  16.460  0.0554 -0.0727  0.2952
    3TCq2    C414270   2.859   4.617  16.328 -0.1539 -0.1877  0.3405
    3TCq2    C514271   2.740   4.580  16.271 -0.3131 -0.8333  0.0963
    3TCq2    C614272   2.635   4.519  16.345  1.0031 -0.7744  0.4810
    3TCq2    C714273   2.656   4.484  16.475 -0.3621  0.5115  0.0046
    3TCq2    C814274   2.505   4.551  16.303 -0.1486 -0.6197 -0.3378
    3TCq2    O414275   2.404   4.503  16.356 -0.6246  0.0468  0.2705
    3TCq2    C914276   2.971   4.667  16.254  0.3224  0.3472  0.9140
    3TCq2    O514277   3.071   4.708  16.319  0.2887  0.6964 -0.3419
    3TCq2    O614278   2.962   4.633  16.138  0.4772  0.1944  0.7768
    3TCq2    H214279   2.964   4.631  16.506  0.7423 -0.2909 -0.8504
    3TCq2    H314280   2.724   4.609  16.168 -2.4286  0.0751  0.6698
    3TCq2    H414281   2.574   4.437  16.529 -0.2953 -0.8004 -1.0326
    1TCq1    O114282   4.138   3.795  12.473  0.2063  0.1264 -0.0928
    1TCq1    C114283   4.034   3.760  12.549 -0.5453 -0.5268 -0.1739
    1TCq1    O214284   3.924   3.820  12.546 -0.0985 -0.1624  0.8438
    1TCq1    C214285   4.062   3.648  12.640 -0.3461 -0.0139 -0.6049
    1TCq1    C314286   3.962   3.602  12.715  0.2478 -0.3371 -0.4062
    1TCq1    C414287   3.996   3.516  12.811  0.4572 -0.0065 -0.5340
    1TCq1    C514288   4.124   3.486  12.846 -0.7366 -0.0770 -0.3682
    1TCq1    C614289   4.218   3.550  12.777  0.5296  0.2490 -0.1337
    1TCq1    C714290   4.192   3.635  12.674 -0.4966 -0.8963 -0.6067
    1TCq1    C814291   4.358   3.524  12.810  0.3680  0.0928  0.6247
    1TCq1    O414292   4.442   3.581  12.741 -0.1084  0.6965  0.3606
    1TCq1    C914293   3.886   3.456  12.884 -0.2965  0.4358  0.1503
    1TCq1    O514294   3.916   3.402  12.995  0.0104 -0.5258  0.0696
    1TCq1    O614295   3.771   3.449  12.828 -0.3441  0.0987  0.1421
    1TCq1    H114296   4.213   3.733  12.470 -0.6275 -0.9175  0.5860
    1TCq1    H214297   3.859   3.633  12.699  1.0282  1.9450 -1.0439
    1TCq1    H314298   4.132   3.429  12.938 -2.9629 -0.2111 -0.2583
    1TCq1    H414299   4.281   3.680  12.633 -0.4789  1.0709  1.6029
    2MPD2     C14300   4.590   3.398  12.925  0.6278  0.5426 -0.0597
    2MPD2    C114301   4.485   3.450  13.002  0.0708  0.0174  0.1076
    2MPD2    C214302   4.480   3.447  13.143  0.5282 -0.1436  0.4159
    2MPD2    C314303   4.590   3.407  13.215  0.0876  0.1194  0.0148
    2MPD2    C414304   4.696   3.349  13.142  0.3685 -0.6206  0.0256
    2MPD2    C514305   4.697   3.350  13.002  0.3568 -0.3172  0.8361
    2MPD2     H14306   4.388   3.476  13.192 -0.4993 -2.4251 -0.1991
    2MPD2    H114307   0.060   3.322  13.191  1.1486  2.4508  0.2424
    2MPD2    H214308   4.593   3.415  12.818  1.3828 -3.1145 -0.6159
    2MPD2    H314309   0.062   3.322  12.956 -0.2535  2.1516 -1.8976
    2MPD2     N14310   4.582   3.407  13.360  0.1476  0.2611 -0.1060
    2MPD2    H514311   4.499   3.449  13.401  1.8214  1.8538  1.7161
    2MPD2    N114312   4.368   3.480  12.937  0.4388  0.1080  0.0550
    2MPD2    H714313   4.283   3.482  12.992  0.2576  0.7901 -0.2513
    3TCq1    O114314   4.345   3.700  13.608 -0.5726  0.6836 -0.4277
    3TCq1    C114315   4.418   3.668  13.716 -0.4503  0.0884 -0.0776
    3TCq1    O214316   4.406   3.716  13.825  0.2305 -0.1861 -0.0418
    3TCq1    C214317   4.505   3.550  13.690 -0.4155 -0.5295 -0.8527
    3TCq1    C314318   4.572   3.493  13.801  0.3758  0.1616  0.5035
    3TCq1    C414319   4.685   3.417  13.781  0.3093 -0.3510 -0.1481
    3TCq1    C514320   0.013   3.391  13.660  0.0396 -0.1358  0.4895
    3TCq1    C614321   4.681   3.461  13.560 -0.4958 -0.1013  1.1303
    3TCq1    C714322   4.571   3.542  13.570 -0.0862  0.6843  0.0005
    3TCq1    C814323   4.696   3.388  13.438  0.0029  0.3684  0.4679
    3TCq1    O414324   0.075   3.333  13.418 -0.2655  0.1603  0.2249
    3TCq1    C914325   0.011   3.358  13.899  0.1652 -0.0177  0.4805
    3TCq1    O514326   4.722   3.428  14.003 -0.5680 -0.2145 -0.2257
    3TCq1    O614327   0.092   3.262  13.882 -0.1499  0.0905 -0.0536
    3TCq1    H114328   4.343   3.630  13.539  1.4875  0.1258  0.0649
    3TCq1    H214329   4.535   3.506  13.902 -0.7941  0.3155  0.0649
    3TCq1    H314330   0.096   3.322  13.649  1.7531  2.1340 -0.6594
    3TCq1    H414331   4.551   3.617  13.493 -0.2090  0.1701 -0.4675
    1MPD2     C14332   0.178   0.632  14.898 -0.4013 -0.6996  0.6837
    1MPD2    C114333   0.071   0.630  14.976 -0.3709 -0.0505 -0.3016
    1MPD2    C214334   0.011   0.510  15.022 -0.0091 -0.1154 -0.3855
    1MPD2    C314335   0.074   0.395  14.975  0.3877 -0.3890  0.1518
    1MPD2    C414336   0.181   0.391  14.894  0.4137  0.3356  0.3480
    1MPD2    C514337   0.233   0.510  14.850  0.2151 -0.1899 -0.4497
    1MPD2     H14338   4.665   0.502  15.099  1.0232 -0.0502  0.6249
    1MPD2    H114339   0.237   0.302  14.866  0.7179  0.7804 -0.4382
    1MPD2    H214340   0.222   0.722  14.858 -0.3297 -0.4145  1.4065
    1MPD2    H314341   0.330   0.508  14.802  0.1652 -1.1455 -0.5147
    1MPD2     N14342   0.021   0.273  15.029  0.5260  0.1129 -0.6750
    1MPD2    H514343   4.679   0.291  15.100 -0.0878 -1.4083 -0.9152
    1MPD2    N114344   0.015   0.759  15.022 -0.4727  0.4684  0.1788
    1MPD2    H714345   0.067   0.842  14.994 -0.5637  0.1979 -0.8075
    2TMC3    C114346   4.586   0.899  15.140 -0.5716 -0.0688 -0.0924
    2TMC3    C214347   4.474   0.864  15.223 -0.3818 -0.6766  0.1475
    2TMC3    C314348   4.344   0.909  15.200  0.2947  0.0213  0.0646
    2TMC3    C414349   4.573   1.004  15.057  0.1272 -0.1348  0.0563
    2TMC3    C514350   4.447   1.047  15.034 -0.8634  0.1232  0.5960
    2TMC3    C614351   4.333   1.002  15.100  0.0966 -0.5029 -0.3863
    2TMC3     C14352   4.626   0.774  15.086 -1.3239  0.4855 -0.2308
    2TMC3     O14353   4.545   0.690  15.101  0.2002 -0.5523 -0.2910
    2TMC3     H14354   4.489   0.800  15.309  0.0173  1.1875  1.4804
    2TMC3    H114355   4.657   1.018  14.990 -1.6863  0.9335 -1.9934
    2TMC3    H214356   4.234   1.039  15.075  0.2987 -0.0870 -0.5740
    2TMC3    C714357   4.435   1.175  14.964  0.2323  0.4204 -0.1371
    2TMC3    C814358   4.237   0.813  15.222  0.6936  0.6958  0.6082
    2TMC3    O114359   4.324   1.208  14.930 -0.3878 -0.1878 -0.1810
    2TMC3    O214360   4.138   0.862  15.270  0.3817 -0.7637 -0.1409
    3TCq1    O114361   0.462   1.927  14.360  0.6206  0.0084  0.4529
    3TCq1    C114362   0.560   1.850  14.413 -0.0096 -0.3935  0.3145
    3TCq1    O214363   0.679   1.855  14.391 -0.2043 -0.7721  0.5346
    3TCq1    C214364   0.508   1.740  14.496 -0.1662 -0.8597 -0.5155
    3TCq1    C314365   0.600   1.673  14.578 -0.1611 -0.4678 -0.1523
    3TCq1    C414366   0.547   1.574  14.660 -0.5383 -0.2182 -0.2810
    3TCq1    C514367   0.409   1.550  14.663  0.2418 -0.3317  0.1151
    3TCq1    C614368   0.322   1.627  14.589  0.4871 -0.0235 -0.5598
    3TCq1    C714369   0.373   1.709  14.489  0.0374  0.3379  0.2489
    3TCq1    C814370   0.180   1.590  14.586  0.5181 -0.0129 -0.2706
    3TCq1    O414371   0.113   1.630  14.494 -0.1407  0.3274 -0.4198
    3TCq1    C914372   0.631   1.501  14.752  0.8292 -0.3963  0.1691
    3TCq1    O514373   0.749   1.530  14.750 -0.3829  0.3733 -0.0307
    3TCq1    O614374   0.581   1.409  14.823 -0.2972 -0.2304  0.2774
    3TCq1    H114375   0.384   1.923  14.420  0.8227 -0.9891  0.6458
    3TCq1    H214376   0.706   1.697  14.576 -0.7545  1.8891 -2.1749
    3TCq1    H314377   0.375   1.479  14.738 -0.0775 -2.1250 -1.7300
    3TCq1    H414378   0.297   1.755  14.426  1.5515  3.6515  0.8722
    4MPD2     C14379   4.618   1.529  14.649 -0.0345  0.0610 -0.1171
    4MPD2    C114380   4.727   1.472  14.716 -0.1259 -0.5135  0.1735
    4MPD2    C214381   4.701   1.370  14.807 -0.7925  0.3860  0.1142
    4MPD2    C314382   4.572   1.322  14.822  0.4672 -0.6070 -0.1336
    4MPD2    C414383   4.466   1.383  14.755  0.3664 -0.0478  0.3306
    4MPD2    C514384   4.492   1.482  14.666  0.4126  0.0797 -0.2504
    4MPD2     H14385   0.055   1.330  14.865 -0.4993  2.3426  1.0483
    4MPD2    H114386   4.361   1.364  14.774  0.5343 -0.1059  1.1851
    4MPD2    H214387   4.643   1.614  14.588  2.4764 -1.1594 -0.8159
    4MPD2    H314388   4.409   1.522  14.609 -1.6176 -1.4499  1.5977
    4MPD2     N14389   4.555   1.216  14.918 -0.5241  0.0417  0.7918
    4MPD2    H514390   4.638   1.181  14.965  1.3404  0.4446 -2.1447
    4MPD2    N114391   0.134   1.516  14.695  0.0719 -0.2821  0.3637
    4MPD2    H714392   0.199   1.519  14.773  1.4179 -1.7506 -0.7150
    5TMC2    C114393   4.512   0.082  15.215 -0.3174  0.3546 -0.3233
    5TMC2    C214394   4.561   0.005  15.315 -0.1664  0.5329 -0.1905
    5TMC2    C314395   4.685   4.674  15.298 -0.4584 -0.1084 -0.1456
    5TMC2    C414396   4.582   0.090  15.098  0.1650 -0.6141 -0.3641
    5TMC2    C514397   4.709   0.040  15.084 -0.1700  0.0196  0.2113
    5TMC2    C614398   0.037   4.700  15.188  0.4037  0.0875 -0.3408
    5TMC2     C14399   4.460   0.214  15.238 -0.5207  0.2836 -0.0523
    5TMC2     O14400   4.536   0.305  15.218  0.2430 -0.0335 -0.5579
    5TMC2     H14401   4.531   0.021  15.418  2.0839 -0.9301  0.6942
    5TMC2    H114402   4.547   0.137  15.007 -0.3658 -0.7898 -0.2474
    5TMC2    H214403   0.142   4.676  15.186  0.1433 -1.1380  0.6680
    5TMC2    C714404   0.063   0.140  15.013 -0.0159  0.4885  0.0300
    5TMC2    C814405   0.009   4.583  15.404  0.2809  0.1398  0.7677
    5TMC2    O114406   0.168   0.095  14.964  0.5507 -0.7175 -0.2487
    5TMC2    O214407   4.681   4.580  15.510  0.0337  0.0674 -0.9728
    5TMC2    O514408   0.055   4.468  15.346 -0.4953 -0.3076  0.1262
    5TMC2    H514409   0.061   4.469  15.248 -0.9202  1.1742  0.1114
    6MPD2     C14410   4.090   0.559  15.299  1.0073 -0.3327 -0.4392
    6MPD2    C114411   4.219   0.566  15.250  0.5315 -1.1148 -0.3752
    6MPD2    C214412   4.301   0.453  15.234  0.0525 -0.7273  0.0345
    6MPD2    C314413   4.252   0.329  15.267  0.9432 -0.2915  0.2722
    6MPD2    C414414   4.123   0.320  15.315 -0.4285  0.0572 -0.1791
    6MPD2    C514415   4.044   0.430  15.318 -0.1250  0.1169  0.4857
    6MPD2     H14416   4.401   0.482  15.203  0.3725 -1.6785  0.1803
    6MPD2    H114417   4.081   0.224  15.341 -1.1056  0.6020  0.7576
    6MPD2    H214418   4.026   0.646  15.306 -0.3425 -1.4336  1.0492
    6MPD2    H314419   3.941   0.416  15.345  0.0367  0.2150  1.1493
    6MPD2     N14420   4.329   0.214  15.268 -0.5137  0.1767 -0.0725
    6MPD2    H514421   4.277   0.128  15.278 -0.9540  0.3228 -1.0503
    6MPD2    N114422   4.283   0.688  15.213  0.3169  0.2100  0.2758
    6MPD2    H714423   4.380   0.687  15.185 -0.0295 -1.5001 -0.8738
  945NH4     N114424   4.228   1.710   2.122  0.8463  1.1150  0.3575
  945NH4     H214425   4.324   1.723   2.160  0.6050  2.8055  0.3663
  945NH4     H314426   4.230   1.720   2.019 -1.1067 -0.5143  0.1670
  945NH4     H414427   4.158   1.770   2.170  0.2327  0.9882 -0.3854
  945NH4     H514428   4.204   1.613   2.150 -0.7993  1.7928  1.3032
  946SOD     NA14429   2.156   3.232   8.843  0.1280 -0.2910  0.5511
  947SOD     NA14430   3.288   2.799  11.480  0.0326  0.2414  0.0664
  948SOD     NA14431   4.376   2.990  10.289 -0.7354 -0.2754 -0.2539
  949SOD     NA14432   1.193   2.555  16.427 -0.1775  0.1562 -0.1666
  950SOD     NA14433   0.193   3.573  11.464 -0.3287 -0.0624  0.2436
  951SOD     NA14434   3.721   3.807  10.276 -0.6349  0.0362  0.4705
  952SOD     NA14435   1.392   2.947   3.231  0.3803 -0.0773 -0.2412
  953SOD     NA14436   0.851   3.915  10.280  0.4347 -0.3196  0.2346
  954SOD     NA14437   3.775   3.233  13.007  0.2672 -0.3098  0.0266
  955SOD     NA14438   4.003   1.360   5.713  0.1941  0.3547  0.2613
  956SOD     NA14439   3.492   3.126  12.906 -0.3377  0.5631  0.3959
  957SOD     NA14440   0.591   1.253  11.431 -0.1077 -0.2048 -0.0369
  958SOD     NA14441   3.198   1.786  16.658 -0.5361 -0.4726 -0.1656
  959SOD     NA14442   4.539   4.492  15.650 -0.1320  0.0218  0.2156
  960SOD     NA14443   3.983   0.930  11.604 -0.0098  1.1296 -0.0962
  961SOD     NA14444   3.122   2.979   0.278  0.2656  0.4656  0.4347
  962SOD     NA14445   3.073   1.636   1.384 -0.2492  0.2964  0.6204
  963SOD     NA14446   0.905   2.690   1.855  0.1498 -0.2908 -0.5443
  964SOD     NA14447   2.934   3.732  11.420  0.0069  0.2843 -0.1219
  965SOD     NA14448   4.189   3.950  10.846 -0.4031  0.3063  0.1936
  966SOD     NA14449   3.798   3.560  10.635  0.7386  0.4939 -0.3134
  967SOD     NA14450   1.354   4.009  11.042  0.0646  0.1795  0.0061
  968SOD     NA14451   3.079   0.070   1.005 -0.4473  0.3187 -0.1004
  969SOD     NA14452   1.784   1.931   4.526  0.0577  0.3826  0.3251
  970SOD     NA14453   0.915   2.071   2.884  0.0804 -0.1601 -0.1210
  971SOD     NA14454   0.276   3.037  10.745  0.1330 -0.4440 -0.5517
  972SOD     NA14455   0.549   4.706  15.113  0.4572  0.0886 -0.0701
  973SOD     NA14456   1.324   1.694  12.316 -0.5240  0.0323  0.2842
  974SOD     NA14457   4.028   3.858  10.045 -0.2831 -0.0234  0.8259
  975SOD     NA14458   3.502   3.111   5.368  0.2867  0.0674  0.1194
  976SOD     NA14459   0.937   3.401  14.162  0.0421 -0.2921  0.2268
  977SOD     NA14460   0.417   3.746  11.636  0.1591  0.0095  0.6090
  978SOD     NA14461   0.025   3.441  11.684  0.3151 -0.4572 -0.5340
  979SOD     NA14462   0.214   2.950  12.923 -0.0751 -0.1223  0.4753
  980SOD     NA14463   1.319   3.793  17.215  0.0151  0.3144 -0.1138
  981SOD     NA14464   1.279   4.461   1.208 -0.0717  0.4852 -0.3772
  982SOD     NA14465   3.583   0.488  11.040 -0.5870  0.0928 -0.0769
  983SOD     NA14466   1.565   2.411  16.886  0.1392  0.2107 -0.1831
  984SOD     NA14467   4.024   4.644   9.042  0.2985 -0.1870 -0.1412
  985SOD     NA14468   3.048   3.546   2.345 -0.2790  0.1275  0.3806
  986SOD     NA14469   0.536   0.082  15.433  0.3190 -0.1927 -0.1307
  987SOD     NA14470   1.609   0.641  12.987  0.3988  0.6123 -0.2623
  988SOD     NA14471   2.117   2.700  15.120 -0.2023 -0.5017 -0.4540
  989SOD     NA14472   0.218   4.008  11.508 -0.1208 -0.0637 -0.3138
  990SOD     NA14473   2.661   2.459   9.495 -0.8498  0.3131  0.1871
  991SOD     NA14474   3.885   2.496   2.890  0.5536 -0.2954 -0.1374
  992SOD     NA14475   1.077   2.831  13.563 -0.1822 -0.5438  0.0627
  993SOD     NA14476   1.605   1.224  14.259 -0.3320 -0.2124  0.6823
  994SOD     NA14477   3.557   4.050  13.980 -0.5378 -0.4134 -1.1774
  995SOD     NA14478   3.730   3.574   2.540  0.0041 -0.6910 -0.2489
  996SOD     NA14479   0.997   4.204  15.120 -0.1802 -0.0253  0.7235
  997SOD     NA14480   4.040   2.828  15.047  0.3754 -0.0269  0.5547
  998SOD     NA14481   3.982   3.217  13.327 -0.2791  0.5398  0.0588
  999SOD     NA14482   1.165   0.351  13.214  0.0524  0.0749  0.1827
 1000SOD     NA14483   3.415   3.777  10.203  0.1481  0.1428 -0.1990
 1001SOD     NA14484   2.468   0.058  14.678 -0.0374 -0.0325  0.1719
 1002SOD     NA14485   1.647   1.619  17.461  0.1998  0.2231  0.5751
 1003SOD     NA14486   0.799   0.863  15.627  0.3757  0.0774  0.0353
 1004SOD     NA14487   1.332   3.407  14.441  0.2315  0.0300  0.1466
 1005SOD     NA14488   4.669   3.599  14.115 -0.0116 -0.1179  0.7902
 1006SOD     NA14489   4.640   0.551  11.956 -0.4969  0.0979  0.3643
 1007SOD     NA14490   0.983   4.024   1.028 -0.3375  1.1422  0.0697
 1008SOD     NA14491   4.180   4.541   3.049  0.4237  0.4183 -0.4434
 1009SOD     NA14492   1.281   0.396  10.874 -0.4675  0.2566 -0.0573
 1010SOD     NA14493   3.349   0.235  16.406 -0.1674  0.9597 -0.4782
 1011SOL     OW14494   1.475   3.665   3.353  0.3430 -0.0597  0.0579
 1011SOL    HW114495   1.555   3.715   3.334  0.1847 -0.5711 -2.0025
 1011SOL    HW214496   1.464   3.613   3.273  0.1421  1.6365 -1.0037
 1012SOL     OW14497   0.323   3.661  11.984 -0.0718  0.0968 -0.3734
 1012SOL    HW114498   0.389   3.688  11.921  0.6013  1.1491  0.7892
 1012SOL    HW214499   0.379   3.609  12.042  1.3241  2.0409 -0.0087
 1013SOL     OW14500   2.704   0.013   3.590  0.1711  0.1075  0.6003
 1013SOL    HW114501   2.738   0.081   3.648 -1.2179  2.0448 -0.8613
 1013SOL    HW214502   2.780   4.684   3.581 -0.3085 -0.7757  2.2759
 1014SOL     OW14503   4.572   3.100  11.996  0.3752  0.0105 -0.1395
 1014SOL    HW114504   4.518   3.108  11.917  0.5708  0.9615 -0.1768
 1014SOL    HW214505   4.655   3.132  11.961 -0.7105  0.8366 -1.9700
 1015SOL     OW14506   2.091   0.866   3.039 -0.3270  0.4583 -0.4257
 1015SOL    HW114507   2.067   0.923   2.966  0.4235  0.7925 -0.4130
 1015SOL    HW214508   2.119   0.781   3.006 -1.9887 -0.1838 -0.1735
 1016SOL     OW14509   1.390   3.903   2.977  0.1395  0.0684 -0.4176
 1016SOL    HW114510   1.386   3.816   3.015 -3.7756  0.3516 -0.2484
 1016SOL    HW214511   1.415   3.953   3.055  0.2646 -1.5934  0.6086
 1017SOL     OW14512   4.112   2.155   4.827  0.2285 -0.6218  0.0160
 1017SOL    HW114513   4.161   2.192   4.754 -1.6162  0.4988 -0.6806
 1017SOL    HW214514   4.043   2.219   4.847  0.6312 -0.8123  2.0203
 1018SOL     OW14515   3.336   4.286   3.832  0.0063 -0.4682  0.5580
 1018SOL    HW114516   3.337   4.368   3.882  0.6203  0.0708 -0.3420
 1018SOL    HW214517   3.346   4.319   3.743  0.0871 -0.5442  0.5397
 1019SOL     OW14518   3.894   3.507   8.698 -0.2962  0.2639  0.2362
 1019SOL    HW114519   3.801   3.508   8.674  0.0393  4.2844 -0.8839
 1019SOL    HW214520   3.925   3.428   8.654  0.1019  0.0741  0.8565
 1020SOL     OW14521   0.911   2.448   9.619  0.3371  0.1593 -0.2833
 1020SOL    HW114522   0.968   2.399   9.679  1.2996  1.5902 -0.0460
 1020SOL    HW214523   0.982   2.484   9.566 -1.0390  0.2705 -2.0471
 1021SOL     OW14524   2.164   1.057   5.163 -0.0939  0.5302 -0.4291
 1021SOL    HW114525   2.215   1.127   5.121  1.7535 -0.2214  0.5661
 1021SOL    HW214526   2.205   1.070   5.249  0.1583  3.0735 -0.9188
 1022SOL     OW14527   4.271   3.048   0.815 -0.0477 -0.1818 -0.1380
 1022SOL    HW114528   4.226   3.050   0.899  1.9891 -2.0497  0.9959
 1022SOL    HW214529   4.204   3.014   0.756  0.5603 -1.4615 -0.1012
 1023SOL     OW14530   0.928   2.764  13.707  0.3384 -0.2527  0.5892
 1023SOL    HW114531   0.939   2.813  13.789 -1.1121 -1.9589  1.8152
 1023SOL    HW214532   0.882   2.687  13.743 -1.2565 -0.6293 -2.2864
 1024SOL     OW14533   0.286   0.623   1.652  0.1607  0.0704  0.7617
 1024SOL    HW114534   0.296   0.704   1.702 -0.0714  0.7164 -0.2375
 1024SOL    HW214535   0.235   0.582   1.722  0.5259  0.1308  1.0647
 1025SOL     OW14536   3.079   0.829   7.361  0.1629 -0.0989  0.5448
 1025SOL    HW114537   3.002   0.795   7.316  0.2050  0.2615  0.2003
 1025SOL    HW214538   3.113   0.898   7.304  0.6140 -1.0815 -0.3615
 1026SOL     OW14539   0.070   0.912   2.517 -0.1750  0.5645  0.0113
 1026SOL    HW114540   0.063   0.862   2.598  2.0003  0.1319 -0.0810
 1026SOL    HW214541   0.058   0.840   2.456 -1.0494  0.0261  0.8158
 1027SOL     OW14542   2.703   4.627   1.297  0.4302 -0.1608  0.4919
 1027SOL    HW114543   2.627   4.599   1.347 -2.2791  0.3374 -3.3019
 1027SOL    HW214544   2.728   4.702   1.350  0.6590  0.3249 -0.2978
 1028SOL     OW14545   0.444   3.054   3.822 -0.0978 -0.0455 -0.1348
 1028SOL    HW114546   0.379   3.064   3.891 -0.3992 -0.3634 -0.3767
 1028SOL    HW214547   0.489   2.977   3.857  1.1798  1.2567  1.1158
 1029SOL     OW14548   1.397   2.638  10.864  0.0484  0.1837  0.2237
 1029SOL    HW114549   1.380   2.675  10.951 -0.5146  1.5920 -0.5084
 1029SOL    HW214550   1.310   2.626  10.828 -0.6359  1.3563  1.5009
 1030SOL     OW14551   3.825   1.663   7.429 -0.2348 -0.0639 -0.8995
 1030SOL    HW114552   3.870   1.743   7.404  1.1031 -1.1278 -1.9048
 1030SOL    HW214553   3.900   1.607   7.446 -1.1940 -0.8506  0.8440
 1031SOL     OW14554   2.447   3.399   8.716  0.1896 -0.5706  0.6420
 1031SOL    HW114555   2.360   3.377   8.684  0.7441 -0.2443 -1.0507
 1031SOL    HW214556   2.497   3.327   8.678  1.0998  0.4526 -0.1119
 1032SOL     OW14557   3.452   1.166   9.459 -0.1563  0.0283 -0.2125
 1032SOL    HW114558   3.456   1.247   9.409  1.5876 -0.0829 -0.2514
 1032SOL    HW214559   3.522   1.187   9.521 -0.2652 -1.0021  0.2549
 1033SOL     OW14560   0.112   2.609  14.049  0.4519  0.2312  0.5823
 1033SOL    HW114561   0.161   2.528  14.033  0.9606  0.7531 -0.4885
 1033SOL    HW214562   0.142   2.660  13.974 -0.4780 -2.0968 -1.3821
 1034SOL     OW14563   4.230   1.246   2.699  0.6362  0.7053  0.0770
 1034SOL    HW114564   4.299   1.211   2.642 -0.1516  0.7466 -0.9168
 1034SOL    HW214565   4.227   1.201   2.783 -1.3755 -0.0992 -0.4277
 1035SOL     OW14566   0.565   0.212   3.074 -0.3718  0.6167  0.2247
 1035SOL    HW114567   0.650   0.209   3.030 -1.3432 -3.3646 -1.3787
 1035SOL    HW214568   0.541   0.122   3.094  1.3803  0.3292  1.0352
 1036SOL     OW14569   1.004   2.058  16.709 -0.1268  0.6462  0.5225
 1036SOL    HW114570   0.973   2.019  16.791  1.5084  2.1564  1.8227
 1036SOL    HW214571   1.002   1.981  16.652  1.1779 -0.1533  1.5621
 1037SOL     OW14572   4.030   1.281   1.063  0.2939 -0.6795 -0.4323
 1037SOL    HW114573   3.958   1.249   1.118 -1.1859 -0.3344 -2.1899
 1037SOL    HW214574   3.998   1.370   1.047 -2.9291 -1.4656  1.7658
 1038SOL     OW14575   1.165   2.062  12.026  0.2605  0.2403 -0.4330
 1038SOL    HW114576   1.099   2.003  11.989 -0.9926  0.9509  0.6531
 1038SOL    HW214577   1.114   2.121  12.082 -0.8108 -1.3666  0.2906
 1039SOL     OW14578   1.238   3.983  13.166  0.0198  0.3320 -0.0299
 1039SOL    HW114579   1.296   3.915  13.199  0.5159  0.1104 -1.3590
 1039SOL    HW214580   1.247   4.056  13.228 -2.1341  0.2045  0.4484
 1040SOL     OW14581   1.920   1.972  16.333 -0.4298 -0.5009 -0.6535
 1040SOL    HW114582   1.842   1.917  16.344 -0.0792 -0.8153  0.2924
 1040SOL    HW214583   1.967   1.939  16.410 -2.7050 -0.6153  0.6690
 1041SOL     OW14584   2.887   2.951   3.911 -0.3862  0.2120  0.0597
 1041SOL    HW114585   2.965   3.003   3.933 -0.2784 -0.2858  0.8357
 1041SOL    HW214586   2.842   2.946   3.995 -1.6217  2.7240 -0.4428
 1042SOL     OW14587   0.271   3.968   4.076 -0.0785 -0.4734 -0.3238
 1042SOL    HW114588   0.262   3.874   4.093 -0.4666 -0.2313  0.8160
 1042SOL    HW214589   0.351   3.979   4.127 -0.3953  0.0845  0.0659
 1043SOL     OW14590   3.549   2.565   1.979 -0.6229  0.0648 -0.1781
 1043SOL    HW114591   3.569   2.651   1.943  3.4216 -1.2736 -1.1614
 1043SOL    HW214592   3.571   2.515   1.900 -0.8611  2.8005 -1.9836
 1044SOL     OW14593   1.122   3.412   8.625  0.0678 -0.8192 -0.3277
 1044SOL    HW114594   1.182   3.474   8.584  1.4296 -1.7218  0.3052
 1044SOL    HW214595   1.093   3.457   8.704 -0.0110 -0.6724 -0.4421
 1045SOL     OW14596   4.399   2.239   1.669  0.0689 -0.2206  0.1511
 1045SOL    HW114597   4.494   2.241   1.680  0.1700 -1.8752 -0.4911
 1045SOL    HW214598   4.368   2.206   1.753 -0.7447  1.3758  0.4793
 1046SOL     OW14599   2.844   1.658   2.277  0.1703 -0.2255  0.0740
 1046SOL    HW114600   2.876   1.749   2.280 -0.0193 -0.1739  0.6096
 1046SOL    HW214601   2.855   1.628   2.367  1.2121  0.3282  0.1349
 1047SOL     OW14602   0.839   4.251   3.876 -0.0708  0.0665  0.1945
 1047SOL    HW114603   0.757   4.275   3.832 -0.1685  0.1301  0.4114
 1047SOL    HW214604   0.815   4.170   3.921 -0.7805  0.6113  0.7776
 1048SOL     OW14605   0.252   1.279   7.691 -0.2133 -0.1288 -0.5149
 1048SOL    HW114606   0.223   1.247   7.777  0.4010  1.2552  0.2165
 1048SOL    HW214607   0.172   1.261   7.643 -1.0440 -2.2838  1.6674
 1049SOL     OW14608   2.920   4.262   5.584  0.5587 -0.3666 -0.5165
 1049SOL    HW114609   2.836   4.282   5.625 -1.1276 -0.5940 -3.8432
 1049SOL    HW214610   2.946   4.188   5.640  1.4736 -0.3694 -0.9431
 1050SOL     OW14611   0.912   2.973  10.242  0.4860  0.1715 -0.1808
 1050SOL    HW114612   0.876   2.946  10.326 -0.1385  1.3004 -0.0755
 1050SOL    HW214613   0.881   2.902  10.187 -3.7264  1.2549  0.8242
 1051SOL     OW14614   0.518   3.987  17.636 -0.2159 -0.5265  0.2415
 1051SOL    HW114615   0.531   3.994  17.542 -1.3363  1.9832  0.2807
 1051SOL    HW214616   0.600   3.953  17.671  0.0185  0.9556  1.1044
 1052SOL     OW14617   0.734   2.780   1.463  0.1264 -0.1365  0.5025
 1052SOL    HW114618   0.666   2.844   1.440  1.2859  1.8613  2.6401
 1052SOL    HW214619   0.734   2.725   1.384  1.5454 -0.3998  0.6934
 1053SOL     OW14620   4.203   3.888   5.473 -0.4873 -0.0605  0.0708
 1053SOL    HW114621   4.257   3.892   5.552  1.0860 -0.5347 -0.9932
 1053SOL    HW214622   4.237   3.809   5.431 -0.2605  0.0368  0.0687
 1054SOL     OW14623   3.776   2.961   5.110 -0.2177 -0.2265  0.3936
 1054SOL    HW114624   3.802   2.871   5.090  1.8831  1.0628 -2.5224
 1054SOL    HW214625   3.755   2.995   5.023  1.0389  1.4679  0.7619
 1055SOL     OW14626   1.842   3.049   9.520  0.0467 -0.0133 -0.9683
 1055SOL    HW114627   1.906   2.990   9.559  0.9016  2.0672  0.7405
 1055SOL    HW214628   1.891   3.114   9.468  1.1401  1.9295  2.5364
 1056SOL     OW14629   2.231   1.117  11.356  0.3678 -0.0489 -0.5294
 1056SOL    HW114630   2.285   1.158  11.423 -0.3449 -0.5463  0.3474
 1056SOL    HW214631   2.159   1.077  11.405  0.5395 -1.2276 -1.2380
 1057SOL     OW14632   2.793   1.188   3.276 -0.1768 -0.1993  0.1324
 1057SOL    HW114633   2.703   1.219   3.266  0.5055  1.0228 -2.1075
 1057SOL    HW214634   2.801   1.136   3.197 -1.2539  0.7135 -0.5752
 1058SOL     OW14635   4.471   1.445   7.468  0.2192 -0.5410  0.1981
 1058SOL    HW114636   4.557   1.486   7.464  0.1631 -0.6421 -1.8634
 1058SOL    HW214637   4.492   1.377   7.403 -0.6851  0.5456 -1.2328
 1059SOL     OW14638   0.155   0.428   6.872 -0.0860  0.8777  0.1996
 1059SOL    HW114639   0.248   0.439   6.849 -1.3288  2.2267 -4.1487
 1059SOL    HW214640   0.135   0.521   6.879 -2.3335  0.3463  0.6294
 1060SOL     OW14641   3.042   2.162  14.342  0.4559 -0.0028 -0.3545
 1060SOL    HW114642   2.949   2.142  14.358  0.8878  0.8164  3.1747
 1060SOL    HW214643   3.087   2.078  14.335 -1.1982 -0.8779 -0.5219
 1061SOL     OW14644   2.839   3.172  13.049 -0.1016  0.3463 -0.9174
 1061SOL    HW114645   2.743   3.168  13.050 -0.1108  0.7889  0.2497
 1061SOL    HW214646   2.857   3.117  13.125 -1.9840 -0.9280 -1.3749
 1062SOL     OW14647   1.292   0.510   5.779  0.2053  1.1268  0.0688
 1062SOL    HW114648   1.217   0.569   5.783  0.5356  1.8204 -3.1699
 1062SOL    HW214649   1.263   0.442   5.718  0.6277  0.7113  0.3269
 1063SOL     OW14650   3.520   0.909   1.820  0.1980 -0.6996 -0.1629
 1063SOL    HW114651   3.530   0.814   1.827  0.8945 -0.5543  0.8148
 1063SOL    HW214652   3.604   0.942   1.852 -0.9268  2.6517 -0.6360
 1064SOL     OW14653   2.928   1.968   2.280 -0.2336 -0.2618 -0.2867
 1064SOL    HW114654   3.011   1.998   2.242 -0.2051 -1.5022 -1.1693
 1064SOL    HW214655   2.869   1.988   2.208  0.0852  0.3065 -0.3995
 1065SOL     OW14656   2.482   4.214   4.957  0.3105 -0.5465 -0.4916
 1065SOL    HW114657   2.528   4.179   5.034  0.7883 -1.9735 -1.4266
 1065SOL    HW214658   2.475   4.304   4.989  0.0369 -0.8482  0.3100
 1066SOL     OW14659   2.387   4.357   2.068 -0.4623  0.3462 -0.8853
 1066SOL    HW114660   2.399   4.274   2.020 -0.1830 -1.8467  2.9815
 1066SOL    HW214661   2.440   4.330   2.143 -0.4071  1.3337 -0.5742
 1067SOL     OW14662   2.733   1.679   6.087 -0.1522  0.4890 -0.4505
 1067SOL    HW114663   2.811   1.656   6.037  0.2789  0.1544  0.3591
 1067SOL    HW214664   2.760   1.640   6.171 -1.6206 -0.8361 -0.5815
 1068SOL     OW14665   0.735   1.103   5.619  0.1323 -0.0915  0.3583
 1068SOL    HW114666   0.807   1.159   5.588  1.0750 -1.4158  0.1659
 1068SOL    HW214667   0.672   1.114   5.548 -0.4530 -0.3026  0.8446
 1069SOL     OW14668   0.978   4.014   2.076  0.2296 -0.2674 -0.1394
 1069SOL    HW114669   1.015   3.961   2.147 -0.3993  0.3368  0.6367
 1069SOL    HW214670   0.960   3.944   2.013  1.4153 -0.2343 -0.5131
 1070SOL     OW14671   3.794   0.819   1.573 -0.4659 -0.3947 -0.3314
 1070SOL    HW114672   3.815   0.825   1.666 -0.0030  1.0557 -0.5396
 1070SOL    HW214673   3.752   0.733   1.571  2.0627 -1.6074 -2.2126
 1071SOL     OW14674   4.412   2.786   9.237  0.0741 -0.3422 -0.0293
 1071SOL    HW114675   4.371   2.786   9.323 -0.5189 -0.3480 -0.3115
 1071SOL    HW214676   4.503   2.806   9.257  0.6626  0.5701 -3.4848
 1072SOL     OW14677   3.945   1.226  10.789  0.2617  0.4744  0.2144
 1072SOL    HW114678   3.915   1.206  10.878 -0.1344  0.6382  0.1153
 1072SOL    HW214679   4.039   1.220  10.805  0.4333  1.5160 -0.4098
 1073SOL     OW14680   0.950   0.536  15.379  0.2040  0.8618 -0.3186
 1073SOL    HW114681   1.028   0.559  15.329  1.0779  2.1328  1.6296
 1073SOL    HW214682   0.898   0.519  15.301 -0.1262 -0.7248  0.2529
 1074SOL     OW14683   3.461   2.923   6.460  0.2571 -0.0294  0.2738
 1074SOL    HW114684   3.455   2.914   6.555  1.7371 -2.6882  0.1204
 1074SOL    HW214685   3.502   3.009   6.451 -0.6006  0.3945  0.4311
 1075SOL     OW14686   2.429   3.305   2.942 -0.5188 -0.2934  0.4074
 1075SOL    HW114687   2.439   3.399   2.957 -1.6183 -0.2031  0.5843
 1075SOL    HW214688   2.468   3.294   2.855 -0.4584  2.4578  0.0947
 1076SOL     OW14689   1.069   3.533   9.732 -0.1803  0.0273 -0.9597
 1076SOL    HW114690   1.082   3.586   9.653 -1.1278  0.3474 -0.8970
 1076SOL    HW214691   1.081   3.447   9.691 -0.0096 -0.2435 -0.3445
 1077SOL     OW14692   4.526   3.219  15.398 -0.8124  0.0323  0.0740
 1077SOL    HW114693   4.571   3.295  15.362  0.1753 -0.3294  0.5308
 1077SOL    HW214694   4.498   3.178  15.316  0.1080 -0.5265  0.0258
 1078SOL     OW14695   3.260   3.727  10.014 -0.6179 -0.0650 -0.0890
 1078SOL    HW114696   3.219   3.761   9.934  0.4400 -0.3250 -0.7433
 1078SOL    HW214697   3.207   3.656  10.050  1.1623 -0.8445  0.9886
 1079SOL     OW14698   4.363   0.459  16.675  0.5777  0.0329  0.2802
 1079SOL    HW114699   4.381   0.485  16.585  0.8193  0.2405  0.3863
 1079SOL    HW214700   4.355   0.366  16.657  1.5532  0.6215 -3.2386
 1080SOL     OW14701   3.870   2.843  12.881 -0.6297 -0.0754  0.4046
 1080SOL    HW114702   3.853   2.754  12.850  0.1789 -0.9854  2.5281
 1080SOL    HW214703   3.811   2.855  12.956 -0.6299  1.8013  0.1150
 1081SOL     OW14704   3.313   2.535   9.485  0.4978 -0.4110 -0.4946
 1081SOL    HW114705   3.358   2.456   9.458  0.5769 -0.3906 -0.4218
 1081SOL    HW214706   3.376   2.597   9.448 -0.0395  0.8986  0.7824
 1082SOL     OW14707   4.287   1.178   0.454 -0.1856 -0.4901 -0.2982
 1082SOL    HW114708   4.237   1.144   0.529  1.2500 -1.7613  0.0710
 1082SOL    HW214709   4.346   1.237   0.502  0.6913  0.8511 -3.0180
 1083SOL     OW14710   0.768   1.964   2.750  0.6513  0.3655 -0.0785
 1083SOL    HW114711   0.821   1.934   2.676 -1.9949 -0.3702 -1.6659
 1083SOL    HW214712   0.675   1.958   2.729  0.1758  0.3830  1.9946
 1084SOL     OW14713   0.769   3.747  14.545 -0.7426 -0.3936 -0.0880
 1084SOL    HW114714   0.751   3.757  14.451  1.1669  0.8252 -0.3111
 1084SOL    HW214715   0.744   3.830  14.586  1.0172  0.7187 -1.2591
 1085SOL     OW14716   4.143   1.962  15.891  0.3536 -0.1495 -0.3099
 1085SOL    HW114717   4.140   1.966  15.796  3.0206  1.2050 -0.3382
 1085SOL    HW214718   4.176   2.050  15.905 -0.3648  0.2310 -1.0208
 1086SOL     OW14719   2.069   0.146   9.954  0.9341 -0.1077 -0.5956
 1086SOL    HW114720   2.000   0.212   9.968  0.0506 -0.7518 -2.0199
 1086SOL    HW214721   2.141   0.195   9.995  0.5683  0.2759 -0.4019
 1087SOL     OW14722   0.544   1.274   8.197  0.2812 -1.0006 -0.3080
 1087SOL    HW114723   0.542   1.252   8.104 -0.9639 -1.5020 -0.1497
 1087SOL    HW214724   0.488   1.200   8.220 -0.0953 -0.9302 -1.0146
 1088SOL     OW14725   2.125   4.457  14.817 -0.1263  0.0864  0.3543
 1088SOL    HW114726   2.190   4.474  14.885  0.4250 -1.1105  0.1314
 1088SOL    HW214727   2.094   4.367  14.829 -0.9364  0.5442  1.7315
 1089SOL     OW14728   1.938   0.778  17.695  0.3205 -0.4154  0.1144
 1089SOL    HW114729   1.931   0.685  17.671 -0.5705 -0.0493 -1.0432
 1089SOL    HW214730   1.960   0.823  17.614  0.3988  1.4991  1.2077
 1090SOL     OW14731   0.511   3.165   2.828  0.1341 -0.4360 -0.8418
 1090SOL    HW114732   0.481   3.115   2.752 -0.2669 -0.8486 -0.4148
 1090SOL    HW214733   0.605   3.149   2.829  0.2994  0.5418 -0.8433
 1091SOL     OW14734   0.138   2.011   7.731  0.3648  0.0185  0.1004
 1091SOL    HW114735   0.177   1.950   7.669  0.9836  0.2830  0.2325
 1091SOL    HW214736   0.102   2.075   7.670  1.6594 -1.2555 -1.9992
 1092SOL     OW14737   1.823   4.091   0.360  0.3520  0.1000  0.0265
 1092SOL    HW114738   1.910   4.062   0.388 -0.3089 -1.7472  0.1758
 1092SOL    HW214739   1.828   4.184   0.381  0.1380 -0.0905  0.9377
 1093SOL     OW14740   0.179   1.911  16.477  0.5394  0.4587  0.1769
 1093SOL    HW114741   0.121   1.869  16.413 -0.9600 -0.5372  2.1698
 1093SOL    HW214742   0.234   1.975  16.433 -0.6745  1.3243 -0.0570
 1094SOL     OW14743   2.624   0.851  16.529 -0.1730 -0.4269 -0.4443
 1094SOL    HW114744   2.585   0.775  16.485  2.2340 -0.7635 -1.9981
 1094SOL    HW214745   2.668   0.815  16.605  0.4966  0.3313 -0.4708
 1095SOL     OW14746   4.154   0.338   7.513 -0.0966  0.2081  0.0140
 1095SOL    HW114747   4.142   0.252   7.553 -0.5466 -0.7020 -2.0927
 1095SOL    HW214748   4.192   0.308   7.430  3.3407  2.2786  0.8237
 1096SOL     OW14749   2.410   0.473   2.428 -0.1262 -0.1613  0.1265
 1096SOL    HW114750   2.329   0.490   2.477  0.3059  1.1901  0.3547
 1096SOL    HW214751   2.388   0.384   2.401 -1.5270 -0.3135  1.7077
 1097SOL     OW14752   2.010   2.825   6.381 -0.2935 -0.1731  0.1087
 1097SOL    HW114753   2.078   2.798   6.320  2.0572  1.8307  1.8829
 1097SOL    HW214754   1.997   2.744   6.432  1.9397 -0.6534 -0.0971
 1098SOL     OW14755   4.327   0.155   5.446 -0.1073 -0.0010 -1.2024
 1098SOL    HW114756   4.282   0.191   5.522  1.2875  1.9044 -1.2688
 1098SOL    HW214757   4.291   0.197   5.368  0.4660 -2.1012 -2.6018
 1099SOL     OW14758   3.875   2.582   4.739 -0.2153  0.2742 -0.0474
 1099SOL    HW114759   3.830   2.597   4.656 -2.6612 -0.9857  1.0565
 1099SOL    HW214760   3.808   2.533   4.786 -0.4785 -0.6429 -1.4003
 1100SOL     OW14761   0.346   1.804   6.052  0.0525  0.4547  0.3674
 1100SOL    HW114762   0.436   1.786   6.079 -0.4094 -2.7413 -0.1970
 1100SOL    HW214763   0.309   1.716   6.059 -0.3534  0.5992  0.0276
 1101SOL     OW14764   1.184   2.304   4.349 -0.0917 -0.0111 -0.1253
 1101SOL    HW114765   1.245   2.281   4.278  1.0754  2.5916  0.0501
 1101SOL    HW214766   1.141   2.219   4.357 -1.2921  0.2774 -3.6346
 1102SOL     OW14767   0.335   4.399   1.646 -0.5373 -0.2156  0.5480
 1102SOL    HW114768   0.317   4.463   1.577  1.5554  1.9210  1.9642
 1102SOL    HW214769   0.289   4.329   1.600  0.1748 -0.5937  0.4131
 1103SOL     OW14770   1.742   0.004  17.282  0.6837  0.6873  0.2699
 1103SOL    HW114771   1.753   4.640  17.264 -0.5974  0.5119  0.3753
 1103SOL    HW214772   1.767   0.048  17.201 -0.1765 -0.2738 -0.5047
 1104SOL     OW14773   0.147   2.522   9.842 -0.1536  0.2467  0.6723
 1104SOL    HW114774   0.132   2.611   9.810  0.1689 -0.2777 -0.9578
 1104SOL    HW214775   0.239   2.523   9.870  0.4978  3.8333 -1.5647
 1105SOL     OW14776   3.402   2.590   5.504  0.8356 -0.1802  0.2514
 1105SOL    HW114777   3.459   2.641   5.562 -0.3264 -0.0665  1.2726
 1105SOL    HW214778   3.372   2.659   5.444  0.7316 -0.4714 -0.0357
 1106SOL     OW14779   2.649   2.818   7.704 -0.1352  0.3439 -0.0417
 1106SOL    HW114780   2.578   2.785   7.759  0.5114  0.5289  0.8825
 1106SOL    HW214781   2.696   2.878   7.760  0.9528 -0.9343  0.4092
 1107SOL     OW14782   4.457   2.804   0.143  0.3502 -0.2366  0.2440
 1107SOL    HW114783   4.478   2.749   0.218 -0.3231  0.5684  1.0156
 1107SOL    HW214784   4.362   2.810   0.153  0.4972  1.3018  0.7618
 1108SOL     OW14785   3.287   0.236   3.112  0.2860 -0.6392 -0.0634
 1108SOL    HW114786   3.245   0.241   3.026 -1.2747  0.9703  0.7917
 1108SOL    HW214787   3.328   0.322   3.109 -0.9583 -0.0074  0.8526
 1109SOL     OW14788   0.475   2.863   6.006 -0.0692 -0.2211  0.1714
 1109SOL    HW114789   0.467   2.799   5.935  0.3196  1.4188 -1.3656
 1109SOL    HW214790   0.465   2.805   6.081 -0.0985  0.8289  0.9772
 1110SOL     OW14791   1.072   3.513   1.735 -0.1256 -0.2967 -0.4359
 1110SOL    HW114792   1.162   3.536   1.710 -0.6152  1.6769 -0.3082
 1110SOL    HW214793   1.094   3.432   1.782 -0.7903  1.1389  2.3339
 1111SOL     OW14794   2.323   2.279   4.095 -0.1309 -0.0196 -0.1090
 1111SOL    HW114795   2.330   2.254   4.187 -1.1096 -1.3925 -0.4061
 1111SOL    HW214796   2.307   2.194   4.054 -1.7239 -0.2287  0.9544
 1112SOL     OW14797   1.744   1.821   5.900 -0.3837 -0.2465 -0.2909
 1112SOL    HW114798   1.679   1.806   5.831  0.9942 -0.9591 -1.4186
 1112SOL    HW214799   1.688   1.798   5.975 -1.6348  2.0553 -0.4908
 1113SOL     OW14800   4.005   2.690   6.418  0.1893  0.7602  0.2661
 1113SOL    HW114801   4.060   2.767   6.413  0.6943  0.3843 -0.0052
 1113SOL    HW214802   3.967   2.698   6.330  1.9924  4.1899 -0.2043
 1114SOL     OW14803   3.849   0.320   9.054 -0.2232 -0.2549 -0.5742
 1114SOL    HW114804   3.801   0.399   9.080  0.1443 -0.7745  1.6793
 1114SOL    HW214805   3.934   0.333   9.096  0.1177  0.8261 -1.6101
 1115SOL     OW14806   3.190   0.757   1.930 -0.4139 -0.0731 -0.2215
 1115SOL    HW114807   3.223   0.736   2.017 -0.5863  1.0434  0.1055
 1115SOL    HW214808   3.172   0.851   1.934  0.1417  0.0475 -0.6226
 1116SOL     OW14809   2.912   2.693   7.686  0.4819  0.4464  0.1588
 1116SOL    HW114810   2.852   2.674   7.613 -0.5840  2.4559  0.5134
 1116SOL    HW214811   2.904   2.788   7.678 -0.7143  0.3631  0.4357
 1117SOL     OW14812   0.164   2.266   7.424  0.4582 -0.9994 -0.3033
 1117SOL    HW114813   0.100   2.223   7.479 -1.7876  1.0182 -1.3475
 1117SOL    HW214814   0.146   2.356   7.450 -0.2324 -1.5538  1.1202
 1118SOL     OW14815   4.711   0.793  16.217  0.0223  0.1197 -0.2033
 1118SOL    HW114816   4.682   0.884  16.211 -2.2393 -0.6081 -0.3884
 1118SOL    HW214817   0.067   0.812  16.257 -0.6232 -0.1535  1.3072
 1119SOL     OW14818   1.228   2.661   8.103  0.1531 -0.3356 -0.5443
 1119SOL    HW114819   1.189   2.591   8.156  1.0575 -1.5857 -1.5178
 1119SOL    HW214820   1.175   2.738   8.124 -0.3016 -0.6513 -0.5371
 1120SOL     OW14821   4.344   0.806   3.930  0.6942  0.1586 -0.0938
 1120SOL    HW114822   4.316   0.867   3.862 -0.7889 -2.0027 -1.4358
 1120SOL    HW214823   4.252   0.785   3.945  0.1946  2.6993  0.4181
 1121SOL     OW14824   1.729   3.537   9.934  0.5338 -0.5475  0.1878
 1121SOL    HW114825   1.774   3.453   9.946  0.4876 -0.3407  1.8567
 1121SOL    HW214826   1.695   3.539  10.024  1.1686 -4.4876  0.5186
 1122SOL     OW14827   0.723   0.451   6.554 -0.5771  0.6550  0.4363
 1122SOL    HW114828   0.695   0.390   6.622 -1.9035 -0.4558 -1.0704
 1122SOL    HW214829   0.757   0.388   6.491  0.4743  0.0264  1.6436
 1123SOL     OW14830   1.439   4.122   7.768  0.4852 -0.6077  0.2951
 1123SOL    HW114831   1.523   4.087   7.797  1.7282  0.8492 -1.5819
 1123SOL    HW214832   1.453   4.212   7.797  1.2857 -0.0733 -1.7822
 1124SOL     OW14833   0.344   0.221  12.171  0.2391  0.0520 -0.6230
 1124SOL    HW114834   0.264   0.226  12.223 -0.2696 -0.0936 -1.3827
 1124SOL    HW214835   0.321   0.191  12.083 -0.7449 -0.6571 -0.1275
 1125SOL     OW14836   0.620   1.447   2.057  0.5975 -0.2759 -0.0901
 1125SOL    HW114837   0.584   1.492   1.981  0.7782  1.5836  0.9226
 1125SOL    HW214838   0.684   1.386   2.018 -1.0427 -1.5322 -0.8128
 1126SOL     OW14839   1.880   3.089   2.735 -0.2825 -0.0041 -0.0564
 1126SOL    HW114840   1.934   3.130   2.803 -0.9219 -0.6515  0.8515
 1126SOL    HW214841   1.799   3.109   2.782 -0.3487  1.0301 -0.6117
 1127SOL     OW14842   1.937   1.679  16.820 -0.4512 -1.0281  0.3873
 1127SOL    HW114843   1.966   1.637  16.902  1.5511  1.4835  0.9765
 1127SOL    HW214844   1.890   1.610  16.773 -1.8275 -0.3273  0.7533
 1128SOL     OW14845   2.031   1.817   3.150  0.0050 -0.4002  0.3332
 1128SOL    HW114846   1.940   1.789   3.148  0.7380 -2.7396 -0.1621
 1128SOL    HW214847   2.028   1.913   3.152 -1.4542 -0.4494  0.4657
 1129SOL     OW14848   3.179   0.531   5.570  0.5511  0.4667 -0.3679
 1129SOL    HW114849   3.112   0.598   5.556 -1.1565 -1.2655 -0.6047
 1129SOL    HW214850   3.218   0.538   5.484 -0.3399  1.2034 -0.7171
 1130SOL     OW14851   1.661   2.458   3.599  0.3978  0.3737  0.0849
 1130SOL    HW114852   1.738   2.510   3.577  0.4907  0.5682  0.8550
 1130SOL    HW214853   1.699   2.374   3.573 -0.3704 -0.9336  3.1348
 1131SOL     OW14854   1.687   2.794   3.998 -0.3327 -0.3329  0.1585
 1131SOL    HW114855   1.648   2.800   4.085  1.0454  1.1197  0.6746
 1131SOL    HW214856   1.721   2.882   3.980  0.8217 -0.7529  0.2553
 1132SOL     OW14857   1.260   1.842   5.292 -0.5690 -0.3666  0.5507
 1132SOL    HW114858   1.322   1.887   5.235 -1.6693  1.1274  0.5589
 1132SOL    HW214859   1.269   1.892   5.374 -2.2368 -1.5225  1.4395
 1133SOL     OW14860   1.109   3.313   1.463 -0.2921 -0.2406 -0.0380
 1133SOL    HW114861   1.029   3.360   1.440  0.5737  1.5985  0.7354
 1133SOL    HW214862   1.166   3.381   1.499  0.1771 -1.7946  2.0994
 1134SOL     OW14863   2.450   2.894  14.771  0.1116  0.1623 -0.1027
 1134SOL    HW114864   2.482   2.980  14.800  0.2320  0.7572 -2.0255
 1134SOL    HW214865   2.530   2.853  14.738 -1.0853 -1.0040 -1.5424
 1135SOL     OW14866   4.377   4.483   3.136 -0.0575  0.1151 -0.0457
 1135SOL    HW114867   4.391   4.519   3.224 -1.2786 -0.8722  0.5609
 1135SOL    HW214868   4.442   4.414   3.142  0.0634  0.2256 -0.0736
 1136SOL     OW14869   2.892   1.391   9.665  0.0600 -0.4681  0.0104
 1136SOL    HW114870   2.975   1.428   9.694  0.6039 -1.4534 -0.2519
 1136SOL    HW214871   2.924   1.301   9.653  1.4778 -0.1278  1.3383
 1137SOL     OW14872   1.700   0.421   4.212  0.3912 -0.9154 -0.2179
 1137SOL    HW114873   1.728   0.478   4.284 -1.2423 -1.2904  0.7033
 1137SOL    HW214874   1.629   0.370   4.250  1.1112 -1.3896  0.4779
 1138SOL     OW14875   4.561   1.877   2.915 -0.1536  0.2189 -0.4046
 1138SOL    HW114876   4.636   1.818   2.917 -0.6724 -0.4147  0.1373
 1138SOL    HW214877   4.507   1.846   2.843 -0.6686 -0.0098  0.0855
 1139SOL     OW14878   1.353   1.606  14.655 -0.1781  0.2343 -0.1202
 1139SOL    HW114879   1.319   1.624  14.742  1.1188 -0.6630  0.5609
 1139SOL    HW214880   1.295   1.545  14.609 -0.3549 -0.1439  0.6181
 1140SOL     OW14881   4.013   2.924   0.697 -0.1488 -0.7723  0.1408
 1140SOL    HW114882   3.960   2.991   0.740  0.2209  0.2258 -0.9686
 1140SOL    HW214883   4.036   2.966   0.614  0.5508 -1.0995  0.1655
 1141SOL     OW14884   2.998   4.628  15.359  0.0257  0.2162 -0.3232
 1141SOL    HW114885   3.060   4.671  15.418 -0.2564 -0.9092  0.7870
 1141SOL    HW214886   2.977   4.703  15.303  0.2495  0.4044 -0.1536
 1142SOL     OW14887   2.485   4.257   7.534 -0.0600  0.0610 -0.4006
 1142SOL    HW114888   2.416   4.269   7.599  1.3083  0.9125  0.8764
 1142SOL    HW214889   2.555   4.224   7.589  0.7780  0.8287 -1.0019
 1143SOL     OW14890   3.125   4.239   4.045 -0.3368 -0.1381 -0.2425
 1143SOL    HW114891   3.070   4.171   4.005 -0.6966 -0.5516  0.9213
 1143SOL    HW214892   3.189   4.256   3.977  2.0827  1.5188  2.4851
 1144SOL     OW14893   2.129   4.357   2.710 -0.0281 -0.4708  0.6294
 1144SOL    HW114894   2.216   4.330   2.682 -0.2813  1.7585 -2.3699
 1144SOL    HW214895   2.080   4.367   2.628  0.8380 -1.0557  0.0423
 1145SOL     OW14896   3.042   1.050   2.860 -0.1200  0.4327  0.0717
 1145SOL    HW114897   2.961   1.066   2.909  0.0062 -1.7068  1.0014
 1145SOL    HW214898   3.021   0.958   2.844  1.7798 -0.1234  0.8243
 1146SOL     OW14899   0.332   1.381   6.936 -0.0596 -0.0721 -0.3454
 1146SOL    HW114900   0.290   1.334   7.008 -0.2222  0.4207 -0.1223
 1146SOL    HW214901   0.263   1.393   6.871 -1.5285 -2.7097  0.7191
 1147SOL     OW14902   0.544   3.627   6.192 -0.4903 -0.1379 -0.2590
 1147SOL    HW114903   0.474   3.610   6.256  2.5101 -3.7540  2.0864
 1147SOL    HW214904   0.558   3.535   6.169  1.5821  0.3386 -0.9502
 1148SOL     OW14905   0.901   2.219  17.510  0.5321  0.1753  0.0460
 1148SOL    HW114906   0.856   2.158  17.568 -0.8428  0.8913 -0.2797
 1148SOL    HW214907   0.899   2.168  17.429  0.4799 -1.8817  1.3485
 1149SOL     OW14908   4.584   0.352   9.006 -0.2681 -0.1147  0.0172
 1149SOL    HW114909   4.549   0.389   8.925 -0.4349 -1.3088 -0.4612
 1149SOL    HW214910   4.564   0.260   8.991 -0.5855 -0.2450  1.2205
 1150SOL     OW14911   3.758   1.318  15.052 -0.0473  0.3937  1.0650
 1150SOL    HW114912   3.810   1.397  15.067 -3.1306  2.6665 -0.3632
 1150SOL    HW214913   3.673   1.357  15.032  0.2540  0.5352  0.0749
 1151SOL     OW14914   0.471   3.818   2.646  0.1172  0.5975 -0.1323
 1151SOL    HW114915   0.497   3.731   2.676 -0.9511  0.2126 -0.3160
 1151SOL    HW214916   0.384   3.822   2.686  0.3241  0.1682  0.3751
 1152SOL     OW14917   2.194   3.356   8.632 -0.3371  0.0693  0.3271
 1152SOL    HW114918   2.109   3.401   8.625  0.1474  1.4155  3.0621
 1152SOL    HW214919   2.217   3.343   8.541  0.5675 -1.3825  0.7685
 1153SOL     OW14920   1.567   4.046   0.413  0.2136  0.1983 -0.2193
 1153SOL    HW114921   1.563   3.960   0.370 -2.2693  0.4054 -0.4173
 1153SOL    HW214922   1.658   4.064   0.388  1.0786 -0.4533  2.4212
 1154SOL     OW14923   1.195   0.125  13.221 -0.0134 -0.5094 -0.0356
 1154SOL    HW114924   1.180   0.056  13.157  0.0820 -1.5587  1.0926
 1154SOL    HW214925   1.205   0.080  13.304 -0.3465 -0.2063  0.1697
 1155SOL     OW14926   3.765   2.630  12.631 -0.1741 -0.5429  0.4065
 1155SOL    HW114927   3.847   2.636  12.582 -1.4659 -0.6357 -1.7340
 1155SOL    HW214928   3.746   2.537  12.618 -1.3200 -0.0311 -1.4861
 1156SOL     OW14929   1.893   1.938  14.489  0.0522 -0.2692  0.3404
 1156SOL    HW114930   1.904   1.928  14.395  3.7703 -0.7871  0.8206
 1156SOL    HW214931   1.882   1.848  14.519  1.2872 -0.2055  1.0149
 1157SOL     OW14932   2.194   2.095   9.178 -0.3880 -0.0150  0.4961
 1157SOL    HW114933   2.191   2.176   9.128 -1.3227 -0.0994  0.4258
 1157SOL    HW214934   2.220   2.032   9.111 -1.3145 -0.0153  0.1464
 1158SOL     OW14935   2.092   4.440  12.327 -0.5266  0.2557 -0.4869
 1158SOL    HW114936   2.072   4.398  12.243 -2.8413  0.9748 -0.3040
 1158SOL    HW214937   2.126   4.524  12.298  0.3306  0.8148  2.2137
 1159SOL     OW14938   0.294   3.802   2.997 -0.1897 -0.2750 -0.3505
 1159SOL    HW114939   0.329   3.727   2.949 -0.7400 -0.0432 -1.1151
 1159SOL    HW214940   0.199   3.788   2.992 -0.3750  0.9719 -0.2983
 1160SOL     OW14941   0.938   4.347   8.141  0.5286  0.1038  0.1415
 1160SOL    HW114942   0.922   4.348   8.046 -0.0467 -1.0178  0.2313
 1160SOL    HW214943   0.856   4.303   8.164 -0.0896  1.9270  1.4603
 1161SOL     OW14944   1.076   1.713   2.725 -0.2713 -0.1276 -0.0710
 1161SOL    HW114945   1.093   1.807   2.730 -1.2754  0.1704 -2.4459
 1161SOL    HW214946   1.023   1.704   2.646  1.8212 -0.7109 -1.4248
 1162SOL     OW14947   3.398   1.981   2.358  0.0894 -0.6521  0.1875
 1162SOL    HW114948   3.429   2.040   2.289 -0.7958 -0.8298 -0.3637
 1162SOL    HW214949   3.480   1.959   2.402  0.6812 -0.2056 -0.6808
 1163SOL     OW14950   1.155   3.624   2.888 -0.0047 -0.0306 -0.8743
 1163SOL    HW114951   1.247   3.642   2.871  0.0963 -0.6584 -1.0145
 1163SOL    HW214952   1.155   3.609   2.982 -1.0957  0.1853 -0.8335
 1164SOL     OW14953   2.903   2.592   9.531 -0.1781 -0.2165 -0.2271
 1164SOL    HW114954   2.957   2.550   9.465 -0.3124 -1.4874  0.4603
 1164SOL    HW214955   2.967   2.608   9.601  1.9550 -2.6349 -1.6349
 1165SOL     OW14956   3.149   1.916   7.849  0.3434 -0.5054 -0.9159
 1165SOL    HW114957   3.218   1.957   7.796  1.7741 -0.4451  1.0011
 1165SOL    HW214958   3.147   1.827   7.813 -0.4656 -1.1934  0.8565
 1166SOL     OW14959   2.795   0.531   9.227  0.1811  0.6896 -0.0345
 1166SOL    HW114960   2.846   0.457   9.260 -0.2980 -0.0310 -0.8916
 1166SOL    HW214961   2.789   0.586   9.304 -0.2474 -2.9568  2.5255
 1167SOL     OW14962   1.746   4.637   0.781 -0.2235 -0.4253  0.0690
 1167SOL    HW114963   1.773   4.611   0.693  2.1295  0.9142  0.4111
 1167SOL    HW214964   1.834   4.656   0.811  0.1158  1.1544 -1.9052
 1168SOL     OW14965   3.092   1.895   1.455 -0.2251 -0.1183  0.3337
 1168SOL    HW114966   3.079   1.935   1.369  0.7501  0.7408  0.5821
 1168SOL    HW214967   3.002   1.897   1.486 -0.1289 -0.1270  0.6153
 1169SOL     OW14968   0.658   0.618   7.745  0.2583  0.5594 -0.2105
 1169SOL    HW114969   0.618   0.643   7.661  1.2878  0.4814 -0.7193
 1169SOL    HW214970   0.596   0.549   7.770  0.7697 -0.2353 -1.1269
 1170SOL     OW14971   3.327   2.250   8.575 -0.5338  0.0039  0.1894
 1170SOL    HW114972   3.401   2.295   8.616 -0.6858  0.2310  0.2141
 1170SOL    HW214973   3.335   2.158   8.600 -1.1787 -0.1077 -0.0028
 1171SOL     OW14974   0.098   3.619  17.485 -0.3546  0.0103  0.3475
 1171SOL    HW114975   0.187   3.650  17.466 -0.3942 -1.2361 -1.8784
 1171SOL    HW214976   0.063   3.677  17.553 -0.9361  0.6903 -0.5334
 1172SOL     OW14977   0.821   2.029   1.951 -0.4007  0.3260  0.6186
 1172SOL    HW114978   0.767   2.071   1.884 -1.3808  0.2809  1.3893
 1172SOL    HW214979   0.908   2.019   1.912 -0.7659 -0.0774 -0.1028
 1173SOL     OW14980   0.030   3.212   9.857 -0.5122 -0.3622  0.0259
 1173SOL    HW114981   4.681   3.158   9.840 -0.9923  0.4315 -0.2605
 1173SOL    HW214982   0.074   3.156   9.921  1.8601 -0.6320 -1.8748
 1174SOL     OW14983   2.572   4.274  13.554  0.3817  0.1286 -0.3070
 1174SOL    HW114984   2.534   4.299  13.638 -2.4290 -1.3045 -1.1242
 1174SOL    HW214985   2.665   4.290  13.568  0.9743 -0.3058 -3.5469
 1175SOL     OW14986   0.078   0.895   3.418 -0.6007  0.3484  0.3833
 1175SOL    HW114987   0.049   0.814   3.460  0.6306 -0.3781 -0.1526
 1175SOL    HW214988   0.056   0.888   3.325  0.6961 -1.6696  0.2130
 1176SOL     OW14989   2.409   3.078   0.731 -0.2265 -0.1246  0.0080
 1176SOL    HW114990   2.428   3.012   0.797  2.5924 -0.2427 -0.9270
 1176SOL    HW214991   2.377   3.024   0.659  0.4796 -1.8027  0.9701
 1177SOL     OW14992   2.289   1.425   3.640 -0.1303 -0.0796 -0.5336
 1177SOL    HW114993   2.255   1.359   3.580 -0.2576 -0.9447  0.4803
 1177SOL    HW214994   2.377   1.393   3.662 -0.4984 -1.1604 -0.5920
 1178SOL     OW14995   0.470   2.462   0.371 -0.0252 -0.8913 -0.1748
 1178SOL    HW114996   0.471   2.554   0.347 -2.0390 -1.1542 -1.2744
 1178SOL    HW214997   0.387   2.444   0.328 -1.5570  0.2181  2.3061
 1179SOL     OW14998   0.583   1.535   8.712 -0.7408  0.5399 -0.7660
 1179SOL    HW114999   0.606   1.501   8.799  2.0343  0.6583 -1.4461
 1179SOL    HW215000   0.601   1.628   8.728 -2.3546  0.8309 -0.6543
 1180SOL     OW15001   1.716   1.391  16.944  0.0413  0.3351 -0.2464
 1180SOL    HW115002   1.748   1.420  17.029 -1.2646  1.8635 -0.2850
 1180SOL    HW215003   1.646   1.331  16.970  0.5336 -1.0765 -2.1603
 1181SOL     OW15004   2.044   0.451   8.248  0.0315  0.3390  0.0317
 1181SOL    HW115005   2.025   0.406   8.166 -1.5444  1.3627 -0.1686
 1181SOL    HW215006   1.997   0.532   8.228 -0.4273  0.6238  2.2633
 1182SOL     OW15007   2.472   4.208   8.229  0.0670  0.0873 -0.3586
 1182SOL    HW115008   2.443   4.119   8.248 -1.8099  0.4409 -1.5510
 1182SOL    HW215009   2.497   4.193   8.137 -2.1725  0.5553 -1.0458
 1183SOL     OW15010   2.852   2.119   5.310  0.1423  0.9273 -0.1585
 1183SOL    HW115011   2.934   2.145   5.352 -1.4883  1.2000  2.8157
 1183SOL    HW215012   2.802   2.087   5.385  2.9246 -0.4906  1.0865
 1184SOL     OW15013   2.785   1.587  10.213  0.5973  0.3531 -0.2167
 1184SOL    HW115014   2.804   1.542  10.294 -1.0595  1.3939  0.7682
 1184SOL    HW215015   2.820   1.531  10.144 -2.3486 -0.7353 -0.8523
 1185SOL     OW15016   2.413   4.098  12.291  0.4431  0.0183  0.2710
 1185SOL    HW115017   2.373   4.168  12.343 -0.7443 -0.9886  0.6938
 1185SOL    HW215018   2.392   4.131  12.203 -0.1335  0.3219  0.5216
 1186SOL     OW15019   1.270   2.967  11.995  0.0084  0.0628  0.0567
 1186SOL    HW115020   1.218   3.042  11.967 -1.3956 -1.5206 -1.5730
 1186SOL    HW215021   1.230   2.946  12.079 -2.5086 -1.6013 -1.5982
 1187SOL     OW15022   2.447   0.389   6.571 -0.9244 -0.5282  0.0827
 1187SOL    HW115023   2.437   0.473   6.616  0.3230 -0.0143 -0.6041
 1187SOL    HW215024   2.459   0.420   6.481  0.6593 -1.0404  0.1252
 1188SOL     OW15025   1.417   2.585   5.935  0.2055 -0.3128 -0.5556
 1188SOL    HW115026   1.352   2.601   6.004  1.1768  0.6855  0.1453
 1188SOL    HW215027   1.490   2.574   5.997  0.3533 -1.4151 -0.9363
 1189SOL     OW15028   4.057   0.184   2.074 -0.7811  0.3049  0.0900
 1189SOL    HW115029   4.021   0.114   2.021 -4.0791  1.2519  1.0951
 1189SOL    HW215030   4.099   0.128   2.139  1.0175 -1.9411 -2.9828
 1190SOL     OW15031   3.080   0.173   4.563  0.1898 -0.0746  0.1619
 1190SOL    HW115032   3.075   0.192   4.657 -0.4688  0.9813 -0.0828
 1190SOL    HW215033   3.024   0.247   4.538  1.3929  0.8163  0.1008
 1191SOL     OW15034   2.329   2.045  15.213  0.4887  0.4494 -0.2661
 1191SOL    HW115035   2.379   1.972  15.176 -0.1215  0.3210 -0.8432
 1191SOL    HW215036   2.363   2.054  15.301 -0.0858  3.6188 -0.3845
 1192SOL     OW15037   1.797   2.709   3.207  0.3024  0.2703 -0.1438
 1192SOL    HW115038   1.884   2.746   3.192  0.0230  0.2678 -1.8093
 1192SOL    HW215039   1.817   2.626   3.251  0.5338  0.9797  1.0786
 1193SOL     OW15040   3.863   0.966   6.472  0.1795 -0.1171  0.2453
 1193SOL    HW115041   3.789   0.974   6.532 -0.3580 -1.9293 -0.1752
 1193SOL    HW215042   3.829   1.001   6.390 -0.9797  0.3748  0.9503
 1194SOL     OW15043   3.733   3.369   5.121  0.5338 -0.3462  0.4640
 1194SOL    HW115044   3.827   3.379   5.141  0.5255  0.1530  0.2679
 1194SOL    HW215045   3.706   3.291   5.169 -2.4196 -1.3727 -2.8358
 1195SOL     OW15046   0.947   3.451   7.123  0.5724 -0.1424 -0.5031
 1195SOL    HW115047   0.888   3.513   7.080  1.5819  1.2441  0.1164
 1195SOL    HW215048   0.944   3.387   7.051 -0.9338  0.6834 -1.1781
 1196SOL     OW15049   2.469   3.556   6.727  0.5714  0.6094 -0.1664
 1196SOL    HW115050   2.489   3.648   6.741  3.4632 -0.1740  0.8951
 1196SOL    HW215051   2.376   3.559   6.706  0.9349  1.6047 -1.6376
 1197SOL     OW15052   3.621   3.402   4.892 -0.1307  0.0663 -0.1206
 1197SOL    HW115053   3.648   3.380   4.981  0.9654 -2.1270 -0.9802
 1197SOL    HW215054   3.527   3.388   4.894 -0.5344  2.3890 -2.1758
 1198SOL     OW15055   1.772   4.521  12.058 -0.9027  0.1189 -0.7229
 1198SOL    HW115056   1.738   4.606  12.085 -1.5632 -0.9180  1.7506
 1198SOL    HW215057   1.767   4.479  12.144  0.4490  1.3874 -0.0317
 1199SOL     OW15058   0.766   3.773   3.628 -0.1736 -0.0761  0.2261
 1199SOL    HW115059   0.732   3.847   3.578 -1.3339 -1.5258 -1.1268
 1199SOL    HW215060   0.687   3.732   3.664 -1.9809  1.4311 -2.0413
 1200SOL     OW15061   1.773   4.099   9.226  0.5457 -0.3258  0.5214
 1200SOL    HW115062   1.751   4.039   9.155  2.7209 -0.1092 -0.3281
 1200SOL    HW215063   1.699   4.160   9.220 -0.0305 -0.9710  1.1937
 1201SOL     OW15064   4.380   4.302   4.039 -0.2638  0.2333 -0.2663
 1201SOL    HW115065   4.328   4.337   3.967 -0.0597 -1.7842 -1.3937
 1201SOL    HW215066   4.320   4.246   4.088  0.4711 -0.5871 -0.2889
 1202SOL     OW15067   3.584   2.179  10.823  0.4459  0.2873  0.2132
 1202SOL    HW115068   3.637   2.103  10.799  0.0841 -0.0798  0.5577
 1202SOL    HW215069   3.502   2.152  10.782  0.5475  0.4863 -0.1204
 1203SOL     OW15070   0.140   0.128  12.783 -0.4018  0.3627  0.1427
 1203SOL    HW115071   0.104   0.042  12.806  0.4382 -0.1544 -0.5088
 1203SOL    HW215072   0.196   0.109  12.708 -0.4545 -1.2964  0.5254
 1204SOL     OW15073   2.855   2.052   1.428  0.1811 -0.1829 -0.5159
 1204SOL    HW115074   2.803   2.101   1.493  0.4389 -0.2501 -0.2576
 1204SOL    HW215075   2.786   1.998   1.391 -1.6867  1.3155  0.7519
 1205SOL     OW15076   3.909   0.994   3.670 -0.2784 -0.2629 -0.2798
 1205SOL    HW115077   3.937   1.000   3.578 -0.8281  1.9561 -0.2932
 1205SOL    HW215078   3.958   0.912   3.681  1.5834  0.7627 -0.8648
 1206SOL     OW15079   4.221   0.241   1.832  0.0804 -0.0615  0.1684
 1206SOL    HW115080   4.177   0.292   1.763  0.6481 -1.3495 -1.1501
 1206SOL    HW215081   4.151   0.236   1.897  0.4820  1.0260  0.6785
 1207SOL     OW15082   1.691   3.109  13.140  0.4910  0.1965  0.3476
 1207SOL    HW115083   1.620   3.116  13.076 -0.3961  1.2455  1.4765
 1207SOL    HW215084   1.745   3.184  13.118 -0.2337 -0.0494 -2.3271
 1208SOL     OW15085   4.532   1.481   3.129  0.6622  0.1396  0.4181
 1208SOL    HW115086   4.574   1.395   3.125 -0.5069 -0.2985 -2.0900
 1208SOL    HW215087   4.502   1.479   3.038  2.0924  0.1590 -0.0559
 1209SOL     OW15088   4.002   1.503  13.135  0.4714 -0.2988  0.2668
 1209SOL    HW115089   4.094   1.513  13.161 -0.1742 -0.7639  2.7719
 1209SOL    HW215090   3.993   1.408  13.128 -2.7522  0.1109 -1.0724
 1210SOL     OW15091   0.858   2.754  14.860 -0.2088  0.8686  0.0643
 1210SOL    HW115092   0.876   2.834  14.810  0.6641  0.2313 -0.6505
 1210SOL    HW215093   0.920   2.778  14.929  0.1779 -1.0836  0.4070
 1211SOL     OW15094   1.319   3.640   6.249  0.0109  0.4016  0.2105
 1211SOL    HW115095   1.269   3.657   6.330  2.9239  2.4149  1.5832
 1211SOL    HW215096   1.260   3.682   6.186 -0.9129 -0.4665  0.4925
 1212SOL     OW15097   0.349   2.084   2.903  0.4430 -0.1770  0.1848
 1212SOL    HW115098   0.415   2.142   2.866  0.5138 -1.3262 -1.4630
 1212SOL    HW215099   0.388   2.000   2.881  0.5355  0.6697 -2.8058
 1213SOL     OW15100   2.265   1.294   5.033 -0.1671 -0.3252  0.4031
 1213SOL    HW115101   2.300   1.371   5.080  1.1745  0.2365 -1.5372
 1213SOL    HW215102   2.340   1.256   4.986 -1.1081 -1.0589 -0.4842
 1214SOL     OW15103   0.217   3.641   2.534 -0.0185 -0.1224 -0.0656
 1214SOL    HW115104   0.122   3.638   2.546 -0.0103 -3.0589 -0.6827
 1214SOL    HW215105   0.233   3.716   2.591  1.6037 -0.5853  0.0961
 1215SOL     OW15106   0.079   3.185   5.005 -0.0650  0.3521  0.1042
 1215SOL    HW115107   0.085   3.171   5.099  0.6924 -0.0175  0.0040
 1215SOL    HW215108   0.165   3.226   4.994  0.5637 -0.6424  1.3945
 1216SOL     OW15109   2.813   0.431   4.808 -0.0302 -0.0210 -0.3760
 1216SOL    HW115110   2.827   0.475   4.724  0.1814  2.0688  0.7478
 1216SOL    HW215111   2.717   0.432   4.811 -0.0338 -0.6144 -0.3322
 1217SOL     OW15112   2.459   0.102  11.673 -0.0927  0.6493  0.2188
 1217SOL    HW115113   2.366   0.126  11.662 -0.4368 -0.8369 -0.0173
 1217SOL    HW215114   2.472   0.022  11.622  0.0936  0.5890  0.3638
 1218SOL     OW15115   0.522   0.883   1.942 -0.0436 -0.3201 -0.0312
 1218SOL    HW115116   0.493   0.974   1.945  0.8004 -0.0161 -0.9782
 1218SOL    HW215117   0.618   0.894   1.942  0.0863 -1.4669 -1.9857
 1219SOL     OW15118   3.966   3.123   8.880 -0.2679 -0.3582 -0.1101
 1219SOL    HW115119   3.900   3.053   8.879 -0.8060  0.1425  0.3642
 1219SOL    HW215120   3.969   3.143   8.973 -0.1675 -1.7904  0.1995
 1220SOL     OW15121   4.523   0.062  12.565 -0.1039  0.1532 -0.7740
 1220SOL    HW115122   4.511   0.012  12.645  3.1248 -0.0508 -0.3888
 1220SOL    HW215123   4.603   0.022  12.529 -0.4894 -0.9934 -0.3535
 1221SOL     OW15124   4.123   3.202  15.955 -0.1387 -0.0854  0.8268
 1221SOL    HW115125   4.156   3.185  15.866 -1.2276  0.7291  0.2629
 1221SOL    HW215126   4.177   3.140  16.003  0.2323 -0.5197 -0.1357
 1222SOL     OW15127   2.247   0.605   5.671  0.3388  0.3134  0.0254
 1222SOL    HW115128   2.317   0.634   5.728  0.7849  2.9083 -1.8354
 1222SOL    HW215129   2.284   0.535   5.617 -0.2712  0.2189 -0.2723
 1223SOL     OW15130   3.800   2.763   1.938 -0.2470  0.0184 -0.4548
 1223SOL    HW115131   3.879   2.751   1.885  0.6224 -2.0301  1.2844
 1223SOL    HW215132   3.754   2.819   1.876 -0.8151 -0.9123 -0.8781
 1224SOL     OW15133   1.913   4.415  15.149 -0.0403  0.5624 -0.5844
 1224SOL    HW115134   1.836   4.408  15.092 -1.4756  1.9715  1.1787
 1224SOL    HW215135   1.923   4.510  15.146 -0.9810  0.6305 -1.9232
 1225SOL     OW15136   4.272   4.693  15.438 -0.8784  0.6089  0.3954
 1225SOL    HW115137   4.183   4.727  15.445 -1.3239 -1.0096  2.4789
 1225SOL    HW215138   4.267   4.607  15.479 -0.4955  0.2834 -0.2333
 1226SOL     OW15139   2.703   1.120   5.034 -0.1264 -0.3430  0.0190
 1226SOL    HW115140   2.771   1.188   5.032 -1.9705  1.4232 -3.1588
 1226SOL    HW215141   2.644   1.156   4.967  1.5649 -2.8413 -2.7984
 1227SOL     OW15142   2.674   4.307   0.434  0.1186  0.2461  0.3897
 1227SOL    HW115143   2.620   4.299   0.512  0.1700 -0.7546  0.3260
 1227SOL    HW215144   2.622   4.258   0.371 -0.3301 -0.8819  1.6388
 1228SOL     OW15145   0.895   1.988   4.879 -0.1383 -0.9616 -1.1141
 1228SOL    HW115146   0.861   1.999   4.791 -2.3907  0.7979 -0.0315
 1228SOL    HW215147   0.973   2.043   4.875 -0.2423 -0.7330 -0.1450
 1229SOL     OW15148   1.094   0.582   3.701 -0.2220  0.2044 -0.4411
 1229SOL    HW115149   1.143   0.637   3.640  2.4750 -0.7311  0.8913
 1229SOL    HW215150   1.155   0.507   3.706  1.1229  1.4117  1.1951
 1230SOL     OW15151   0.626   1.453   8.955 -0.0721  0.0260  0.1373
 1230SOL    HW115152   0.685   1.379   8.973  0.4079  1.0718  2.8555
 1230SOL    HW215153   0.599   1.468   9.046  0.8066  1.0319  0.2269
 1231SOL     OW15154   1.834   0.430  12.961  0.0509 -0.0683 -0.5846
 1231SOL    HW115155   1.909   0.387  12.919 -1.0029 -0.7029 -1.8376
 1231SOL    HW215156   1.777   0.355  12.977  0.9443 -1.3802 -3.4619
 1232SOL     OW15157   2.630   2.136  14.153 -0.1705 -0.0384 -0.1063
 1232SOL    HW115158   2.560   2.195  14.125 -0.1005 -0.3095 -0.8645
 1232SOL    HW215159   2.670   2.108  14.071  0.5334  0.2968  0.1170
 1233SOL     OW15160   0.266   3.191   9.690 -0.6779 -0.8139  0.4426
 1233SOL    HW115161   0.188   3.196   9.745 -0.3099  2.4764  0.6388
 1233SOL    HW215162   0.234   3.199   9.600  1.2885  1.2379 -0.0558
 1234SOL     OW15163   2.668   1.568   8.400  0.5665 -0.4516  0.7748
 1234SOL    HW115164   2.635   1.509   8.469 -2.6065 -0.2533 -0.5857
 1234SOL    HW215165   2.757   1.532   8.397  0.5369 -0.3894 -0.8284
 1235SOL     OW15166   0.087   0.308   5.212  0.2069  0.3616  0.1117
 1235SOL    HW115167   0.125   0.352   5.288 -0.1248 -0.6786  0.8801
 1235SOL    HW215168   0.076   0.219   5.246 -1.9880  0.5359 -0.1669
 1236SOL     OW15169   3.135   0.737   8.820 -0.1922 -0.1992 -0.1037
 1236SOL    HW115170   3.100   0.648   8.833 -0.0600 -0.3783 -0.9631
 1236SOL    HW215171   3.081   0.785   8.883  0.3554 -2.1986  1.8919
 1237SOL     OW15172   0.590   3.265   4.555  0.8905  0.4141 -0.1688
 1237SOL    HW115173   0.665   3.320   4.578  2.7479 -1.4938 -1.6706
 1237SOL    HW215174   0.622   3.221   4.476  0.0035  0.2751 -0.4523
 1238SOL     OW15175   4.666   3.288   5.489 -0.1678  0.2886 -0.5474
 1238SOL    HW115176   4.584   3.250   5.520  0.3832 -0.1771  0.3418
 1238SOL    HW215177   0.007   3.258   5.548 -0.6341 -0.3299 -0.3117
 1239SOL     OW15178   0.083   0.548   8.124 -0.0291  0.8063  0.4802
 1239SOL    HW115179   0.178   0.552   8.114  0.2084 -0.3407  2.4273
 1239SOL    HW215180   0.055   0.522   8.036 -0.6214  1.8025  0.3651
 1240SOL     OW15181   2.597   3.220   2.334  0.8045 -0.0267 -0.5047
 1240SOL    HW115182   2.630   3.292   2.388  0.9381 -1.0982  0.8320
 1240SOL    HW215183   2.514   3.201   2.379  0.5932  1.0701 -0.4317
 1241SOL     OW15184   4.119   3.325   5.607 -0.2314 -1.0685  0.3066
 1241SOL    HW115185   4.203   3.280   5.616  1.3589  2.0214  0.8904
 1241SOL    HW215186   4.094   3.329   5.699  0.3918  1.9000  0.3459
 1242SOL     OW15187   3.687   0.474   9.545 -0.4370 -0.8293  0.6074
 1242SOL    HW115188   3.594   0.460   9.559 -0.3986 -2.1915 -0.5261
 1242SOL    HW215189   3.694   0.560   9.587 -0.6578 -1.4370  1.8838
 1243SOL     OW15190   4.585   1.075   4.700 -0.1513 -0.6243 -0.4305
 1243SOL    HW115191   4.577   1.138   4.628  1.2204  0.4703  0.3708
 1243SOL    HW215192   4.507   1.108   4.744  0.3341 -0.7115  0.4814
 1244SOL     OW15193   2.129   4.695  12.255  0.0916 -0.1847  0.1826
 1244SOL    HW115194   2.176   0.003  12.330 -1.0385  0.0898  0.7592
 1244SOL    HW215195   2.082   0.038  12.213  1.7028  0.5783 -0.3006
 1245SOL     OW15196   2.591   1.263  17.695  0.1488  0.0793  0.4444
 1245SOL    HW115197   2.669   1.220   0.015  0.9161 -0.1250 -1.4162
 1245SOL    HW215198   2.606   1.355   0.003  0.8576 -0.8842  3.6794
 1246SOL     OW15199   0.124   1.571   4.011  0.3557 -0.0776 -0.4146
 1246SOL    HW115200   0.193   1.509   4.036  0.6195  0.8171  1.0084
 1246SOL    HW215201   0.170   1.637   3.960  2.9977 -1.8252 -0.2914
 1247SOL     OW15202   4.286   3.101   9.671 -0.2983 -0.2102  0.0421
 1247SOL    HW115203   4.192   3.117   9.663 -0.9067 -3.2951  1.1225
 1247SOL    HW215204   4.288   3.033   9.738 -0.9280  0.7310  1.0147
 1248SOL     OW15205   0.092   0.463   6.611  0.0601 -0.1653  0.2827
 1248SOL    HW115206   0.056   0.551   6.619 -0.3267 -0.1088 -2.3583
 1248SOL    HW215207   0.120   0.452   6.703  0.1553  1.3553  0.4248
 1249SOL     OW15208   2.239   4.003  11.460  0.0256  0.2052 -0.0506
 1249SOL    HW115209   2.164   4.053  11.491 -2.4967 -2.3243 -2.1173
 1249SOL    HW215210   2.205   3.984  11.372  1.7565 -1.1722 -0.4174
 1250SOL     OW15211   1.666   4.182   9.498 -0.3310 -0.6791 -0.2960
 1250SOL    HW115212   1.651   4.171   9.405 -2.8461 -0.1806  0.0559
 1250SOL    HW215213   1.580   4.161   9.533 -0.8411 -0.7742 -1.6131
 1251SOL     OW15214   3.918   2.863   3.723 -0.3972  0.5116 -0.3076
 1251SOL    HW115215   3.933   2.784   3.775  0.3722  1.7267  1.2767
 1251SOL    HW215216   3.847   2.908   3.768 -0.9210 -1.4632  0.8553
 1252SOL     OW15217   0.443   2.690   4.111  0.4277 -0.3727 -0.3110
 1252SOL    HW115218   0.430   2.652   4.024 -1.1919 -0.5807  0.0163
 1252SOL    HW215219   0.539   2.688   4.108  0.4600  1.9167 -0.0622
 1253SOL     OW15220   1.177   1.705   9.499 -0.0917  0.1222 -0.6374
 1253SOL    HW115221   1.147   1.761   9.427  1.5678 -0.2602 -1.6329
 1253SOL    HW215222   1.111   1.635   9.499  2.6339 -2.4360 -0.2556
 1254SOL     OW15223   1.190   0.726   4.529 -0.2372 -0.5851 -0.0889
 1254SOL    HW115224   1.168   0.799   4.587  3.5733  1.0508 -0.7218
 1254SOL    HW215225   1.255   0.681   4.583  0.1310  1.3177  1.0534
 1255SOL     OW15226   0.665   0.289   2.615  0.2355 -0.3318  0.2063
 1255SOL    HW115227   0.627   0.225   2.554 -0.9740  1.3117 -0.7553
 1255SOL    HW215228   0.736   0.313   2.556  1.7252 -0.6544  1.8745
 1256SOL     OW15229   2.666   2.261   5.554 -0.0637  0.3998 -0.3443
 1256SOL    HW115230   2.637   2.267   5.463 -1.1720 -2.0786 -0.1635
 1256SOL    HW215231   2.581   2.275   5.595 -0.3656 -1.6689 -0.2781
 1257SOL     OW15232   4.552   1.753   5.228  0.0790  0.0143  0.0824
 1257SOL    HW115233   4.575   1.668   5.190  2.9999  1.2677 -0.9707
 1257SOL    HW215234   4.635   1.801   5.232  0.4876 -0.9107  2.7106
 1258SOL     OW15235   3.191   2.944   6.256  0.2822 -0.3191  0.1275
 1258SOL    HW115236   3.242   3.021   6.280 -1.1684  0.6836 -0.0158
 1258SOL    HW215237   3.193   2.970   6.164 -0.1811  0.8292  0.4402
 1259SOL     OW15238   1.182   2.690   4.464  0.2079  0.2902 -0.4139
 1259SOL    HW115239   1.119   2.634   4.510 -0.0128  1.1046  0.2727
 1259SOL    HW215240   1.255   2.629   4.455 -1.9828 -2.5243  0.4586
 1260SOL     OW15241   1.809   2.426  11.994 -0.3571  0.6354  0.0029
 1260SOL    HW115242   1.892   2.421  11.947  0.4063  0.2909  1.3914
 1260SOL    HW215243   1.762   2.362  11.940  0.3697  0.3998 -0.3459
 1261SOL     OW15244   3.674   1.338   4.237  0.4180  0.4159 -0.5995
 1261SOL    HW115245   3.606   1.321   4.302  0.4838  0.0270 -0.6348
 1261SOL    HW215246   3.681   1.434   4.242 -0.7984  0.2175  4.8254
 1262SOL     OW15247   3.692   0.396   1.873  0.1201 -0.4895  0.8212
 1262SOL    HW115248   3.676   0.317   1.924 -0.9915  0.4430  1.9151
 1262SOL    HW215249   3.777   0.432   1.899  0.2527 -1.5876  1.9250
 1263SOL     OW15250   4.351   3.181   8.204 -0.0781 -0.0153 -0.4485
 1263SOL    HW115251   4.438   3.219   8.220  0.7385 -2.6091  1.3760
 1263SOL    HW215252   4.303   3.201   8.285 -2.2152 -1.4778 -1.3497
 1264SOL     OW15253   3.482   3.111   5.142  0.1486 -0.2634 -0.1267
 1264SOL    HW115254   3.458   3.052   5.071  1.6314  0.6063 -1.3627
 1264SOL    HW215255   3.428   3.186   5.114 -1.8563 -1.8022 -0.3291
 1265SOL     OW15256   0.754   0.531   2.991 -0.0753 -0.0977  0.0022
 1265SOL    HW115257   0.731   0.442   2.965 -1.0766  0.5776 -1.4343
 1265SOL    HW215258   0.678   0.536   3.048  1.5366 -0.4988  2.1849
 1266SOL     OW15259   4.032   0.473   0.856  0.1542  0.4356  0.0364
 1266SOL    HW115260   4.026   0.427   0.940 -3.9774 -0.3425 -0.6787
 1266SOL    HW215261   4.037   0.566   0.875 -0.8685  1.1021 -2.8258
 1267SOL     OW15262   0.588   1.457   6.607 -0.3353  0.0499 -0.3308
 1267SOL    HW115263   0.509   1.407   6.585  1.4655 -3.4714  1.2235
 1267SOL    HW215264   0.573   1.489   6.695 -0.1168 -0.1475 -0.2215
 1268SOL     OW15265   1.239   4.356  12.428 -0.2451  0.2239 -0.3417
 1268SOL    HW115266   1.312   4.350  12.367 -0.5537  0.8357 -0.7746
 1268SOL    HW215267   1.167   4.332  12.369 -0.8273  2.5488 -0.5608
 1269SOL     OW15268   1.837   0.490   6.110  0.3559 -0.6345 -0.2150
 1269SOL    HW115269   1.882   0.504   6.193 -0.2092 -0.7630  0.1146
 1269SOL    HW215270   1.758   0.442   6.136  0.6412 -1.3311 -0.6349
 1270SOL     OW15271   1.000   3.215  15.173  0.8154 -0.1590 -0.5619
 1270SOL    HW115272   1.081   3.224  15.123  0.6518 -0.9477 -0.9731
 1270SOL    HW215273   1.033   3.169  15.250 -1.9084 -0.5220  0.3824
 1271SOL     OW15274   3.441   1.031   1.575  0.0625 -0.1164  0.1104
 1271SOL    HW115275   3.484   1.021   1.660  0.2696  0.6418  0.0956
 1271SOL    HW215276   3.430   0.941   1.545  1.3558 -0.1733 -0.1928
 1272SOL     OW15277   0.690   2.466   2.410 -0.3062 -0.1817 -0.3086
 1272SOL    HW115278   0.668   2.391   2.466  2.0871 -2.1032 -1.9183
 1272SOL    HW215279   0.680   2.536   2.475 -1.0035 -1.3318  0.8210
 1273SOL     OW15280   2.120   1.888  16.913 -0.5132  0.2560  0.2623
 1273SOL    HW115281   2.156   1.882  16.824  0.7341 -0.1664  0.7869
 1273SOL    HW215282   2.067   1.808  16.913  2.3837 -1.6926 -1.1205
 1274SOL     OW15283   1.782   3.737   8.756  0.0905 -0.5035  0.5185
 1274SOL    HW115284   1.856   3.792   8.781 -0.1169 -0.3451  0.7871
 1274SOL    HW215285   1.756   3.782   8.676  0.0355  0.6818  1.1893
 1275SOL     OW15286   3.090   2.336   0.474  0.4773  0.1921 -0.3127
 1275SOL    HW115287   3.103   2.396   0.547 -1.2707  0.1784 -0.0018
 1275SOL    HW215288   3.161   2.375   0.422 -0.1593  1.3707 -0.3036
 1276SOL     OW15289   1.912   0.033   1.319 -0.2215  0.1172  0.3033
 1276SOL    HW115290   2.007   0.035   1.307 -0.2625 -2.6003 -0.4175
 1276SOL    HW215291   1.908   4.673   1.284  1.9555  0.0079  0.3216
 1277SOL     OW15292   2.969   1.412   2.110 -0.1936 -0.0256  0.3658
 1277SOL    HW115293   2.894   1.381   2.160 -0.0629 -1.2306 -0.2063
 1277SOL    HW215294   2.971   1.498   2.154  0.2963  0.5767 -0.8228
 1278SOL     OW15295   0.699   4.603   3.290 -0.0980 -0.6707 -0.5572
 1278SOL    HW115296   0.778   4.640   3.251  1.5530 -2.6065  0.9486
 1278SOL    HW215297   0.639   4.592   3.216 -0.3145  0.8634 -0.6087
 1279SOL     OW15298   3.187   3.310   7.937  0.0024  0.5073 -0.2023
 1279SOL    HW115299   3.112   3.286   7.991  1.3006  0.3560  1.5443
 1279SOL    HW215300   3.175   3.404   7.936 -0.4707  0.4550  0.8199
 1280SOL     OW15301   2.815   3.455  11.732  0.5998 -0.2082  0.2971
 1280SOL    HW115302   2.820   3.371  11.686  3.0456 -0.7690  1.5759
 1280SOL    HW215303   2.801   3.429  11.824 -1.0425  0.9463  0.3640
 1281SOL     OW15304   1.267   1.004   4.456 -0.6540 -0.9445 -0.1792
 1281SOL    HW115305   1.340   0.972   4.402 -1.4871 -0.7824 -1.4190
 1281SOL    HW215306   1.252   1.092   4.422  1.3002 -0.8499 -0.8093
 1282SOL     OW15307   1.555   1.633   6.362 -0.0404 -0.1442  0.1802
 1282SOL    HW115308   1.596   1.581   6.293  2.4516  1.1007  0.6877
 1282SOL    HW215309   1.635   1.642   6.414 -1.2496  0.3730  1.9308
 1283SOL     OW15310   2.222   3.254   3.960  0.1797 -0.5017  0.0414
 1283SOL    HW115311   2.201   3.193   4.031 -1.4177 -1.2308 -1.0655
 1283SOL    HW215312   2.294   3.212   3.912 -0.5889  0.1043 -1.6341
 1284SOL     OW15313   1.028   3.935   7.049  0.6697 -0.0753  0.4347
 1284SOL    HW115314   0.983   3.859   7.012  0.3149 -0.3624  1.4687
 1284SOL    HW215315   1.007   3.920   7.141 -2.1035 -0.7324 -0.2995
 1285SOL     OW15316   2.746   1.977   2.079  0.0559 -0.3490 -0.4591
 1285SOL    HW115317   2.725   1.965   1.986 -0.8920 -2.3224  0.0124
 1285SOL    HW215318   2.764   2.071   2.073  1.8636 -0.5428  1.7736
 1286SOL     OW15319   3.037   1.694   5.690 -0.0880  0.3696  0.1485
 1286SOL    HW115320   3.079   1.765   5.641  0.6546 -1.5596 -2.0574
 1286SOL    HW215321   2.952   1.678   5.650  0.4219 -0.3026 -0.6786
 1287SOL     OW15322   1.512   0.990  14.265 -0.1039 -0.0701  0.2197
 1287SOL    HW115323   1.473   0.951  14.186  0.3057  0.6272 -0.3270
 1287SOL    HW215324   1.436   1.025  14.312  0.1709 -0.8797  1.2545
 1288SOL     OW15325   3.232   0.411   5.987  0.4868 -0.4047 -0.1562
 1288SOL    HW115326   3.323   0.384   5.975  0.9886  0.9245  0.6862
 1288SOL    HW215327   3.197   0.346   5.926  0.7944 -1.2878  0.5951
 1289SOL     OW15328   3.555   1.663   3.032 -0.2698 -0.4584  0.0346
 1289SOL    HW115329   3.586   1.751   3.012 -0.8763  0.0540  1.3562
 1289SOL    HW215330   3.469   1.686   3.068  0.6329  2.5905  0.2428
 1290SOL     OW15331   1.916   0.646   8.089  0.6429 -0.1850 -0.3425
 1290SOL    HW115332   1.865   0.722   8.117 -0.1452 -1.4037  1.5080
 1290SOL    HW215333   1.963   0.676   8.011  0.1233  0.8662 -0.2487
 1291SOL     OW15334   1.674   1.905   7.177 -0.4455 -0.7394  0.4432
 1291SOL    HW115335   1.640   1.856   7.252 -0.3456 -0.2883  0.7889
 1291SOL    HW215336   1.761   1.871   7.159  0.1946  0.5497  1.0654
 1292SOL     OW15337   1.627   0.916   2.838  0.1115  0.2427 -0.5778
 1292SOL    HW115338   1.598   0.855   2.905  1.0319  0.8823  0.4103
 1292SOL    HW215339   1.704   0.875   2.799 -0.7165 -1.7683 -0.1005
 1293SOL     OW15340   3.424   4.321   8.443 -0.1038  0.7389  0.4415
 1293SOL    HW115341   3.468   4.384   8.386  0.0579 -0.5082 -0.8261
 1293SOL    HW215342   3.331   4.331   8.421  0.2529  3.9606  0.5270
 1294SOL     OW15343   3.217   1.627   8.313  0.3704  0.0931 -0.7467
 1294SOL    HW115344   3.209   1.639   8.219 -0.0854 -3.3208 -1.1363
 1294SOL    HW215345   3.231   1.533   8.321 -0.2662 -0.0416 -1.2535
 1295SOL     OW15346   1.838   0.654  17.268  0.1890 -0.2288 -0.7172
 1295SOL    HW115347   1.876   0.622  17.350  0.8924 -1.0608 -1.3729
 1295SOL    HW215348   1.915   0.650  17.211  0.4497  0.3792 -0.4044
 1296SOL     OW15349   4.458   2.077   0.547  0.3654  0.2294  0.0779
 1296SOL    HW115350   4.476   2.130   0.469  1.8018 -1.4837 -0.7579
 1296SOL    HW215351   4.522   2.007   0.529 -0.0378  0.3930 -1.9400
 1297SOL     OW15352   2.760   4.677   9.709 -0.2688 -0.3820  0.3270
 1297SOL    HW115353   2.711   4.610   9.661 -1.1379  0.2399  0.3390
 1297SOL    HW215354   2.820   4.622   9.759  0.3523  0.9357  1.0197
 1298SOL     OW15355   4.144   3.052   7.694 -0.5641  0.1008 -0.1555
 1298SOL    HW115356   4.240   3.057   7.690 -0.4132 -1.6169  1.4545
 1298SOL    HW215357   4.132   2.987   7.763  0.1437 -1.8006 -1.8045
 1299SOL     OW15358   4.568   4.525   6.061  0.2920 -0.1201 -0.0897
 1299SOL    HW115359   4.542   4.614   6.038 -1.1505  0.3182  3.2196
 1299SOL    HW215360   4.537   4.475   5.986  0.5733 -1.7795  0.8862
 1300SOL     OW15361   2.714   4.202   5.944 -0.4290  0.5798  0.0739
 1300SOL    HW115362   2.713   4.204   5.849 -2.0888 -2.4287  0.0289
 1300SOL    HW215363   2.716   4.297   5.958 -0.4541  0.8048 -1.5231
 1301SOL     OW15364   0.450   3.370   1.501  0.0785  0.7134  0.3243
 1301SOL    HW115365   0.507   3.321   1.560  0.7427  0.6893 -0.3462
 1301SOL    HW215366   0.508   3.377   1.426 -0.0314  0.1622  0.1856
 1302SOL     OW15367   3.628   4.727   2.984 -0.6460 -0.1335 -0.4934
 1302SOL    HW115368   3.535   0.009   3.001 -0.7328 -2.1006  0.2697
 1302SOL    HW215369   3.669   0.019   3.068 -0.5954  0.0715 -0.5691
 1303SOL     OW15370   3.302   0.057  16.260 -0.0563 -0.5852  0.5751
 1303SOL    HW115371   3.226   0.013  16.297 -1.4083  1.1815 -0.1499
 1303SOL    HW215372   3.332   4.726  16.191 -0.2809  0.4041 -0.3795
 1304SOL     OW15373   0.735   2.250   8.743  0.3297 -0.0576 -0.0732
 1304SOL    HW115374   0.686   2.305   8.681  0.6375  0.3758  0.0693
 1304SOL    HW215375   0.668   2.185   8.761  1.1292 -0.8801 -0.1006
 1305SOL     OW15376   1.331   4.337   9.738 -0.4666  0.1976  0.8367
 1305SOL    HW115377   1.367   4.291   9.663 -1.6221 -0.6493  0.8061
 1305SOL    HW215378   1.340   4.270   9.806 -0.5817 -0.5556  0.1112
 1306SOL     OW15379   1.781   0.799   7.458 -0.1549  0.4262 -0.3115
 1306SOL    HW115380   1.735   0.846   7.388 -0.1577  0.5162 -0.2491
 1306SOL    HW215381   1.733   0.825   7.537  2.0402 -0.8789  1.4648
 1307SOL     OW15382   4.249   3.528   3.627 -0.0528  0.1731  0.3947
 1307SOL    HW115383   4.258   3.599   3.690  0.8307 -1.3990  2.0281
 1307SOL    HW215384   4.303   3.561   3.555  0.4316  0.7918  1.0438
 1308SOL     OW15385   1.963   4.686   1.883 -0.3862 -0.7073  0.4549
 1308SOL    HW115386   1.962   4.629   1.807 -1.1361  0.8194 -0.6920
 1308SOL    HW215387   2.047   4.666   1.923 -1.2752 -2.8070  1.2955
 1309SOL     OW15388   2.846   1.558   4.410  0.8866  0.0811  0.0484
 1309SOL    HW115389   2.792   1.575   4.332  3.2674  1.3715 -1.3284
 1309SOL    HW215390   2.836   1.648   4.441  0.3459 -0.2162  0.7389
 1310SOL     OW15391   0.053   2.880  15.828  0.6605  0.0484  0.3422
 1310SOL    HW115392   0.130   2.937  15.828  0.5049  0.2673 -1.0775
 1310SOL    HW215393   4.704   2.937  15.833  0.2841 -0.7074  3.0700
 1311SOL     OW15394   2.106   1.818   1.782 -0.4955  0.2521  0.8240
 1311SOL    HW115395   2.056   1.857   1.711 -0.4581 -3.0433 -1.0396
 1311SOL    HW215396   2.046   1.752   1.815  1.2931 -1.8567 -0.1306
 1312SOL     OW15397   4.449   3.282   8.685 -0.2383  1.0144  0.0593
 1312SOL    HW115398   4.401   3.226   8.746  1.5100 -0.8244 -0.2649
 1312SOL    HW215399   4.377   3.339   8.657  2.1475  1.3514 -5.5059
 1313SOL     OW15400   0.765   0.734  14.155 -0.0797 -0.4047 -0.3697
 1313SOL    HW115401   0.842   0.775  14.116 -0.3366 -0.1106 -0.5737
 1313SOL    HW215402   0.727   0.699  14.075  0.0057 -0.1871 -0.5048
 1314SOL     OW15403   2.637   4.322   4.267 -0.3475  0.1505 -0.2945
 1314SOL    HW115404   2.548   4.302   4.237 -0.2714 -0.9166  0.1834
 1314SOL    HW215405   2.693   4.277   4.203  1.3496  0.8987  0.6623
 1315SOL     OW15406   0.364   0.131  13.776 -0.4983 -0.0758 -0.0116
 1315SOL    HW115407   0.435   0.194  13.781  0.9274 -1.5571 -1.6725
 1315SOL    HW215408   0.401   0.063  13.720  1.2737  0.5864  0.3548
 1316SOL     OW15409   2.571   3.414   9.951  0.0651 -0.3922  0.2804
 1316SOL    HW115410   2.635   3.344   9.956 -0.8137 -1.1350  1.1662
 1316SOL    HW215411   2.544   3.414   9.859  0.1823 -0.5558  0.2475
 1317SOL     OW15412   2.775   3.084  12.128 -0.4435 -0.2590 -0.5353
 1317SOL    HW115413   2.718   3.008  12.142 -0.0892  0.0532  2.6097
 1317SOL    HW215414   2.795   3.108  12.218 -1.8023 -0.5131 -0.1644
 1318SOL     OW15415   3.473   0.761   0.736  0.2714 -0.0646  0.2202
 1318SOL    HW115416   3.393   0.771   0.684  0.7757  3.0830  0.0233
 1318SOL    HW215417   3.512   0.691   0.685 -0.7352 -1.1358  0.9217
 1319SOL     OW15418   2.840   1.908   9.707  0.0066 -0.6630 -0.1317
 1319SOL    HW115419   2.817   1.831   9.760 -1.1922  1.4622  2.4739
 1319SOL    HW215420   2.756   1.929   9.666  0.2554  0.0101 -0.2907
 1320SOL     OW15421   3.905   0.227  17.465 -0.7503  0.6136  0.0612
 1320SOL    HW115422   3.987   0.197  17.425 -2.1830 -1.2742 -1.4186
 1320SOL    HW215423   3.945   0.302  17.510 -1.0671  0.0488  1.2821
 1321SOL     OW15424   4.159   2.975   4.797  0.7457 -0.4429  0.0192
 1321SOL    HW115425   4.186   2.912   4.730  0.7551  0.1023 -0.4893
 1321SOL    HW215426   4.128   2.913   4.863 -1.2697  0.9159  0.3377
 1322SOL     OW15427   0.853   3.058   7.035 -0.3671 -0.6208  0.1952
 1322SOL    HW115428   0.940   3.081   7.070 -0.5970 -2.6096  2.0858
 1322SOL    HW215429   0.823   3.140   6.995 -0.5605 -1.5337 -1.4839
 1323SOL     OW15430   3.266   1.735  12.236  0.0491 -0.6372  0.2188
 1323SOL    HW115431   3.175   1.733  12.207 -0.3289 -0.3891  1.3837
 1323SOL    HW215432   3.302   1.785  12.163 -0.5254 -0.3315  0.1429
 1324SOL     OW15433   2.831   0.045   5.153  0.3739 -0.1835 -0.5843
 1324SOL    HW115434   2.822   0.134   5.121  0.4276 -0.5047 -1.4992
 1324SOL    HW215435   2.919   0.040   5.191 -0.3365 -1.6157  0.8885
 1325SOL     OW15436   4.345   3.605   5.623  0.4774 -0.0192 -0.3778
 1325SOL    HW115437   4.295   3.581   5.546 -0.0528  0.7517 -0.2744
 1325SOL    HW215438   4.303   3.564   5.699  1.6181  0.5766  0.5843
 1326SOL     OW15439   1.999   0.545   4.000  0.0595 -0.0370 -0.4560
 1326SOL    HW115440   2.038   0.598   3.931 -0.6812  1.8730  0.6011
 1326SOL    HW215441   2.075   0.490   4.018 -1.0852 -1.6357 -0.4364
 1327SOL     OW15442   4.420   2.904   5.116  0.1550 -0.0147 -0.5219
 1327SOL    HW115443   4.461   2.881   5.200 -0.0245 -2.4370 -1.0933
 1327SOL    HW215444   4.390   2.816   5.093 -1.2887 -0.1764  1.8874
 1328SOL     OW15445   4.604   3.431   5.239  0.2127  0.3792  0.8419
 1328SOL    HW115446   4.572   3.341   5.235  0.5341  0.3226 -0.5588
 1328SOL    HW215447   4.664   3.429   5.314 -1.5784  2.8231  2.3181
 1329SOL     OW15448   2.918   3.163  12.782 -0.4986  0.8963 -0.3277
 1329SOL    HW115449   2.843   3.171  12.724  1.7091  0.8760 -3.1921
 1329SOL    HW215450   2.877   3.156  12.868 -1.4454  0.7685 -0.7903
 1330SOL     OW15451   2.794   2.012   4.723  0.3565  0.5548 -0.2877
 1330SOL    HW115452   2.732   1.963   4.777  1.0855 -0.7539 -0.6351
 1330SOL    HW215453   2.840   1.934   4.692 -1.8244 -0.3477 -1.2220
 1331SOL     OW15454   4.050   1.349   9.825 -0.1561 -0.0090 -0.2973
 1331SOL    HW115455   4.126   1.291   9.825  0.7176  1.1346  1.7042
 1331SOL    HW215456   4.095   1.419   9.871 -1.2940 -0.3869  1.3873
 1332SOL     OW15457   4.165   3.534   5.839  0.2851 -0.7085 -0.6878
 1332SOL    HW115458   4.170   3.620   5.880 -1.0748 -0.5209 -0.9364
 1332SOL    HW215459   4.083   3.494   5.868 -1.2100  2.3472 -0.7121
 1333SOL     OW15460   4.640   1.174   3.682  0.2102 -0.0066  0.4280
 1333SOL    HW115461   4.695   1.194   3.607 -1.1591 -1.9779 -1.1211
 1333SOL    HW215462   4.645   1.079   3.670  0.9050 -0.0170  0.8034
 1334SOL     OW15463   1.803   2.490   1.790 -0.1633  0.1000  0.0274
 1334SOL    HW115464   1.775   2.402   1.768  2.0963 -0.5430 -0.2717
 1334SOL    HW215465   1.888   2.472   1.829 -0.4443  0.4947  0.8279
 1335SOL     OW15466   2.917   3.894   2.124  0.5429  0.2123  0.5952
 1335SOL    HW115467   2.896   3.830   2.056  0.9045  2.3491 -1.5203
 1335SOL    HW215468   2.923   3.840   2.203  1.1397 -1.4176 -0.5836
 1336SOL     OW15469   0.875   4.271   6.504 -0.4895  0.3365  0.5983
 1336SOL    HW115470   0.962   4.242   6.529 -0.9012 -0.4497  1.1400
 1336SOL    HW215471   0.838   4.204   6.446 -1.1948  0.8586  0.4519
 1337SOL     OW15472   1.383   4.643   5.112 -0.6969 -0.3205 -0.0959
 1337SOL    HW115473   1.294   4.612   5.132 -1.0878 -1.2815 -3.2764
 1337SOL    HW215474   1.386   4.724   5.162 -0.4048 -1.1386  1.2225
 1338SOL     OW15475   2.048   1.634   2.335  0.2078 -0.3729 -0.1598
 1338SOL    HW115476   2.082   1.705   2.281  0.5301 -0.2929  0.1530
 1338SOL    HW215477   1.968   1.679   2.361 -0.7751 -0.3874 -3.1336
 1339SOL     OW15478   3.448   1.964   5.678 -0.4905  0.2613  0.0740
 1339SOL    HW115479   3.458   1.947   5.772 -0.5442  0.4786  0.1189
 1339SOL    HW215480   3.523   2.019   5.658 -1.4293  1.5311  0.0197
 1340SOL     OW15481   0.465   3.001   5.400 -0.5141 -0.5713 -0.1238
 1340SOL    HW115482   0.547   3.030   5.441 -0.3306  1.1285 -1.6994
 1340SOL    HW215483   0.485   2.960   5.316  2.9653 -0.7399  0.8065
 1341SOL     OW15484   4.063   1.441   6.340 -0.3143  0.1670  0.2226
 1341SOL    HW115485   3.999   1.512   6.348 -0.8138 -0.5165  2.3685
 1341SOL    HW215486   4.075   1.415   6.432  0.9532 -0.8804 -0.2348
 1342SOL     OW15487   2.113   1.968  10.388 -0.1887 -0.4611  0.1219
 1342SOL    HW115488   2.061   2.047  10.404  1.4967  0.9309 -1.2934
 1342SOL    HW215489   2.186   1.999  10.335  0.0033 -3.0075 -1.0799
 1343SOL     OW15490   3.593   1.134   4.016 -0.6378 -0.6466 -0.0480
 1343SOL    HW115491   3.601   1.201   4.083  1.3961 -1.4995  0.5687
 1343SOL    HW215492   3.499   1.119   4.026 -1.0785  0.0693 -2.8712
 1344SOL     OW15493   0.788   1.233   8.872  0.2641 -0.3314  0.6626
 1344SOL    HW115494   0.806   1.139   8.867 -0.4449 -0.5263  1.8549
 1344SOL    HW215495   0.873   1.274   8.888  0.5453 -0.5011 -0.4533
 1345SOL     OW15496   2.781   2.917  11.456 -0.4457  0.4741  0.0790
 1345SOL    HW115497   2.766   2.985  11.390 -2.8447 -0.1548 -0.0509
 1345SOL    HW215498   2.859   2.945  11.504 -0.2136  0.3860 -0.2474
 1346SOL     OW15499   3.289   0.756   6.951 -0.3302  0.4596  0.2110
 1346SOL    HW115500   3.320   0.759   6.860 -0.6314 -2.0595  0.0123
 1346SOL    HW215501   3.277   0.662   6.964 -0.1181  0.3177 -0.5739
 1347SOL     OW15502   2.898   0.911  17.122 -0.0488 -0.4406 -0.9727
 1347SOL    HW115503   2.975   0.856  17.109  1.3386  1.2643  0.0317
 1347SOL    HW215504   2.875   0.936  17.032  0.0304  2.3609 -0.2385
 1348SOL     OW15505   1.223   4.401   4.915  0.0904  0.1387 -0.3417
 1348SOL    HW115506   1.245   4.336   4.848  0.4145 -0.0026 -0.0955
 1348SOL    HW215507   1.153   4.353   4.959 -0.0547 -0.4289 -1.1871
 1349SOL     OW15508   3.795   2.655   5.053 -0.3213 -0.1040  0.2902
 1349SOL    HW115509   3.732   2.642   4.982 -0.3285  0.0099  0.2758
 1349SOL    HW215510   3.797   2.566   5.088 -0.8686 -0.2781 -0.1239
 1350SOL     OW15511   0.676   4.501   7.250  0.0351  0.6175  0.4372
 1350SOL    HW115512   0.750   4.562   7.238 -0.7676  1.3748 -0.7081
 1350SOL    HW215513   0.730   4.437   7.295  2.5093  2.1770 -0.2853
 1351SOL     OW15514   3.777   3.009   7.525 -0.7337  0.7814 -0.2276
 1351SOL    HW115515   3.860   3.014   7.479 -0.0623 -1.7844  0.7289
 1351SOL    HW215516   3.734   3.080   7.478  0.2586 -0.3485 -2.8536
 1352SOL     OW15517   1.039   4.198   7.008 -0.4667 -0.3988 -0.5613
 1352SOL    HW115518   1.048   4.114   7.053 -2.8338 -0.3087  0.0438
 1352SOL    HW215519   0.991   4.172   6.929 -1.4102  2.3264 -0.8913
 1353SOL     OW15520   1.512   3.204   2.699  0.7308  0.8409 -0.0538
 1353SOL    HW115521   1.526   3.152   2.779 -1.0333  0.0873 -0.2499
 1353SOL    HW215522   1.497   3.132   2.638  0.0443 -0.1244  1.2492
 1354SOL     OW15523   4.560   0.565   6.850  0.8566 -0.3387 -0.3038
 1354SOL    HW115524   4.593   0.490   6.900  0.3770 -0.1360  0.3112
 1354SOL    HW215525   4.467   0.543   6.861  0.4607  1.1991 -0.5376
 1355SOL     OW15526   3.788   2.902   9.604 -0.4006 -0.3881  0.1192
 1355SOL    HW115527   3.862   2.901   9.544 -0.4947  3.9062 -0.1025
 1355SOL    HW215528   3.832   2.917   9.688  0.4549 -3.4771  0.2142
 1356SOL     OW15529   0.752   3.095   3.655  0.7756  0.0918 -0.4379
 1356SOL    HW115530   0.818   3.112   3.722  0.2697 -1.3511  0.4127
 1356SOL    HW215531   0.716   3.183   3.643  0.8123 -0.2359 -2.8692
 1357SOL     OW15532   3.115   0.008  11.940 -0.6737 -0.1453 -0.4483
 1357SOL    HW115533   3.173   4.666  11.911  0.5762 -0.1149  1.9960
 1357SOL    HW215534   3.156   0.087  11.903 -1.2368  0.0741 -0.6040
 1358SOL     OW15535   3.343   1.598   6.171 -0.2313  0.0350  0.1777
 1358SOL    HW115536   3.329   1.685   6.134 -0.5961  0.1276  0.5346
 1358SOL    HW215537   3.295   1.608   6.254  2.3194 -1.7413  1.8693
 1359SOL     OW15538   2.410   3.711  12.039  0.3115 -0.0258 -0.3803
 1359SOL    HW115539   2.440   3.634  12.088  0.2278 -0.7385 -1.4574
 1359SOL    HW215540   2.318   3.689  12.044  0.8081 -1.2770  3.1540
 1360SOL     OW15541   0.239   0.533  11.637  0.6977 -0.0832 -0.1703
 1360SOL    HW115542   0.163   0.581  11.670  0.0054 -1.1651 -0.2126
 1360SOL    HW215543   0.204   0.458  11.589 -0.2959  0.5227 -0.3946
 1361SOL     OW15544   2.464   2.627   7.357 -0.1255 -0.0362 -0.1313
 1361SOL    HW115545   2.451   2.671   7.273  0.0554  0.1110 -0.0818
 1361SOL    HW215546   2.421   2.696   7.408  0.3532 -0.7135  1.2008
 1362SOL     OW15547   3.957   3.791   4.680  0.0671  0.3341 -0.4843
 1362SOL    HW115548   3.946   3.885   4.693  0.7223  0.4567 -0.8095
 1362SOL    HW215549   3.879   3.763   4.633 -0.9903  2.2168  0.1469
 1363SOL     OW15550   1.056   4.001   4.331 -0.3270 -0.2014 -0.2250
 1363SOL    HW115551   0.987   4.045   4.380 -0.9945 -0.6890 -0.7333
 1363SOL    HW215552   1.122   4.013   4.399 -0.6912  0.8930 -0.0734
 1364SOL     OW15553   1.048   3.009   1.490  0.2840 -0.2608 -0.1548
 1364SOL    HW115554   1.138   3.023   1.519  0.0613 -0.4562  0.6145
 1364SOL    HW215555   1.014   3.095   1.464 -1.7168 -0.7154  0.9915
 1365SOL     OW15556   4.181   0.558   0.661 -0.5419 -0.3915  0.2572
 1365SOL    HW115557   4.118   0.523   0.724 -2.3241  0.9086 -0.7787
 1365SOL    HW215558   4.239   0.483   0.650 -0.7629 -0.4003 -0.8408
 1366SOL     OW15559   3.704   1.787   7.947 -0.2017  0.4324  0.2842
 1366SOL    HW115560   3.702   1.844   8.024 -0.0272  0.4596  0.2686
 1366SOL    HW215561   3.795   1.793   7.919 -0.1553 -0.7439  0.1872
 1367SOL     OW15562   4.595   1.922  11.396 -0.0411 -0.3035 -0.2082
 1367SOL    HW115563   4.645   1.891  11.471  4.2210 -1.0305 -3.3250
 1367SOL    HW215564   4.628   2.011  11.380 -0.4609 -0.7087 -3.2513
 1368SOL     OW15565   0.574   2.951   3.105 -0.6622  0.0124  0.2948
 1368SOL    HW115566   0.581   2.860   3.135  1.4769  0.7414  2.0811
 1368SOL    HW215567   0.611   2.943   3.017  1.1148 -0.5258  1.0803
 1369SOL     OW15568   2.653   0.632   8.158  0.0160 -0.3851  0.2739
 1369SOL    HW115569   2.675   0.711   8.108  0.4247 -2.1059 -2.2937
 1369SOL    HW215570   2.738   0.620   8.201  0.4141  1.5156  0.0243
 1370SOL     OW15571   3.052   2.092   5.516 -0.1846  0.1021 -0.0665
 1370SOL    HW115572   2.991   2.078   5.588  2.1898  0.0132  1.9380
 1370SOL    HW215573   3.129   2.052   5.556 -0.9700 -0.3200  1.0335
 1371SOL     OW15574   3.197   3.944   7.936  0.0240 -0.0429 -0.4600
 1371SOL    HW115575   3.257   4.004   7.891 -0.1536  0.8834  0.5636
 1371SOL    HW215576   3.260   3.886   7.981  0.7751  0.3301 -1.0308
 1372SOL     OW15577   2.593   3.047   3.134  0.1088 -0.0825 -0.2460
 1372SOL    HW115578   2.548   3.116   3.182 -0.6352 -0.4297 -0.4518
 1372SOL    HW215579   2.687   3.065   3.134 -0.1191  1.1374  0.3832
 1373SOL     OW15580   0.034   0.084  17.629 -0.2296  0.1242  0.1055
 1373SOL    HW115581   4.695   0.137  17.588  0.5742  0.0110 -1.3549
 1373SOL    HW215582   0.112   0.118  17.584  0.0426 -0.7682 -0.0904
 1374SOL     OW15583   0.196   0.193   4.268 -0.1049 -0.2387 -0.2316
 1374SOL    HW115584   0.268   0.170   4.209  1.1518  2.6419  0.1675
 1374SOL    HW215585   0.182   0.119   4.326 -0.0363 -0.1290 -0.0746
 1375SOL     OW15586   3.314   0.391  10.724 -0.5274 -0.1526  0.5984
 1375SOL    HW115587   3.350   0.436  10.800  1.2494 -3.7868  1.9168
 1375SOL    HW215588   3.223   0.420  10.736 -0.7215  0.1710 -1.6609
 1376SOL     OW15589   2.595   2.046   9.701 -0.2288 -0.9142  0.3349
 1376SOL    HW115590   2.542   1.979   9.745  0.8816 -1.3810  0.9557
 1376SOL    HW215591   2.646   2.092   9.768 -0.7840 -2.0225  1.5237
 1377SOL     OW15592   2.112   2.438   5.470  0.0990 -0.4592 -0.6480
 1377SOL    HW115593   2.173   2.384   5.420 -1.5696 -0.3506 -2.7489
 1377SOL    HW215594   2.035   2.381   5.472 -0.0352 -0.3448 -2.7585
 1378SOL     OW15595   3.871   0.455   3.071 -0.1412  0.2651 -0.5071
 1378SOL    HW115596   3.797   0.422   3.021  0.5752 -2.6750  0.3708
 1378SOL    HW215597   3.931   0.381   3.075  0.0231  0.4190 -0.1342
 1379SOL     OW15598   1.157   3.631   6.493  0.7336  0.1375 -0.0392
 1379SOL    HW115599   1.138   3.647   6.585  2.1873 -1.5440  0.5582
 1379SOL    HW215600   1.234   3.574   6.498  1.8762  1.7217  0.5877
 1380SOL     OW15601   1.924   0.765   2.025  0.1349 -0.0010 -0.0809
 1380SOL    HW115602   1.948   0.766   1.932  0.7013  0.9929  0.0718
 1380SOL    HW215603   2.012   0.776   2.062 -0.1919 -2.5386  1.4755
 1381SOL     OW15604   1.992   0.206   3.661 -0.3866  0.1149 -0.0726
 1381SOL    HW115605   2.012   0.295   3.634 -0.9046  0.2563  0.0109
 1381SOL    HW215606   2.069   0.181   3.712 -0.7036  0.3088  0.4964
 1382SOL     OW15607   4.430   3.959   4.541  0.4323 -0.7479 -0.4771
 1382SOL    HW115608   4.464   3.965   4.451 -1.6254 -0.2911 -1.2055
 1382SOL    HW215609   4.386   3.874   4.539 -2.2656  0.6667 -0.8785
 1383SOL     OW15610   0.965   2.652   6.763  0.2738  0.2852 -0.1578
 1383SOL    HW115611   0.963   2.624   6.855  0.2997 -0.4529 -0.3806
 1383SOL    HW215612   0.873   2.679   6.754 -0.1584 -0.5819  1.6708
 1384SOL     OW15613   0.793   4.522   6.378 -0.3200  0.1526 -0.1736
 1384SOL    HW115614   0.868   4.575   6.348 -2.2887  2.3911 -1.1946
 1384SOL    HW215615   0.839   4.465   6.440  2.8144 -0.0061 -2.6219
 1385SOL     OW15616   2.975   0.775   2.815 -0.1641  0.2710  0.0106
 1385SOL    HW115617   2.993   0.682   2.829  0.1073  0.1184 -1.4294
 1385SOL    HW215618   2.908   0.771   2.747 -0.4451 -1.3567  0.3755
 1386SOL     OW15619   4.663   4.219   2.914 -0.0904 -0.0975 -0.4917
 1386SOL    HW115620   4.621   4.202   2.998  0.3110  1.6952  0.0539
 1386SOL    HW215621   4.697   4.308   2.922  0.1009 -0.2985  0.9012
 1387SOL     OW15622   2.959   2.821   2.309 -0.5411  0.4853 -0.0500
 1387SOL    HW115623   2.869   2.854   2.315 -1.0315 -1.1673  1.6501
 1387SOL    HW215624   2.944   2.728   2.296  0.4730  0.4501 -0.9090
 1388SOL     OW15625   1.081   1.062   7.324  0.1838 -0.1232  0.0303
 1388SOL    HW115626   1.112   1.145   7.288  0.9117  0.5274  2.1429
 1388SOL    HW215627   0.993   1.064   7.287  0.7895 -1.1071 -1.4670
 1389SOL     OW15628   1.338   1.244   5.850  0.0012  0.5155 -0.3474
 1389SOL    HW115629   1.358   1.171   5.790 -0.1998 -0.9437  1.3689
 1389SOL    HW215630   1.292   1.203   5.923  0.4422  1.4785  0.4654
 1390SOL     OW15631   2.322   1.795   9.449  0.3265 -0.3401 -0.3644
 1390SOL    HW115632   2.358   1.763   9.367  2.4230  0.4648  0.2335
 1390SOL    HW215633   2.233   1.822   9.426  0.3732 -1.2211 -1.5831
 1391SOL     OW15634   1.464   1.522  12.312  0.0947  0.0223  0.4109
 1391SOL    HW115635   1.429   1.471  12.239  1.3386 -0.8431  0.4095
 1391SOL    HW215636   1.544   1.475  12.340  1.0066  2.2626  1.5858
 1392SOL     OW15637   3.448   4.570   0.608  0.1279  0.1237 -0.1590
 1392SOL    HW115638   3.426   4.477   0.616 -0.4717  0.3290  0.5909
 1392SOL    HW215639   3.507   4.572   0.533 -0.3043 -0.5884 -0.5225
 1393SOL     OW15640   4.608   3.080   9.596  0.0406 -0.3399  0.1502
 1393SOL    HW115641   4.653   3.164   9.587 -0.2979 -0.3247 -1.3295
 1393SOL    HW215642   4.626   3.033   9.515 -0.5328  0.1434 -0.2603
 1394SOL     OW15643   0.571   1.505   4.411  0.0817  0.8086  0.1885
 1394SOL    HW115644   0.604   1.416   4.402 -1.3677  0.4560 -1.7187
 1394SOL    HW215645   0.573   1.494   4.506 -5.1436 -2.7164 -0.1066
 1395SOL     OW15646   4.027   3.668   8.902 -0.2851 -0.0823 -0.3795
 1395SOL    HW115647   3.936   3.689   8.925  0.9434  2.2271  2.2640
 1395SOL    HW215648   4.007   3.633   8.815  0.1415 -2.8871  0.6369
 1396SOL     OW15649   3.745   3.240   7.981  0.1442  0.1571  0.2295
 1396SOL    HW115650   3.782   3.193   8.055 -3.1194 -0.1985  1.6449
 1396SOL    HW215651   3.664   3.189   7.972  1.5989 -2.0950  0.1284
 1397SOL     OW15652   4.672   1.617   6.953  0.2485 -0.2856  0.2051
 1397SOL    HW115653   4.591   1.572   6.928  0.8517 -0.1484 -2.0089
 1397SOL    HW215654   4.709   1.639   6.868  0.1820  0.0356  0.2590
 1398SOL     OW15655   4.016   3.225   0.755  0.3482  0.4473 -0.0976
 1398SOL    HW115656   4.109   3.242   0.747  0.0811  1.6712 -0.6459
 1398SOL    HW215657   3.976   3.313   0.754 -0.6609 -0.0360 -2.2495
 1399SOL     OW15658   2.643   2.783  10.641  0.8069 -0.3922 -0.3207
 1399SOL    HW115659   2.641   2.708  10.700 -0.1020  0.6114  0.9091
 1399SOL    HW215660   2.551   2.779  10.615  0.8145 -2.3600 -0.0688
 1400SOL     OW15661   4.180   4.269   6.524  0.1693 -0.2355 -0.3278
 1400SOL    HW115662   4.257   4.306   6.566 -0.5234  0.5857  0.2134
 1400SOL    HW215663   4.175   4.324   6.446  0.2848  0.8272  0.4095
 1401SOL     OW15664   2.415   4.482   6.778 -0.2191 -0.2414 -0.0378
 1401SOL    HW115665   2.417   4.427   6.700  1.7624  1.9752 -1.5331
 1401SOL    HW215666   2.509   4.490   6.794 -0.5678  2.3679  0.6296
 1402SOL     OW15667   3.163   2.762  16.704 -0.3620  0.5558  0.1563
 1402SOL    HW115668   3.127   2.782  16.790 -3.5736 -0.1200 -1.0320
 1402SOL    HW215669   3.231   2.700  16.731 -0.2100  1.0945  0.9980
 1403SOL     OW15670   0.876   3.243   5.349 -0.3793  0.5818 -0.6838
 1403SOL    HW115671   0.824   3.236   5.429  0.6003  0.9770 -0.0124
 1403SOL    HW215672   0.818   3.271   5.278 -1.3667  2.2962  0.7989
 1404SOL     OW15673   3.940   4.152   0.520  0.3523 -0.1875 -0.0879
 1404SOL    HW115674   3.932   4.236   0.474 -0.5544  0.0574  0.5109
 1404SOL    HW215675   3.858   4.163   0.569  1.0287 -0.0194  0.9999
 1405SOL     OW15676   0.334   2.665   5.471 -0.8864 -0.0688 -0.0075
 1405SOL    HW115677   0.428   2.648   5.470 -0.9618 -0.3307 -1.5816
 1405SOL    HW215678   0.292   2.594   5.520  0.7091  0.9386  2.8624
 1406SOL     OW15679   3.761   4.397   3.002 -0.1864  0.5750 -0.0134
 1406SOL    HW115680   3.814   4.451   2.944 -0.3195  1.4330  0.6626
 1406SOL    HW215681   3.725   4.466   3.058  0.7316 -1.3947  2.9957
 1407SOL     OW15682   1.495   1.295  14.468 -0.4396  0.0358  0.1900
 1407SOL    HW115683   1.494   1.317  14.561  0.7527 -0.9820  0.4358
 1407SOL    HW215684   1.408   1.330  14.446 -0.7727 -1.4050 -0.7990
 1408SOL     OW15685   2.070   4.180   8.853 -0.2403  0.2009 -0.2407
 1408SOL    HW115686   2.152   4.226   8.831 -2.2048  3.7121 -0.3394
 1408SOL    HW215687   1.997   4.235   8.822  0.0089  0.6923  0.0350
 1409SOL     OW15688   4.695   3.774   7.878 -0.3310  0.3716 -0.2844
 1409SOL    HW115689   4.603   3.755   7.897 -0.0930  2.2185  2.7114
 1409SOL    HW215690   4.686   3.777   7.783  1.0249 -0.8518 -0.4373
 1410SOL     OW15691   1.544   2.893   9.133 -0.1229  0.5230 -0.2763
 1410SOL    HW115692   1.488   2.816   9.133  1.0262 -0.3151  0.2942
 1410SOL    HW215693   1.498   2.952   9.073  0.9536  0.1807 -1.4300
 1411SOL     OW15694   0.508   2.219  14.213  0.2044 -0.4236 -0.8283
 1411SOL    HW115695   0.472   2.267  14.287 -0.0546 -1.0058 -0.5813
 1411SOL    HW215696   0.427   2.179  14.180  0.1016 -0.7235 -0.2080
 1412SOL     OW15697   4.376   1.243   3.746  0.1780 -0.2601 -0.3710
 1412SOL    HW115698   4.372   1.229   3.840 -1.9950  0.5638 -0.3354
 1412SOL    HW215699   4.449   1.185   3.722  1.6258  1.6828 -0.6804
 1413SOL     OW15700   1.413   2.344   6.891 -0.8101  0.4101 -0.7316
 1413SOL    HW115701   1.395   2.269   6.948 -0.3845  1.7124  1.1331
 1413SOL    HW215702   1.434   2.410   6.958 -1.6363 -1.0075  0.8997
 1414SOL     OW15703   0.760   3.238  12.387 -0.2937  0.1676 -0.2530
 1414SOL    HW115704   0.752   3.294  12.310  1.8968  1.4489  0.4505
 1414SOL    HW215705   0.704   3.163  12.369 -1.1448  0.4609  1.1917
 1415SOL     OW15706   2.032   4.334  15.625 -0.1179  0.6776  0.1285
 1415SOL    HW115707   2.093   4.260  15.633  0.0855  1.3189  4.5707
 1415SOL    HW215708   1.969   4.305  15.691 -0.9406 -2.1736 -1.9189
 1416SOL     OW15709   3.528   2.319   3.742 -0.7687 -0.7167 -0.1379
 1416SOL    HW115710   3.483   2.243   3.780 -1.3338  0.0403  0.7028
 1416SOL    HW215711   3.576   2.331   3.824 -2.0776  1.0222  0.3822
 1417SOL     OW15712   0.925   2.484  15.899 -0.6903  0.1148 -0.0523
 1417SOL    HW115713   0.937   2.575  15.926 -0.4993 -0.1768  0.8657
 1417SOL    HW215714   0.983   2.480  15.823 -0.7443 -0.6739 -0.0525
 1418SOL     OW15715   2.319   1.279   6.259  0.5313 -0.4932 -0.6585
 1418SOL    HW115716   2.272   1.269   6.176  2.9371 -0.9580 -1.9446
 1418SOL    HW215717   2.410   1.285   6.231  1.2463  0.8851  1.9348
 1419SOL     OW15718   4.630   2.227   6.832  0.6052 -0.2636 -0.0803
 1419SOL    HW115719   4.554   2.253   6.885 -2.1600 -2.9507 -2.7279
 1419SOL    HW215720   4.702   2.257   6.887  2.4412 -3.0608 -0.9597
 1420SOL     OW15721   3.915   2.490  16.650  0.4041  0.4160  0.7396
 1420SOL    HW115722   3.989   2.430  16.659  0.5398  0.5750  0.6878
 1420SOL    HW215723   3.843   2.441  16.612  2.8182 -2.5748 -0.0066
 1421SOL     OW15724   1.088   0.979   9.815  0.4333  0.7088  0.4521
 1421SOL    HW115725   1.000   0.989   9.850  0.7298  2.4286  0.7080
 1421SOL    HW215726   1.107   0.890   9.846 -1.3039  0.5594  1.0660
 1422SOL     OW15727   3.847   0.678   3.574  0.1020 -0.1952  0.1273
 1422SOL    HW115728   3.782   0.742   3.545 -0.8955 -1.2212  0.1074
 1422SOL    HW215729   3.852   0.631   3.490  0.3122  1.5063 -0.8181
 1423SOL     OW15730   4.412   2.706  16.544  0.2262  0.0985 -0.1334
 1423SOL    HW115731   4.442   2.645  16.476  1.1591  0.4212 -0.0078
 1423SOL    HW215732   4.317   2.694  16.542  0.1835  0.5146 -0.5851
 1424SOL     OW15733   3.600   0.912   8.549  0.0244  0.3655  0.6498
 1424SOL    HW115734   3.646   0.868   8.621 -0.6992 -0.1613  0.7911
 1424SOL    HW215735   3.646   0.995   8.540  3.2453 -1.3822  0.7352
 1425SOL     OW15736   1.291   4.501  10.388 -0.3141 -0.3866  0.2644
 1425SOL    HW115737   1.319   4.468  10.473  1.9493 -0.5149 -0.5368
 1425SOL    HW215738   1.379   4.512  10.351  0.3226 -0.8775  1.6280
 1426SOL     OW15739   1.138   2.511  13.235  0.2157 -0.3932  0.0660
 1426SOL    HW115740   1.069   2.508  13.168  0.7591  0.4333 -0.5317
 1426SOL    HW215741   1.218   2.506  13.184 -0.9040 -0.4348 -1.7059
 1427SOL     OW15742   1.300   3.050  14.068  0.2038  0.0860 -0.2999
 1427SOL    HW115743   1.378   3.104  14.056  0.3419  0.6005  2.7730
 1427SOL    HW215744   1.310   3.040  14.163 -1.8269 -1.8993 -0.2760
 1428SOL     OW15745   3.026   2.271   8.933 -0.1302 -0.1122  0.3306
 1428SOL    HW115746   3.103   2.328   8.931 -0.3125  0.2540  3.8063
 1428SOL    HW215747   3.052   2.181   8.914 -2.1484 -1.0365  1.9888
 1429SOL     OW15748   0.056   3.156   5.266 -0.4824  0.1475  0.3281
 1429SOL    HW115749   0.036   3.063   5.252 -1.1828  0.2063  0.9194
 1429SOL    HW215750   0.020   3.186   5.349  1.0546 -1.4437  1.5797
 1430SOL     OW15751   4.462   0.847  14.442 -0.0999  0.1333  0.4669
 1430SOL    HW115752   4.486   0.757  14.464 -3.2541 -0.8118  0.1056
 1430SOL    HW215753   4.538   0.897  14.471  2.1143 -2.6273 -0.6782
 1431SOL     OW15754   3.642   2.408   4.812 -0.7556 -0.0294  0.0674
 1431SOL    HW115755   3.566   2.373   4.767  0.1021  2.6800 -3.4960
 1431SOL    HW215756   3.678   2.327   4.847  2.0190  0.6047 -1.3160
 1432SOL     OW15757   1.337   0.357  17.306 -0.0727 -0.4803  0.3671
 1432SOL    HW115758   1.372   0.369  17.394  0.5828  0.6974 -0.0459
 1432SOL    HW215759   1.378   0.429  17.257 -0.6592  0.4255  1.2068
 1433SOL     OW15760   1.704   2.247   1.714  0.0743 -0.2744 -0.0706
 1433SOL    HW115761   1.618   2.216   1.686  0.6054  0.7288 -2.7713
 1433SOL    HW215762   1.747   2.238   1.629 -0.8768 -1.2948 -0.4453
 1434SOL     OW15763   2.770   2.330   7.546 -0.2471 -0.1999 -0.2295
 1434SOL    HW115764   2.862   2.306   7.539 -0.1915  0.3020 -1.2221
 1434SOL    HW215765   2.777   2.424   7.527 -0.7757 -0.0707  0.2037
 1435SOL     OW15766   0.129   3.409  17.039  0.4925  0.2247 -0.0210
 1435SOL    HW115767   0.068   3.451  16.979  0.1654 -0.2982 -0.0579
 1435SOL    HW215768   0.107   3.452  17.122 -1.7429 -1.0736  0.0636
 1436SOL     OW15769   0.858   0.877   0.688 -0.0262 -0.0519 -0.1306
 1436SOL    HW115770   0.829   0.902   0.776 -1.8501  0.8607 -0.9859
 1436SOL    HW215771   0.826   0.787   0.688  0.6826 -0.3173 -1.7425
 1437SOL     OW15772   2.476   1.432   2.219 -0.2238 -0.2772 -0.4661
 1437SOL    HW115773   2.437   1.516   2.245 -0.6325 -0.5714 -0.1351
 1437SOL    HW215774   2.405   1.368   2.213 -2.6334  2.3614 -0.0783
 1438SOL     OW15775   0.315   0.785   1.434  0.1788 -0.2615  0.2004
 1438SOL    HW115776   0.285   0.737   1.357  2.1416  0.6636 -1.1638
 1438SOL    HW215777   0.330   0.715   1.497  0.1762  0.1788  0.6913
 1439SOL     OW15778   0.187   3.139   2.278  0.0004 -0.2300 -0.4749
 1439SOL    HW115779   0.129   3.215   2.282  0.0005 -0.4049  2.7656
 1439SOL    HW215780   0.261   3.171   2.226 -0.2238  0.3147 -0.4545
 1440SOL     OW15781   4.566   3.992  13.569  0.2089 -0.2798  0.3211
 1440SOL    HW115782   4.532   3.923  13.513 -1.5641 -0.1935  1.2711
 1440SOL    HW215783   4.658   3.975  13.587  0.5933 -0.1035 -1.5223
 1441SOL     OW15784   0.482   2.514  10.260 -0.7427  0.5982 -0.5058
 1441SOL    HW115785   0.415   2.481  10.200 -1.6191  1.6737 -0.1375
 1441SOL    HW215786   0.508   2.428  10.292  1.6218  0.9787 -1.4595
 1442SOL     OW15787   3.594   0.459   3.170  0.2322  0.3150 -0.1621
 1442SOL    HW115788   3.670   0.501   3.129 -0.1751  0.0334 -1.1977
 1442SOL    HW215789   3.521   0.498   3.121 -0.6980  0.4193  1.3148
 1443SOL     OW15790   2.606   4.678   7.658 -0.4220 -0.2151  0.1662
 1443SOL    HW115791   2.651   4.634   7.586 -1.1221 -1.2666  0.3765
 1443SOL    HW215792   2.683   4.705   7.708  0.0376  0.2654 -0.8136
 1444SOL     OW15793   0.720   3.925  15.373 -0.2695  0.7731 -0.1762
 1444SOL    HW115794   0.811   3.917  15.345 -0.1149  2.8812 -0.2728
 1444SOL    HW215795   0.706   3.833  15.397  1.9625  0.6512  0.6346
 1445SOL     OW15796   3.603   0.526   3.706  0.4951 -0.3754 -0.1501
 1445SOL    HW115797   3.539   0.597   3.705  1.0569  0.1332  1.3936
 1445SOL    HW215798   3.593   0.500   3.614  1.7090  0.8139 -0.6207
 1446SOL     OW15799   1.240   3.943  11.502  0.0101  0.0289 -0.0227
 1446SOL    HW115800   1.164   3.886  11.502 -0.2316  0.3246  1.8447
 1446SOL    HW215801   1.285   3.913  11.581 -0.5226  1.2753  0.7631
 1447SOL     OW15802   2.292   4.547  17.290 -1.0376  0.1398  0.1171
 1447SOL    HW115803   2.304   4.481  17.221 -1.6626  0.9266 -0.7376
 1447SOL    HW215804   2.378   4.587  17.302 -0.5800  0.2932 -3.6150
 1448SOL     OW15805   3.886   3.625   5.924 -1.2029  0.3639 -0.2543
 1448SOL    HW115806   3.925   3.710   5.945  0.0980 -0.1305 -0.6225
 1448SOL    HW215807   3.849   3.645   5.838 -1.3280 -0.1760 -0.3210
 1449SOL     OW15808   3.351   1.236   8.690 -0.0001 -0.0525  0.2403
 1449SOL    HW115809   3.356   1.174   8.616  3.1871 -0.2229  0.6120
 1449SOL    HW215810   3.274   1.286   8.661  2.1416  1.8477 -2.1439
 1450SOL     OW15811   4.020   4.272  11.369 -0.3324  0.1669 -0.2817
 1450SOL    HW115812   3.956   4.342  11.383  1.1560  1.4364  0.0790
 1450SOL    HW215813   4.085   4.326  11.326 -0.3361 -1.0438 -1.8196
 1451SOL     OW15814   3.756   1.484  12.975  0.6634  0.0518 -0.0399
 1451SOL    HW115815   3.840   1.521  12.998  1.9656 -1.5354 -2.1990
 1451SOL    HW215816   3.772   1.418  12.907  2.0563 -1.0008  1.3183
 1452SOL     OW15817   0.869   0.736  14.430 -0.1790 -0.1156 -0.4438
 1452SOL    HW115818   0.817   0.659  14.451  1.0809 -0.9202 -0.3085
 1452SOL    HW215819   0.873   0.723  14.336  1.8339 -1.8223 -0.1173
 1453SOL     OW15820   3.865   2.566   5.721 -0.3347  0.6623 -0.8802
 1453SOL    HW115821   3.835   2.657   5.721 -0.6004  0.5828  1.4823
 1453SOL    HW215822   3.953   2.581   5.755 -0.2556  0.1628 -0.8632
 1454SOL     OW15823   1.829   4.466   7.991 -0.3455  0.2301  0.0958
 1454SOL    HW115824   1.762   4.398   7.985 -0.2521 -0.0445  2.5523
 1454SOL    HW215825   1.891   4.427   7.929 -0.5188  0.6905 -0.3691
 1455SOL     OW15826   2.362   4.454   4.454 -0.1404  1.1899  0.1293
 1455SOL    HW115827   2.369   4.429   4.362 -0.8294  1.4672 -0.0076
 1455SOL    HW215828   2.329   4.375   4.496  1.3096 -0.4478 -1.8189
 1456SOL     OW15829   4.688   4.719   3.052  0.0870  0.6728  0.5117
 1456SOL    HW115830   0.049   0.008   3.078  0.6163 -3.4902  1.4642
 1456SOL    HW215831   4.637   0.062   3.090 -0.9085 -0.2837  1.0062
 1457SOL     OW15832   0.618   1.015   9.098  0.0480 -0.1517 -0.0567
 1457SOL    HW115833   0.647   1.088   9.152  2.0622 -1.1781  0.2558
 1457SOL    HW215834   0.704   0.976   9.085  1.3509  2.9169 -0.5523
 1458SOL     OW15835   4.484   1.008   6.863 -0.1210 -0.0765 -0.0193
 1458SOL    HW115836   4.529   1.093   6.858 -0.4246  0.2406  2.5386
 1458SOL    HW215837   4.541   0.953   6.916  0.3017 -0.5860 -1.0024
 1459SOL     OW15838   3.850   2.826   2.659  0.7240 -0.3053 -0.5799
 1459SOL    HW115839   3.867   2.765   2.730  0.4248 -0.5761 -0.7403
 1459SOL    HW215840   3.935   2.821   2.614  0.6903  0.8663 -0.7843
 1460SOL     OW15841   0.786   2.462   7.867 -0.5026 -0.1032  0.0927
 1460SOL    HW115842   0.723   2.409   7.915 -0.2021  0.3549  0.9998
 1460SOL    HW215843   0.766   2.440   7.776  3.1451  0.8936 -0.9701
 1461SOL     OW15844   3.051   2.104   8.347  0.3356  0.5401  0.3491
 1461SOL    HW115845   3.027   2.097   8.254 -0.1406 -0.2538  0.5345
 1461SOL    HW215846   3.145   2.088   8.337  0.7704  2.0952  2.1152
 1462SOL     OW15847   3.434   1.438   2.034 -0.1830  1.1343 -0.4773
 1462SOL    HW115848   3.356   1.480   1.997 -0.9332  1.2698  1.2182
 1462SOL    HW215849   3.422   1.344   2.024 -0.6319  1.1316  0.0741
 1463SOL     OW15850   3.882   1.439   4.805  0.1262 -0.3765 -0.4265
 1463SOL    HW115851   3.896   1.371   4.739  0.5709  0.5697 -1.3090
 1463SOL    HW215852   3.968   1.481   4.806  0.7496 -1.7039  1.0496
 1464SOL     OW15853   4.200   1.326   5.587 -0.6360 -0.5038 -0.2793
 1464SOL    HW115854   4.221   1.365   5.502 -1.0232 -2.7846 -1.4265
 1464SOL    HW215855   4.250   1.244   5.586  0.5149  0.1681  1.7533
 1465SOL     OW15856   3.601   2.132   5.305  0.2557 -0.1338 -0.0157
 1465SOL    HW115857   3.520   2.138   5.254  0.1081 -2.1860 -0.0297
 1465SOL    HW215858   3.642   2.069   5.246 -2.9265  0.8476 -3.2844
 1466SOL     OW15859   3.138   2.630   7.562 -0.4102  0.2895  0.2739
 1466SOL    HW115860   3.063   2.652   7.616 -2.5965  0.5543 -2.8902
 1466SOL    HW215861   3.206   2.635   7.630 -0.7752 -0.5691  0.7071
 1467SOL     OW15862   0.813   2.329   1.702  0.2001  0.4611  0.0460
 1467SOL    HW115863   0.762   2.365   1.775 -1.4117  0.8314 -1.2555
 1467SOL    HW215864   0.874   2.399   1.681 -0.8163  1.4088  0.2362
 1468SOL     OW15865   4.013   1.942   1.151  0.4090  0.2571  0.0999
 1468SOL    HW115866   3.952   1.936   1.078 -0.5016 -0.8759  0.9513
 1468SOL    HW215867   4.096   1.940   1.104  0.0490 -1.0699 -0.4649
 1469SOL     OW15868   2.480   1.140  10.081  0.3801 -0.4306 -0.1727
 1469SOL    HW115869   2.496   1.082  10.155  1.2773  0.7900  0.6054
 1469SOL    HW215870   2.566   1.181  10.083 -0.6929  1.6277  2.9174
 1470SOL     OW15871   1.721   0.355   2.494  0.5085  0.3108  0.6959
 1470SOL    HW115872   1.815   0.365   2.479  0.4834  0.2023  0.4616
 1470SOL    HW215873   1.688   0.394   2.413  0.0226 -0.0301  0.7266
 1471SOL     OW15874   0.047   3.484   8.513 -0.2236  0.1442 -0.9648
 1471SOL    HW115875   0.049   3.580   8.518 -2.3699  0.2925 -2.8801
 1471SOL    HW215876   0.138   3.467   8.489 -0.3907 -0.5810 -1.0763
 1472SOL     OW15877   4.688   0.343  16.756 -0.0911  0.0636 -0.1620
 1472SOL    HW115878   0.011   0.400  16.700 -0.4552 -0.2872 -0.8554
 1472SOL    HW215879   0.027   0.308  16.813  2.4607  1.8366 -2.1049
 1473SOL     OW15880   2.472   3.972   5.438 -0.1977 -0.2105  0.1877
 1473SOL    HW115881   2.510   3.904   5.383  0.2724  0.7244 -0.6342
 1473SOL    HW215882   2.386   3.942   5.467  0.1989 -1.0632  0.4955
 1474SOL     OW15883   2.388   1.371   9.108  0.4097 -0.1238  0.3738
 1474SOL    HW115884   2.359   1.380   9.017 -0.9366  3.7522  1.1856
 1474SOL    HW215885   2.387   1.278   9.129 -0.7939 -0.5554 -1.6379
 1475SOL     OW15886   3.410   2.337   5.606 -0.0438 -0.7231  0.2139
 1475SOL    HW115887   3.407   2.419   5.557  1.3186 -2.0068 -1.9928
 1475SOL    HW215888   3.500   2.311   5.586  0.8028  2.6983 -0.4109
 1476SOL     OW15889   4.440   3.031   2.301 -0.2813 -0.0469  0.3409
 1476SOL    HW115890   4.497   3.090   2.252 -0.2685 -0.5525 -0.2427
 1476SOL    HW215891   4.404   3.090   2.368  0.2316  2.0493 -1.2378
 1477SOL     OW15892   2.666   2.544   2.698 -0.3165  0.2484 -0.0987
 1477SOL    HW115893   2.652   2.464   2.749  0.4605 -1.4402 -2.5198
 1477SOL    HW215894   2.669   2.506   2.610 -0.8913  2.5855 -1.1474
 1478SOL     OW15895   3.936   0.855   5.169  0.1153 -0.8988  0.4552
 1478SOL    HW115896   3.888   0.921   5.219 -1.7933 -2.2769  0.4470
 1478SOL    HW215897   4.009   0.910   5.141 -0.7866 -0.3181 -0.8124
 1479SOL     OW15898   4.251   3.213   6.408  0.2132 -0.2596 -0.9623
 1479SOL    HW115899   4.260   3.291   6.353 -0.6841  0.2738 -0.3474
 1479SOL    HW215900   4.158   3.196   6.396 -0.0804  2.0066 -1.8568
 1480SOL     OW15901   2.169   3.041  14.413 -0.7915  0.0917 -0.5267
 1480SOL    HW115902   2.131   3.089  14.339 -1.5174 -0.1396 -0.3045
 1480SOL    HW215903   2.089   2.993  14.435 -2.4446  1.8682 -2.6558
 1481SOL     OW15904   1.037   0.772   7.269 -0.2395 -0.0437  0.2462
 1481SOL    HW115905   0.999   0.751   7.354  0.4894  0.9053  0.7973
 1481SOL    HW215906   1.072   0.860   7.280 -0.4771  0.2519 -1.3388
 1482SOL     OW15907   3.588   1.681   0.927 -0.0863 -0.1357  0.2510
 1482SOL    HW115908   3.531   1.754   0.903 -1.4412 -1.5715 -0.8531
 1482SOL    HW215909   3.628   1.671   0.841 -1.1634  0.6135 -0.3263
 1483SOL     OW15910   3.353   1.110   5.847 -0.1698  0.2720 -0.7262
 1483SOL    HW115911   3.308   1.028   5.868  0.0418  0.8230  1.8965
 1483SOL    HW215912   3.300   1.173   5.896  2.9067  0.7038  1.9992
 1484SOL     OW15913   2.504   0.047   8.276 -0.5385  0.0069  0.2415
 1484SOL    HW115914   2.481   0.135   8.246 -0.5579 -0.1945 -0.3365
 1484SOL    HW215915   2.474   4.729   8.198 -0.2744 -2.8802  1.8901
 1485SOL     OW15916   2.480   3.636   6.177  0.1657 -0.2066  1.1444
 1485SOL    HW115917   2.478   3.705   6.244 -1.3506  0.3436  0.5218
 1485SOL    HW215918   2.549   3.582   6.216  1.6484  0.5825 -0.3500
 1486SOL     OW15919   3.392   3.854   0.960  0.4271 -0.1855 -0.2945
 1486SOL    HW115920   3.331   3.819   0.895  0.6105 -2.0493  0.5359
 1486SOL    HW215921   3.390   3.782   1.024 -2.0504  1.7734  1.8732
 1487SOL     OW15922   2.781   3.316   8.492  0.7040  0.2329 -0.2707
 1487SOL    HW115923   2.705   3.277   8.534  0.3488 -0.0096 -1.1490
 1487SOL    HW215924   2.821   3.360   8.568  3.2119  0.5448 -1.7655
 1488SOL     OW15925   4.634   1.501   5.460  0.4053  0.3089 -0.4734
 1488SOL    HW115926   4.677   1.573   5.506  0.6412 -0.2039  0.1160
 1488SOL    HW215927   4.655   1.517   5.368 -0.0406 -1.4705 -0.8786
 1489SOL     OW15928   3.272   1.136   9.802 -0.7237 -0.0938 -0.2431
 1489SOL    HW115929   3.269   1.222   9.845  0.0101 -1.1877  2.0056
 1489SOL    HW215930   3.221   1.149   9.722  2.1238  2.6296 -1.6177
 1490SOL     OW15931   1.309   2.917  15.431 -0.3058  0.4268 -0.5805
 1490SOL    HW115932   1.367   2.925  15.506  1.2018 -1.3760 -1.5461
 1490SOL    HW215933   1.347   2.982  15.373  1.5628 -1.3695 -1.3773
 1491SOL     OW15934   4.397   1.283   8.763  0.3049 -0.1214  0.0523
 1491SOL    HW115935   4.467   1.218   8.771 -1.2442 -1.8800 -0.5573
 1491SOL    HW215936   4.398   1.316   8.853 -0.7679  1.9549 -0.7068
 1492SOL     OW15937   4.465   0.603   6.342  0.0445 -0.0838 -0.5724
 1492SOL    HW115938   4.424   0.633   6.423 -0.3954  1.0251 -1.1928
 1492SOL    HW215939   4.484   0.691   6.310  0.1827 -0.2937 -1.0716
 1493SOL     OW15940   0.802   2.374   5.853 -0.5097 -0.2396  0.0282
 1493SOL    HW115941   0.787   2.318   5.929 -1.3194 -0.4639 -0.3028
 1493SOL    HW215942   0.715   2.358   5.818 -0.3885  1.2300 -0.9323
 1494SOL     OW15943   1.779   0.308  10.724  0.1321  0.0786 -0.0347
 1494SOL    HW115944   1.701   0.253  10.712  0.0778  0.1422  0.0245
 1494SOL    HW215945   1.829   0.278  10.648  2.3306  1.6332  0.7944
 1495SOL     OW15946   0.111   1.139   4.686  0.4804 -0.3706  0.2977
 1495SOL    HW115947   0.022   1.111   4.707 -0.0671 -0.7689 -2.5054
 1495SOL    HW215948   0.121   1.124   4.592  0.3925 -0.9704  0.3844
 1496SOL     OW15949   1.527   2.154   9.227  0.1628 -0.3694 -0.0999
 1496SOL    HW115950   1.524   2.060   9.209 -2.2819 -0.2929 -0.1288
 1496SOL    HW215951   1.496   2.160   9.317 -0.7974  0.2207 -0.4619
 1497SOL     OW15952   0.767   1.533  10.115 -0.0472  0.2721  0.3766
 1497SOL    HW115953   0.809   1.450  10.094  0.5847  0.7549 -0.2802
 1497SOL    HW215954   0.834   1.562  10.176  0.9753  1.3831 -1.2743
 1498SOL     OW15955   3.960   0.661   7.598 -0.5510  0.0519  0.1443
 1498SOL    HW115956   3.898   0.734   7.593  0.0765  0.5161 -0.8081
 1498SOL    HW215957   3.925   0.626   7.680  2.0295 -1.0972  0.7529
 1499SOL     OW15958   1.475   1.402   8.735 -0.1936 -0.1982  0.0661
 1499SOL    HW115959   1.530   1.341   8.784  0.7578  1.1001  0.6066
 1499SOL    HW215960   1.397   1.353   8.708 -0.0526 -0.2005 -0.3473
 1500SOL     OW15961   2.960   3.860   5.953  0.4049 -0.5548  0.2118
 1500SOL    HW115962   3.030   3.862   6.018  1.5106  0.5027 -1.0105
 1500SOL    HW215963   2.882   3.891   5.999  0.1618 -0.3358 -0.3418
 1501SOL     OW15964   4.636   2.234   0.729  0.1598 -0.3331 -0.5201
 1501SOL    HW115965   4.656   2.314   0.680  0.3862 -0.9079 -1.3492
 1501SOL    HW215966   4.590   2.176   0.669 -1.6345 -1.3098  1.7794
 1502SOL     OW15967   1.844   1.914   3.811 -0.0948 -0.1877 -0.0217
 1502SOL    HW115968   1.923   1.863   3.833  1.7860  2.2194 -1.1630
 1502SOL    HW215969   1.882   1.960   3.736 -3.6569  4.6741  1.1701
 1503SOL     OW15970   0.119   2.768   9.776 -0.1451  0.6325  0.2629
 1503SOL    HW115971   0.165   2.842   9.735 -0.1493 -1.5949 -3.7351
 1503SOL    HW215972   0.048   2.819   9.817 -0.8607  1.1111 -1.5810
 1504SOL     OW15973   3.330   0.048  15.457  0.6700  0.4577 -0.0811
 1504SOL    HW115974   3.291   0.098  15.386  0.4170  1.9178  1.0882
 1504SOL    HW215975   3.423   0.064  15.438  0.7456 -1.2522 -1.1412
 1505SOL     OW15976   3.566   3.637   7.318 -0.1147  0.5636 -0.5144
 1505SOL    HW115977   3.527   3.559   7.279  0.2428 -1.0813  2.3448
 1505SOL    HW215978   3.659   3.615   7.328 -0.2738  0.4564  0.7553
 1506SOL     OW15979   2.545   1.844   1.915  0.2437 -0.4993 -0.1398
 1506SOL    HW115980   2.464   1.797   1.935 -0.1489 -0.2194 -1.0831
 1506SOL    HW215981   2.600   1.809   1.985 -0.5743 -0.8427  0.3318
 1507SOL     OW15982   4.480   1.306   4.550  1.0980  0.2803  0.3355
 1507SOL    HW115983   4.481   1.304   4.455 -0.2820 -3.2850  0.4148
 1507SOL    HW215984   4.541   1.377   4.572  0.3138  0.6701  1.2634
 1508SOL     OW15985   0.507   1.544   2.273 -0.0516 -0.0951 -0.1910
 1508SOL    HW115986   0.549   1.503   2.197  1.4400  1.8625 -0.4344
 1508SOL    HW215987   0.478   1.468   2.322 -2.9956  1.4383  0.4534
 1509SOL     OW15988   1.175   3.808  14.680 -0.0857  0.1341 -0.0348
 1509SOL    HW115989   1.119   3.843  14.750  0.6417  3.7022 -1.2095
 1509SOL    HW215990   1.201   3.734  14.735  0.4605  0.4650  0.1475
 1510SOL     OW15991   2.758   1.922   0.099  0.1087  0.4423  0.2041
 1510SOL    HW115992   2.775   1.921   0.193 -0.7951 -0.3701  0.3650
 1510SOL    HW215993   2.781   1.831   0.085 -0.3995  0.4895 -0.9488
 1511SOL     OW15994   0.558   2.858  10.527 -0.0401 -0.1166  0.1822
 1511SOL    HW115995   0.514   2.832  10.446 -1.0098  0.4040  0.5457
 1511SOL    HW215996   0.476   2.874  10.573  0.1493 -0.0580  0.4987
 1512SOL     OW15997   0.456   4.036   1.177  0.2351 -0.1212 -0.0466
 1512SOL    HW115998   0.470   4.100   1.246  1.0786 -0.5983  0.2343
 1512SOL    HW215999   0.526   3.978   1.206 -1.3210 -0.5890  2.7555
 1513SOL     OW16000   1.428   2.039   6.224 -0.0368  0.1153 -0.5840
 1513SOL    HW116001   1.518   2.041   6.192 -0.4138 -3.0307 -1.8301
 1513SOL    HW216002   1.418   2.113   6.284 -2.1757 -0.4888 -0.1730
 1514SOL     OW16003   4.590   2.380  10.716 -0.1076 -0.5069  0.0180
 1514SOL    HW116004   4.585   2.311  10.650 -2.3943  1.2756 -1.6763
 1514SOL    HW216005   4.509   2.427  10.700  0.9577  1.3394  0.0469
 1515SOL     OW16006   3.492   0.046   8.644  1.0059  0.2367  0.2473
 1515SOL    HW116007   3.462   4.690   8.676 -0.7946  1.4181  1.7106
 1515SOL    HW216008   3.406   0.077   8.617 -0.6752 -1.8996  3.1911
 1516SOL     OW16009   3.751   4.293   7.519  0.6727 -0.3215 -0.7489
 1516SOL    HW116010   3.741   4.239   7.440 -2.7945 -0.6814 -0.0800
 1516SOL    HW216011   3.845   4.310   7.509  0.0951  4.2962  1.5709
 1517SOL     OW16012   2.102   4.327   9.980 -0.2121  0.3497 -0.3128
 1517SOL    HW116013   2.090   4.402   9.922  2.9436  1.4202  0.4675
 1517SOL    HW216014   2.032   4.348  10.042 -1.3781  1.3642 -1.9644
 1518SOL     OW16015   0.337   2.801  10.729 -0.1689 -1.3492  0.0596
 1518SOL    HW116016   0.284   2.752  10.667 -1.1966 -0.4332  0.2214
 1518SOL    HW216017   0.320   2.757  10.813  0.4579 -1.0169  0.3618
 1519SOL     OW16018   2.832   3.917   6.531  0.3091 -0.2416 -0.9328
 1519SOL    HW116019   2.894   3.976   6.488  0.5858 -1.0643 -1.6775
 1519SOL    HW216020   2.779   3.897   6.454  1.4388 -0.0513 -1.7715
 1520SOL     OW16021   1.814   4.440   7.095  0.0859  0.1851 -0.3481
 1520SOL    HW116022   1.842   4.363   7.145  0.5770  0.5934  0.0070
 1520SOL    HW216023   1.886   4.502   7.106 -0.4289  0.8868 -0.9161
 1521SOL     OW16024   1.346   2.837   7.507 -0.7112  0.1408 -0.5620
 1521SOL    HW116025   1.355   2.870   7.597  0.3122  0.5693 -0.8182
 1521SOL    HW216026   1.416   2.773   7.515 -1.8396 -1.1134 -0.7989
 1522SOL     OW16027   2.686   4.430   8.048  0.1466 -0.2252  0.2805
 1522SOL    HW116028   2.752   4.364   8.069 -0.0847 -0.6477 -0.3323
 1522SOL    HW216029   2.619   4.376   8.007  0.8048 -0.4159 -0.5511
 1523SOL     OW16030   3.342   2.597   2.547 -0.3429 -0.1861  0.0309
 1523SOL    HW116031   3.368   2.637   2.464 -0.3489 -1.7564 -0.7236
 1523SOL    HW216032   3.277   2.534   2.516 -1.7863  0.7716  1.1331
 1524SOL     OW16033   2.366   2.164   8.330  0.6301 -0.3315  0.5587
 1524SOL    HW116034   2.324   2.080   8.314  1.3398 -0.5531 -0.1180
 1524SOL    HW216035   2.455   2.127   8.333  0.1989 -1.2665  1.9296
 1525SOL     OW16036   3.052   2.146  13.026  0.4277 -0.3188 -0.2485
 1525SOL    HW116037   3.059   2.054  13.001 -1.0613 -0.6835  0.7193
 1525SOL    HW216038   3.130   2.182  12.984  0.5187  0.9435  0.9952
 1526SOL     OW16039   3.774   0.811  11.662 -0.2287  0.0635  0.1541
 1526SOL    HW116040   3.815   0.727  11.639  1.1146  0.8847 -0.4776
 1526SOL    HW216041   3.718   0.786  11.735 -0.5865  2.4347  0.6934
 1527SOL     OW16042   0.449   4.091   5.409  0.3398 -0.8867  0.0429
 1527SOL    HW116043   0.523   4.087   5.348  0.4236  1.1715  0.0055
 1527SOL    HW216044   0.475   4.168   5.460 -0.0141 -0.9951  0.3840
 1528SOL     OW16045   1.587   3.539  16.922  1.2272 -0.3196 -0.8092
 1528SOL    HW116046   1.670   3.532  16.875  0.0852  3.6777 -3.4351
 1528SOL    HW216047   1.547   3.453  16.934 -0.7616  0.8184  0.7870
 1529SOL     OW16048   2.688   4.497   7.439 -0.4767 -0.2019 -0.2380
 1529SOL    HW116049   2.623   4.427   7.438 -0.3973 -0.2793 -0.0553
 1529SOL    HW216050   2.757   4.435   7.462  0.8595  1.4831  0.2952
 1530SOL     OW16051   3.096   2.670  11.444 -0.0601  0.7299 -0.0588
 1530SOL    HW116052   3.027   2.672  11.378  0.9331  1.2650 -1.0774
 1530SOL    HW216053   3.140   2.591  11.414 -1.6632 -0.1783  0.0009
 1531SOL     OW16054   4.120   2.745   9.735 -0.2736  0.2317  0.2696
 1531SOL    HW116055   4.055   2.813   9.752 -1.8052 -1.2714  0.4879
 1531SOL    HW216056   4.174   2.753   9.813  0.6643  1.1219 -0.4835
 1532SOL     OW16057   2.255   3.619   4.011 -0.2057  0.2920  0.1877
 1532SOL    HW116058   2.274   3.553   4.078  1.1150  1.0093  0.5143
 1532SOL    HW216059   2.186   3.670   4.054 -2.0976  0.2532 -2.8145
 1533SOL     OW16060   1.006   1.758  10.519  0.5227  1.0811  0.2160
 1533SOL    HW116061   1.066   1.790  10.586  2.1848  0.5668 -1.0333
 1533SOL    HW216062   0.926   1.767  10.571 -0.2348  1.6936 -1.0419
 1534SOL     OW16063   0.006   0.997   2.996 -0.2634 -0.3959 -0.4500
 1534SOL    HW116064   4.706   1.035   2.913  0.5940  0.8891 -0.1757
 1534SOL    HW216065   0.100   0.983   2.989 -0.3722 -0.2027 -2.4193
 1535SOL     OW16066   3.463   3.174   8.953  0.6319 -0.7137  0.0759
 1535SOL    HW116067   3.389   3.229   8.980  2.7158  1.4192  1.4790
 1535SOL    HW216068   3.412   3.094   8.938  0.6614 -0.8028  0.4477
 1536SOL     OW16069   1.725   0.931   1.585  0.0356  0.0600 -0.0992
 1536SOL    HW116070   1.813   0.967   1.590 -0.5673  1.0395  3.5238
 1536SOL    HW216071   1.684   0.986   1.651 -0.3750  0.1616 -0.4404
 1537SOL     OW16072   2.794   2.342  13.199  0.2213 -0.1827  0.5097
 1537SOL    HW116073   2.746   2.330  13.281 -0.5351  0.9778  0.2297
 1537SOL    HW216074   2.774   2.268  13.141  1.9884  0.0338 -0.3693
 1538SOL     OW16075   2.729   3.015   7.274  0.6448  0.0043  0.0308
 1538SOL    HW116076   2.662   2.988   7.337  0.1685  0.6518 -0.2108
 1538SOL    HW216077   2.689   3.005   7.188 -0.9998  1.0179  0.6849
 1539SOL     OW16078   4.612   3.791  12.762 -0.0791  0.5762  0.1026
 1539SOL    HW116079   4.632   3.849  12.689 -2.6222 -1.4679 -2.2509
 1539SOL    HW216080   4.552   3.726  12.725 -0.7473  1.9413 -1.2446
 1540SOL     OW16081   0.183   0.143   3.597  0.0642 -0.5308 -0.1392
 1540SOL    HW116082   0.228   0.105   3.673  0.5264  2.0292  0.8738
 1540SOL    HW216083   0.242   0.123   3.525  1.6355 -1.4958  1.4197
 1541SOL     OW16084   1.443   1.166   9.698  0.0896 -0.3695  0.2701
 1541SOL    HW116085   1.422   1.243   9.646 -0.8370 -1.0584 -0.3757
 1541SOL    HW216086   1.535   1.177   9.724 -0.2754  0.8654  1.0489
 1542SOL     OW16087   1.225   1.172   5.042 -0.5458  0.1119  0.0842
 1542SOL    HW116088   1.222   1.176   4.946  0.4741  0.6006  0.0768
 1542SOL    HW216089   1.318   1.152   5.047 -0.7034 -1.0518 -1.5828
 1543SOL     OW16090   0.734   0.371   1.846 -0.0991  0.5033  0.1171
 1543SOL    HW116091   0.811   0.426   1.858  0.2764  0.2729 -1.2578
 1543SOL    HW216092   0.719   0.400   1.756 -0.7768 -1.9955 -0.5864
 1544SOL     OW16093   0.899   3.270  17.255 -0.3150 -0.2597  0.8791
 1544SOL    HW116094   0.864   3.316  17.178 -1.9507 -1.1812  1.0575
 1544SOL    HW216095   0.991   3.259  17.230  0.2422  1.0817  2.3696
 1545SOL     OW16096   4.072   2.300   4.042  0.4185  0.7072  0.3442
 1545SOL    HW116097   4.070   2.204   4.046 -0.6454  0.6609 -1.3876
 1545SOL    HW216098   4.129   2.319   4.117 -0.1606  0.8093  0.7565
 1546SOL     OW16099   0.661   1.947   4.403  0.5775 -0.0453  0.0721
 1546SOL    HW116100   0.663   1.871   4.344 -1.1716 -0.8366  1.0351
 1546SOL    HW216101   0.606   1.916   4.475  0.2630 -0.5026 -0.3697
 1547SOL     OW16102   2.791   1.124   6.509  0.4005 -0.5601  0.0337
 1547SOL    HW116103   2.843   1.165   6.577 -0.6989  0.9261 -0.0235
 1547SOL    HW216104   2.791   1.034   6.541 -0.8580 -1.5108 -2.6203
 1548SOL     OW16105   1.539   1.103   2.328  0.4224 -0.4344  0.4070
 1548SOL    HW116106   1.626   1.101   2.288  0.1091 -0.6309 -0.2630
 1548SOL    HW216107   1.479   1.130   2.259  0.6441 -1.2627 -0.1128
 1549SOL     OW16108   1.261   1.739   3.304  0.4762  0.1432 -0.0963
 1549SOL    HW116109   1.172   1.740   3.268  0.0182 -0.7347  1.0226
 1549SOL    HW216110   1.298   1.690   3.230  1.9595  0.1117  0.6734
 1550SOL     OW16111   1.193   3.200   8.789  0.0111  0.6546  0.3176
 1550SOL    HW116112   1.205   3.247   8.872 -2.4078  2.2639 -0.2405
 1550SOL    HW216113   1.138   3.260   8.738 -1.4905 -1.3658 -0.4248
 1551SOL     OW16114   3.950   4.200   5.497 -0.0184 -0.2272 -0.1663
 1551SOL    HW116115   3.993   4.122   5.462  0.1246 -0.7850  1.2893
 1551SOL    HW216116   3.857   4.191   5.473  0.0028 -1.5132  0.2129
 1552SOL     OW16117   1.665   3.283   6.252  0.4748  0.0856  0.0203
 1552SOL    HW116118   1.643   3.295   6.345  1.2418  1.1024  0.0698
 1552SOL    HW216119   1.739   3.223   6.256  1.8655  1.7629 -0.7514
 1553SOL     OW16120   1.011   2.800  13.139 -0.1336  0.3006 -0.1416
 1553SOL    HW116121   1.036   2.891  13.123 -3.0064  1.0536 -0.3755
 1553SOL    HW216122   1.096   2.765  13.166  0.0084  1.3576  0.8096
 1554SOL     OW16123   1.022   0.430  16.156 -0.3268  0.1384  0.4031
 1554SOL    HW116124   1.046   0.473  16.239 -1.5704 -1.1533  1.4291
 1554SOL    HW216125   0.953   0.373  16.189  0.8979 -1.1929  0.6429
 1555SOL     OW16126   0.669   4.227   7.726  0.4001  0.0488  0.1829
 1555SOL    HW116127   0.596   4.190   7.676  0.1890  2.4826 -1.3003
 1555SOL    HW216128   0.647   4.199   7.815  1.8513  1.0727  0.8770
 1556SOL     OW16129   2.712   2.194   8.091 -0.0003 -0.0172 -0.0739
 1556SOL    HW116130   2.798   2.155   8.077 -0.1211  1.0441 -3.7973
 1556SOL    HW216131   2.689   2.193   7.999  1.1663  1.2921 -0.3793
 1557SOL     OW16132   1.428   1.949   3.333  0.0445  0.0969  0.7574
 1557SOL    HW116133   1.375   1.871   3.342 -3.6360  2.4862 -0.3166
 1557SOL    HW216134   1.356   2.012   3.328 -0.5294 -0.4143  2.5993
 1558SOL     OW16135   1.716   2.072  16.875  0.5038  0.2930 -0.0477
 1558SOL    HW116136   1.630   2.104  16.850  0.4683  0.1857 -0.0623
 1558SOL    HW216137   1.762   2.155  16.889 -4.5030  2.6086  2.6597
 1559SOL     OW16138   1.082   3.235  14.170 -0.5395 -0.2793 -0.0740
 1559SOL    HW116139   1.140   3.168  14.135  0.5220 -0.4957  2.0838
 1559SOL    HW216140   1.140   3.288  14.224 -0.2942  0.0976 -0.7080
 1560SOL     OW16141   2.472   2.073   0.614  0.1975 -0.2440  0.0733
 1560SOL    HW116142   2.516   2.011   0.555 -1.4974  0.0180 -1.4423
 1560SOL    HW216143   2.387   2.030   0.610  0.5494 -1.2209  2.8324
 1561SOL     OW16144   2.452   4.612  14.528  0.4815  0.3302 -0.1841
 1561SOL    HW116145   2.437   4.632  14.436 -0.0966 -0.8126 -0.3408
 1561SOL    HW216146   2.379   4.554  14.551 -0.1855  1.2212 -0.0353
 1562SOL     OW16147   2.831   2.231   2.072  0.1158 -0.0600  0.1211
 1562SOL    HW116148   2.897   2.297   2.048 -0.0121  0.0031 -0.0557
 1562SOL    HW216149   2.750   2.270   2.040  1.0904  3.1845  1.5495
 1563SOL     OW16150   1.452   0.394  17.569 -0.4957  0.3688 -0.1907
 1563SOL    HW116151   1.510   0.470  17.559  1.3920 -1.1492 -0.6517
 1563SOL    HW216152   1.512   0.327  17.601 -0.6583  0.2440 -0.1450
 1564SOL     OW16153   4.582   3.339  14.196  0.5109  0.5239  0.8908
 1564SOL    HW116154   4.617   3.257  14.230 -0.6377 -1.1745 -2.0194
 1564SOL    HW216155   4.646   3.358  14.127 -0.5779 -2.5480 -0.9911
 1565SOL     OW16156   2.513   4.251   2.302 -0.7479  0.2678  0.1182
 1565SOL    HW116157   2.504   4.161   2.272 -0.2107 -0.2654  1.5925
 1565SOL    HW216158   2.597   4.253   2.348  0.1554 -0.0469 -1.5173
 1566SOL     OW16159   4.645   2.817   6.391  0.3923 -0.6313 -0.1474
 1566SOL    HW116160   4.630   2.904   6.355 -0.8537 -0.3547  1.0402
 1566SOL    HW216161   4.570   2.820   6.450  0.3972 -1.6484 -0.0876
 1567SOL     OW16162   1.733   1.092   5.436  0.5575  0.1188  0.1920
 1567SOL    HW116163   1.776   1.060   5.357 -0.6039  1.0074 -0.8091
 1567SOL    HW216164   1.679   1.015   5.452  0.2982  0.4448  0.8619
 1568SOL     OW16165   3.322   3.137  14.436 -0.6593  0.0363  0.4088
 1568SOL    HW116166   3.265   3.079  14.385  0.8807  0.8094 -2.1526
 1568SOL    HW216167   3.292   3.221  14.401  0.0042 -0.1657 -0.6480
 1569SOL     OW16168   3.897   0.103   9.413  0.6724 -0.3374 -0.4932
 1569SOL    HW116169   3.921   0.189   9.448 -0.1366 -0.9719  1.6218
 1569SOL    HW216170   3.802   0.103   9.410  0.6633 -1.6811 -0.2005
 1570SOL     OW16171   3.666   1.985   1.872  0.1662 -0.0387 -0.1484
 1570SOL    HW116172   3.668   2.004   1.778 -0.6615 -0.1187 -0.1826
 1570SOL    HW216173   3.674   2.067   1.920  0.6902 -0.8648  1.1918
 1571SOL     OW16174   3.878   1.182   5.593 -0.3688 -0.5174 -0.4531
 1571SOL    HW116175   3.835   1.222   5.518 -1.2549  1.0319  0.8911
 1571SOL    HW216176   3.798   1.150   5.636 -0.9543  1.1891 -0.3075
 1572SOL     OW16177   1.928   2.998   9.949  0.8491 -0.3754 -0.0194
 1572SOL    HW116178   1.953   2.933   9.884 -2.2403 -1.5253 -0.0913
 1572SOL    HW216179   1.974   2.960  10.023  0.3935 -0.6454  0.1267
 1573SOL     OW16180   0.684   2.314   0.440 -0.4445 -0.3372 -0.3647
 1573SOL    HW116181   0.615   2.372   0.406 -0.7684 -0.9877 -0.8226
 1573SOL    HW216182   0.679   2.334   0.533 -2.3166  0.7707 -0.6877
 1574SOL     OW16183   0.332   1.742   0.732  0.0062 -0.6583  0.3969
 1574SOL    HW116184   0.309   1.677   0.798  0.0389  0.3759  1.4201
 1574SOL    HW216185   0.407   1.710   0.680  0.5339  0.5636  0.3950
 1575SOL     OW16186   0.879   3.390   8.476  0.1286 -0.4528 -0.8885
 1575SOL    HW116187   0.820   3.453   8.517 -0.7643 -2.2609  0.6122
 1575SOL    HW216188   0.947   3.388   8.544  0.6122 -0.4968 -1.3782
 1576SOL     OW16189   4.574   3.756  12.476  0.2548 -0.1167  0.4288
 1576SOL    HW116190   4.580   3.837  12.427  4.9936 -1.3090 -0.9305
 1576SOL    HW216191   4.621   3.685  12.432 -1.6791 -0.8882 -0.4342
 1577SOL     OW16192   3.381   0.507   6.837  0.0329  0.0179 -0.2756
 1577SOL    HW116193   3.438   0.555   6.777 -0.8477 -0.9902 -1.9459
 1577SOL    HW216194   3.445   0.479   6.902  2.7497  0.8449 -2.6100
 1578SOL     OW16195   1.068   3.058  13.091  0.5033  0.2671  0.0079
 1578SOL    HW116196   1.030   3.129  13.039  0.4290  0.2359  0.0188
 1578SOL    HW216197   1.084   3.095  13.178 -0.0043  0.3803  0.0542
 1579SOL     OW16198   2.901   2.586   1.480 -0.3762  0.2352  0.3600
 1579SOL    HW116199   2.808   2.576   1.462 -0.3608 -1.1334  1.0151
 1579SOL    HW216200   2.893   2.678   1.503  1.5763  0.6385 -0.4819
 1580SOL     OW16201   4.088   2.381   2.878 -0.4045 -0.0935 -0.8155
 1580SOL    HW116202   4.156   2.318   2.857 -0.3007  0.2961 -1.6380
 1580SOL    HW216203   4.133   2.453   2.924 -1.8916  1.7728 -2.2702
 1581SOL     OW16204   3.307   0.868   2.193  0.0957  0.1425 -0.1558
 1581SOL    HW116205   3.398   0.868   2.222  0.8973 -1.1379 -2.6144
 1581SOL    HW216206   3.270   0.798   2.247 -0.6566  0.6766  0.0135
 1582SOL     OW16207   1.347   1.601   8.587 -0.0435  0.1491  0.1318
 1582SOL    HW116208   1.412   1.670   8.598  0.4113 -0.6096  2.3173
 1582SOL    HW216209   1.410   1.530   8.596 -1.4235 -0.6802  3.2758
 1583SOL     OW16210   4.704   3.913   1.420 -0.5127 -0.8018 -0.2108
 1583SOL    HW116211   4.650   3.980   1.377  1.4693  1.4404  0.8045
 1583SOL    HW216212   4.670   3.837   1.373  1.6113 -1.3317 -0.8595
 1584SOL     OW16213   1.608   3.189   6.013  0.0961 -0.2926  0.1226
 1584SOL    HW116214   1.518   3.219   6.005 -0.2882 -0.9063  2.1402
 1584SOL    HW216215   1.627   3.189   6.107 -2.5532  1.4455  0.6739
 1585SOL     OW16216   1.948   4.298   4.788 -0.4918  0.0247 -0.5479
 1585SOL    HW116217   1.865   4.346   4.791 -1.0155 -0.8065 -2.3299
 1585SOL    HW216218   1.962   4.276   4.696 -1.6741 -0.0707 -0.7040
 1586SOL     OW16219   3.416   1.845   3.864  0.7394  0.3317  0.8660
 1586SOL    HW116220   3.425   1.750   3.851  0.0780  0.2467  1.0462
 1586SOL    HW216221   3.387   1.848   3.955  1.0880 -1.9187  1.0672
 1587SOL     OW16222   1.092   0.207   2.820 -0.0709 -0.3540  0.0700
 1587SOL    HW116223   1.127   0.118   2.826  1.2325  0.1800  0.5747
 1587SOL    HW216224   1.159   0.244   2.763  0.5780 -2.8757 -0.8027
 1588SOL     OW16225   1.519   0.242   3.609  0.0151 -0.6151  0.0074
 1588SOL    HW116226   1.610   0.217   3.627  0.6138  0.4587 -1.4103
 1588SOL    HW216227   1.468   0.163   3.622  0.2695 -0.6260  0.8985
 1589SOL     OW16228   0.455   3.513   2.516 -0.1281 -0.3577 -0.5896
 1589SOL    HW116229   0.470   3.541   2.426 -2.5564  2.1042 -0.2343
 1589SOL    HW216230   0.363   3.538   2.522  0.5005  1.9694 -0.6926
 1590SOL     OW16231   3.063   1.678  16.524  0.1588 -0.2275 -0.1404
 1590SOL    HW116232   2.999   1.674  16.595  1.4164  0.2315  1.0126
 1590SOL    HW216233   3.000   1.671  16.452 -2.5144  0.8303  2.1323
 1591SOL     OW16234   2.658   2.958   6.481  0.0851  0.3197 -0.1221
 1591SOL    HW116235   2.686   3.049   6.481 -1.8811  0.9054  1.6583
 1591SOL    HW216236   2.564   2.978   6.482 -0.4245 -1.9853 -1.4957
 1592SOL     OW16237   3.941   1.157   8.389 -0.2269 -0.0897 -0.3485
 1592SOL    HW116238   3.934   1.124   8.478 -2.0000 -1.2260 -0.9092
 1592SOL    HW216239   3.988   1.241   8.395  3.4230 -2.0559 -1.3556
 1593SOL     OW16240   1.664   1.711  10.399 -0.7393  0.1930 -0.1605
 1593SOL    HW116241   1.733   1.744  10.340 -0.3838  0.0144  0.1526
 1593SOL    HW216242   1.613   1.789  10.418 -0.3516  0.6410 -0.9710
 1594SOL     OW16243   1.434   2.548   2.783  0.2365 -0.6861  0.7017
 1594SOL    HW116244   1.473   2.573   2.700  1.0409 -0.9460  1.0068
 1594SOL    HW216245   1.503   2.523   2.844  2.6185  0.9847 -1.3400
 1595SOL     OW16246   3.070   3.159   5.199  0.2814  0.2712 -0.0989
 1595SOL    HW116247   2.981   3.193   5.206 -0.0782 -0.6394 -0.2932
 1595SOL    HW216248   3.087   3.195   5.112 -0.7970 -1.2649 -0.9338
 1596SOL     OW16249   1.632   1.653   6.935  0.5324  0.0877 -0.3914
 1596SOL    HW116250   1.568   1.583   6.923  1.1880 -0.9529  2.0493
 1596SOL    HW216251   1.690   1.621   7.005  1.2308  1.9182 -0.1310
 1597SOL     OW16252   2.082   2.882   7.440  0.5221 -0.1546  0.2639
 1597SOL    HW116253   2.155   2.924   7.486  0.3746  1.4978 -1.0159
 1597SOL    HW216254   2.061   2.816   7.507  1.5314  0.6422  1.3717
 1598SOL     OW16255   3.587   3.603   5.250 -0.0896 -0.0275 -0.1114
 1598SOL    HW116256   3.661   3.559   5.207 -0.1110 -0.8046  0.6465
 1598SOL    HW216257   3.582   3.679   5.192 -0.2079  0.6356  0.7640
 1599SOL     OW16258   2.923   1.526   2.992 -0.4638 -0.1743  0.1096
 1599SOL    HW116259   3.016   1.507   2.991 -0.2689  0.7644  0.4321
 1599SOL    HW216260   2.888   1.458   2.935  0.8090 -1.2130  0.5919
 1600SOL     OW16261   4.678   0.719   5.164  0.6958 -0.4577  0.5113
 1600SOL    HW116262   4.684   0.731   5.258  2.4839  0.5375  0.2798
 1600SOL    HW216263   4.618   0.645   5.166  1.1996 -0.9021 -0.7366
 1601SOL     OW16264   2.565   1.537   6.899 -0.1842  0.4064 -0.8250
 1601SOL    HW116265   2.483   1.565   6.858 -0.9261  1.7330  1.5050
 1601SOL    HW216266   2.539   1.515   6.989  2.6042  2.3152  0.4475
 1602SOL     OW16267   0.691   2.021   0.433 -0.2131 -0.0611  0.4696
 1602SOL    HW116268   0.687   2.117   0.432  0.6726 -0.0213  0.2425
 1602SOL    HW216269   0.684   1.992   0.524  0.8829 -2.6340 -0.2732
 1603SOL     OW16270   2.409   3.147   5.497 -0.6759 -0.2230 -0.1148
 1603SOL    HW116271   2.376   3.235   5.480  1.0534  0.8539  2.1575
 1603SOL    HW216272   2.369   3.127   5.581  2.2319 -0.1581  1.2576
 1604SOL     OW16273   0.515   0.963  16.544 -0.1459 -0.2334 -0.3680
 1604SOL    HW116274   0.551   1.047  16.573  0.6958 -0.0091 -2.0867
 1604SOL    HW216275   0.426   0.986  16.520 -0.5281  0.9958  2.1852
 1605SOL     OW16276   4.299   2.221  12.748  0.3082  0.9881 -0.3260
 1605SOL    HW116277   4.230   2.205  12.683  0.6060 -0.5526 -0.2569
 1605SOL    HW216278   4.270   2.166  12.821 -1.3314 -2.0893 -3.2799
 1606SOL     OW16279   4.550   1.672   2.676  0.4935 -0.0994  0.0571
 1606SOL    HW116280   4.640   1.694   2.702  0.7707 -0.6969 -0.3697
 1606SOL    HW216281   4.554   1.655   2.581  0.1313 -2.3820  0.4642
 1607SOL     OW16282   1.994   0.479   4.393  0.3902 -0.1153 -0.2676
 1607SOL    HW116283   2.022   0.415   4.459 -0.4143 -2.5177 -2.2611
 1607SOL    HW216284   1.900   0.486   4.410  0.6523  0.0123  1.1401
 1608SOL     OW16285   2.896   1.588   8.810 -0.2899  0.0903 -0.4865
 1608SOL    HW116286   2.820   1.573   8.753  0.3067  0.0794 -1.2775
 1608SOL    HW216287   2.907   1.498   8.841  0.1322  0.7074  1.1466
 1609SOL     OW16288   1.438   4.574   2.798 -0.1038 -0.1064  0.1782
 1609SOL    HW116289   1.532   4.591   2.805 -0.4142  2.3059 -1.5079
 1609SOL    HW216290   1.432   4.515   2.723 -0.8175  0.6757 -0.3901
 1610SOL     OW16291   1.561   1.783   5.674 -0.4926  0.5976  0.0379
 1610SOL    HW116292   1.574   1.703   5.623 -1.1914 -0.4781  1.5536
 1610SOL    HW216293   1.556   1.843   5.600 -0.9061  0.0570 -0.3685
 1611SOL     OW16294   1.390   2.565   4.310  0.6345 -0.3946  0.0978
 1611SOL    HW116295   1.425   2.519   4.234 -1.6898  0.8938 -1.7746
 1611SOL    HW216296   1.441   2.645   4.307  0.1762 -0.1196 -0.4132
 1612SOL     OW16297   2.337   1.768   3.689  0.1099  0.5048 -0.1620
 1612SOL    HW116298   2.414   1.752   3.634  0.2322  0.2176  0.0984
 1612SOL    HW216299   2.291   1.836   3.640 -1.5259 -2.4716 -2.7380
 1613SOL     OW16300   3.795   1.411   5.795  0.3758 -0.7972  0.1978
 1613SOL    HW116301   3.723   1.356   5.827  0.7027 -1.3946 -0.0772
 1613SOL    HW216302   3.824   1.463   5.870 -2.0396  1.9547 -0.8189
 1614SOL     OW16303   4.252   1.516   1.229 -0.3360 -0.3383  0.3401
 1614SOL    HW116304   4.198   1.455   1.278 -0.6222  0.5025  1.0574
 1614SOL    HW216305   4.188   1.519   1.157  0.6883  1.7162 -0.4926
 1615SOL     OW16306   1.411   4.030   6.056  0.1731  0.7906  0.3243
 1615SOL    HW116307   1.368   4.057   6.137  2.0870 -1.5511  2.1174
 1615SOL    HW216308   1.374   3.943   6.041 -1.7724  1.1679  2.9630
 1616SOL     OW16309   0.729   2.202   6.044  0.0761  0.1282  0.4577
 1616SOL    HW116310   0.648   2.167   6.082  0.3920 -1.6705 -0.5375
 1616SOL    HW216311   0.788   2.140   6.088  1.4708  1.2161  0.1118
 1617SOL     OW16312   3.656   1.870   2.654  0.0947 -0.3895 -0.0204
 1617SOL    HW116313   3.665   1.927   2.578 -2.0584 -0.1543 -0.0960
 1617SOL    HW216314   3.706   1.792   2.634  0.4696 -0.0307 -0.4904
 1618SOL     OW16315   4.110   3.890   7.299 -0.3860 -0.6270 -0.7622
 1618SOL    HW116316   4.044   3.958   7.288  0.1676  0.0851  0.3101
 1618SOL    HW216317   4.127   3.890   7.393  0.6564  0.4537 -0.9413
 1619SOL     OW16318   2.233   2.908   3.820  0.4917  0.4346 -0.5052
 1619SOL    HW116319   2.271   2.864   3.896 -0.2549  0.3322 -0.1824
 1619SOL    HW216320   2.199   2.988   3.860  1.3329  1.7443 -2.4315
 1620SOL     OW16321   3.901   0.494   3.833 -0.2303 -0.0609 -1.1190
 1620SOL    HW116322   3.923   0.558   3.767  0.0164  1.9119  0.8782
 1620SOL    HW216323   3.869   0.424   3.775  0.1930 -1.1466 -0.0446
 1621SOL     OW16324   0.113   4.231  17.178 -0.3140 -0.4184 -0.1819
 1621SOL    HW116325   0.049   4.177  17.224  0.4193 -2.6512 -1.8198
 1621SOL    HW216326   0.067   4.315  17.168 -0.1904 -0.3227  0.0449
 1622SOL     OW16327   0.932   1.629   2.958 -0.0220  0.1571 -0.4456
 1622SOL    HW116328   0.980   1.656   2.880 -1.5109  4.0595 -0.0431
 1622SOL    HW216329   0.894   1.548   2.925 -0.5442  0.5886 -0.8895
 1623SOL     OW16330   0.831   4.467  11.692 -0.2229 -0.5818  0.3015
 1623SOL    HW116331   0.823   4.395  11.755  0.5212  0.6285  1.7628
 1623SOL    HW216332   0.918   4.439  11.662 -0.8734  0.9307 -2.9400
 1624SOL     OW16333   0.412   1.154   1.955  0.2279  0.0970 -1.3839
 1624SOL    HW116334   0.476   1.220   1.984  0.9326 -0.9670 -0.4903
 1624SOL    HW216335   0.332   1.177   2.002  0.3148 -0.7174 -0.8380
 1625SOL     OW16336   3.648   3.720  14.338 -0.1414 -0.1039 -0.0063
 1625SOL    HW116337   3.603   3.647  14.382  1.7985 -1.2929 -0.0060
 1625SOL    HW216338   3.676   3.768  14.415  0.3986  0.0255 -0.2882
 1626SOL     OW16339   2.015   3.966  13.888  0.5138  0.4270 -0.3715
 1626SOL    HW116340   2.089   3.964  13.827 -0.3275  0.2446 -1.3821
 1626SOL    HW216341   2.046   4.008  13.968 -1.6010  0.4504  0.4363
 1627SOL     OW16342   2.632   2.660  15.215 -0.3001  0.4102 -0.2638
 1627SOL    HW116343   2.607   2.579  15.260 -1.4165  0.2433 -1.1822
 1627SOL    HW216344   2.724   2.647  15.237 -0.3349  0.4224 -0.1099
 1628SOL     OW16345   1.303   3.852   7.103  0.0501 -0.3237 -0.8297
 1628SOL    HW116346   1.270   3.843   7.193  0.5757  2.0818 -0.3845
 1628SOL    HW216347   1.244   3.922   7.075  0.1837  0.6321  1.2760
 1629SOL     OW16348   2.466   3.717   2.579 -0.1415 -0.0700  0.3827
 1629SOL    HW116349   2.471   3.738   2.486 -0.6915 -1.9348 -0.0782
 1629SOL    HW216350   2.556   3.734   2.609 -0.3410 -0.2047  1.0642
 1630SOL     OW16351   1.643   2.222   7.171 -0.2701  0.1371  0.6983
 1630SOL    HW116352   1.598   2.147   7.133  2.2116 -0.3733 -1.2277
 1630SOL    HW216353   1.666   2.189   7.258 -0.2590  1.2340  1.1170
 1631SOL     OW16354   3.757   3.712   8.931  0.1260 -0.1901 -0.1210
 1631SOL    HW116355   3.704   3.790   8.913 -0.6960 -0.7761 -0.2450
 1631SOL    HW216356   3.732   3.654   8.859  0.6713 -0.8239  0.2036
 1632SOL     OW16357   2.630   1.268   8.882  0.3961  0.8654 -0.4901
 1632SOL    HW116358   2.611   1.362   8.880  0.2303  0.8075 -1.4226
 1632SOL    HW216359   2.678   1.262   8.965  0.4257  1.2805 -0.4769
 1633SOL     OW16360   3.133   1.475  15.558  0.7374 -0.0130 -0.2144
 1633SOL    HW116361   3.131   1.562  15.517 -1.3645 -0.3706 -0.8920
 1633SOL    HW216362   3.208   1.482  15.617  0.0886  2.3960  0.3558
 1634SOL     OW16363   2.568   3.836   9.378 -0.2098  0.2228  0.0334
 1634SOL    HW116364   2.546   3.928   9.397  2.7081  0.7217  1.0303
 1634SOL    HW216365   2.522   3.813   9.298  0.3345  0.6219 -0.3953
 1635SOL     OW16366   1.491   3.029  16.851  0.1331 -0.2841  0.1627
 1635SOL    HW116367   1.411   2.990  16.817  0.5980  2.1572 -3.7363
 1635SOL    HW216368   1.508   3.083  16.774  1.1629 -0.2169  0.4353
 1636SOL     OW16369   3.143   3.733   2.441 -0.4398 -0.1796  0.1282
 1636SOL    HW116370   3.210   3.800   2.425 -0.5293  0.6847  3.4023
 1636SOL    HW216371   3.117   3.751   2.532 -1.2286  1.4814 -0.4156
 1637SOL     OW16372   0.633   4.032   2.685 -0.2887 -0.2246  0.5006
 1637SOL    HW116373   0.712   4.031   2.630  0.3881  1.8841  1.4366
 1637SOL    HW216374   0.590   3.958   2.642  0.9304 -0.0683 -1.0186
 1638SOL     OW16375   4.407   1.147   4.021  0.4272  0.3758 -0.2972
 1638SOL    HW116376   4.437   1.058   4.004  1.5159  0.5785  0.5670
 1638SOL    HW216377   4.475   1.191   4.071  0.8038 -2.0204  1.2752
 1639SOL     OW16378   4.314   1.580   5.113  0.4599 -0.8053  0.2166
 1639SOL    HW116379   4.327   1.656   5.055 -2.4800 -2.1811 -2.2461
 1639SOL    HW216380   4.297   1.607   5.203  0.4691  0.0888 -0.0423
 1640SOL     OW16381   1.220   4.648   5.381  0.0220  0.1984  0.0582
 1640SOL    HW116382   1.153   4.708   5.413  0.0768 -0.9700  2.3405
 1640SOL    HW216383   1.262   4.623   5.463 -1.4926 -0.5168  0.6158
 1641SOL     OW16384   2.226   0.456   3.362  0.5419  0.0407 -0.0522
 1641SOL    HW116385   2.299   0.410   3.406 -0.2685  0.0970  1.3672
 1641SOL    HW216386   2.245   0.464   3.269  1.4689  0.5777  0.1823
 1642SOL     OW16387   3.524   1.284   7.667 -0.3696  0.3212  0.1312
 1642SOL    HW116388   3.556   1.295   7.757 -1.1344 -1.6502  0.6381
 1642SOL    HW216389   3.600   1.315   7.618 -1.1852  0.1525 -1.2234
 1643SOL     OW16390   2.963   1.215   6.726  0.1596  0.4211  0.1280
 1643SOL    HW116391   2.941   1.252   6.811 -1.4935 -1.1269  0.3864
 1643SOL    HW216392   3.011   1.138   6.756  0.7702  0.0767 -1.7349
 1644SOL     OW16393   2.024   0.067   5.249 -0.0918  0.3892 -0.5955
 1644SOL    HW116394   2.057   0.155   5.262 -1.1484  0.5523  1.0987
 1644SOL    HW216395   1.971   0.062   5.329  0.5334  0.4941 -0.1772
 1645SOL     OW16396   1.317   1.212   2.460  0.3594  0.6987  0.3437
 1645SOL    HW116397   1.352   1.179   2.543  0.0444 -0.5931 -0.0444
 1645SOL    HW216398   1.384   1.188   2.396  0.5126 -3.3067  2.0351
 1646SOL     OW16399   0.611   2.178  15.990  0.7954  0.3595  0.1716
 1646SOL    HW116400   0.643   2.248  16.047 -0.5748  0.7926  0.4040
 1646SOL    HW216401   0.612   2.230  15.909 -0.3209  0.2262  0.0682
 1647SOL     OW16402   1.747   2.886   7.910 -0.5411 -0.0703  0.4124
 1647SOL    HW116403   1.667   2.835   7.919 -0.0263 -0.9749 -0.0996
 1647SOL    HW216404   1.796   2.854   7.986  1.4967 -0.6698 -1.1290
 1648SOL     OW16405   3.297   2.823   3.879  0.1241  0.4468 -0.5927
 1648SOL    HW116406   3.355   2.757   3.842 -1.0534  0.3539 -2.2408
 1648SOL    HW216407   3.224   2.762   3.879  1.1872 -0.8024 -2.9165
 1649SOL     OW16408   0.259   4.560   1.422  0.7021 -0.1806 -0.4054
 1649SOL    HW116409   0.194   4.562   1.352 -0.5313 -2.4885  0.6885
 1649SOL    HW216410   0.248   4.650   1.455 -2.0343  0.1937 -2.3079
 1650SOL     OW16411   2.021   3.826  11.268  0.2133 -0.4051  0.0671
 1650SOL    HW116412   2.073   3.757  11.227  1.8198  0.1346  1.1745
 1650SOL    HW216413   2.073   3.904  11.248 -0.1679 -0.0902  0.3001
 1651SOL     OW16414   1.601   2.868   9.539 -0.2967 -0.7084 -0.6230
 1651SOL    HW116415   1.679   2.915   9.508  1.5944 -1.7602  2.6064
 1651SOL    HW216416   1.632   2.787   9.579  0.7114 -0.9573 -1.9227
 1652SOL     OW16417   4.649   0.576   9.336 -0.0485 -0.2647 -0.1958
 1652SOL    HW116418   4.695   0.659   9.330 -1.3751  0.4537 -0.3848
 1652SOL    HW216419   4.651   0.560   9.431  2.1968 -1.1788 -0.4053
 1653SOL     OW16420   2.129   3.527   2.397 -0.4610  0.3160  0.3063
 1653SOL    HW116421   2.084   3.599   2.353  0.2129  0.5630  0.0286
 1653SOL    HW216422   2.152   3.578   2.475 -0.4816  0.9749 -0.1225
 1654SOL     OW16423   1.896   3.450  16.050 -0.3639  0.2242  0.3020
 1654SOL    HW116424   1.887   3.363  16.090  2.0732 -0.9572 -1.6975
 1654SOL    HW216425   1.937   3.432  15.965  0.0590  0.0366  0.5438
 1655SOL     OW16426   1.919   2.268   2.377 -0.2199 -0.7318 -0.2762
 1655SOL    HW116427   1.909   2.264   2.282 -2.5865 -0.7354 -0.0224
 1655SOL    HW216428   2.003   2.223   2.381  0.5484  0.7048 -0.5123
 1656SOL     OW16429   0.644   1.792   9.169 -0.3437 -0.8222 -0.4438
 1656SOL    HW116430   0.596   1.811   9.088  1.2793 -1.7407 -1.6237
 1656SOL    HW216431   0.611   1.711   9.207  0.3728 -1.5607 -1.3917
 1657SOL     OW16432   2.629   3.785   5.300 -0.5477 -0.0816  0.1175
 1657SOL    HW116433   2.584   3.700   5.297  0.6480 -0.7249  0.3179
 1657SOL    HW216434   2.721   3.758   5.304 -1.2641 -2.3388  1.3383
 1658SOL     OW16435   3.353   3.893   5.242  0.3204  0.1260  0.2987
 1658SOL    HW116436   3.301   3.973   5.247 -2.2241 -1.5424  0.5096
 1658SOL    HW216437   3.440   3.922   5.268  0.3571  1.4541 -1.2836
 1659SOL     OW16438   3.781   4.584  17.349  0.3178 -0.5039 -0.2069
 1659SOL    HW116439   3.852   4.528  17.380 -0.8168 -1.0691  1.3905
 1659SOL    HW216440   3.779   4.656  17.412  2.3403  1.0088 -1.8740
 1660SOL     OW16441   1.482   2.927   6.098  0.0515  0.2459 -0.0978
 1660SOL    HW116442   1.445   2.875   6.169 -0.2738 -0.8452 -1.0574
 1660SOL    HW216443   1.425   3.004   6.104  1.6319  1.1928  2.2407
 1661SOL     OW16444   3.741   3.844  14.582 -0.3787  0.1768  0.4115
 1661SOL    HW116445   3.836   3.842  14.589 -0.4058  2.4615  1.3121
 1661SOL    HW216446   3.718   3.934  14.560  0.7818  0.9819  2.4861
 1662SOL     OW16447   4.184   2.385  16.251 -0.0273  0.3677 -0.1579
 1662SOL    HW116448   4.260   2.436  16.279 -2.4079  2.5916  2.2713
 1662SOL    HW216449   4.203   2.301  16.292 -0.6088  1.0052  1.4002
 1663SOL     OW16450   1.053   3.777  17.662  0.3820  0.2820  0.2471
 1663SOL    HW116451   1.146   3.771  17.686  1.3359  1.5378 -3.1350
 1663SOL    HW216452   1.035   3.689  17.694 -0.2061  0.8587  1.5008
 1664SOL     OW16453   1.817   0.429   6.836 -0.3077  0.2679  0.0079
 1664SOL    HW116454   1.860   0.357   6.790 -1.0931 -1.0407  1.3265
 1664SOL    HW216455   1.806   0.489   6.762  1.3160  0.3771 -0.1452
 1665SOL     OW16456   2.399   2.058  16.807  0.4831  0.0761 -0.0585
 1665SOL    HW116457   2.402   2.004  16.728  2.9957 -1.8932  1.3868
 1665SOL    HW216458   2.342   2.010  16.866  2.6732 -3.6706 -0.9816
 1666SOL     OW16459   1.796   4.217   5.438  0.1063 -0.2043  0.1927
 1666SOL    HW116460   1.828   4.286   5.381  0.7407 -0.0531  0.7372
 1666SOL    HW216461   1.878   4.171   5.453  0.9840  0.7456 -1.6791
 1667SOL     OW16462   2.346   0.638   3.158 -0.1713  0.2000 -0.3805
 1667SOL    HW116463   2.424   0.597   3.195 -0.0178  0.3745 -0.5097
 1667SOL    HW216464   2.302   0.574   3.102 -2.3471  1.0944  0.3240
 1668SOL     OW16465   4.692   1.192  13.327 -0.2556  0.3247  0.1943
 1668SOL    HW116466   4.636   1.186  13.405  1.1170 -0.7241  1.1004
 1668SOL    HW216467   4.687   1.101  13.298 -0.4280  0.4563 -0.1875
 1669SOL     OW16468   2.407   3.245   4.425  0.1127  0.1505  0.0245
 1669SOL    HW116469   2.481   3.286   4.470  0.2085  0.7538 -0.6817
 1669SOL    HW216470   2.335   3.262   4.485 -0.2333 -1.0309 -0.0584
 1670SOL     OW16471   4.286   2.108  10.173 -0.3899 -0.0987 -0.3547
 1670SOL    HW116472   4.291   2.179  10.237  2.0175 -0.9846  0.4572
 1670SOL    HW216473   4.277   2.033  10.232 -1.4008  0.2931 -0.0241
 1671SOL     OW16474   4.603   1.958   6.819  0.0689  0.1665 -0.0237
 1671SOL    HW116475   4.669   1.924   6.879 -2.4945 -0.2658  2.5452
 1671SOL    HW216476   4.629   2.049   6.803 -2.5988  0.7319 -1.2343
 1672SOL     OW16477   2.213   4.695  12.704 -0.0092 -0.0558 -0.2001
 1672SOL    HW116478   2.236   4.726  12.792 -0.6786 -1.4650  0.4723
 1672SOL    HW216479   2.251   4.606  12.706  1.1980  0.5024  3.2314
 1673SOL     OW16480   4.478   2.419   0.467 -0.5145  0.1272  0.1641
 1673SOL    HW116481   4.491   2.483   0.397 -0.9218 -2.7064 -2.4621
 1673SOL    HW216482   4.545   2.448   0.529 -1.2969 -0.9921  1.5259
 1674SOL     OW16483   2.604   0.643   6.917  0.4504  0.0663 -0.4953
 1674SOL    HW116484   2.606   0.713   6.982 -3.8903 -1.6170  1.4503
 1674SOL    HW216485   2.534   0.654   6.852 -2.2328  2.4323  2.8206
 1675SOL     OW16486   0.834   4.031   7.420  0.0785 -0.1196  0.1099
 1675SOL    HW116487   0.833   4.001   7.510 -2.1331  2.9426  1.1231
 1675SOL    HW216488   0.775   3.964   7.383 -0.5316 -0.2325  1.2921
 1676SOL     OW16489   2.777   3.219  15.572  0.4802  0.0556 -0.5026
 1676SOL    HW116490   2.762   3.303  15.528 -1.7037 -0.4682 -0.7453
 1676SOL    HW216491   2.872   3.217  15.573  0.4631 -0.8004 -0.5813
 1677SOL     OW16492   0.558   1.049  12.331 -0.0749  0.0069  0.3788
 1677SOL    HW116493   0.491   1.005  12.385  1.2429 -1.9723  0.4039
 1677SOL    HW216494   0.635   0.999  12.358  0.0748 -0.4922 -0.9439
 1678SOL     OW16495   1.446   1.891   4.286  0.8296  0.0204  0.0536
 1678SOL    HW116496   1.485   1.949   4.351  1.2009 -0.7542  0.5232
 1678SOL    HW216497   1.357   1.881   4.319  1.4397 -4.3278  0.3974
 1679SOL     OW16498   3.446   2.151   3.946  0.2381 -0.1924 -0.0677
 1679SOL    HW116499   3.415   2.064   3.973 -1.6973  0.7787  0.8714
 1679SOL    HW216500   3.535   2.153   3.982  1.0547 -1.8695 -2.0090
 1680SOL     OW16501   0.535   0.387   7.831 -0.3681 -0.9866  0.7594
 1680SOL    HW116502   0.499   0.318   7.886 -2.0741 -0.0988  0.7534
 1680SOL    HW216503   0.608   0.341   7.791 -0.8456 -1.4180  0.3825
 1681SOL     OW16504   3.824   4.519   6.271  0.0387 -0.2071  0.1472
 1681SOL    HW116505   3.818   4.504   6.176 -4.2370 -0.4290  0.4307
 1681SOL    HW216506   3.798   4.430   6.295 -0.3932 -0.7471 -2.3062
 1682SOL     OW16507   4.093   4.526   6.063  0.2538  0.4262 -0.3346
 1682SOL    HW116508   4.130   4.499   5.979  3.6208  0.6754  1.0368
 1682SOL    HW216509   3.999   4.537   6.048  0.1462  0.1329  0.1299
 1683SOL     OW16510   1.301   4.284  16.717  0.0944  0.0248  0.0654
 1683SOL    HW116511   1.324   4.248  16.632  1.3960 -0.0393  0.4388
 1683SOL    HW216512   1.271   4.373  16.701 -1.0030 -0.4668 -0.5808
 1684SOL     OW16513   3.217   2.717  14.179  0.3285  0.7223  0.3167
 1684SOL    HW116514   3.271   2.659  14.126  0.7177  0.9153  0.5022
 1684SOL    HW216515   3.166   2.771  14.119  0.6860  2.0696  1.2217
 1685SOL     OW16516   3.718   4.497   5.500  0.5868 -0.1696 -0.2486
 1685SOL    HW116517   3.625   4.516   5.494  0.6625  0.6421  1.0653
 1685SOL    HW216518   3.761   4.578   5.474  0.2306  0.0771 -0.0628
 1686SOL     OW16519   2.398   0.391   5.593 -0.0053  0.6665  0.1099
 1686SOL    HW116520   2.453   0.413   5.517  2.0738  0.4194  1.5319
 1686SOL    HW216521   2.443   0.315   5.629 -0.7599  0.8765  1.4829
 1687SOL     OW16522   3.011   4.319  10.848  0.1090 -0.3997 -0.6771
 1687SOL    HW116523   2.970   4.315  10.934 -2.8251 -3.3512 -2.1947
 1687SOL    HW216524   2.944   4.335  10.781 -2.0558  1.4413  1.9074
 1688SOL     OW16525   3.710   4.199  13.303 -0.1433  0.1903  0.7490
 1688SOL    HW116526   3.647   4.216  13.233  1.8976  0.8315 -0.9365
 1688SOL    HW216527   3.683   4.115  13.340 -0.4354 -1.2504 -2.6845
 1689SOL     OW16528   1.627   1.892  13.352 -0.3988  0.1388  0.1643
 1689SOL    HW116529   1.605   1.961  13.290 -1.0712 -1.1384 -1.0185
 1689SOL    HW216530   1.565   1.911  13.422  0.4483 -0.8696  1.1830
 1690SOL     OW16531   2.511   2.791   6.123 -0.6978  0.0099  0.1427
 1690SOL    HW116532   2.515   2.699   6.150  0.1979  0.4241  1.4339
 1690SOL    HW216533   2.485   2.784   6.032 -1.4719 -1.9542  0.5086
 1691SOL     OW16534   1.526   0.685  13.792  0.1140 -0.1794  0.3013
 1691SOL    HW116535   1.533   0.598  13.755 -0.6713  0.1794 -0.7095
 1691SOL    HW216536   1.592   0.696  13.860  1.6014 -2.2116 -0.8280
 1692SOL     OW16537   1.748   4.261  16.829 -0.0819  0.3911  0.5302
 1692SOL    HW116538   1.701   4.325  16.777  1.2913  0.0481 -1.1335
 1692SOL    HW216539   1.831   4.256  16.782 -1.2442  1.6781 -1.6413
 1693SOL     OW16540   2.521   0.110   2.548  0.1620 -0.4259  0.1704
 1693SOL    HW116541   2.451   0.144   2.603  1.9155  2.4353  0.6689
 1693SOL    HW216542   2.489   0.145   2.465  0.4429  0.5697  0.4851
 1694SOL     OW16543   2.534   3.817   1.882  0.2716  0.3024 -0.5042
 1694SOL    HW116544   2.484   3.792   1.804  3.0229 -1.3345 -1.7900
 1694SOL    HW216545   2.586   3.886   1.840  1.2150  1.6531  2.9042
 1695SOL     OW16546   4.163   3.003  12.297 -1.0444 -0.6145  0.7805
 1695SOL    HW116547   4.158   3.026  12.390 -1.1010 -1.7456  1.0629
 1695SOL    HW216548   4.164   2.908  12.308 -0.3010 -0.6643  0.2964
 1696SOL     OW16549   3.184   4.110   5.200 -0.0154  0.0010  0.4400
 1696SOL    HW116550   3.243   4.162   5.145 -2.2846  0.7661 -1.3048
 1696SOL    HW216551   3.164   4.178   5.264 -0.7765  1.6983 -1.6003
 1697SOL     OW16552   1.517   2.891  15.618  0.4710 -0.3419 -0.7183
 1697SOL    HW116553   1.532   2.825  15.551 -0.6254 -0.2640 -1.0429
 1697SOL    HW216554   1.594   2.883  15.674 -0.1040 -1.0532 -0.0399
 1698SOL     OW16555   4.690   0.134   4.933  0.6851 -0.6823  0.1341
 1698SOL    HW116556   4.625   0.079   4.889  1.0838  1.8396 -3.5941
 1698SOL    HW216557   4.678   0.103   5.023 -0.7879  0.5342  0.3453
 1699SOL     OW16558   4.468   3.846   2.370  0.4244  0.6703  0.8225
 1699SOL    HW116559   4.389   3.893   2.342  0.1924 -0.2175 -0.0127
 1699SOL    HW216560   4.534   3.913   2.355 -0.1296  1.0754  0.1909
 1700SOL     OW16561   0.875   2.008  16.266  0.4028 -0.3314 -0.2533
 1700SOL    HW116562   0.956   1.985  16.220  0.7881  0.5825 -0.0352
 1700SOL    HW216563   0.888   2.102  16.278 -1.2140  0.0319 -1.4267
 1701SOL     OW16564   1.751   0.605   4.410 -0.0096 -0.1150 -0.3220
 1701SOL    HW116565   1.781   0.626   4.499 -1.5160 -2.7085  0.7915
 1701SOL    HW216566   1.742   0.693   4.373 -2.0361 -0.3024 -0.2486
 1702SOL     OW16567   1.609   1.754  13.684 -0.4970  0.2782 -0.3700
 1702SOL    HW116568   1.664   1.800  13.748 -1.5132  2.0150 -0.7492
 1702SOL    HW216569   1.552   1.824  13.653  1.2726  1.8039 -0.2099
 1703SOL     OW16570   1.590   1.091  10.107 -0.0972  0.0661  0.4617
 1703SOL    HW116571   1.561   1.181  10.091 -0.0943  0.0249  0.2226
 1703SOL    HW216572   1.505   1.054  10.132 -1.1838  1.7947 -0.6773
 1704SOL     OW16573   4.651   3.620   0.229  0.1002  0.4756  0.2984
 1704SOL    HW116574   4.561   3.599   0.203  0.5243 -1.3708  0.3438
 1704SOL    HW216575   4.670   3.663   0.146 -1.5320 -1.1581 -0.9264
 1705SOL     OW16576   4.233   3.744   2.068  0.2704 -0.0676  0.4084
 1705SOL    HW116577   4.232   3.840   2.063  1.3587  0.0947  3.5706
 1705SOL    HW216578   4.293   3.724   1.997 -0.1660  1.9653 -0.5592
 1706SOL     OW16579   3.036   3.670   3.975  0.0440 -0.3579  0.2176
 1706SOL    HW116580   3.070   3.753   4.008 -1.2416  0.3585 -0.2406
 1706SOL    HW216581   2.944   3.696   3.965 -0.5677 -2.1101  1.2967
 1707SOL     OW16582   3.673   3.322  16.427  0.4351 -0.0344  0.5121
 1707SOL    HW116583   3.683   3.330  16.522  0.8970  0.7761  0.3953
 1707SOL    HW216584   3.726   3.244  16.405 -1.4263 -1.1482 -0.0208
 1708SOL     OW16585   0.529   0.604   3.202 -0.0152  0.2672  0.3754
 1708SOL    HW116586   0.528   0.536   3.268  0.5935  1.7443  1.9085
 1708SOL    HW216587   0.504   0.682   3.251 -3.0102 -0.7507  0.4467
 1709SOL     OW16588   2.681   1.230   6.860 -0.1022  0.4011  0.7983
 1709SOL    HW116589   2.634   1.312   6.842  1.6082  1.7520  2.4749
 1709SOL    HW216590   2.767   1.259   6.890 -0.2378  1.2155  0.4147
 1710SOL     OW16591   3.923   1.033   0.815  0.1438  0.0106  0.4187
 1710SOL    HW116592   3.859   0.963   0.826 -1.3485  1.1448 -1.0192
 1710SOL    HW216593   3.907   1.086   0.893 -0.1709  0.0185  0.3506
 1711SOL     OW16594   2.793   0.063   4.810  0.3772 -0.1760  0.4866
 1711SOL    HW116595   2.835   4.727   4.866  0.5006 -1.3548 -0.9632
 1711SOL    HW216596   2.826   0.149   4.837 -0.5850  0.8843 -1.7206
 1712SOL     OW16597   2.146   0.795  17.226 -0.2829 -0.3757  0.1979
 1712SOL    HW116598   2.130   0.770  17.135 -0.0619  0.3775 -0.0488
 1712SOL    HW216599   2.151   0.891  17.227 -0.3120 -0.3915  1.8653
 1713SOL     OW16600   0.410   3.439   7.748  0.6523 -0.3369 -0.2348
 1713SOL    HW116601   0.482   3.378   7.764  0.9783  0.0543 -0.2258
 1713SOL    HW216602   0.380   3.463   7.836  0.3374 -2.0674  0.1376
 1714SOL     OW16603   1.422   2.227  10.081  0.4614  0.3812  0.4605
 1714SOL    HW116604   1.456   2.143  10.112 -1.6096 -1.2554 -1.6154
 1714SOL    HW216605   1.492   2.255  10.022 -0.8936 -2.2147 -2.3621
 1715SOL     OW16606   0.080   3.437  10.984 -0.3855  0.0109 -0.1583
 1715SOL    HW116607   0.147   3.388  10.937  1.5601  0.6346  2.0089
 1715SOL    HW216608   0.058   3.381  11.059  0.6461 -1.1879 -0.7547
 1716SOL     OW16609   0.644   2.857   3.570 -0.2009 -0.0094  0.2369
 1716SOL    HW116610   0.672   2.949   3.565 -1.1244  0.2168 -0.7980
 1716SOL    HW216611   0.620   2.848   3.663 -0.2974 -1.3767  0.0667
 1717SOL     OW16612   3.513   2.109   1.081 -0.2434 -0.7482  0.7399
 1717SOL    HW116613   3.590   2.149   1.121  0.4624 -2.1514  0.7802
 1717SOL    HW216614   3.460   2.188   1.070 -0.5647 -1.1115 -0.3548
 1718SOL     OW16615   1.476   1.871   6.991 -0.7360  0.1299  0.1505
 1718SOL    HW116616   1.536   1.904   7.058 -1.3501  1.7663 -0.0986
 1718SOL    HW216617   1.521   1.788   6.976  0.5502  0.6881  0.9671
 1719SOL     OW16618   0.470   1.925  16.376  0.1700  0.2301 -0.1766
 1719SOL    HW116619   0.508   1.974  16.448  1.3884 -2.2149  0.8327
 1719SOL    HW216620   0.468   1.836  16.413  1.9530  0.6350  0.8633
 1720SOL     OW16621   3.194   3.235   6.914 -0.0828 -0.0573  0.3006
 1720SOL    HW116622   3.276   3.187   6.902  0.1891  0.3862  0.3871
 1720SOL    HW216623   3.148   3.177   6.974 -1.0090  1.7819  1.3685
 1721SOL     OW16624   2.957   3.789   5.548  0.4337  0.3237  0.6282
 1721SOL    HW116625   2.932   3.741   5.469  1.8429  0.1978  0.2583
 1721SOL    HW216626   2.876   3.840   5.559 -0.0295 -0.0735 -0.9177
 1722SOL     OW16627   1.577   1.624   2.613  0.3865  0.3033 -0.2398
 1722SOL    HW116628   1.484   1.640   2.631  0.1180 -0.3309 -1.1067
 1722SOL    HW216629   1.590   1.689   2.543 -1.0676 -0.3693 -1.1186
 1723SOL     OW16630   4.403   0.583  14.458 -0.2261 -0.0509  0.0867
 1723SOL    HW116631   4.320   0.618  14.492 -0.5932  1.1099 -2.0531
 1723SOL    HW216632   4.384   0.491  14.478  0.2768 -0.0580  0.5234
 1724SOL     OW16633   1.591   3.384   9.232  0.1212 -0.2801  1.0056
 1724SOL    HW116634   1.530   3.430   9.289  0.3966  0.4851  0.6783
 1724SOL    HW216635   1.595   3.295   9.268 -3.4022 -1.4568 -1.3983
 1725SOL     OW16636   2.144   2.825   9.040  0.1806  0.0265  0.0468
 1725SOL    HW116637   2.066   2.774   9.019 -0.9549  0.3528  3.3917
 1725SOL    HW216638   2.218   2.772   9.010 -0.8972 -1.2575 -0.3472
 1726SOL     OW16639   4.095   3.931  12.851 -0.2767  0.1149  0.2553
 1726SOL    HW116640   4.072   3.885  12.932  0.4715 -0.5042  0.1037
 1726SOL    HW216641   4.027   3.999  12.846 -0.0557  0.2426 -1.1072
 1727SOL     OW16642   2.376   0.919   9.540  0.3535 -0.0149 -0.3744
 1727SOL    HW116643   2.336   0.997   9.503 -0.9302 -0.4639  0.0497
 1727SOL    HW216644   2.435   0.956   9.606 -0.6147 -1.1356  1.1240
 1728SOL     OW16645   4.372   1.755   6.478  0.4812 -0.0405 -0.0249
 1728SOL    HW116646   4.449   1.776   6.531 -0.6181  2.2101  0.6759
 1728SOL    HW216647   4.319   1.834   6.487  0.3900  0.1111 -2.0677
 1729SOL     OW16648   4.671   0.755   1.531  0.1870  0.0088  0.1779
 1729SOL    HW116649   4.677   0.663   1.556  0.9526 -0.3971 -1.5121
 1729SOL    HW216650   4.666   0.790   1.620  2.1314 -0.6894  0.5403
 1730SOL     OW16651   2.861   3.676   8.291 -0.2436  0.5582 -0.1100
 1730SOL    HW116652   2.899   3.725   8.364 -0.7283  0.3574  0.2745
 1730SOL    HW216653   2.919   3.716   8.226 -0.7510  1.0072 -0.2871
 1731SOL     OW16654   2.534   3.125  12.788  0.1062  0.4579 -0.1154
 1731SOL    HW116655   2.462   3.158  12.735  0.1271  1.2312  0.3383
 1731SOL    HW216656   2.602   3.148  12.724  0.1774 -0.6568 -0.4465
 1732SOL     OW16657   2.067   0.965   7.065 -0.3751  0.0438 -0.0220
 1732SOL    HW116658   2.098   0.954   7.155  1.8745 -0.9985 -0.9408
 1732SOL    HW216659   1.976   0.939   7.081 -0.8855  2.5341  1.2119
 1733SOL     OW16660   4.028   3.188   1.131 -0.6971  0.2560 -0.1076
 1733SOL    HW116661   3.964   3.124   1.101 -0.0852 -0.2095 -0.4140
 1733SOL    HW216662   4.106   3.146   1.096  0.8313  0.9897  2.3947
 1734SOL     OW16663   0.481   2.339   1.677  0.5715 -0.2236 -0.2934
 1734SOL    HW116664   0.523   2.413   1.632  3.6931 -1.3073  0.8721
 1734SOL    HW216665   0.388   2.362   1.676  0.6674  0.1497 -2.3676
 1735SOL     OW16666   1.608   0.454   7.269 -0.5156  0.0388  0.5693
 1735SOL    HW116667   1.659   0.394   7.214  0.0705 -0.0573  1.2083
 1735SOL    HW216668   1.550   0.498   7.207  0.4404 -0.7268 -0.8728
 1736SOL     OW16669   0.916   3.317   6.866  0.3229  0.3093 -0.1543
 1736SOL    HW116670   0.982   3.259   6.827 -0.5482  0.1324 -1.3580
 1736SOL    HW216671   0.854   3.301   6.796 -0.6945  0.4085  0.7211
 1737SOL     OW16672   1.082   3.429   9.309  0.3596 -0.0143 -0.2853
 1737SOL    HW116673   1.090   3.420   9.404 -4.0354  1.1575  0.2019
 1737SOL    HW216674   0.988   3.421   9.294  0.5547 -0.0788 -1.4807
 1738SOL     OW16675   4.082   3.402   9.090 -0.6125 -0.1676 -0.3125
 1738SOL    HW116676   4.084   3.433   9.000  0.0190 -2.0716 -0.9514
 1738SOL    HW216677   4.017   3.332   9.086 -1.3876  0.6347 -1.9590
 1739SOL     OW16678   4.406   1.641   9.175  0.4126  0.6913  0.0768
 1739SOL    HW116679   4.454   1.702   9.118 -0.1674  1.5535  0.5096
 1739SOL    HW216680   4.455   1.647   9.257 -0.6648  3.2254  0.5378
 1740SOL     OW16681   2.851   1.563  13.754 -0.1302 -0.2481 -0.2612
 1740SOL    HW116682   2.850   1.502  13.828 -2.3190 -1.2760 -1.1265
 1740SOL    HW216683   2.812   1.637  13.799 -1.4995 -0.5993 -0.8632
 1741SOL     OW16684   0.021   2.246   8.573 -0.5349 -0.6376 -0.2000
 1741SOL    HW116685   4.710   2.240   8.487 -0.0478  1.4136 -0.5859
 1741SOL    HW216686   4.679   2.214   8.628 -0.4478  0.4884  0.5646
 1742SOL     OW16687   0.382   1.598   8.520  0.7193 -0.0587  0.7106
 1742SOL    HW116688   0.304   1.602   8.576  0.2726 -0.4969  0.1161
 1742SOL    HW216689   0.441   1.553   8.580  3.3961  0.8650 -1.2681
 1743SOL     OW16690   4.582   0.575   4.470  0.1616  0.2239 -0.0943
 1743SOL    HW116691   4.580   0.654   4.524 -1.4919 -0.2661  0.5548
 1743SOL    HW216692   4.532   0.598   4.392  0.6012 -0.2686 -0.5210
 1744SOL     OW16693   2.382   1.398   2.806 -0.2481 -0.1796  0.5241
 1744SOL    HW116694   2.444   1.444   2.750  0.2367  0.1105  1.2971
 1744SOL    HW216695   2.297   1.400   2.760 -0.4246 -0.0180  0.8617
 1745SOL     OW16696   3.065   0.460   8.758  0.1172 -0.3935  0.0456
 1745SOL    HW116697   3.049   0.421   8.843  2.1491 -2.8354 -0.6720
 1745SOL    HW216698   3.140   0.414   8.720 -0.3355 -0.2425 -1.0254
 1746SOL     OW16699   3.532   4.665   2.537  0.4460 -0.6651 -0.0064
 1746SOL    HW116700   3.512   4.582   2.581 -1.5757  0.8580  1.9241
 1746SOL    HW216701   3.549   4.722   2.612  0.9122 -1.3480  0.4148
 1747SOL     OW16702   0.913   0.411  14.533 -0.0420  0.0209  0.1509
 1747SOL    HW116703   0.828   0.453  14.543  0.1328  0.0962  1.3370
 1747SOL    HW216704   0.925   0.401  14.439 -2.8743 -0.1250 -0.1867
 1748SOL     OW16705   1.727   2.192   4.873  0.1285  0.2429 -0.3058
 1748SOL    HW116706   1.758   2.107   4.841  2.7894  1.0691  0.1311
 1748SOL    HW216707   1.632   2.184   4.866  0.1551 -0.8676  0.6409
 1749SOL     OW16708   2.826   0.510  17.615 -0.9014 -0.1534 -0.1241
 1749SOL    HW116709   2.919   0.535  17.613 -0.1169 -3.0131  0.8334
 1749SOL    HW216710   2.826   0.481  17.706 -1.9077 -0.3859 -0.2019
 1750SOL     OW16711   1.808   1.874   1.630 -0.0195  0.4189  0.1335
 1750SOL    HW116712   1.730   1.840   1.673 -1.6576  0.7601 -2.5498
 1750SOL    HW216713   1.776   1.951   1.582  1.5223  0.2159 -1.2392
 1751SOL     OW16714   3.555   0.173   8.167  0.1740  0.2936  0.1237
 1751SOL    HW116715   3.549   0.267   8.189  1.0506  0.8257 -1.9226
 1751SOL    HW216716   3.591   0.148   8.252 -0.8450  1.3892  0.8723
 1752SOL     OW16717   1.384   4.015  13.536  0.2208  0.5685 -0.3295
 1752SOL    HW116718   1.457   4.017  13.597  1.9484 -1.0678 -2.3444
 1752SOL    HW216719   1.321   3.952  13.572  1.0506  0.7282  1.4235
 1753SOL     OW16720   4.610   0.813  14.748 -0.0037 -0.1487 -0.2471
 1753SOL    HW116721   4.648   0.739  14.796 -1.1149 -1.2742 -1.0861
 1753SOL    HW216722   4.517   0.805  14.767 -0.3836  0.9938 -1.6550
 1754SOL     OW16723   1.040   2.982   4.797 -0.0056 -0.1209 -0.1248
 1754SOL    HW116724   1.111   3.037   4.830 -0.0336  0.6949 -1.4377
 1754SOL    HW216725   1.073   2.979   4.707 -0.7552 -0.6779 -0.3829
 1755SOL     OW16726   2.266   3.461   3.786  0.6925 -0.0320 -0.1120
 1755SOL    HW116727   2.268   3.529   3.853 -1.2112 -0.5794  0.5098
 1755SOL    HW216728   2.243   3.389   3.844 -1.3290 -1.2827 -2.4486
 1756SOL     OW16729   1.371   2.949  10.642  0.5275 -0.3771 -0.6388
 1756SOL    HW116730   1.439   2.883  10.659  0.7251 -0.2760 -1.0577
 1756SOL    HW216731   1.296   2.889  10.644  1.9012 -2.0476  1.4393
 1757SOL     OW16732   4.434   0.107   3.285 -0.0901 -0.0357 -0.0869
 1757SOL    HW116733   4.415   0.138   3.373 -1.4220  2.2104 -1.1523
 1757SOL    HW216734   4.496   0.177   3.267 -0.8047  0.1896 -1.7323
 1758SOL     OW16735   3.636   0.309   9.276  0.3514 -0.4809  0.4838
 1758SOL    HW116736   3.680   0.233   9.238 -0.3409 -1.2664  1.2700
 1758SOL    HW216737   3.688   0.331   9.353  0.0982  3.4949 -0.4422
 1759SOL     OW16738   1.230   1.095  14.327 -0.0480  0.4526  0.1996
 1759SOL    HW116739   1.151   1.150  14.335  0.4454  1.2959 -0.8305
 1759SOL    HW216740   1.187   1.010  14.330  0.1131  0.3746  0.3015
 1760SOL     OW16741   1.519   0.511  12.795  0.5674  0.5167  0.4451
 1760SOL    HW116742   1.579   0.527  12.723  1.3299 -3.0545  0.2942
 1760SOL    HW216743   1.518   0.416  12.794 -0.3910  0.5222  0.7302
 1761SOL     OW16744   1.514   2.806  12.952  0.0110 -0.6506  0.0731
 1761SOL    HW116745   1.529   2.890  12.907 -1.3618 -0.7018 -0.4867
 1761SOL    HW216746   1.592   2.800  13.006 -0.3320  2.1816  0.9161
 1762SOL     OW16747   4.457   0.022  10.972  0.3200  0.1716 -0.1146
 1762SOL    HW116748   4.551   0.024  10.952  0.4357  0.4419  0.4395
 1762SOL    HW216749   4.460   0.112  11.006  1.0782  0.1001  0.0115
 1763SOL     OW16750   3.914   0.276   6.864 -0.5568  0.7233  0.4628
 1763SOL    HW116751   4.005   0.249   6.851 -0.8698 -0.0199 -0.2437
 1763SOL    HW216752   3.878   0.263   6.776  0.7962  3.3521 -0.4761
 1764SOL     OW16753   0.287   2.208   5.904  0.1234 -0.1071 -0.3937
 1764SOL    HW116754   0.229   2.250   5.968  0.9766  1.1711 -0.4551
 1764SOL    HW216755   0.331   2.289   5.877  0.6015  0.3247  1.6832
 1765SOL     OW16756   2.093   1.659   7.514 -0.4210 -0.2291 -0.4602
 1765SOL    HW116757   2.095   1.751   7.490 -0.9567  0.6363  2.8678
 1765SOL    HW216758   2.185   1.635   7.498  0.1456  1.1753  0.7664
 1766SOL     OW16759   1.352   0.164   5.506 -0.0404 -0.4254  0.2028
 1766SOL    HW116760   1.259   0.145   5.518 -0.5184  0.9082 -1.4159
 1766SOL    HW216761   1.390   0.160   5.594 -0.0419 -2.0119  0.1327
 1767SOL     OW16762   1.690   1.425   6.181  0.3720 -0.2595 -0.5378
 1767SOL    HW116763   1.649   1.344   6.152  2.5003 -1.2581 -0.7142
 1767SOL    HW216764   1.642   1.477   6.116 -1.7260 -3.0135 -1.1937
 1768SOL     OW16765   4.063   2.580   9.342  0.4732 -0.1381 -0.4256
 1768SOL    HW116766   4.119   2.547   9.413 -0.3363  0.1796  0.3574
 1768SOL    HW216767   3.985   2.527   9.356 -0.6652  1.2853 -1.2837
 1769SOL     OW16768   0.976   0.170   7.733 -0.3935 -0.1810 -0.3357
 1769SOL    HW116769   0.986   0.103   7.801  2.9309  0.6286 -0.0208
 1769SOL    HW216770   0.998   0.114   7.658  2.5233  0.6073 -0.0529
 1770SOL     OW16771   4.362   2.082   3.985 -0.1305 -0.1239  0.4795
 1770SOL    HW116772   4.414   2.019   4.036 -1.7904 -3.0349 -1.4331
 1770SOL    HW216773   4.366   2.043   3.898  0.1055 -0.5827  0.6955
 1771SOL     OW16774   2.104   3.398   3.404 -0.1171 -0.1719 -0.7911
 1771SOL    HW116775   2.104   3.303   3.418  0.3502 -0.2929 -1.6389
 1771SOL    HW216776   2.015   3.412   3.436 -0.6363 -3.2630 -0.8902
 1772SOL     OW16777   2.501   0.491  13.332 -0.6256 -0.5375 -0.1127
 1772SOL    HW116778   2.483   0.585  13.338  0.2087 -0.4639  1.0578
 1772SOL    HW216779   2.451   0.459  13.407  0.3802  2.7118  1.9125
 1773SOL     OW16780   4.688   3.235  11.700 -0.3274 -0.3808 -0.1626
 1773SOL    HW116781   4.634   3.180  11.642 -0.7605  0.2702 -0.3764
 1773SOL    HW216782   4.728   3.178  11.766 -0.0076  2.4727  2.1412
 1774SOL     OW16783   1.924   1.656   9.712  0.0591 -0.0299  0.0796
 1774SOL    HW116784   1.932   1.742   9.671  0.7549 -0.0869  0.1047
 1774SOL    HW216785   1.844   1.621   9.672  0.5576 -0.3388 -0.6275
 1775SOL     OW16786   0.926   1.677   6.537  1.2475  0.4831  0.4747
 1775SOL    HW116787   0.894   1.671   6.627 -2.5218  0.7585 -0.8232
 1775SOL    HW216788   0.996   1.740   6.549  0.8168  0.6010  2.3730
 1776SOL     OW16789   0.422   1.981   9.437 -0.1775  0.1890  0.5199
 1776SOL    HW116790   0.350   2.045   9.435 -2.1641 -2.1798 -1.9105
 1776SOL    HW216791   0.506   2.024   9.422 -0.2920  0.5417  0.8679
 1777SOL     OW16792   1.444   3.740  17.024 -0.4528 -0.7727  0.2872
 1777SOL    HW116793   1.496   3.662  17.004 -4.0106 -3.1144  0.2423
 1777SOL    HW216794   1.417   3.772  16.938  2.9159  1.5414  0.0631
 1778SOL     OW16795   2.161   1.338   3.287  0.6442  0.4566 -0.1092
 1778SOL    HW116796   2.237   1.348   3.229 -0.6123  0.6801 -1.7449
 1778SOL    HW216797   2.128   1.428   3.288 -0.0592  0.1620  1.7103
 1779SOL     OW16798   3.808   3.841  13.293 -0.0960  0.0687  0.4695
 1779SOL    HW116799   3.742   3.858  13.225  1.1080 -0.7967 -0.9221
 1779SOL    HW216800   3.765   3.868  13.373 -1.9952  0.8421 -0.8095
 1780SOL     OW16801   0.338   1.625   9.170 -0.8693  0.0381 -0.3502
 1780SOL    HW116802   0.275   1.678   9.219  0.9971 -0.4811  2.6690
 1780SOL    HW216803   0.302   1.539   9.150 -0.6984 -0.0492 -0.2913
 1781SOL     OW16804   0.923   0.825   2.163 -0.2776  0.0868 -0.2998
 1781SOL    HW116805   0.882   0.858   2.083  2.2553  1.1730 -1.1322
 1781SOL    HW216806   0.856   0.847   2.228 -2.1409 -1.2630 -1.7591
 1782SOL     OW16807   3.305   0.118  13.657  0.3000 -0.1693 -0.0392
 1782SOL    HW116808   3.400   0.121  13.664  0.2694  1.4717 -0.1819
 1782SOL    HW216809   3.284   0.211  13.665 -0.1733 -0.4959  2.4674
 1783SOL     OW16810   2.102   1.647   5.558  0.0891  0.3673 -0.4418
 1783SOL    HW116811   2.110   1.715   5.624 -1.6827 -1.1389  1.3311
 1783SOL    HW216812   2.087   1.574   5.618  0.6998  0.8561  0.2924
 1784SOL     OW16813   0.871   4.084  17.104 -0.2077  0.1590 -0.1562
 1784SOL    HW116814   0.912   4.164  17.136  0.6249  0.7360 -2.6728
 1784SOL    HW216815   0.778   4.103  17.119  0.3107  1.1711  1.6865
 1785SOL     OW16816   1.121   0.434   6.945  0.2441  0.2491 -0.5025
 1785SOL    HW116817   1.067   0.447   7.023  1.0387  1.3344 -0.1322
 1785SOL    HW216818   1.071   0.366   6.899  0.9933 -0.3573 -0.4167
 1786SOL     OW16819   3.639   2.814   2.984 -0.1481  0.2846  0.6694
 1786SOL    HW116820   3.656   2.730   2.942 -0.6668  1.1965 -1.3783
 1786SOL    HW216821   3.644   2.783   3.074 -0.8741 -0.5834  0.4150
 1787SOL     OW16822   1.331   4.644   4.042  0.2447  0.4836 -0.1918
 1787SOL    HW116823   1.372   4.698   3.975  0.2606  0.3376 -0.3014
 1787SOL    HW216824   1.342   4.555   4.007 -3.6802 -0.4062  0.8505
 1788SOL     OW16825   2.268   0.304  16.198  0.5303 -0.3046 -0.1379
 1788SOL    HW116826   2.272   0.240  16.127  2.0598 -1.0285  0.5808
 1788SOL    HW216827   2.193   0.266  16.244  0.8302 -1.5476 -0.6765
 1789SOL     OW16828   3.773   3.804   3.596  0.5171 -0.3540 -0.3465
 1789SOL    HW116829   3.829   3.737   3.635 -0.8684 -0.8975  0.7057
 1789SOL    HW216830   3.690   3.756   3.605 -0.3995  1.1239 -0.9193
 1790SOL     OW16831   1.672   2.587  13.071 -0.2965 -0.2879 -0.1248
 1790SOL    HW116832   1.762   2.567  13.044  0.1759  0.2503  1.0472
 1790SOL    HW216833   1.688   2.675  13.106  1.2083 -0.1490 -1.1577
 1791SOL     OW16834   0.833   2.470  11.542  0.0797  0.1518  0.2287
 1791SOL    HW116835   0.756   2.502  11.588 -0.5914  0.8837 -1.3778
 1791SOL    HW216836   0.823   2.380  11.575  0.6316  0.6767  1.8084
 1792SOL     OW16837   3.912   0.118   5.808  0.1797 -0.6703 -0.3159
 1792SOL    HW116838   3.945   0.054   5.744 -0.0443 -0.5352 -0.5670
 1792SOL    HW216839   3.962   0.098   5.887 -1.3284 -0.2406  0.7375
 1793SOL     OW16840   0.201   1.419  14.239  0.5275 -0.1137 -0.5630
 1793SOL    HW116841   0.197   1.513  14.219 -0.8137  0.8762  4.2924
 1793SOL    HW216842   0.148   1.380  14.170 -0.6572 -0.8205  0.7483
 1794SOL     OW16843   3.812   2.570  15.144 -0.6083 -0.1687  0.1111
 1794SOL    HW116844   3.814   2.652  15.094 -2.5478 -0.5712 -0.6269
 1794SOL    HW216845   3.860   2.505  15.093  0.3133 -0.5356  1.4484
 1795SOL     OW16846   3.526   0.089   4.603 -0.6494 -0.0087  0.3733
 1795SOL    HW116847   3.592   0.136   4.653  0.5674  1.3285 -2.5274
 1795SOL    HW216848   3.568   0.006   4.579 -1.8461 -0.5533  0.1490
 1796SOL     OW16849   0.523   4.182  16.443  0.0864 -0.6065 -0.1658
 1796SOL    HW116850   0.532   4.245  16.515  0.9599  1.1248 -1.7628
 1796SOL    HW216851   0.447   4.227  16.405  0.2802  1.9645  2.4890
 1797SOL     OW16852   4.119   0.557   7.983 -0.1658 -0.3163  0.3197
 1797SOL    HW116853   4.189   0.615   8.012  0.1139 -0.5766  0.1682
 1797SOL    HW216854   4.052   0.624   7.969  0.4002  0.2953  0.5616
 1798SOL     OW16855   2.905   0.112   2.365 -0.6163  0.3623 -0.4596
 1798SOL    HW116856   2.912   0.116   2.461  0.1725  0.7941 -0.5434
 1798SOL    HW216857   2.880   0.203   2.352 -1.6188  0.6014  3.0727
 1799SOL     OW16858   2.239   1.199   9.993 -0.6362 -0.9780  0.0909
 1799SOL    HW116859   2.324   1.191  10.035 -0.4544 -0.9469 -0.2676
 1799SOL    HW216860   2.275   1.229   9.909 -0.8182 -1.0649 -0.0181
 1800SOL     OW16861   0.982   2.870   1.745  0.1511  0.5641  0.0482
 1800SOL    HW116862   0.995   2.914   1.661 -0.9467 -1.3911 -1.1542
 1800SOL    HW216863   0.985   2.941   1.808 -0.0485 -0.1592  0.8731
 1801SOL     OW16864   0.001   3.787   0.017 -0.1327  0.1642 -0.4853
 1801SOL    HW116865   4.668   3.845  17.689  1.7742  3.7253  1.4819
 1801SOL    HW216866   0.085   3.833   0.016  0.6593 -1.2695 -0.1801
 1802SOL     OW16867   4.605   3.587   8.212 -0.3074  0.5582 -0.1044
 1802SOL    HW116868   4.643   3.673   8.230 -0.3427  0.3232  1.0380
 1802SOL    HW216869   4.537   3.586   8.279 -1.9037 -0.6024 -1.7397
 1803SOL     OW16870   4.237   2.773   5.847  0.2023 -0.7466 -0.2747
 1803SOL    HW116871   4.189   2.855   5.859  2.7942  0.2323  3.1450
 1803SOL    HW216872   4.165   2.715   5.823 -2.0109  2.5023 -1.5769
 1804SOL     OW16873   1.328   2.194  11.579 -0.2810 -0.2139  0.6315
 1804SOL    HW116874   1.307   2.287  11.588 -0.8938 -0.4137  1.3064
 1804SOL    HW216875   1.371   2.181  11.664  0.3900 -0.9590  0.1856
 1805SOL     OW16876   1.960   4.564   9.387 -0.1373  0.1585  0.9656
 1805SOL    HW116877   1.898   4.583   9.318  0.2371 -3.3405 -0.2999
 1805SOL    HW216878   1.932   4.485   9.434  1.8046  0.1775  2.2004
 1806SOL     OW16879   4.321   2.278   1.148 -0.7057  0.4027  0.1087
 1806SOL    HW116880   4.368   2.307   1.226  1.0270 -1.5180 -0.2131
 1806SOL    HW216881   4.380   2.319   1.085 -0.7998 -0.8523 -0.7909
 1807SOL     OW16882   2.637   4.657   3.322 -0.1996  0.2945  0.2896
 1807SOL    HW116883   2.570   4.612   3.373  1.2737 -1.5576  0.5724
 1807SOL    HW216884   2.667   4.721   3.388  0.1029  0.8383 -0.3678
 1808SOL     OW16885   3.604   1.236   5.880  0.1604 -0.2618  0.1151
 1808SOL    HW116886   3.520   1.202   5.851  0.4856  0.1300 -1.2844
 1808SOL    HW216887   3.662   1.162   5.862 -1.9214 -2.2808  1.7376
 1809SOL     OW16888   1.267   0.620   4.782  0.2793  0.3948  0.4134
 1809SOL    HW116889   1.233   0.623   4.872 -0.2113  1.3808  0.1934
 1809SOL    HW216890   1.352   0.659   4.802  0.4633 -0.4604  1.3131
 1810SOL     OW16891   1.275   1.163   9.927  0.0039 -0.4721 -0.0589
 1810SOL    HW116892   1.207   1.131   9.868  1.3134 -0.8689 -1.3635
 1810SOL    HW216893   1.346   1.164   9.863  0.8940  1.7409  0.9855
 1811SOL     OW16894   1.535   4.300  11.315 -0.2392  0.0829 -0.6172
 1811SOL    HW116895   1.609   4.300  11.375 -0.4123 -0.9706 -0.3928
 1811SOL    HW216896   1.468   4.255  11.367  2.0293 -2.9209 -0.2863
 1812SOL     OW16897   3.577   4.334  13.078  0.4034  0.1497  0.2537
 1812SOL    HW116898   3.584   4.429  13.094  2.5647  0.3175 -1.7471
 1812SOL    HW216899   3.506   4.306  13.135  0.4283  1.2488  0.8415
 1813SOL     OW16900   4.723   1.814   5.528  0.0064 -0.0654  1.0190
 1813SOL    HW116901   0.013   1.824   5.434  0.7716  2.4499  1.4433
 1813SOL    HW216902   0.081   1.816   5.568  0.9039  0.1893 -0.9291
 1814SOL     OW16903   2.865   1.245   7.829 -0.3573  0.2119  0.1823
 1814SOL    HW116904   2.915   1.239   7.910  1.8737 -1.1066 -1.3022
 1814SOL    HW216905   2.776   1.255   7.863 -0.0186 -0.2551  1.2237
 1815SOL     OW16906   3.455   2.598   3.789 -0.0584 -0.7357  0.7937
 1815SOL    HW116907   3.446   2.643   3.705 -3.8041 -0.3470  1.3734
 1815SOL    HW216908   3.443   2.508   3.758  0.6262 -0.5151 -0.1091
 1816SOL     OW16909   0.146   2.676   6.481 -0.0252 -0.0615 -0.1381
 1816SOL    HW116910   0.051   2.687   6.472  0.2106  0.2324 -2.2429
 1816SOL    HW216911   0.153   2.714   6.568  2.6130 -0.7455 -0.0610
 1817SOL     OW16912   1.757   4.385   1.425 -0.3324 -0.1891  0.0817
 1817SOL    HW116913   1.713   4.341   1.353 -0.6365  0.6663 -0.2593
 1817SOL    HW216914   1.849   4.379   1.399 -0.4307  0.7240 -0.4761
 1818SOL     OW16915   2.300   3.415   4.235 -0.0948  0.3889 -0.0047
 1818SOL    HW116916   2.349   3.350   4.286 -2.5126 -0.8845  0.6915
 1818SOL    HW216917   2.214   3.374   4.235  0.0587  0.0316  2.9310
 1819SOL     OW16918   4.077   3.749   8.461  0.3665 -0.2903  0.0764
 1819SOL    HW116919   4.094   3.796   8.543  1.1480  0.1812 -0.3578
 1819SOL    HW216920   4.018   3.811   8.418 -1.4181 -2.3633 -0.5064
 1820SOL     OW16921   1.212   0.871   0.176  0.2689  0.3759 -0.2020
 1820SOL    HW116922   1.306   0.854   0.171 -0.0309 -0.9816 -1.2559
 1820SOL    HW216923   1.203   0.941   0.111 -1.0822  0.3875  0.0106
 1821SOL     OW16924   2.683   3.530  10.581  0.3970 -0.2020 -0.4747
 1821SOL    HW116925   2.730   3.512  10.663 -1.6189  3.0517  1.4064
 1821SOL    HW216926   2.700   3.451  10.530  0.6655 -1.1024  1.0287
 1822SOL     OW16927   3.245   1.397   3.780  1.0278 -0.6419  0.5484
 1822SOL    HW116928   3.219   1.386   3.871  0.4590 -0.2382  0.4336
 1822SOL    HW216929   3.292   1.480   3.787  2.0545 -1.3284  1.7633
 1823SOL     OW16930   2.486   2.796   5.345 -0.7597  0.1984  0.1178
 1823SOL    HW116931   2.568   2.839   5.320  1.2540 -2.6347  1.8559
 1823SOL    HW216932   2.518   2.740   5.416  2.3951  1.0630 -0.6134
 1824SOL     OW16933   3.327   2.469   3.295  0.1823  0.2503 -0.3698
 1824SOL    HW116934   3.232   2.476   3.304 -0.0245 -1.8089 -1.0142
 1824SOL    HW216935   3.341   2.376   3.277  0.3685  0.4061 -1.0177
 1825SOL     OW16936   0.109   4.345   1.210 -0.6613 -0.1421  0.7837
 1825SOL    HW116937   0.159   4.419   1.175 -0.7014 -0.7752 -0.5840
 1825SOL    HW216938   0.029   4.390   1.237 -2.4014 -2.0810 -1.1016
 1826SOL     OW16939   0.531   2.046   8.544  0.4063 -1.1976  0.0484
 1826SOL    HW116940   0.484   1.985   8.487 -1.7711  0.7552 -0.2535
 1826SOL    HW216941   0.464   2.112   8.564  0.6248 -0.8117 -0.4845
 1827SOL     OW16942   3.150   2.087   2.128 -0.2883  0.7445 -0.2690
 1827SOL    HW116943   3.125   2.081   2.036  1.6169  1.9940 -0.8700
 1827SOL    HW216944   3.241   2.115   2.120 -0.0830  0.0946 -0.2367
 1828SOL     OW16945   1.622   0.699  14.940  0.2083 -0.0988  0.6809
 1828SOL    HW116946   1.566   0.660  14.873  1.3065  1.5879 -1.2021
 1828SOL    HW216947   1.653   0.775  14.890 -0.4701 -0.4292 -0.2375
 1829SOL     OW16948   4.302   0.751   8.750  0.2084  0.2224 -0.0577
 1829SOL    HW116949   4.323   0.748   8.843 -1.0595  0.8945  0.2385
 1829SOL    HW216950   4.321   0.843   8.734  0.3686  0.3448  0.8414
 1830SOL     OW16951   2.062   1.394   2.464 -0.4134  0.2445 -0.2192
 1830SOL    HW116952   2.026   1.460   2.404 -0.2805  0.0297 -0.5399
 1830SOL    HW216953   2.129   1.449   2.504 -1.4190  1.0689  0.3441
 1831SOL     OW16954   1.562   1.829  12.752  0.2313  0.4302  0.1124
 1831SOL    HW116955   1.625   1.894  12.782  1.3741 -0.8098  0.3797
 1831SOL    HW216956   1.515   1.814  12.834  0.6802 -1.3471  0.0421
 1832SOL     OW16957   1.834   0.149   7.781  0.2612  0.0234  0.9305
 1832SOL    HW116958   1.922   0.114   7.787  0.2677 -0.0605  0.3371
 1832SOL    HW216959   1.850   0.236   7.745  1.6360 -0.0740  1.3199
 1833SOL     OW16960   2.713   4.142   7.693  0.1952  0.4215  0.2312
 1833SOL    HW116961   2.763   4.061   7.686 -2.1003 -0.7700 -2.2066
 1833SOL    HW216962   2.772   4.190   7.751 -0.7469  0.0895  1.4907
 1834SOL     OW16963   3.241   2.976   1.517 -0.1362  0.0597  0.2257
 1834SOL    HW116964   3.296   3.018   1.451 -1.0375  1.5680  0.4295
 1834SOL    HW216965   3.169   3.039   1.508 -0.7724 -0.5690  0.8659
 1835SOL     OW16966   2.033   1.723  15.026  0.2509  0.3853 -0.8077
 1835SOL    HW116967   2.064   1.793  14.968 -0.3031  0.8850 -0.5089
 1835SOL    HW216968   2.092   1.655  14.995 -1.5300 -0.8234 -1.5203
 1836SOL     OW16969   3.729   1.898   3.852 -0.1326 -0.0396  0.2256
 1836SOL    HW116970   3.663   1.841   3.813  0.5216  0.0281 -1.0092
 1836SOL    HW216971   3.774   1.839   3.912 -1.6763 -0.8064  0.6120
 1837SOL     OW16972   2.400   2.117   3.288  0.0615 -0.8034  0.2683
 1837SOL    HW116973   2.314   2.121   3.329  0.1997 -2.0608  0.6743
 1837SOL    HW216974   2.379   2.104   3.195 -0.3478  0.3603  0.1933
 1838SOL     OW16975   4.014   4.698  10.478  0.2947  0.1608 -0.2808
 1838SOL    HW116976   4.093   0.022  10.489  0.5286 -0.3781  0.6342
 1838SOL    HW216977   4.014   4.656  10.564 -1.2162 -2.5156 -1.5812
 1839SOL     OW16978   0.288   4.523   5.731 -0.2232 -0.1529 -0.6467
 1839SOL    HW116979   0.327   4.516   5.645  0.2409  2.1001 -0.6205
 1839SOL    HW216980   0.201   4.483   5.729 -1.0395  1.6725 -0.8261
 1840SOL     OW16981   2.932   1.315   8.853  0.2762 -0.2400  0.3400
 1840SOL    HW116982   3.018   1.311   8.895  1.0937  0.2886 -1.2600
 1840SOL    HW216983   2.888   1.244   8.900  1.3694 -1.2224 -0.0964
 1841SOL     OW16984   1.727   3.906   7.264  0.3092  0.1491  0.0063
 1841SOL    HW116985   1.669   3.909   7.187  0.6398  0.9903 -0.2161
 1841SOL    HW216986   1.706   3.990   7.304  0.4734 -0.3322  1.0950
 1842SOL     OW16987   3.887   2.804  11.361 -0.3101  0.4607 -0.0964
 1842SOL    HW116988   3.885   2.878  11.301  2.9137 -0.3734 -1.2551
 1842SOL    HW216989   3.921   2.736  11.303 -2.6278 -1.9103  1.2988
 1843SOL     OW16990   3.128   1.300   7.711  0.2997  0.6503 -0.5625
 1843SOL    HW116991   3.148   1.207   7.708 -3.5104 -0.2071  0.9577
 1843SOL    HW216992   3.034   1.290   7.721  0.4224 -0.8675 -1.0585
 1844SOL     OW16993   3.085   2.138   3.365  0.8269  0.1867  1.1047
 1844SOL    HW116994   3.013   2.190   3.330 -1.6294 -1.3664  3.8235
 1844SOL    HW216995   3.119   2.093   3.288 -1.8343  0.7680 -0.4153
 1845SOL     OW16996   1.233   0.178   4.447  0.6160 -0.7737  0.1691
 1845SOL    HW116997   1.209   0.266   4.476 -0.2091 -0.7168 -0.6581
 1845SOL    HW216998   1.242   0.129   4.528  2.0936  1.0937  1.1400
 1846SOL     OW16999   0.116   2.761   3.090 -0.2127 -0.1111  0.2905
 1846SOL    HW117000   0.037   2.812   3.109  0.3832  0.3407  1.6168
 1846SOL    HW217001   0.189   2.822   3.102 -0.4355  0.4148 -1.0561
 1847SOL     OW17002   4.363   2.637   6.526 -0.2709 -0.1568 -0.0511
 1847SOL    HW117003   4.309   2.704   6.485 -0.6643 -1.5780 -1.8651
 1847SOL    HW217004   4.358   2.665   6.618  1.1761 -3.0321  0.9270
 1848SOL     OW17005   0.016   0.782   2.746 -0.8642 -0.0130  0.5709
 1848SOL    HW117006   0.065   0.708   2.782  0.3751 -1.1027 -3.2969
 1848SOL    HW217007   4.659   0.743   2.757 -1.1543  1.0542  2.0444
 1849SOL     OW17008   4.111   3.665   0.161  0.3182 -0.3666  0.5641
 1849SOL    HW117009   4.139   3.714   0.238  0.6189  0.2262  0.0817
 1849SOL    HW217010   4.100   3.727   0.089 -1.8296 -0.7576  0.5715
 1850SOL     OW17011   2.021   0.097   2.713 -0.4420 -0.6433 -0.0261
 1850SOL    HW117012   1.980   0.091   2.800  0.1427 -0.0647  0.2891
 1850SOL    HW217013   2.078   0.020   2.713 -1.3566 -1.3207 -0.8010
 1851SOL     OW17014   1.812   3.506   2.658  0.2533 -0.6405  0.8633
 1851SOL    HW117015   1.748   3.557   2.707 -0.6799  0.8143 -1.9042
 1851SOL    HW217016   1.894   3.538   2.695  0.3690  0.1413 -0.1040
 1852SOL     OW17017   4.250   2.572  14.324  0.5346 -0.5776 -0.2013
 1852SOL    HW117018   4.248   2.478  14.344 -1.4445  0.1015  2.7955
 1852SOL    HW217019   4.303   2.585  14.246 -1.1874 -0.6871 -1.3928
 1853SOL     OW17020   2.074   3.066   8.977  0.9032 -0.3083  0.1241
 1853SOL    HW117021   1.989   3.056   9.021  0.7332 -1.6296 -0.4934
 1853SOL    HW217022   2.121   2.983   8.983  1.1980 -0.1795 -0.4073
 1854SOL     OW17023   2.003   2.542   8.459  0.1549  0.2324  0.2782
 1854SOL    HW117024   2.047   2.565   8.541  0.3250  3.5987 -0.7812
 1854SOL    HW217025   1.912   2.570   8.473  0.0970 -0.2014  0.8093
 1855SOL     OW17026   2.792   1.960   3.498 -0.2786  0.2754 -0.1505
 1855SOL    HW117027   2.870   2.015   3.491  0.3097 -0.4187  0.9261
 1855SOL    HW217028   2.719   2.021   3.492 -0.7153 -0.1083  1.5159
 1856SOL     OW17029   3.914   0.323   8.577 -0.7220 -0.1307 -0.3708
 1856SOL    HW117030   3.964   0.251   8.616  0.1932  0.7567  0.0829
 1856SOL    HW217031   3.942   0.392   8.637 -2.3473 -1.1350  1.5701
 1857SOL     OW17032   0.671   1.707   5.842 -0.3363 -0.7826 -0.0114
 1857SOL    HW117033   0.678   1.618   5.807  1.7274 -0.6127 -0.0065
 1857SOL    HW217034   0.706   1.759   5.770 -0.6898 -0.2291  0.2222
 1858SOL     OW17035   4.599   1.700   7.208 -0.4204 -0.2463 -0.0203
 1858SOL    HW117036   4.513   1.730   7.179 -0.4309  0.1850  0.4671
 1858SOL    HW217037   4.634   1.656   7.130  0.4415 -3.5530  2.2454
 1859SOL     OW17038   0.435   2.831   8.956 -0.0769 -0.8388 -0.3150
 1859SOL    HW117039   0.526   2.807   8.936  0.8393  2.0770  0.3617
 1859SOL    HW217040   0.432   2.859   9.048  2.9468 -0.2804 -0.3758
 1860SOL     OW17041   1.733   1.979   4.301 -0.0782  0.6753  0.1992
 1860SOL    HW117042   1.804   2.035   4.267 -0.5655  0.1134 -1.7245
 1860SOL    HW217043   1.686   1.956   4.221  2.7140 -0.8336 -1.0122
 1861SOL     OW17044   0.463   2.882   1.751 -0.7510 -0.7687  0.2663
 1861SOL    HW117045   0.413   2.818   1.700  0.2357 -1.4528  0.1720
 1861SOL    HW217046   0.417   2.891   1.835 -2.7199  0.9882 -0.9826
 1862SOL     OW17047   0.706   0.720   6.768  0.2304  0.6820 -0.1036
 1862SOL    HW117048   0.655   0.684   6.695 -1.0350  2.3892 -0.0652
 1862SOL    HW217049   0.765   0.649   6.793 -1.8122  0.2659  3.4746
 1863SOL     OW17050   4.713   3.505   7.973 -0.3797 -0.5080  0.3102
 1863SOL    HW117051   4.672   3.562   7.908  0.5515 -0.8183 -0.5531
 1863SOL    HW217052   4.675   3.538   8.054 -1.4984  1.0626 -0.8636
 1864SOL     OW17053   4.052   4.610   1.717 -0.1649  0.2285  0.3842
 1864SOL    HW117054   4.052   4.654   1.632 -0.2204  3.4926  2.0717
 1864SOL    HW217055   4.144   4.591   1.733 -0.2293  0.0194  0.5146
 1865SOL     OW17056   4.016   3.875  14.563  0.0434 -0.0699  0.7874
 1865SOL    HW117057   4.092   3.856  14.618  0.9483 -1.0129 -0.7893
 1865SOL    HW217058   4.054   3.922  14.489  1.0905 -1.2978  0.5446
 1866SOL     OW17059   2.960   3.154   0.294  0.3601  0.4187  0.3479
 1866SOL    HW117060   2.877   3.120   0.262  1.0556  0.2619 -1.2819
 1866SOL    HW217061   2.970   3.231   0.237  0.3081 -1.0418 -1.6345
 1867SOL     OW17062   3.685   2.702   9.405  0.1408 -0.4735  0.6333
 1867SOL    HW117063   3.759   2.760   9.422  0.5567 -0.5220 -1.0219
 1867SOL    HW217064   3.687   2.644   9.481 -0.8146  1.5823  2.2203
 1868SOL     OW17065   1.506   4.184   1.016 -0.3933 -0.1033 -0.3538
 1868SOL    HW117066   1.544   4.109   0.970  0.5164 -1.1468  2.1209
 1868SOL    HW217067   1.538   4.253   0.958  1.8462 -0.5517  0.3536
 1869SOL     OW17068   3.458   2.633   3.510 -0.8277 -0.2108  0.0734
 1869SOL    HW117069   3.395   2.592   3.452  0.1613 -0.4252 -0.8542
 1869SOL    HW217070   3.542   2.597   3.481 -1.1794 -1.1730  0.2734
 1870SOL     OW17071   4.241   4.282   8.188  0.2076  0.2518  0.2906
 1870SOL    HW117072   4.219   4.230   8.264  0.6860  1.6821  1.4054
 1870SOL    HW217073   4.278   4.214   8.131  0.2940 -0.9732  1.8216
 1871SOL     OW17074   3.296   0.176   8.480 -0.0142  0.0968  0.4509
 1871SOL    HW117075   3.327   0.260   8.513  2.6862  1.3805 -5.4566
 1871SOL    HW217076   3.327   0.168   8.390  2.1445  2.0786  1.0079
 1872SOL     OW17077   2.509   4.108  13.360 -0.0644 -0.6773  1.0538
 1872SOL    HW117078   2.529   4.151  13.443  0.4558  0.6140  0.2638
 1872SOL    HW217079   2.425   4.148  13.341  0.7883 -0.3188 -1.9954
 1873SOL     OW17080   4.314   4.007  12.414  0.3656  0.4851  0.1039
 1873SOL    HW117081   4.232   3.958  12.423  1.2745 -1.1869 -0.5453
 1873SOL    HW217082   4.327   4.036  12.504  1.6423  0.9220 -0.2214
 1874SOL     OW17083   3.893   4.357  10.765  0.0211  0.0396  0.8567
 1874SOL    HW117084   3.800   4.359  10.786  0.1107  2.3202  1.0065
 1874SOL    HW217085   3.915   4.449  10.751 -0.7840  0.0542 -0.3672
 1875SOL     OW17086   1.796   2.605   5.909 -0.0943  0.1117  0.1805
 1875SOL    HW117087   1.781   2.698   5.889  1.0777  0.7259  2.1367
 1875SOL    HW217088   1.887   2.589   5.882 -1.1395 -1.4772 -2.3721
 1876SOL     OW17089   4.239   0.491  17.632  0.1633  1.2395  0.4747
 1876SOL    HW117090   4.313   0.541  17.597  0.9662  0.3848  0.9488
 1876SOL    HW217091   4.160   0.520  17.587  0.8176  0.1621 -1.3684
 1877SOL     OW17092   2.374   4.635  13.700 -0.2865 -0.0709 -0.0094
 1877SOL    HW117093   2.356   4.568  13.634  0.7049 -0.5536  0.2097
 1877SOL    HW217094   2.305   4.625  13.765 -0.1958 -0.1550  0.0740
 1878SOL     OW17095   0.590   1.271   7.625 -0.5532  0.1438 -0.1390
 1878SOL    HW117096   0.604   1.360   7.591 -0.7071  0.4618  0.6518
 1878SOL    HW217097   0.498   1.282   7.647 -1.6390 -0.9239 -4.1435
 1879SOL     OW17098   4.486   3.099   7.250 -0.0440  0.1219 -0.6482
 1879SOL    HW117099   4.536   3.177   7.274  0.9720 -0.9193  0.6125
 1879SOL    HW217100   4.537   3.060   7.179 -0.4670  1.1650 -1.5012
 1880SOL     OW17101   2.682   0.176   8.578  0.5421 -0.1023  0.4020
 1880SOL    HW117102   2.624   0.105   8.551 -0.2786  0.4942  0.5946
 1880SOL    HW217103   2.617   0.244   8.597 -0.6994 -1.0465 -0.4693
 1881SOL     OW17104   4.440   1.637   3.333  0.7950  0.0699  0.0769
 1881SOL    HW117105   4.483   1.590   3.262  0.6573 -0.6512  0.4641
 1881SOL    HW217106   4.487   1.607   3.411  0.6908  3.0626  1.2762
 1882SOL     OW17107   3.800   4.312  15.375 -0.5519  0.2010 -0.1633
 1882SOL    HW117108   3.813   4.233  15.323 -0.7154  0.8832 -1.2563
 1882SOL    HW217109   3.820   4.277  15.461  1.5963  1.2264 -0.2501
 1883SOL     OW17110   4.477   1.680  11.768  0.3389  0.2541 -0.2817
 1883SOL    HW117111   4.502   1.588  11.773  3.4140  1.0708 -0.6674
 1883SOL    HW217112   4.509   1.707  11.682  0.6222  0.6784 -0.0472
 1884SOL     OW17113   2.657   4.722   7.136  0.2817  0.4245  0.1658
 1884SOL    HW117114   2.664   4.708   7.230  0.0902 -0.5186  0.0372
 1884SOL    HW217115   2.620   4.637   7.110 -0.8063  0.6651  0.9234
 1885SOL     OW17116   2.901   4.345   1.235 -0.4107  0.3295 -0.1250
 1885SOL    HW117117   2.959   4.407   1.280  1.7333 -1.4660 -0.3808
 1885SOL    HW217118   2.822   4.396   1.221 -0.0420  0.3206 -2.1756
 1886SOL     OW17119   0.995   1.069   3.843 -0.4553 -0.1956  0.3947
 1886SOL    HW117120   1.040   1.003   3.896 -0.9046 -0.0006  1.0189
 1886SOL    HW217121   1.048   1.071   3.763 -2.5579 -1.7266 -1.0628
 1887SOL     OW17122   3.966   1.536   5.532 -0.2682  0.4668 -0.0084
 1887SOL    HW117123   4.006   1.614   5.495 -0.5552  0.7591  0.3070
 1887SOL    HW217124   3.962   1.477   5.457 -0.3884  1.8999 -1.1236
 1888SOL     OW17125   3.625   3.170   3.180 -0.3085 -0.4133  0.5957
 1888SOL    HW117126   3.680   3.245   3.201  0.0078  0.4032 -3.1583
 1888SOL    HW217127   3.682   3.106   3.138  2.0283  1.7076  0.5094
 1889SOL     OW17128   1.163   0.976   6.469 -0.2458 -0.4837  0.4846
 1889SOL    HW117129   1.170   0.882   6.485 -1.5978 -0.5351  0.7579
 1889SOL    HW217130   1.070   0.977   6.493  0.0243  2.7406  1.3691
 1890SOL     OW17131   4.001   4.560  14.019  0.2746 -0.3548  0.2976
 1890SOL    HW117132   4.012   4.602  14.104 -1.7850  0.3884  0.1932
 1890SOL    HW217133   4.070   4.603  13.969  2.0433 -0.0020  3.0256
 1891SOL     OW17134   1.589   2.839   5.093 -0.1615  0.3310 -0.2722
 1891SOL    HW117135   1.610   2.931   5.107 -2.2284  1.0294 -1.7273
 1891SOL    HW217136   1.607   2.805   5.181  1.1007 -0.8733 -0.9901
 1892SOL     OW17137   1.567   3.775   6.204  0.0673 -0.5375  0.1417
 1892SOL    HW117138   1.488   3.722   6.193 -0.2022 -0.3618  1.3135
 1892SOL    HW217139   1.620   3.730   6.270  0.9161  1.0949  0.5618
 1893SOL     OW17140   3.737   4.332   2.630  0.1272 -0.3827 -0.5998
 1893SOL    HW117141   3.667   4.388   2.663  2.9817  2.1333  1.1209
 1893SOL    HW217142   3.689   4.250   2.644 -0.9328  0.0810 -1.4830
 1894SOL     OW17143   0.597   3.048  12.058 -0.0446  0.0979  0.3452
 1894SOL    HW117144   0.639   3.130  12.084  3.8367 -1.7092 -0.3181
 1894SOL    HW217145   0.660   2.985  12.094  1.4696  1.4803  0.0964
 1895SOL     OW17146   3.249   3.780  16.610  0.0755  0.0971 -0.1578
 1895SOL    HW117147   3.336   3.755  16.580 -1.2010 -3.4413 -1.0120
 1895SOL    HW217148   3.192   3.714  16.570  1.4939 -0.9580 -0.4245
 1896SOL     OW17149   1.312   3.799   8.894 -0.2133 -0.1644  0.1786
 1896SOL    HW117150   1.401   3.832   8.902 -0.3739  0.3258 -0.0682
 1896SOL    HW217151   1.282   3.820   8.983 -1.1686 -0.8557  0.0264
 1897SOL     OW17152   2.111   1.635   5.040 -0.7322 -0.2786  0.3012
 1897SOL    HW117153   2.177   1.647   5.108  1.3666  0.6828 -1.9331
 1897SOL    HW217154   2.162   1.580   4.981 -1.4798  0.0647 -0.6655
 1898SOL     OW17155   0.869   0.383   2.439  0.3011 -0.0991  0.0928
 1898SOL    HW117156   0.934   0.426   2.495  2.1869  0.2977 -2.3910
 1898SOL    HW217157   0.840   0.457   2.386  0.1759  2.6998  4.1130
 1899SOL     OW17158   2.253   1.201  14.883 -0.1372 -0.0864  0.6748
 1899SOL    HW117159   2.328   1.214  14.824 -0.4353 -0.3156  0.2472
 1899SOL    HW217160   2.266   1.283  14.931  0.2941  0.9172 -1.1550
 1900SOL     OW17161   4.400   0.064   6.302  0.2174  0.4029  0.2429
 1900SOL    HW117162   4.343   0.069   6.226 -1.5983 -2.2755  1.4066
 1900SOL    HW217163   4.482   0.101   6.271 -0.6942  3.4250  1.4230
 1901SOL     OW17164   3.462   3.084   3.663 -0.3676 -0.3498 -0.0990
 1901SOL    HW117165   3.369   3.063   3.659 -0.3288 -0.7094  0.7876
 1901SOL    HW217166   3.514   3.011   3.630  2.9814  2.3542 -0.7901
 1902SOL     OW17167   0.849   1.138   7.204  0.5496 -0.2200  0.5419
 1902SOL    HW117168   0.873   1.227   7.179  3.0027 -1.0316 -0.0229
 1902SOL    HW217169   0.775   1.119   7.146  0.8082  0.1403  0.0899
 1903SOL     OW17170   3.809   1.087   6.904  0.3601  0.2357 -0.3294
 1903SOL    HW117171   3.743   1.042   6.958  0.3777  1.9706  1.1285
 1903SOL    HW217172   3.855   1.012   6.868 -0.2824 -0.5353  0.4316
 1904SOL     OW17173   4.271   2.893  12.020 -0.4701  0.3412  0.1016
 1904SOL    HW117174   4.329   2.819  12.004 -0.0877  1.1141 -2.1825
 1904SOL    HW217175   4.284   2.907  12.114 -1.5648  1.9867  0.0186
 1905SOL     OW17176   4.152   1.729  15.452  0.0975 -0.3391  0.0131
 1905SOL    HW117177   4.086   1.751  15.386  0.5883 -1.7740 -0.9346
 1905SOL    HW217178   4.227   1.703  15.400  0.0790  0.5349 -0.4462
 1906SOL     OW17179   2.155   4.598  13.153  0.0289 -0.0391 -0.5935
 1906SOL    HW117180   2.221   4.577  13.219 -0.8572 -3.1649 -0.7032
 1906SOL    HW217181   2.196   4.655  13.087 -0.0108 -1.0801 -1.5320
 1907SOL     OW17182   2.043   4.625   7.553 -0.1938  0.1021  0.2526
 1907SOL    HW117183   2.072   4.713   7.530  0.0516 -0.1971 -0.5857
 1907SOL    HW217184   2.038   4.635   7.648  1.9010  3.4706  0.0246
 1908SOL     OW17185   4.302   2.692   5.016  0.1803 -0.3591  0.0805
 1908SOL    HW117186   4.216   2.727   4.991  0.7427  1.8828  1.2540
 1908SOL    HW217187   4.295   2.597   5.006  0.5657 -0.1429 -2.2358
 1909SOL     OW17188   3.104   2.814   2.682 -0.1864  0.1857 -0.1339
 1909SOL    HW117189   3.169   2.800   2.751 -1.8991  2.9375  2.0527
 1909SOL    HW217190   3.078   2.722   2.677  3.4364 -0.7387 -1.9575
 1910SOL     OW17191   4.713   0.592  11.746  0.3997 -0.0445  0.4733
 1910SOL    HW117192   4.721   0.670  11.691  0.8252 -0.0622  0.5084
 1910SOL    HW217193   4.671   0.537  11.680 -0.0251  1.7319 -0.7280
 1911SOL     OW17194   3.157   4.569   1.007  0.1267  0.3390 -0.4078
 1911SOL    HW117195   3.253   4.569   1.007  0.1311 -1.3942 -0.9412
 1911SOL    HW217196   3.132   4.482   1.037 -0.2693  0.4833 -0.3213
 1912SOL     OW17197   4.513   3.551   1.105 -0.0081 -0.4484 -0.1462
 1912SOL    HW117198   4.458   3.513   1.037 -0.4422  0.0281 -0.0596
 1912SOL    HW217199   4.599   3.511   1.089 -0.1296 -1.6069  2.2284
 1913SOL     OW17200   0.197   4.114   7.566 -0.1923 -0.0802  0.2489
 1913SOL    HW117201   0.290   4.119   7.588  0.2966 -2.1981 -1.3430
 1913SOL    HW217202   0.207   4.040   7.507  2.0339 -0.2565  0.8441
 1914SOL     OW17203   4.202   2.517   8.959  0.6101 -0.3479 -0.6635
 1914SOL    HW117204   4.160   2.442   8.999 -2.0766  1.3626 -0.2860
 1914SOL    HW217205   4.169   2.510   8.869  1.2413 -0.7652 -0.8606
 1915SOL     OW17206   0.945   3.569  14.390  0.4611 -0.0525 -0.0091
 1915SOL    HW117207   0.876   3.630  14.364  0.8790  0.3309 -0.2184
 1915SOL    HW217208   1.010   3.575  14.321  1.8869  0.9928  1.4061
 1916SOL     OW17209   2.724   2.927   5.240 -0.2910  0.2462 -0.0966
 1916SOL    HW117210   2.782   2.880   5.180  0.0101  1.0948 -0.4796
 1916SOL    HW217211   2.761   3.015   5.227 -1.9531  1.0594  0.6294
 1917SOL     OW17212   1.088   3.197   6.713  0.3921 -0.1285 -0.0847
 1917SOL    HW117213   1.111   3.236   6.628  1.5400 -1.4017 -0.3559
 1917SOL    HW217214   1.176   3.170   6.739  0.5589  0.7221  0.2379
 1918SOL     OW17215   1.492   3.654   8.191 -0.2327  0.0900 -0.0621
 1918SOL    HW117216   1.481   3.727   8.252 -0.0549  1.5451 -1.7879
 1918SOL    HW217217   1.577   3.671   8.151  0.7647 -2.2605  1.0805
 1919SOL     OW17218   4.034   1.520   8.374 -0.2453 -0.2754 -0.1826
 1919SOL    HW117219   3.981   1.500   8.297  0.3740 -0.9564 -0.4331
 1919SOL    HW217220   4.100   1.584   8.347  0.2684 -0.4246  0.7295
 1920SOL     OW17221   2.496   2.347  14.032  0.0656 -0.2454 -0.2713
 1920SOL    HW117222   2.458   2.401  14.101  1.0649  0.4011 -0.2319
 1920SOL    HW217223   2.491   2.401  13.953  2.4452  0.8668  0.3402
 1921SOL     OW17224   0.933   1.412  11.379  0.1468  0.3724 -0.2626
 1921SOL    HW117225   0.909   1.365  11.300  1.7778 -0.2422 -0.3922
 1921SOL    HW217226   0.844   1.416  11.414 -0.0501  1.6839 -0.9017
 1922SOL     OW17227   3.832   2.633   7.365 -0.1384  0.1479 -0.0604
 1922SOL    HW117228   3.783   2.715   7.360  0.4991  0.7151  3.1889
 1922SOL    HW217229   3.837   2.633   7.461  1.6731  1.9201 -0.1418
 1923SOL     OW17230   0.877   1.247   4.068 -0.2622 -0.0476 -0.3323
 1923SOL    HW117231   0.899   1.183   4.001 -0.0608 -0.1409 -0.1751
 1923SOL    HW217232   0.783   1.229   4.073 -0.8749  3.3768  0.7298
 1924SOL     OW17233   2.636   2.141   4.021  0.5358 -0.6131 -0.2699
 1924SOL    HW117234   2.688   2.083   3.965  2.6971  1.9403 -0.9424
 1924SOL    HW217235   2.549   2.104   4.008 -0.4229  1.9702 -1.1551
 1925SOL     OW17236   0.347   2.407   4.719  0.0137  0.2786  0.4875
 1925SOL    HW117237   0.388   2.423   4.804  0.5815 -0.9123  0.4408
 1925SOL    HW217238   0.362   2.492   4.679 -1.4895  0.2414 -0.1554
 1926SOL     OW17239   2.024   4.134  15.098 -0.0205 -0.1321  0.2308
 1926SOL    HW117240   2.019   4.229  15.086  1.4332 -0.1351 -0.3501
 1926SOL    HW217241   2.095   4.107  15.040  0.2037  0.5294  0.2032
 1927SOL     OW17242   0.242   4.638   2.925 -0.0465 -0.1510 -0.1446
 1927SOL    HW117243   0.317   4.580   2.914  0.2569  0.2352 -0.0736
 1927SOL    HW217244   0.224   4.663   2.834  2.2183 -0.8727 -0.7788
 1928SOL     OW17245   0.439   1.402   3.250  0.3728  0.0515 -0.4821
 1928SOL    HW117246   0.484   1.318   3.238 -2.3148 -1.4573 -0.0202
 1928SOL    HW217247   0.444   1.407   3.345 -1.7319  1.9186 -0.4834
 1929SOL     OW17248   2.166   1.945  16.634  0.8911  0.0113 -0.0574
 1929SOL    HW117249   2.179   1.941  16.539 -0.4811 -0.2138 -0.2432
 1929SOL    HW217250   2.201   2.034  16.644  4.3946 -1.3377 -0.4124
 1930SOL     OW17251   0.539   4.509   5.872 -0.5335  0.1770  0.8647
 1930SOL    HW117252   0.479   4.551   5.811  1.2420  0.8006 -0.4366
 1930SOL    HW217253   0.571   4.583   5.924  0.3132  1.0859 -0.9624
 1931SOL     OW17254   3.616   4.697  15.219 -0.3727 -0.0874 -0.7528
 1931SOL    HW117255   3.566   4.629  15.264  1.3961  0.1113  1.5307
 1931SOL    HW217256   3.613   4.663  15.129 -0.0640 -0.1049 -0.7566
 1932SOL     OW17257   2.274   1.594  14.903  0.1595 -0.3750  0.0569
 1932SOL    HW117258   2.328   1.526  14.862 -0.2548  0.0283 -1.1557
 1932SOL    HW217259   2.308   1.673  14.861  0.1008 -0.7644 -0.7361
 1933SOL     OW17260   3.880   4.054   4.729 -0.2682  0.1397 -0.1030
 1933SOL    HW117261   3.903   4.043   4.822  0.4542  1.4787 -0.1206
 1933SOL    HW217262   3.804   4.110   4.742  1.8505  3.2265 -1.1699
 1934SOL     OW17263   3.652   2.627   3.984  0.5365  0.1365  0.1523
 1934SOL    HW117264   3.584   2.634   3.917  1.4646  0.8667 -0.7098
 1934SOL    HW217265   3.684   2.539   3.965 -2.3148 -0.3968 -2.2742
 1935SOL     OW17266   2.481   2.412   9.863 -0.0627 -0.0467  0.2507
 1935SOL    HW117267   2.544   2.469   9.820  0.9627 -0.4494  1.2316
 1935SOL    HW217268   2.552   2.362   9.902  2.2449  0.8783 -2.7370
 1936SOL     OW17269   1.473   1.553   9.200 -0.3859  0.0226 -0.2275
 1936SOL    HW117270   1.451   1.554   9.107 -1.0844  0.9201 -0.0535
 1936SOL    HW217271   1.398   1.510   9.241  0.2297  0.0157  0.8993
 1937SOL     OW17272   3.223   3.175   2.747  0.2415 -0.5183  0.0718
 1937SOL    HW117273   3.253   3.089   2.775  2.8999  0.7311  1.0306
 1937SOL    HW217274   3.177   3.152   2.666 -2.4996  1.9155  0.9422
 1938SOL     OW17275   3.967   4.072  12.542  0.7660 -0.3181  0.3023
 1938SOL    HW117276   3.938   3.982  12.554  1.4351 -0.5549  0.1303
 1938SOL    HW217277   3.982   4.093  12.635  0.4147 -0.4199  0.3836
 1939SOL     OW17278   3.510   0.434   5.880  0.0170 -0.1235  0.4309
 1939SOL    HW117279   3.563   0.478   5.813 -1.7145  0.1496 -0.7570
 1939SOL    HW217280   3.523   0.348   5.840 -1.7138 -0.0840 -0.2001
 1940SOL     OW17281   4.248   0.445   6.205 -0.4564  0.6519  0.3965
 1940SOL    HW117282   4.283   0.531   6.227 -1.0202  1.0182 -0.1503
 1940SOL    HW217283   4.320   0.404   6.156 -0.3932 -0.4538  1.4107
 1941SOL     OW17284   0.170   3.212   2.709 -0.0802  0.0895 -0.0099
 1941SOL    HW117285   0.254   3.207   2.662  0.4413  1.0077  0.8245
 1941SOL    HW217286   0.143   3.121   2.711 -3.5031  1.1527  1.0589
 1942SOL     OW17287   3.063   0.457   9.538  0.6008 -0.0207  0.0651
 1942SOL    HW117288   3.096   0.518   9.472  2.7718  1.9062  2.9301
 1942SOL    HW217289   3.015   0.396   9.481 -1.6516  0.9899  0.9060
 1943SOL     OW17290   1.594   3.796  13.546 -0.6392  0.2493 -0.2022
 1943SOL    HW117291   1.502   3.784  13.567 -0.7160  2.9214  1.1030
 1943SOL    HW217292   1.602   3.891  13.558 -0.5167  0.4474 -1.8277
 1944SOL     OW17293   3.002   0.685   3.631 -0.1388  0.2144  0.2595
 1944SOL    HW117294   3.029   0.697   3.540  0.9223  0.8953  0.6585
 1944SOL    HW217295   3.062   0.739   3.683 -0.7154 -0.0006  1.1628
 1945SOL     OW17296   4.468   0.350   6.083 -0.0699 -0.2576  0.4091
 1945SOL    HW117297   4.435   0.283   6.023  0.2667 -0.5910  0.5949
 1945SOL    HW217298   4.516   0.410   6.025  1.5337 -1.1258  0.8327
 1946SOL     OW17299   1.476   1.828   9.326 -0.6766  0.4016  0.2808
 1946SOL    HW117300   1.508   1.744   9.292  0.4393  1.6570 -1.7039
 1946SOL    HW217301   1.389   1.838   9.286 -0.4142  0.6361 -0.2249
 1947SOL     OW17302   2.180   0.947   1.634 -0.1732  0.1389  0.0120
 1947SOL    HW117303   2.236   1.021   1.656 -0.9887  1.0386 -0.9688
 1947SOL    HW217304   2.244   0.885   1.597  0.0697  0.3174  0.1362
 1948SOL     OW17305   1.936   0.553   6.371  0.4129 -0.2284  0.3065
 1948SOL    HW117306   1.853   0.545   6.418  0.3253  0.6777  0.3019
 1948SOL    HW217307   1.988   0.602   6.434  0.1277 -0.0102  0.3684
 1949SOL     OW17308   1.963   3.527  10.448  0.2498  0.5119 -0.0267
 1949SOL    HW117309   1.869   3.545  10.455 -0.0430 -0.6312 -1.0318
 1949SOL    HW217310   2.003   3.598  10.498  0.1627 -0.2891  1.2091
 1950SOL     OW17311   0.762   1.300   3.482  0.0128  0.1049  0.1627
 1950SOL    HW117312   0.854   1.300   3.509  0.7871  0.9146 -2.4178
 1950SOL    HW217313   0.748   1.209   3.510  1.6642  0.4647  2.1001
 1951SOL     OW17314   0.770   0.286  12.034  0.5119 -0.2033  0.6590
 1951SOL    HW117315   0.696   0.323  12.081  0.4272  1.7942 -1.0311
 1951SOL    HW217316   0.803   0.224  12.099 -0.2215 -0.3347  0.9094
 1952SOL     OW17317   4.500   3.747  11.549  0.1265  0.8956 -0.4147
 1952SOL    HW117318   4.450   3.809  11.602  0.1077 -2.4334  3.4639
 1952SOL    HW217319   4.532   3.805  11.480  0.4010 -1.4498 -2.2513
 1953SOL     OW17320   0.003   2.455   8.153  0.1373 -0.1220 -0.6051
 1953SOL    HW117321   0.072   2.520   8.168  1.8873 -2.5945  2.0978
 1953SOL    HW217322   0.011   2.451   8.058 -3.2717 -1.8674 -0.8127
 1954SOL     OW17323   4.210   4.129   5.291  0.1624 -0.0007  0.0272
 1954SOL    HW117324   4.280   4.136   5.356  0.8912  2.5346 -1.0274
 1954SOL    HW217325   4.182   4.042   5.317  0.0671  0.4174  1.3299
 1955SOL     OW17326   0.053   1.784   2.651 -0.1124 -0.3410  0.0109
 1955SOL    HW117327   0.049   1.762   2.558 -2.4727 -1.7490  0.4491
 1955SOL    HW217328   0.095   1.870   2.659 -1.0078  0.2551 -1.9104
 1956SOL     OW17329   3.688   0.724  11.894  0.3322  0.6910  0.1378
 1956SOL    HW117330   3.713   0.754  11.981 -0.5209 -0.8266  0.9196
 1956SOL    HW217331   3.741   0.646  11.878 -0.4500 -0.0192  1.0193
 1957SOL     OW17332   3.387   4.299   0.585  0.0303 -0.2030 -0.3962
 1957SOL    HW117333   3.310   4.298   0.528 -0.8856  0.4851  0.8443
 1957SOL    HW217334   3.350   4.259   0.664  2.4791  3.7963  2.7837
 1958SOL     OW17335   2.309   2.466   8.240  0.4627  0.0057 -0.1152
 1958SOL    HW117336   2.390   2.473   8.290  0.0518  1.4454  0.3509
 1958SOL    HW217337   2.289   2.378   8.273  1.4180 -1.5500 -3.6873
 1959SOL     OW17338   2.258   0.099   9.558 -0.5769 -0.6636 -0.1904
 1959SOL    HW117339   2.267   0.189   9.527 -0.7128 -0.6381 -0.1557
 1959SOL    HW217340   2.313   0.053   9.495 -0.6750 -2.1558  0.8223
 1960SOL     OW17341   1.998   4.302  12.549 -0.0567  0.1672 -0.0688
 1960SOL    HW117342   1.996   4.341  12.637 -2.0610 -0.6679  0.2372
 1960SOL    HW217343   2.032   4.369  12.489 -0.5956 -0.0798 -0.6447
 1961SOL     OW17344   3.394   3.633  13.549  0.7288  0.3050  0.1712
 1961SOL    HW117345   3.456   3.615  13.620 -0.8637  0.8679  1.7030
 1961SOL    HW217346   3.447   3.600  13.476  0.2820 -0.7799  0.3357
 1962SOL     OW17347   0.473   3.482  12.155  0.1643 -0.0833  0.0996
 1962SOL    HW117348   0.448   3.461  12.245 -1.0697  0.2368 -0.1763
 1962SOL    HW217349   0.484   3.395  12.117 -2.0158  0.4546 -1.7532
 1963SOL     OW17350   2.425   2.809  10.451 -0.0656 -0.2409  0.3771
 1963SOL    HW117351   2.484   2.745  10.412 -1.4246 -1.3796  0.1814
 1963SOL    HW217352   2.408   2.866  10.376 -1.1183  0.2089  0.9543
 1964SOL     OW17353   4.206   2.053   8.338 -0.6430 -0.2526  0.4188
 1964SOL    HW117354   4.232   2.013   8.255 -0.4560 -0.4871  0.5919
 1964SOL    HW217355   4.262   2.002   8.396  0.6614  1.5621  0.7578
 1965SOL     OW17356   3.648   1.584   4.868  0.1342  0.3274 -0.2374
 1965SOL    HW117357   3.612   1.521   4.931 -0.2257  1.8613  1.0883
 1965SOL    HW217358   3.731   1.545   4.841 -0.0906 -1.9769  2.4138
 1966SOL     OW17359   1.516   1.342  17.149  0.3531 -0.5332  0.2456
 1966SOL    HW117360   1.591   1.361  17.205  1.3813 -0.0944 -1.3058
 1966SOL    HW217361   1.515   1.246  17.151  0.1523 -0.5536 -1.2014
 1967SOL     OW17362   3.562   0.177  13.582 -0.0046  0.2706 -0.1378
 1967SOL    HW117363   3.590   0.099  13.535 -2.0910  1.3472 -3.1498
 1967SOL    HW217364   3.521   0.222  13.509 -1.9471  0.3500  1.0052
 1968SOL     OW17365   1.926   1.660   4.842  0.2830  0.0192 -0.3039
 1968SOL    HW117366   1.987   1.670   4.915 -1.6820  1.0124  1.1914
 1968SOL    HW217367   1.863   1.598   4.880 -0.5312  1.8393  1.2746
 1969SOL     OW17368   2.501   1.278   7.222  0.0849 -0.5405  0.1101
 1969SOL    HW117369   2.588   1.248   7.250 -0.2721 -2.5715 -0.9218
 1969SOL    HW217370   2.478   1.218   7.151 -1.7281  0.1049  0.1550
 1970SOL     OW17371   3.817   4.181  14.651 -0.1014  0.1215 -0.2007
 1970SOL    HW117372   3.727   4.183  14.617 -0.0344 -1.3410 -0.4749
 1970SOL    HW217373   3.872   4.195  14.574  2.3831 -0.4238  1.4607
 1971SOL     OW17374   4.660   2.887   1.700 -0.1141  0.1898 -0.3128
 1971SOL    HW117375   4.696   2.975   1.687 -0.1595  0.3263  0.5367
 1971SOL    HW217376   4.599   2.907   1.770  2.1517 -2.2355  2.3580
 1972SOL     OW17377   1.148   3.451  13.198 -0.2417  0.2191  0.1714
 1972SOL    HW117378   1.063   3.445  13.242  0.5502  1.4988  1.8641
 1972SOL    HW217379   1.211   3.421  13.263  1.5792  0.0541 -1.6659
 1973SOL     OW17380   2.513   2.217   2.385 -0.1485 -0.5053 -0.5662
 1973SOL    HW117381   2.485   2.144   2.441  0.1886 -1.5733 -1.7928
 1973SOL    HW217382   2.577   2.166   2.336  0.4654 -0.5273  0.2428
 1974SOL     OW17383   3.582   2.874   3.546 -0.2661 -0.2277  0.0530
 1974SOL    HW117384   3.664   2.829   3.566  0.6464  0.1880 -2.7479
 1974SOL    HW217385   3.523   2.803   3.521  1.2901 -0.6515 -2.4513
 1975SOL     OW17386   2.419   2.751   7.115  0.4365  0.5616 -0.3614
 1975SOL    HW117387   2.487   2.817   7.104 -0.4429  1.5661  0.2137
 1975SOL    HW217388   2.363   2.792   7.049  0.0843 -0.1277 -0.4990
 1976SOL     OW17389   1.065   0.809   4.296 -0.1240  0.7003 -0.9548
 1976SOL    HW117390   1.045   0.902   4.298 -0.5569  0.6284 -1.9324
 1976SOL    HW217391   1.097   0.794   4.385 -2.2164  2.0649  0.0108
 1977SOL     OW17392   3.652   2.744   1.649 -0.0376  0.1990  0.3862
 1977SOL    HW117393   3.690   2.825   1.683  0.0986  0.0495  0.5914
 1977SOL    HW217394   3.563   2.758   1.617 -0.2411  1.0324  1.3434
 1978SOL     OW17395   1.638   2.154   2.662 -0.1494 -0.3876 -0.6365
 1978SOL    HW117396   1.575   2.084   2.646 -0.3634  0.2081 -2.3210
 1978SOL    HW217397   1.640   2.157   2.758 -0.1583 -2.4803 -0.5841
 1979SOL     OW17398   1.947   3.429   7.339 -0.2984 -0.0219 -0.0116
 1979SOL    HW117399   1.918   3.377   7.264 -1.9358  1.0701 -0.1366
 1979SOL    HW217400   1.940   3.362   7.407  1.7970 -1.0530 -0.8035
 1980SOL     OW17401   0.912   3.801   1.900 -0.4807  0.1442 -0.4297
 1980SOL    HW117402   0.948   3.813   1.812  1.3837 -1.0894  0.1713
 1980SOL    HW217403   0.824   3.767   1.887 -1.3119  1.3596  1.9763
 1981SOL     OW17404   3.870   1.675   4.039 -0.1946 -0.2785  0.4693
 1981SOL    HW117405   3.914   1.655   4.121 -1.1641 -0.6815  0.8911
 1981SOL    HW217406   3.941   1.671   3.975 -2.2217 -3.5788 -1.5590
 1982SOL     OW17407   4.024   1.836   5.174  0.1297 -0.0590 -0.4352
 1982SOL    HW117408   4.004   1.839   5.080 -2.1072  1.2978  0.0879
 1982SOL    HW217409   4.074   1.916   5.188 -0.8794  0.3544  0.8050
 1983SOL     OW17410   2.973   0.977   5.485 -0.2562  0.4816 -0.3344
 1983SOL    HW117411   2.998   0.945   5.399 -3.8013 -1.2872 -0.7245
 1983SOL    HW217412   3.057   0.959   5.528 -0.0821 -0.0130 -0.8815
 1984SOL     OW17413   3.891   0.486   7.027  0.1200  0.6550 -0.3475
 1984SOL    HW117414   3.889   0.423   6.955  1.4393 -0.0964  0.2693
 1984SOL    HW217415   3.963   0.448   7.076 -0.1870  0.9412  0.3209
 1985SOL     OW17416   0.204   2.459   8.431  0.3042  0.2733 -0.2580
 1985SOL    HW117417   0.259   2.464   8.353  1.0221  0.6555  0.2813
 1985SOL    HW217418   0.204   2.549   8.464  0.6137  0.8378 -1.7914
 1986SOL     OW17419   1.214   3.786   4.243 -0.3925 -0.0412 -0.5432
 1986SOL    HW117420   1.265   3.854   4.200 -1.9396  0.4916 -1.5674
 1986SOL    HW217421   1.154   3.846   4.289 -0.9565 -0.6399 -0.4976
 1987SOL     OW17422   1.444   3.976  14.570 -0.6283 -0.2926 -0.2426
 1987SOL    HW117423   1.432   4.027  14.490  1.5361 -2.6605 -2.0946
 1987SOL    HW217424   1.374   4.012  14.624 -0.1621 -0.2602  0.3417
 1988SOL     OW17425   2.246   2.387   2.767  0.2151 -0.2631 -0.3263
 1988SOL    HW117426   2.282   2.299   2.760  2.7758  0.6810  1.1251
 1988SOL    HW217427   2.162   2.378   2.721  0.6465 -0.2827 -1.1145
 1989SOL     OW17428   1.276   3.224   5.810  0.1466  0.0081  0.0162
 1989SOL    HW117429   1.344   3.288   5.829 -0.4270  1.1512 -1.7098
 1989SOL    HW217430   1.256   3.238   5.717  2.0544 -0.3825 -0.4443
 1990SOL     OW17431   0.893   3.102   2.230  0.5227  0.0970 -0.2529
 1990SOL    HW117432   0.903   3.196   2.248 -0.2428 -0.4422  2.9213
 1990SOL    HW217433   0.949   3.065   2.299  0.0515 -1.8711 -0.9242
 1991SOL     OW17434   1.895   4.699   4.817  0.0365  0.1900 -0.2293
 1991SOL    HW117435   1.810   4.656   4.824 -1.2152  2.7414  0.3498
 1991SOL    HW217436   1.863   0.043   4.870 -2.0065 -1.2447  0.4723
 1992SOL     OW17437   0.955   1.246   8.310  0.2386  0.3535 -0.0518
 1992SOL    HW117438   0.906   1.284   8.237 -3.2025 -1.7795  1.0892
 1992SOL    HW217439   0.890   1.198   8.362  0.2656  1.4713  1.0076
 1993SOL     OW17440   4.721   3.839   6.323 -0.5219 -0.0307 -0.5313
 1993SOL    HW117441   4.698   3.917   6.374  2.4834  0.2095  0.4490
 1993SOL    HW217442   0.051   3.883   6.262 -0.6889 -0.5198 -1.0455
 1994SOL     OW17443   2.014   4.707  12.941  0.0125 -0.1732 -0.1963
 1994SOL    HW117444   2.104   0.011  12.941 -0.0991  0.1339  0.4472
 1994SOL    HW217445   2.030   4.639  13.007 -0.7819  1.3814  1.5933
 1995SOL     OW17446   3.728   1.504   6.524  0.0283  0.0334  0.1755
 1995SOL    HW117447   3.796   1.438   6.513 -1.5241 -1.3459 -1.2675
 1995SOL    HW217448   3.678   1.491   6.442  1.0367  2.8700 -0.8911
 1996SOL     OW17449   4.722   1.231   7.626  0.3250 -0.3495 -0.0428
 1996SOL    HW117450   4.639   1.203   7.587  0.0741  0.7492 -0.3245
 1996SOL    HW217451   4.696   1.276   7.706 -2.0250  1.2284 -1.6686
 1997SOL     OW17452   4.371   3.151  15.192 -0.2930  0.0924 -0.0065
 1997SOL    HW117453   4.297   3.193  15.237 -2.7678 -0.7750 -3.2204
 1997SOL    HW217454   4.322   3.071  15.170 -2.9967  1.4868  0.9138
 1998SOL     OW17455   1.489   0.980  15.532 -0.3809 -0.2731  0.7026
 1998SOL    HW117456   1.551   0.924  15.579  1.0689 -0.0677 -0.9682
 1998SOL    HW217457   1.419   0.915  15.526 -1.1311  0.5442  0.5179
 1999SOL     OW17458   2.380   3.154   5.814  0.0958  0.1499  0.3683
 1999SOL    HW117459   2.418   3.231   5.772 -1.0162  1.1967  1.2972
 1999SOL    HW217460   2.318   3.205   5.866 -0.3898  1.2628 -1.2822
 2000SOL     OW17461   1.597   1.566   7.690  0.0330  0.5631  0.3638
 2000SOL    HW117462   1.664   1.497   7.687 -0.5451  0.0065  0.2710
 2000SOL    HW217463   1.512   1.525   7.675  1.3747 -1.1204 -2.6037
 2001SOL     OW17464   0.684   4.400   8.707  0.5444 -0.4202  0.0506
 2001SOL    HW117465   0.655   4.479   8.661 -0.8569 -0.3907  0.9794
 2001SOL    HW217466   0.636   4.329   8.666  0.3887  0.2848 -0.9945
 2002SOL     OW17467   1.574   3.537   0.588  0.1392 -0.4340  0.1459
 2002SOL    HW117468   1.500   3.561   0.643  1.4647  0.3769  1.5810
 2002SOL    HW217469   1.535   3.530   0.501  0.8830 -0.0178 -0.2238
 2003SOL     OW17470   2.151   2.607   8.702 -0.1333 -0.2033 -0.3194
 2003SOL    HW117471   2.185   2.696   8.690  3.0948 -1.3713  0.0855
 2003SOL    HW217472   2.070   2.622   8.751  1.7705 -0.0517  2.8591
 2004SOL     OW17473   2.585   1.054   9.652 -0.4293  0.3055 -0.2297
 2004SOL    HW117474   2.653   1.062   9.718  1.4923  2.5125 -2.5129
 2004SOL    HW217475   2.638   1.020   9.581 -0.9260  1.1810 -1.0198
 2005SOL     OW17476   4.134   2.330   2.557  0.2053 -0.2777  0.2007
 2005SOL    HW117477   4.176   2.337   2.471 -0.5927 -1.1972 -0.2725
 2005SOL    HW217478   4.210   2.345   2.613  0.3187  1.6453 -0.4813
 2006SOL     OW17479   4.099   2.259  15.650  0.2079  0.3820 -0.0913
 2006SOL    HW117480   4.146   2.343  15.648  0.0136  0.3737 -3.6853
 2006SOL    HW217481   4.158   2.197  15.693  1.0945  0.8162 -0.6881
 2007SOL     OW17482   4.721   2.213   7.635  0.3332 -0.1134 -0.0898
 2007SOL    HW117483   4.652   2.165   7.590 -0.6587  0.2049  1.0738
 2007SOL    HW217484   4.672   2.286   7.674  0.9508 -0.0361  0.5420
 2008SOL     OW17485   2.026   2.319   6.783 -0.0479  0.3464  0.0283
 2008SOL    HW117486   2.034   2.236   6.831 -0.3610  0.9905  1.1948
 2008SOL    HW217487   2.037   2.282   6.695  2.2406  0.9647  0.0542
 2009SOL     OW17488   1.465   0.284   1.811 -0.1234 -0.4957  0.2005
 2009SOL    HW117489   1.432   0.197   1.790 -0.4347 -1.0568  3.0588
 2009SOL    HW217490   1.456   0.334   1.730  0.2428 -0.3568  0.2449
 2010SOL     OW17491   3.722   4.034  10.341  0.5978 -0.3574 -0.1677
 2010SOL    HW117492   3.771   4.101  10.387 -0.6012 -0.9858  2.0121
 2010SOL    HW217493   3.694   4.082  10.262 -1.7072 -0.6572  0.4468
 2011SOL     OW17494   0.802   0.243  17.335 -0.1302  0.2079  0.1402
 2011SOL    HW117495   0.823   0.253  17.242  1.8687 -0.3823  0.5126
 2011SOL    HW217496   0.891   0.269  17.360  0.3711 -0.6092 -0.8157
 2012SOL     OW17497   3.946   3.101  12.937  0.2356 -0.1173 -0.6037
 2012SOL    HW117498   3.919   3.012  12.916 -0.1671 -0.4880  1.4923
 2012SOL    HW217499   4.021   3.118  12.881  0.7108 -1.4777 -0.3594
 2013SOL     OW17500   1.278   3.329   7.812  0.2516 -0.4864 -0.0653
 2013SOL    HW117501   1.363   3.293   7.838  0.4270 -1.5235 -2.1211
 2013SOL    HW217502   1.244   3.346   7.900 -0.2430 -1.0456 -0.1535
 2014SOL     OW17503   3.145   3.108   4.612  0.0450  0.6475  0.7063
 2014SOL    HW117504   3.099   3.142   4.535 -1.4376  1.5908  2.0205
 2014SOL    HW217505   3.219   3.169   4.616 -0.1902  0.9233  0.8418
 2015SOL     OW17506   0.656   0.925   3.055 -0.6000 -0.1892  0.1006
 2015SOL    HW117507   0.704   0.859   3.006 -0.8939 -0.1090 -0.2962
 2015SOL    HW217508   0.620   0.978   2.984  0.8687  2.5617  1.3889
 2016SOL     OW17509   0.998   2.381   0.006  0.8027 -0.3603 -0.3992
 2016SOL    HW117510   1.031   2.307  17.672  0.6470 -0.4961 -0.2998
 2016SOL    HW217511   0.920   2.350   0.052  1.1097  0.8523  0.9428
 2017SOL     OW17512   3.038   1.658   5.306  0.2572  0.1513  0.5068
 2017SOL    HW117513   2.974   1.673   5.375 -0.9818  1.8684 -0.9994
 2017SOL    HW217514   3.064   1.748   5.287 -0.7571  0.3315 -0.0532
 2018SOL     OW17515   1.545   3.899  16.117 -0.0735  0.3740  0.1504
 2018SOL    HW117516   1.594   3.978  16.141 -0.7005  0.7136  0.3143
 2018SOL    HW217517   1.608   3.855  16.061 -1.2938  0.2045 -1.0932
 2019SOL     OW17518   3.036   2.399   1.629  0.2572  0.3280  0.2887
 2019SOL    HW117519   2.963   2.353   1.587  1.4501 -2.4759  1.2248
 2019SOL    HW217520   3.021   2.483   1.587  0.2334  1.4281  2.4711
 2020SOL     OW17521   2.663   2.745   4.760 -0.1007  0.1139  0.1607
 2020SOL    HW117522   2.618   2.701   4.832 -0.8171 -1.9635 -1.5536
 2020SOL    HW217523   2.673   2.831   4.801  0.7604  0.7614 -1.4067
 2021SOL     OW17524   2.005   2.636  12.165  0.1613  0.1458  0.2522
 2021SOL    HW117525   2.050   2.609  12.085  1.0616 -0.5692  0.9921
 2021SOL    HW217526   1.939   2.695  12.130  1.9157  0.3639 -2.7669
 2022SOL     OW17527   1.687   0.038  12.162  0.0080 -0.0006  0.4734
 2022SOL    HW117528   1.650   0.126  12.157 -3.4905 -1.4464  1.1118
 2022SOL    HW217529   1.665   0.014  12.252 -0.1969 -0.6225  0.2563
 2023SOL     OW17530   1.096   0.304   2.157 -0.2457 -0.0256  0.0312
 2023SOL    HW117531   1.128   0.376   2.103 -1.2246  0.3371 -0.0678
 2023SOL    HW217532   1.127   0.341   2.240 -1.9943 -2.1928  1.6488
 2024SOL     OW17533   1.154   0.664   6.791  0.4305 -0.3249 -0.0919
 2024SOL    HW117534   1.169   0.587   6.845  1.1013  0.2063  0.4763
 2024SOL    HW217535   1.221   0.723   6.825  1.8755 -1.2397 -1.3274
 2025SOL     OW17536   1.547   2.086  13.097  0.0490 -0.2462 -0.2655
 2025SOL    HW117537   1.454   2.108  13.094  0.0911  0.3429  3.0175
 2025SOL    HW217538   1.574   2.169  13.058  0.5048  0.5421  1.7327
 2026SOL     OW17539   1.102   4.141   3.969 -0.2350 -0.1604 -0.2524
 2026SOL    HW117540   1.025   4.140   3.911  0.4698 -3.0014 -1.1158
 2026SOL    HW217541   1.069   4.107   4.052  0.9078 -1.6742 -0.4381
 2027SOL     OW17542   4.097   2.671   1.934  0.2856  0.2760 -0.0446
 2027SOL    HW117543   4.107   2.579   1.956 -0.1404  0.3732  0.5621
 2027SOL    HW217544   4.169   2.710   1.984 -0.2562 -0.6819  1.4915
 2028SOL     OW17545   0.534   1.802  15.836 -0.5915  0.4871 -0.3061
 2028SOL    HW117546   0.463   1.762  15.887  0.6949 -2.9696 -1.2265
 2028SOL    HW217547   0.591   1.832  15.907  0.0397  2.4184 -1.6242
 2029SOL     OW17548   2.846   1.100   0.111  0.1895  0.3097 -0.0020
 2029SOL    HW117549   2.932   1.069   0.138  0.1825 -0.1794 -0.5608
 2029SOL    HW217550   2.838   1.164   0.182 -2.1162 -1.0370  0.9585
 2030SOL     OW17551   0.748   1.573   2.653  0.4541  0.4233 -0.0248
 2030SOL    HW117552   0.811   1.573   2.581 -1.1599  1.0154 -1.4229
 2030SOL    HW217553   0.731   1.479   2.648 -1.5253  0.6790  1.9992
 2031SOL     OW17554   0.253   3.096  15.822  0.1440  0.3290 -0.3122
 2031SOL    HW117555   0.184   3.122  15.883 -0.3529  1.0143 -1.1669
 2031SOL    HW217556   0.297   3.180  15.808  1.4670 -0.3763 -0.4504
 2032SOL     OW17557   2.559   3.200   9.067 -0.6411 -0.8788 -0.6587
 2032SOL    HW117558   2.479   3.240   9.102 -0.2479 -0.8760  0.2345
 2032SOL    HW217559   2.598   3.162   9.146  1.4323  0.8038 -0.8950
 2033SOL     OW17560   4.061   2.429   4.930 -0.1950  0.0594  0.0533
 2033SOL    HW117561   3.992   2.475   4.883 -0.2997 -0.4291 -0.2763
 2033SOL    HW217562   4.109   2.401   4.852  0.8636 -0.5422  0.9194
 2034SOL     OW17563   4.177   3.815   1.634  0.5286  0.0568  0.1687
 2034SOL    HW117564   4.270   3.828   1.654  0.7990 -0.1567 -0.9916
 2034SOL    HW217565   4.169   3.723   1.657 -0.4407  0.8022  2.8317
 2035SOL     OW17566   4.222   1.236  10.816  0.1382  0.1571  0.1756
 2035SOL    HW117567   4.258   1.312  10.770 -0.8085 -0.2966 -1.3327
 2035SOL    HW217568   4.282   1.229  10.889  0.7331 -0.5818 -0.3868
 2036SOL     OW17569   1.296   1.572   5.404  0.3939 -0.0128  0.1731
 2036SOL    HW117570   1.284   1.542   5.314 -0.3960 -2.3496  1.0573
 2036SOL    HW217571   1.294   1.667   5.391  0.9709  0.1414  1.2235
 2037SOL     OW17572   0.563   1.482   3.498 -0.2007 -0.2881 -0.0371
 2037SOL    HW117573   0.630   1.414   3.498  0.9717  0.8663 -1.6317
 2037SOL    HW217574   0.613   1.563   3.493 -0.8100  0.0221 -0.9859
 2038SOL     OW17575   4.536   4.364   7.907  0.0494  0.5902 -0.6172
 2038SOL    HW117576   4.610   4.373   7.846  0.1338  1.0047 -0.4514
 2038SOL    HW217577   4.549   4.441   7.962 -0.1884  0.1045  0.1076
 2039SOL     OW17578   4.011   2.254  11.854  0.3311  0.4349 -0.1394
 2039SOL    HW117579   3.940   2.240  11.791  0.2083  0.9129 -0.1039
 2039SOL    HW217580   4.054   2.330  11.816 -0.5976  0.9586 -0.1432
 2040SOL     OW17581   1.677   4.344   0.548 -0.0429 -0.1383 -0.0891
 2040SOL    HW117582   1.635   4.359   0.463 -0.1204 -0.1515 -0.0534
 2040SOL    HW217583   1.636   4.261   0.573 -1.3437  0.7563  0.7545
 2041SOL     OW17584   0.115   0.344   9.804 -0.0270  0.0910 -0.0158
 2041SOL    HW117585   0.113   0.378   9.893  2.3932  2.2730 -0.7795
 2041SOL    HW217586   0.144   0.254   9.821 -3.6328 -0.9031  0.8336
 2042SOL     OW17587   1.991   2.501  11.233 -0.0448  0.0975 -0.0134
 2042SOL    HW117588   2.078   2.461  11.240 -0.6771 -1.2108  0.2545
 2042SOL    HW217589   1.986   2.506  11.138 -0.4549  1.4050  0.0772
 2043SOL     OW17590   3.352   3.320   4.969  0.5627 -0.2740  0.3181
 2043SOL    HW117591   3.330   3.366   5.050 -1.9674  1.5829 -1.4367
 2043SOL    HW217592   3.266   3.294   4.935  0.0731  0.9051  0.6803
 2044SOL     OW17593   2.452   2.452   9.373  0.2624  0.4059 -0.3986
 2044SOL    HW117594   2.396   2.394   9.424 -2.2862  1.6922 -1.7406
 2044SOL    HW217595   2.471   2.392   9.300 -1.1074  0.0820 -0.4938
 2045SOL     OW17596   2.320   2.089   6.860  0.4841 -0.6054  0.2302
 2045SOL    HW117597   2.373   2.048   6.928 -1.1036 -2.6971  0.2104
 2045SOL    HW217598   2.233   2.095   6.898  0.0933  0.0636 -0.7613
 2046SOL     OW17599   2.772   0.065  17.379  0.0304  0.6646 -0.0464
 2046SOL    HW117600   2.750   0.136  17.440  0.0077  0.7519 -0.1566
 2046SOL    HW217601   2.801   0.120  17.306 -0.4719  0.2536 -0.5516
 2047SOL     OW17602   1.503   2.386   0.789 -0.2426 -0.3247  0.4815
 2047SOL    HW117603   1.535   2.407   0.701  1.5642  0.8619  1.4211
 2047SOL    HW217604   1.509   2.291   0.792  0.1528 -0.3251 -0.4340
 2048SOL     OW17605   0.640   1.417   4.684 -0.1084  0.2278  0.3446
 2048SOL    HW117606   0.558   1.371   4.668  0.7654 -0.9460 -0.7675
 2048SOL    HW217607   0.692   1.347   4.724 -0.3322 -0.2880 -0.2718
 2049SOL     OW17608   1.169   3.715  13.292 -0.3470  0.0517  0.3134
 2049SOL    HW117609   1.172   3.634  13.241 -0.0159  0.7738 -0.8150
 2049SOL    HW217610   1.261   3.739  13.285 -0.4027  0.2787  0.3530
 2050SOL     OW17611   1.380   0.882   5.948 -0.0365 -0.6990  0.3891
 2050SOL    HW117612   1.332   0.851   6.025  0.8983 -0.2105  1.1650
 2050SOL    HW217613   1.466   0.845   5.968  1.4769  1.3088 -2.4945
 2051SOL     OW17614   2.136   0.637   8.947 -0.5276  0.5702 -0.1606
 2051SOL    HW117615   2.172   0.640   9.035 -4.2019  0.0266  1.3688
 2051SOL    HW217616   2.183   0.562   8.910 -0.8797  1.0411 -1.5934
 2052SOL     OW17617   4.653   1.972   1.465 -0.4044  0.4616  0.0290
 2052SOL    HW117618   4.559   1.954   1.470  0.3341 -2.9048  2.0211
 2052SOL    HW217619   4.662   2.014   1.380  0.6920  0.4944  0.1600
 2053SOL     OW17620   1.495   1.906   8.068 -0.1558  0.5672 -0.0960
 2053SOL    HW117621   1.522   1.843   8.135  0.7538  0.1235 -0.8851
 2053SOL    HW217622   1.526   1.859   7.991 -0.2084  0.3123  0.0365
 2054SOL     OW17623   3.409   2.550   7.101 -0.1923 -0.2663 -0.4373
 2054SOL    HW117624   3.354   2.492   7.047 -0.6999 -2.1043  2.0886
 2054SOL    HW217625   3.347   2.585   7.165 -1.1017 -0.1673 -1.3557
 2055SOL     OW17626   2.439   2.312   9.110  0.2983 -0.2573  0.8008
 2055SOL    HW117627   2.473   2.347   9.028  1.5689  0.6311  1.7196
 2055SOL    HW217628   2.345   2.330   9.110  0.3264 -0.2173  2.7255
 2056SOL     OW17629   2.725   4.152   8.752  0.6853 -0.4643  0.0754
 2056SOL    HW117630   2.746   4.165   8.844 -0.7499 -1.1723  0.4967
 2056SOL    HW217631   2.670   4.229   8.737 -1.0997 -1.5585  1.0146
 2057SOL     OW17632   1.715   4.067  15.324 -0.6048 -0.0181  0.0698
 2057SOL    HW117633   1.771   4.144  15.329  1.7970 -1.8371  0.8688
 2057SOL    HW217634   1.672   4.105  15.247  3.3029  0.2319 -1.9566
 2058SOL     OW17635   4.534   2.159   0.960  0.3933 -0.5121  0.2901
 2058SOL    HW117636   4.463   2.103   0.929  1.5820 -3.0891  2.1301
 2058SOL    HW217637   4.590   2.180   0.886  1.1496 -2.1136  0.3967
 2059SOL     OW17638   2.592   2.476  16.591 -0.2185  0.5742  0.5354
 2059SOL    HW117639   2.618   2.498  16.681  1.0399 -2.0981  0.7984
 2059SOL    HW217640   2.658   2.534  16.552  0.4154  0.1989  1.0516
 2060SOL     OW17641   4.283   1.780   2.884 -0.0399  0.0605  0.3921
 2060SOL    HW117642   4.330   1.708   2.843 -0.8576 -0.6169  0.6432
 2060SOL    HW217643   4.292   1.750   2.975  1.0688  0.5676  0.4490
 2061SOL     OW17644   0.514   3.187   4.200 -0.3761 -0.6150 -0.0055
 2061SOL    HW117645   0.496   3.093   4.208 -0.2733 -0.7569 -1.5187
 2061SOL    HW217646   0.443   3.219   4.257 -0.5387  3.1694 -2.3456
 2062SOL     OW17647   3.510   1.445  12.805 -0.0153  0.3776 -0.5497
 2062SOL    HW117648   3.580   1.483  12.858 -0.9332  0.3170  0.7195
 2062SOL    HW217649   3.429   1.467  12.851 -0.5590  0.7978 -1.7166
 2063SOL     OW17650   1.147   4.362   0.523  0.1565 -0.0287 -0.1339
 2063SOL    HW117651   1.111   4.274   0.513  0.1525 -0.0005 -0.3626
 2063SOL    HW217652   1.188   4.352   0.609  0.5930  1.3568 -0.1810
 2064SOL     OW17653   1.103   0.084  14.994 -0.2610  0.3147 -0.3511
 2064SOL    HW117654   1.099   0.161  15.051 -3.2920  0.6226 -0.9806
 2064SOL    HW217655   1.171   0.112  14.933  0.9828  2.2816  1.9536
 2065SOL     OW17656   2.330   0.513  10.589 -0.0786  0.0194 -0.3141
 2065SOL    HW117657   2.235   0.518  10.597 -0.0270 -0.4408  0.5126
 2065SOL    HW217658   2.352   0.605  10.602 -1.1635  0.1621  0.4510
 2066SOL     OW17659   3.687   3.572   1.355 -0.0318 -0.0164  0.3634
 2066SOL    HW117660   3.666   3.587   1.263 -3.7757  0.4787  1.3090
 2066SOL    HW217661   3.645   3.486   1.354 -1.5472  0.7392 -0.6391
 2067SOL     OW17662   2.150   3.063   4.139 -0.7942  0.2166  0.7154
 2067SOL    HW117663   2.114   3.037   4.224  1.7763 -1.6994  1.2044
 2067SOL    HW217664   2.209   2.990   4.121  0.0923  1.9193 -3.2357
 2068SOL     OW17665   1.765   2.407   6.326 -0.2620 -0.4051  0.3925
 2068SOL    HW117666   1.859   2.388   6.319 -0.1358  0.2197  0.4243
 2068SOL    HW217667   1.726   2.319   6.324  0.5928 -0.7869  0.3319
 2069SOL     OW17668   1.860   3.303   9.895 -0.9034  0.3729 -0.3490
 2069SOL    HW117669   1.836   3.212   9.917  0.2100  0.0450 -0.4711
 2069SOL    HW217670   1.944   3.296   9.941 -1.4416 -1.3298  0.3797
 2070SOL     OW17671   3.198   4.011   2.635  0.3085 -0.0057  0.1153
 2070SOL    HW117672   3.254   3.971   2.569  1.2463 -1.1763  1.6279
 2070SOL    HW217673   3.129   4.039   2.575  0.7715  1.6587  0.3771
 2071SOL     OW17674   2.906   0.717   2.175 -0.1283 -0.5998  0.2424
 2071SOL    HW117675   2.961   0.639   2.170 -1.7721 -1.7920  0.7104
 2071SOL    HW217676   2.835   0.715   2.111  1.8944 -1.2951 -1.9650
 2072SOL     OW17677   3.398   4.107  14.330 -0.3302 -0.6946  0.3208
 2072SOL    HW117678   3.331   4.045  14.357  0.0606 -0.9116  0.7801
 2072SOL    HW217679   3.391   4.116  14.234 -1.6398 -2.1655  0.2773
 2073SOL     OW17680   2.236   3.992   6.063  0.0978  0.4653  0.7838
 2073SOL    HW117681   2.227   3.907   6.107  1.2751 -0.3189 -0.4919
 2073SOL    HW217682   2.177   4.043   6.118  0.3128  0.6244  0.8706
 2074SOL     OW17683   1.040   2.548   7.869 -0.3853 -1.1188  0.0493
 2074SOL    HW117684   0.946   2.535   7.855 -0.4881 -1.1102  0.7614
 2074SOL    HW217685   1.051   2.621   7.930  0.5746  1.4644 -3.1721
 2075SOL     OW17686   2.765   2.431   9.282  0.2460  0.2844  0.5218
 2075SOL    HW117687   2.751   2.357   9.222 -1.5609 -0.0902  1.3848
 2075SOL    HW217688   2.859   2.446   9.288  0.3587  0.9725 -2.8494
 2076SOL     OW17689   0.948   0.503  10.289 -0.2106 -0.4828  0.0916
 2076SOL    HW117690   0.945   0.535  10.198  0.3646 -1.9617 -0.4517
 2076SOL    HW217691   0.913   0.578  10.337 -2.6631 -0.5921 -1.4861
 2077SOL     OW17692   1.938   4.052   4.357  0.5872  0.2872 -0.0511
 2077SOL    HW117693   1.894   4.128   4.396 -0.0040  0.3328 -0.7994
 2077SOL    HW217694   2.010   4.042   4.418  0.7578  1.1438 -0.1086
 2078SOL     OW17695   4.454   2.033  17.701  0.3864 -0.2905  0.6103
 2078SOL    HW117696   4.473   1.948  17.661 -0.3714  0.9353 -2.2801
 2078SOL    HW217697   4.534   2.084  17.691 -0.0874  0.1543 -0.7768
 2079SOL     OW17698   3.134   1.307   2.799  0.3540 -0.2690  0.6234
 2079SOL    HW117699   3.094   1.300   2.712 -2.6282  1.2931  1.8884
 2079SOL    HW217700   3.085   1.234   2.837 -2.3860  0.0726 -2.2498
 2080SOL     OW17701   1.965   4.431   8.401 -0.9194  0.1040  0.4133
 2080SOL    HW117702   2.009   4.413   8.484 -0.3667 -0.7410 -0.0736
 2080SOL    HW217703   1.942   4.524   8.406  1.2991  0.6801 -0.2516
 2081SOL     OW17704   0.381   1.331   2.553 -0.0017  0.4599  0.4287
 2081SOL    HW117705   0.342   1.249   2.584  2.6443  0.0670  2.7284
 2081SOL    HW217706   0.393   1.305   2.462 -3.7931 -0.0731  0.0725
 2082SOL     OW17707   0.278   2.526   1.241 -0.0079 -1.0998 -0.0432
 2082SOL    HW117708   0.205   2.466   1.256  0.4501 -0.9466  2.6926
 2082SOL    HW217709   0.338   2.464   1.197  1.1974  0.7034 -0.9237
 2083SOL     OW17710   3.895   1.031   8.646  0.2630  0.0000  0.0741
 2083SOL    HW117711   3.969   0.972   8.632 -0.8897 -1.6961  1.1304
 2083SOL    HW217712   3.860   0.995   8.727  0.5193  1.7872  0.9825
 2084SOL     OW17713   1.303   0.249  14.914 -0.0799 -0.2821 -0.0262
 2084SOL    HW117714   1.269   0.304  14.984  1.8170  1.7111 -0.6665
 2084SOL    HW217715   1.319   0.310  14.842 -0.5488 -0.4622 -0.2796
 2085SOL     OW17716   1.341   0.823   8.472 -0.4002 -0.3812  0.4129
 2085SOL    HW117717   1.414   0.840   8.533 -0.0808  1.2773 -0.4439
 2085SOL    HW217718   1.294   0.905   8.484 -2.5015 -1.4009 -0.9147
 2086SOL     OW17719   1.003   1.599   2.477  0.4368 -0.0757  0.0643
 2086SOL    HW117720   0.968   1.623   2.391 -1.8647  1.5649  1.4626
 2086SOL    HW217721   1.048   1.516   2.463  1.4630  0.4560  0.1713
 2087SOL     OW17722   1.018   2.091   9.172 -0.4267 -0.6544  0.3460
 2087SOL    HW117723   0.976   2.095   9.259 -0.9783 -0.8406  0.0918
 2087SOL    HW217724   0.940   2.107   9.119 -0.1557  0.9985  0.4478
 2088SOL     OW17725   3.194   3.450   1.640 -0.0536  0.9145 -0.0019
 2088SOL    HW117726   3.199   3.416   1.551 -1.0817  2.6073 -0.7217
 2088SOL    HW217727   3.121   3.511   1.628 -1.4253 -0.6826  0.1438
 2089SOL     OW17728   1.498   3.273  16.994 -0.1939 -0.2984  0.0062
 2089SOL    HW117729   1.460   3.197  16.950  1.4628 -1.3670  0.4348
 2089SOL    HW217730   1.553   3.230  17.060 -0.4669 -0.4325  0.1456
 2090SOL     OW17731   2.143   4.450  17.485 -0.0892 -0.5592 -0.0998
 2090SOL    HW117732   2.198   4.506  17.430  1.1506 -0.6653  1.0065
 2090SOL    HW217733   2.204   4.433  17.557 -1.1484 -3.2486  0.1456
 2091SOL     OW17734   1.168   2.017   3.511  0.1247 -0.6674 -0.3345
 2091SOL    HW117735   1.079   1.992   3.537  1.3555 -0.0607  4.5197
 2091SOL    HW217736   1.158   2.032   3.417  2.9157  0.6104 -0.4237
 2092SOL     OW17737   4.309   4.042   7.739 -0.3823  0.2420  0.5321
 2092SOL    HW117738   4.307   4.036   7.834 -0.4336  1.4111  0.6042
 2092SOL    HW217739   4.290   4.136   7.741 -2.6309 -0.1817 -0.6820
 2093SOL     OW17740   0.297   3.383   8.396  0.5129 -0.0879  0.2576
 2093SOL    HW117741   0.286   3.303   8.345 -0.8452  0.5703 -0.4764
 2093SOL    HW217742   0.356   3.439   8.345  0.9961  0.6788  1.6423
 2094SOL     OW17743   1.616   4.172   7.067 -0.2688 -0.2460  0.4798
 2094SOL    HW117744   1.690   4.219   7.029 -1.2850  0.6806 -0.3651
 2094SOL    HW217745   1.633   4.180   7.161  1.5070  0.1905  0.1344
 2095SOL     OW17746   1.915   1.203   9.326  0.4159 -0.3589 -0.7894
 2095SOL    HW117747   1.864   1.226   9.404  0.5633  1.5300 -1.2519
 2095SOL    HW217748   1.952   1.120   9.357 -2.2205 -0.6796  1.4944
 2096SOL     OW17749   1.042   1.537   5.017 -0.2298  0.2908  0.1370
 2096SOL    HW117750   1.135   1.525   5.039  0.4474  0.5965 -2.5663
 2096SOL    HW217751   1.036   1.632   5.010 -1.0941  0.1615 -0.7786
 2097SOL     OW17752   1.519   4.446   2.270 -0.6640 -0.3200 -0.3859
 2097SOL    HW117753   1.444   4.436   2.211  1.0484  0.7109 -2.7478
 2097SOL    HW217754   1.592   4.424   2.212 -0.3000 -3.8445  1.3937
 2098SOL     OW17755   1.188   3.226   6.432 -0.3406 -0.7732  0.2036
 2098SOL    HW117756   1.240   3.304   6.448 -1.9424  0.5693 -1.1371
 2098SOL    HW217757   1.179   3.245   6.339  2.9537 -2.3138 -0.4365
 2099SOL     OW17758   4.342   0.852   9.085 -0.3062 -0.3175  0.5849
 2099SOL    HW117759   4.403   0.907   9.134  1.2137  0.1431 -1.8224
 2099SOL    HW217760   4.381   0.770   9.114  1.3849  0.5052  0.6305
 2100SOL     OW17761   0.923   1.964   9.924  0.3537  0.3737 -0.2614
 2100SOL    HW117762   0.874   2.008   9.854 -0.3516 -1.7920 -1.1295
 2100SOL    HW217763   0.977   2.033   9.963 -0.5913 -0.2414  2.1599
 2101SOL     OW17764   1.735   0.676   1.678 -0.3916  0.0062  0.2149
 2101SOL    HW117765   1.709   0.766   1.658  0.8443  0.8803  2.4922
 2101SOL    HW217766   1.828   0.672   1.658  0.2591  0.9891  3.0181
 2102SOL     OW17767   3.072   4.189   9.240  0.6799 -0.1346 -0.2108
 2102SOL    HW117768   3.088   4.101   9.274 -1.2975 -0.5924 -0.4844
 2102SOL    HW217769   3.137   4.239   9.289 -0.0152  0.8904 -0.3502
 2103SOL     OW17770   4.654   0.029   1.898 -0.0363  0.1011 -0.3770
 2103SOL    HW117771   4.604   0.017   1.979  1.6232  1.1537  0.7974
 2103SOL    HW217772   4.717   4.687   1.908  0.0074  0.2846  0.6966
 2104SOL     OW17773   2.803   1.774   8.263  0.0169 -0.0478 -0.0344
 2104SOL    HW117774   2.748   1.721   8.321  1.8226  0.7006  2.3696
 2104SOL    HW217775   2.886   1.757   8.309 -0.5625 -1.0865  0.6323
 2105SOL     OW17776   3.404   3.212   6.526  0.3631  0.1831 -0.0654
 2105SOL    HW117777   3.339   3.223   6.457 -0.2364  0.3674  0.5296
 2105SOL    HW217778   3.465   3.279   6.495 -1.7104  1.4919 -1.2937
 2106SOL     OW17779   3.615   3.556   3.332 -0.9527  0.1408  0.1128
 2106SOL    HW117780   3.704   3.556   3.367 -0.9295 -0.3351  0.0508
 2106SOL    HW217781   3.588   3.465   3.337  0.4815 -0.2476  0.6243
 2107SOL     OW17782   2.171   1.319   3.883 -0.5270 -0.1928 -0.1325
 2107SOL    HW117783   2.196   1.403   3.845 -2.3016  0.2384 -0.3649
 2107SOL    HW217784   2.215   1.259   3.824 -2.2775 -0.4037 -1.2370
 2108SOL     OW17785   0.277   0.958  16.805  0.1701 -0.4341 -0.1697
 2108SOL    HW117786   0.356   1.007  16.827  0.2759 -1.5072  1.8986
 2108SOL    HW217787   0.276   0.975  16.711 -1.1253 -1.3412 -0.3212
 2109SOL     OW17788   3.633   2.830  10.058 -0.2259  0.9223  0.0708
 2109SOL    HW117789   3.600   2.895  10.119  1.0919  2.6026 -1.0219
 2109SOL    HW217790   3.617   2.753  10.113  0.4128  0.4335 -0.4318
 2110SOL     OW17791   1.250   3.333   4.640 -0.2021  0.1341 -0.0875
 2110SOL    HW117792   1.189   3.400   4.669 -1.3397  0.0273 -2.2078
 2110SOL    HW217793   1.215   3.310   4.554  1.4530  1.6681 -1.1747
 2111SOL     OW17794   3.535   3.283   3.471 -0.0192  0.3276 -0.7129
 2111SOL    HW117795   3.588   3.205   3.492 -1.0338 -0.2724 -0.3885
 2111SOL    HW217796   3.466   3.279   3.536 -0.3213 -1.7743 -1.1428
 2112SOL     OW17797   1.585   4.603   6.099  0.5523 -0.3053  0.0014
 2112SOL    HW117798   1.619   4.514   6.096  1.9379  0.2480 -0.6120
 2112SOL    HW217799   1.657   4.656   6.066 -0.0140 -0.6286 -1.7424
 2113SOL     OW17800   0.361   0.257   4.767  0.2262 -0.3613 -0.1959
 2113SOL    HW117801   0.380   0.246   4.674 -3.7463 -0.6031 -0.9943
 2113SOL    HW217802   0.269   0.230   4.764 -0.1263  0.5142  2.4729
 2114SOL     OW17803   3.227   1.910  13.112  0.0582 -0.4435  0.0562
 2114SOL    HW117804   3.302   1.872  13.065 -0.4394 -0.4028 -0.7748
 2114SOL    HW217805   3.163   1.917  13.041  0.4297 -0.5652 -0.2947
 2115SOL     OW17806   0.895   3.246   8.167  0.1185 -0.4970  0.0519
 2115SOL    HW117807   0.938   3.273   8.248 -1.3631  0.1049  0.6254
 2115SOL    HW217808   0.871   3.159   8.199  0.5620 -0.3312  0.8459
 2116SOL     OW17809   4.127   4.572   4.058  0.8524 -0.1410  0.4096
 2116SOL    HW117810   4.054   4.531   4.105  0.6023  1.2981  1.2668
 2116SOL    HW217811   4.100   4.556   3.967  1.8545  0.4722  0.0139
 2117SOL     OW17812   0.093   1.116   8.995 -0.6306 -0.2307  0.3971
 2117SOL    HW117813   0.066   1.051   9.060 -0.0836 -0.3653  0.4896
 2117SOL    HW217814   0.112   1.063   8.918 -2.4518 -0.9788  0.4613
 2118SOL     OW17815   3.055   3.037  13.205  0.2357 -0.5597  0.3451
 2118SOL    HW117816   3.089   2.948  13.203 -1.1948 -1.1237  1.1030
 2118SOL    HW217817   3.037   3.047  13.299 -1.3571 -3.0658  0.3153
 2119SOL     OW17818   4.680   4.717  13.460 -0.2667 -0.3435  0.3901
 2119SOL    HW117819   4.610   0.041  13.498  0.8655  0.7135  0.9945
 2119SOL    HW217820   0.008   4.708  13.536 -0.4567  0.4137  0.6279
 2120SOL     OW17821   0.636   3.584  11.516 -0.2043  0.2177  0.2516
 2120SOL    HW117822   0.655   3.513  11.454 -0.7247 -1.7019  2.3118
 2120SOL    HW217823   0.543   3.576  11.537 -0.2295 -0.1590  0.0012
 2121SOL     OW17824   4.689   2.827   8.623 -0.1235 -0.1143 -0.3058
 2121SOL    HW117825   4.705   2.814   8.717  0.6226  1.5145 -0.2112
 2121SOL    HW217826   0.006   2.910   8.611 -2.6758  1.3108 -0.3787
 2122SOL     OW17827   3.142   3.470   4.754  0.6192  0.1643  0.3637
 2122SOL    HW117828   3.085   3.459   4.678  0.8795 -1.3961  0.3985
 2122SOL    HW217829   3.186   3.388   4.776  0.1349 -0.5730 -1.4207
 2123SOL     OW17830   3.049   3.331  15.897  0.5455 -0.2360  0.1708
 2123SOL    HW117831   3.102   3.264  15.941  1.2998 -0.8762 -1.7226
 2123SOL    HW217832   3.022   3.380  15.975  1.6694 -2.2739  1.8448
 2124SOL     OW17833   0.258   0.777   7.862 -0.1429 -0.0884  0.1795
 2124SOL    HW117834   0.183   0.824   7.826 -1.1134 -0.3633  1.8756
 2124SOL    HW217835   0.263   0.701   7.804 -1.4660 -0.9910  1.2754
 2125SOL     OW17836   3.250   0.247  11.892  0.0107  0.3445 -0.3221
 2125SOL    HW117837   3.317   0.305  11.855  1.5948  1.5309  4.4451
 2125SOL    HW217838   3.279   0.237  11.982 -2.2514 -1.6793  0.1747
 2126SOL     OW17839   2.782   4.261   8.999  0.1619  0.1505 -0.1972
 2126SOL    HW117840   2.740   4.318   9.064 -1.4771 -2.0940  0.6941
 2126SOL    HW217841   2.761   4.175   9.035 -1.2583  0.6549  0.1868
 2127SOL     OW17842   2.018   0.722   1.770 -0.3681  0.0853  0.0098
 2127SOL    HW117843   2.031   0.656   1.702  1.9540 -1.2107  1.6879
 2127SOL    HW217844   2.067   0.796   1.734 -0.1034 -0.4232 -0.6829
 2128SOL     OW17845   0.788   2.257  14.696  0.4975 -0.5446  0.1019
 2128SOL    HW117846   0.880   2.282  14.687  0.9646 -1.3536  2.4339
 2128SOL    HW217847   0.786   2.210  14.613  1.1273  0.5952 -0.5569
 2129SOL     OW17848   2.595   3.458   2.476 -0.3353 -0.4857 -0.5004
 2129SOL    HW117849   2.642   3.512   2.539  0.4730 -0.3712 -1.1949
 2129SOL    HW217850   2.583   3.528   2.411 -0.1076 -0.1791 -0.2105
 2130SOL     OW17851   4.551   4.686   2.826 -0.1014  0.0520  0.4922
 2130SOL    HW117852   4.598   4.695   2.909 -2.3408 -0.4646  1.8306
 2130SOL    HW217853   4.555   0.045   2.787 -2.9090 -0.6346 -1.3457
 2131SOL     OW17854   0.100   2.832  17.550 -0.1608 -0.2991 -0.3132
 2131SOL    HW117855   0.041   2.760  17.527  1.4984 -2.1382  1.1064
 2131SOL    HW217856   0.156   2.833  17.473 -0.1157  1.9679 -0.2360
 2132SOL     OW17857   0.302   3.934   4.982  0.2278 -0.2682 -0.2877
 2132SOL    HW117858   0.294   4.006   5.044 -0.8852 -0.1877 -0.5194
 2132SOL    HW217859   0.254   3.864   5.027  2.7549 -0.6812  1.7814
 2133SOL     OW17860   1.037   1.948   8.518  0.3214  0.6587  0.2771
 2133SOL    HW117861   1.065   2.030   8.478  0.7102  0.1750 -0.4643
 2133SOL    HW217862   1.079   1.947   8.604  0.6841 -1.5077  0.0804
 2134SOL     OW17863   1.973   4.691  16.325  0.2217  0.0412  0.2817
 2134SOL    HW117864   1.998   0.053  16.342  0.7505 -0.5214  2.5457
 2134SOL    HW217865   2.006   4.679  16.236 -1.2198 -1.5992 -0.0306
 2135SOL     OW17866   1.257   0.809  14.587  0.1717 -0.0042 -0.1915
 2135SOL    HW117867   1.345   0.812  14.550 -0.2813  0.2728 -1.2742
 2135SOL    HW217868   1.202   0.811  14.508 -0.1783  0.2268  0.0570
 2136SOL     OW17869   2.767   2.230   8.537 -0.3615 -0.5421 -0.5375
 2136SOL    HW117870   2.778   2.282   8.617  0.2963  2.3337 -2.4973
 2136SOL    HW217871   2.847   2.178   8.541 -0.8940 -1.2065  1.6905
 2137SOL     OW17872   3.523   3.319  17.561  0.0390  0.4745  0.0766
 2137SOL    HW117873   3.451   3.269  17.601 -1.0935  1.1260 -1.1389
 2137SOL    HW217874   3.487   3.405  17.537 -0.6715  0.1964  0.1359
 2138SOL     OW17875   1.362   3.481  15.428  0.4389  0.4290  0.4001
 2138SOL    HW117876   1.457   3.475  15.423  0.3592  1.9357 -2.5123
 2138SOL    HW217877   1.353   3.547  15.360  0.2532  0.0500  0.0538
 2139SOL     OW17878   4.649   0.081   6.220  0.1819 -0.6842  0.1171
 2139SOL    HW117879   0.002   0.039   6.248  0.8152  0.6054  0.2272
 2139SOL    HW217880   4.682   0.148   6.160  1.3972 -2.1060 -0.8259
 2140SOL     OW17881   0.839   1.872   4.046 -0.4811  0.1876 -0.3711
 2140SOL    HW117882   0.823   1.869   3.952  0.1768  1.3995 -0.5216
 2140SOL    HW217883   0.927   1.910   4.045 -0.3018 -0.2320 -0.5127
 2141SOL     OW17884   3.447   0.656   2.423  0.0696  1.0748 -0.0012
 2141SOL    HW117885   3.356   0.666   2.395  0.3992  3.4478 -0.1721
 2141SOL    HW217886   3.486   0.732   2.381 -0.9881  0.9554 -1.1877
 2142SOL     OW17887   1.859   4.374   0.312 -0.3360  0.2583  0.1139
 2142SOL    HW117888   1.899   4.354   0.227  0.3364  0.6481  0.3467
 2142SOL    HW217889   1.778   4.416   0.282  0.3354  1.9607  0.7087
 2143SOL     OW17890   3.136   0.480  11.052 -0.2025  0.0828 -0.2079
 2143SOL    HW117891   3.072   0.443  11.112  1.0925 -1.6785  0.0839
 2143SOL    HW217892   3.096   0.560  11.019  1.9122  1.5196  0.7228
 2144SOL     OW17893   4.111   3.612   1.806  0.2798  0.2573  0.3578
 2144SOL    HW117894   4.035   3.658   1.843 -0.4797 -1.4740  0.9556
 2144SOL    HW217895   4.154   3.570   1.880 -2.7913  0.6789  2.3826
 2145SOL     OW17896   3.379   0.569   6.163 -0.2049  0.0343  0.1052
 2145SOL    HW117897   3.317   0.529   6.102  0.6687 -0.3604 -0.5251
 2145SOL    HW217898   3.394   0.497   6.224  0.0831 -0.5717 -0.6895
 2146SOL     OW17899   1.133   4.194   5.141  0.6170  0.1965 -0.4511
 2146SOL    HW117900   1.221   4.176   5.173  0.4891  0.2683 -0.0569
 2146SOL    HW217901   1.134   4.280   5.183  0.4716 -0.5387  1.0576
 2147SOL     OW17902   3.533   3.487   7.946 -0.5934  0.0956  0.1270
 2147SOL    HW117903   3.510   3.404   7.987 -1.1510  0.0601 -0.2580
 2147SOL    HW217904   3.581   3.468   7.865  0.1167  0.7173  0.4064
 2148SOL     OW17905   4.574   2.435   7.724  0.5899  0.0538  0.2194
 2148SOL    HW117906   4.571   2.482   7.808  0.7306 -2.3808  1.5677
 2148SOL    HW217907   4.607   2.505   7.667  0.4543 -0.2444 -0.2219
 2149SOL     OW17908   2.384   2.999   6.346  0.0612  0.1185 -0.1226
 2149SOL    HW117909   2.308   2.988   6.289  0.2308  3.1798 -0.9668
 2149SOL    HW217910   2.452   3.034   6.288 -0.0207  1.3307  0.5193
 2150SOL     OW17911   0.043   0.126  10.383  0.2784 -0.4187  0.0852
 2150SOL    HW117912   0.051   0.208  10.431 -1.6513 -1.3146  1.9522
 2150SOL    HW217913   0.105   0.146  10.313 -1.8308  1.3839 -1.2560
 2151SOL     OW17914   0.951   4.170  12.795 -0.0989 -0.3361  0.1354
 2151SOL    HW117915   0.996   4.156  12.712 -3.5355 -2.0948 -1.3903
 2151SOL    HW217916   0.862   4.138  12.780 -0.4639  0.9169 -0.3626
 2152SOL     OW17917   3.344   0.381  13.640 -0.2004 -0.2636 -0.5067
 2152SOL    HW117918   3.280   0.435  13.687 -1.6053 -1.6944 -0.7412
 2152SOL    HW217919   3.398   0.348  13.712 -1.8653  0.7019  1.2046
 2153SOL     OW17920   0.520   4.382   5.290 -0.2237 -0.0656  0.7040
 2153SOL    HW117921   0.608   4.420   5.299 -0.5178  0.8524 -0.3197
 2153SOL    HW217922   0.535   4.344   5.203 -1.0411 -0.7687  0.8739
 2154SOL     OW17923   0.861   1.837   3.384  0.0985  0.0692 -0.4007
 2154SOL    HW117924   0.794   1.850   3.316  0.5322  1.3609 -0.5804
 2154SOL    HW217925   0.937   1.811   3.332 -1.2241 -0.1031 -2.2579
 2155SOL     OW17926   3.280   4.343  10.944 -0.3410  0.6132 -0.1859
 2155SOL    HW117927   3.185   4.339  10.938 -0.3667 -1.8869  2.0362
 2155SOL    HW217928   3.309   4.288  10.870  1.4036  0.7081  0.4207
 2156SOL     OW17929   4.316   1.962   1.766 -0.7616  0.0001  0.0543
 2156SOL    HW117930   4.221   1.958   1.757 -0.6511  0.2316 -1.2273
 2156SOL    HW217931   4.350   1.971   1.677  0.0568 -1.5170  0.2288
 2157SOL     OW17932   1.130   0.930   4.715 -0.0849  0.6491 -0.2504
 2157SOL    HW117933   1.180   0.984   4.654  0.3517  2.2910  1.5455
 2157SOL    HW217934   1.179   0.933   4.797  0.9180 -1.6329 -0.7626
 2158SOL     OW17935   3.899   1.476  10.045  0.0351 -0.7062 -0.0355
 2158SOL    HW117936   3.837   1.452  10.115  1.8291 -2.4204  0.9989
 2158SOL    HW217937   3.983   1.434  10.068 -0.3218  0.2092  3.0053
 2159SOL     OW17938   3.144   2.431   7.004  0.0999 -0.0688 -0.1161
 2159SOL    HW117939   3.159   2.338   6.989 -2.7762 -0.5686  0.1168
 2159SOL    HW217940   3.063   2.419   7.054 -0.1894  1.4250 -0.2140
 2160SOL     OW17941   3.660   3.898   3.202 -0.1560 -0.6512  0.3067
 2160SOL    HW117942   3.732   3.899   3.265 -0.8233  3.8941  1.0248
 2160SOL    HW217943   3.663   3.829   3.137 -1.7443 -1.1700  0.7837
 2161SOL     OW17944   3.571   1.396   3.039  0.0377 -0.0662  0.1663
 2161SOL    HW117945   3.555   1.489   3.024 -0.0717  0.4490  3.6876
 2161SOL    HW217946   3.481   1.375   3.012 -0.1935  0.7301  0.3010
 2162SOL     OW17947   2.696   2.418  10.087 -0.6250 -0.3344 -0.3329
 2162SOL    HW117948   2.776   2.407  10.035 -0.7012 -2.4946  0.0412
 2162SOL    HW217949   2.688   2.514  10.089 -0.2429 -0.3145  0.3737
 2163SOL     OW17950   1.917   2.257   5.503  0.7993 -0.0340  0.5204
 2163SOL    HW117951   1.851   2.326   5.495  0.4607 -0.4181  0.0232
 2163SOL    HW217952   1.862   2.196   5.552 -0.6982  0.3499 -0.6767
 2164SOL     OW17953   3.435   2.243   3.222  0.0114  0.6912 -0.0851
 2164SOL    HW117954   3.438   2.166   3.166 -0.1528  0.9615 -0.4628
 2164SOL    HW217955   3.463   2.204   3.305 -0.3084  1.2735  0.2968
 2165SOL     OW17956   2.587   1.892  15.726 -0.9962 -0.0252 -0.3223
 2165SOL    HW117957   2.676   1.926  15.715 -0.3669 -1.8879 -0.8581
 2165SOL    HW217958   2.545   1.972  15.757 -0.5959  0.4089 -0.8869
 2166SOL     OW17959   0.965   4.234   4.442 -0.1465  0.0914  0.1140
 2166SOL    HW117960   1.031   4.294   4.407  1.0331  0.0523  2.2352
 2166SOL    HW217961   0.966   4.266   4.532  0.3797  1.4116 -0.3573
 2167SOL     OW17962   4.060   3.691   4.391  0.7924 -0.1044  0.0219
 2167SOL    HW117963   3.979   3.644   4.413  0.2044  0.0863 -1.6982
 2167SOL    HW217964   4.114   3.620   4.355 -0.1827 -0.6622 -0.3514
 2168SOL     OW17965   0.247   3.272   6.459  0.4706  0.1368 -0.0829
 2168SOL    HW117966   0.330   3.240   6.496  0.7763  1.6505  0.5547
 2168SOL    HW217967   0.200   3.296   6.539  1.0350 -1.5619  0.7600
 2169SOL     OW17968   0.934   3.651   5.755 -0.0991  0.2030  0.1376
 2169SOL    HW117969   0.971   3.631   5.841 -0.0576  0.5276  0.1950
 2169SOL    HW217970   0.891   3.733   5.776 -0.8788  0.0142 -0.7309
 2170SOL     OW17971   3.030   0.222   8.485  0.2645  0.6762 -0.4544
 2170SOL    HW117972   3.028   0.170   8.565  0.1412 -1.7113 -2.0045
 2170SOL    HW217973   3.124   0.213   8.467 -0.0437 -0.2218 -1.6234
 2171SOL     OW17974   3.266   4.637   7.448 -0.2544 -0.1584 -0.2568
 2171SOL    HW117975   3.231   4.680   7.526 -0.9368 -2.3001  0.6285
 2171SOL    HW217976   3.358   4.656   7.467  0.0449 -0.6048 -1.2713
 2172SOL     OW17977   2.751   1.261   7.347 -0.0680 -0.3317 -0.6125
 2172SOL    HW117978   2.833   1.246   7.302 -0.6284 -0.2878 -1.6366
 2172SOL    HW217979   2.764   1.203   7.422  0.3626 -0.2730 -0.6421
 2173SOL     OW17980   3.598   3.236   1.697 -0.6114 -0.2340  0.4077
 2173SOL    HW117981   3.505   3.223   1.716 -0.3647 -0.8757  1.2165
 2173SOL    HW217982   3.606   3.330   1.712  3.5043 -0.2528 -1.5527
 2174SOL     OW17983   2.586   2.729   0.059  0.0766  0.7470 -0.4109
 2174SOL    HW117984   2.640   2.667   0.109 -1.8122 -0.4650  0.1056
 2174SOL    HW217985   2.532   2.772   0.125 -2.3897 -1.6720 -0.8544
 2175SOL     OW17986   3.908   2.445   6.957 -0.7517  0.3780  0.1127
 2175SOL    HW117987   3.850   2.386   6.909  0.0588 -0.5458  0.2743
 2175SOL    HW217988   3.864   2.451   7.042 -0.2311 -1.6474  0.5117
 2176SOL     OW17989   2.022   0.294   7.031 -0.0050 -0.2856  0.3058
 2176SOL    HW117990   2.051   0.229   6.967 -0.3173 -0.1341  0.0166
 2176SOL    HW217991   2.108   0.328   7.056 -0.6504  0.8166  1.0541
 2177SOL     OW17992   0.777   0.451  13.120  0.3435  0.1851 -0.0235
 2177SOL    HW117993   0.751   0.397  13.194 -0.0767 -1.9017 -1.6891
 2177SOL    HW217994   0.711   0.521  13.114 -0.7885 -0.8008  0.9376
 2178SOL     OW17995   2.066   3.141   3.459  0.3304  0.4695 -0.0534
 2178SOL    HW117996   2.041   3.049   3.451  1.9506 -0.0411  0.5605
 2178SOL    HW217997   2.000   3.156   3.526  0.3958  1.1042 -0.1365
 2179SOL     OW17998   3.153   4.520   4.255  0.0809  0.8552 -0.0783
 2179SOL    HW117999   3.126   4.459   4.325 -1.6429  0.9128 -0.6759
 2179SOL    HW218000   3.125   4.605   4.290  0.7965  0.2004  2.1122
 2180SOL     OW18001   1.868   0.536   8.863  0.0402 -0.3215  0.2178
 2180SOL    HW118002   1.897   0.457   8.908 -0.2312  0.3193  1.5021
 2180SOL    HW218003   1.943   0.593   8.879 -0.8133  0.8595  0.0217
 2181SOL     OW18004   2.254   2.925   3.546  0.4358 -0.0486 -0.3026
 2181SOL    HW118005   2.253   3.020   3.529  1.1805 -0.6854 -3.7950
 2181SOL    HW218006   2.267   2.925   3.641 -1.5010 -4.2676 -0.0644
 2182SOL     OW18007   3.590   4.115   3.385  0.2786 -0.0059 -0.0025
 2182SOL    HW118008   3.637   4.058   3.323 -0.5889 -0.6619 -0.0539
 2182SOL    HW218009   3.523   4.067   3.433  0.0320 -0.7403 -1.0703
 2183SOL     OW18010   1.966   3.253   7.122 -0.0555 -0.5287  0.0464
 2183SOL    HW118011   2.006   3.311   7.057 -1.5691  0.5793  0.0953
 2183SOL    HW218012   2.035   3.189   7.139  1.4666  1.0593 -0.1326
 2184SOL     OW18013   4.490   2.191   9.192  0.4657 -0.0875 -0.1417
 2184SOL    HW118014   4.479   2.278   9.230  0.6669 -0.7292  1.3897
 2184SOL    HW218015   4.445   2.203   9.108  0.9401 -1.7793 -0.6365
 2185SOL     OW18016   1.736   0.177   3.752 -0.4128  0.2568 -0.0772
 2185SOL    HW118017   1.819   0.140   3.721 -0.3230  0.0231  0.4330
 2185SOL    HW218018   1.754   0.254   3.806 -0.0992  0.6123 -0.6856
 2186SOL     OW18019   4.635   2.915   4.882  0.0510  0.1647  0.1667
 2186SOL    HW118020   4.575   2.895   4.954 -0.2448  0.3306 -0.0320
 2186SOL    HW218021   4.685   2.834   4.890  1.1164  0.7362 -0.7494
 2187SOL     OW18022   0.337   3.542   8.036 -0.1140 -0.3976 -0.0795
 2187SOL    HW118023   0.278   3.616   8.025  0.4571 -0.2098 -1.9721
 2187SOL    HW218024   0.384   3.579   8.110 -0.7471 -0.2776  0.2596
 2188SOL     OW18025   2.185   2.376  13.010 -0.0084 -0.2601  0.3873
 2188SOL    HW118026   2.124   2.306  13.033  0.5742 -0.5548  1.0321
 2188SOL    HW218027   2.146   2.415  12.931  3.5001  1.5187 -0.4332
 2189SOL     OW18028   4.053   3.912   6.252  0.1048 -0.0015  0.1008
 2189SOL    HW118029   3.974   3.865   6.225  0.2679  2.1043 -3.9767
 2189SOL    HW218030   4.009   3.970   6.315  2.2622  2.2040 -0.4228
 2190SOL     OW18031   2.734   1.927   3.885 -0.1032  0.0528  0.5992
 2190SOL    HW118032   2.686   1.861   3.934  1.8092 -1.9803 -0.2255
 2190SOL    HW218033   2.732   1.878   3.803  1.7008  0.1375  0.4911
 2191SOL     OW18034   2.737   3.150  12.596 -0.0795  0.4455  0.2238
 2191SOL    HW118035   2.767   3.178  12.509  0.3867  1.3521  0.6722
 2191SOL    HW218036   2.714   3.060  12.573  1.4559  0.1248 -0.0183
 2192SOL     OW18037   2.962   1.577   6.981  0.1760 -0.5801  0.4666
 2192SOL    HW118038   2.969   1.597   7.074  0.1676  2.2454 -0.1242
 2192SOL    HW218039   3.051   1.599   6.955 -0.1844  0.2794 -0.0638
 2193SOL     OW18040   2.931   2.697   4.138 -0.2406 -0.4562 -0.1064
 2193SOL    HW118041   2.889   2.711   4.223 -0.3748  2.1579 -0.6084
 2193SOL    HW218042   2.998   2.765   4.141  0.9208 -1.6280  0.0997
 2194SOL     OW18043   4.169   3.032   2.293  0.1958  1.0363 -0.1487
 2194SOL    HW118044   4.256   3.013   2.259  1.2006  2.7690  1.3997
 2194SOL    HW218045   4.193   3.097   2.359  3.2765 -1.1416  0.8385
 2195SOL     OW18046   3.559   2.773   7.095  0.9321  0.9599  0.0724
 2195SOL    HW118047   3.614   2.783   7.172  2.2114  0.4213 -0.7552
 2195SOL    HW218048   3.506   2.694   7.109  0.4249  0.8489 -2.3922
 2196SOL     OW18049   0.604   3.344  13.425 -0.1248  0.1696 -0.0451
 2196SOL    HW118050   0.608   3.423  13.479 -0.1214 -0.3365  0.6919
 2196SOL    HW218051   0.563   3.383  13.348  0.5277  0.4645 -0.2462
 2197SOL     OW18052   4.316   3.191   3.545  0.4718 -0.1621 -0.0590
 2197SOL    HW118053   4.383   3.213   3.610  1.3689 -2.1617 -0.2971
 2197SOL    HW218054   4.248   3.155   3.603  0.8202 -1.4687 -0.4556
 2198SOL     OW18055   3.117   2.464   8.248  0.3279  0.5224  0.9165
 2198SOL    HW118056   3.024   2.484   8.248 -0.2517 -2.2565 -0.3306
 2198SOL    HW218057   3.120   2.383   8.298 -1.0546  0.8553  1.5220
 2199SOL     OW18058   0.681   2.930   9.201 -0.4414  0.0853  0.3174
 2199SOL    HW118059   0.710   2.903   9.114  2.3463  0.1714  1.2252
 2199SOL    HW218060   0.742   2.877   9.252  3.0237  0.9809 -2.9208
 2200SOL     OW18061   0.803   0.357   4.066 -0.0642  1.0424  0.0830
 2200SOL    HW118062   0.872   0.420   4.047 -0.2006  0.7962 -1.1763
 2200SOL    HW218063   0.847   0.291   4.119 -2.1262 -1.5379 -1.4112
 2201SOL     OW18064   2.926   2.257   9.625  0.4526  0.0280 -0.5369
 2201SOL    HW118065   3.008   2.210   9.610  0.3341 -0.4831  0.4030
 2201SOL    HW218066   2.961   2.337   9.665  0.2518 -0.3444  0.3958
 2202SOL     OW18067   3.922   3.648  15.894  0.0334  0.1397 -0.0338
 2202SOL    HW118068   3.923   3.553  15.881  1.7039  0.4174 -1.7913
 2202SOL    HW218069   3.890   3.677  15.809 -0.8438 -1.7812 -0.3776
 2203SOL     OW18070   1.792   0.754   4.119  0.3913 -0.1349 -0.1308
 2203SOL    HW118071   1.833   0.719   4.040 -0.4979  0.2921 -0.7835
 2203SOL    HW218072   1.878   0.769   4.159  0.0218  0.2678  0.4966
 2204SOL     OW18073   2.787   2.487   4.742 -0.1516 -0.6276  0.2071
 2204SOL    HW118074   2.772   2.574   4.704  0.7980 -0.0305  1.2218
 2204SOL    HW218075   2.863   2.471   4.685 -0.1658 -0.5691  0.1719
 2205SOL     OW18076   4.202   1.501   6.618 -0.4779 -0.0684  0.2564
 2205SOL    HW118077   4.146   1.563   6.665 -0.6089  0.5540 -0.7344
 2205SOL    HW218078   4.281   1.555   6.610  0.4811 -1.3235  1.0713
 2206SOL     OW18079   2.866   2.098   6.745  0.4263  0.2264  0.2176
 2206SOL    HW118080   2.917   2.023   6.716 -1.0539 -0.2899 -1.0579
 2206SOL    HW218081   2.891   2.177   6.697 -0.0439 -0.7729 -1.6717
 2207SOL     OW18082   0.815   0.790  15.838 -0.3611  0.1608  0.2082
 2207SOL    HW118083   0.819   0.835  15.922 -0.5400  0.7944 -0.1247
 2207SOL    HW218084   0.852   0.706  15.866  0.4447  0.2611 -0.5663
 2208SOL     OW18085   0.568   3.446   1.275  0.0335 -0.5615  0.2676
 2208SOL    HW118086   0.593   3.533   1.243 -0.4418 -1.8083 -3.5448
 2208SOL    HW218087   0.636   3.393   1.232  1.1734  0.9504  0.2071
 2209SOL     OW18088   4.497   1.557   8.331 -0.5183 -0.5781 -0.6182
 2209SOL    HW118089   4.469   1.535   8.419  2.9168 -0.8121  0.4324
 2209SOL    HW218090   4.460   1.487   8.276  3.2871 -1.9698 -1.4637
 2210SOL     OW18091   3.439   1.283  10.821 -0.2700  0.7066 -0.4453
 2210SOL    HW118092   3.431   1.248  10.733 -0.3503 -0.1641 -0.0911
 2210SOL    HW218093   3.346   1.282  10.842  0.0396  2.4211  1.0599
 2211SOL     OW18094   0.902   3.136  11.014  0.2192 -0.3667  0.5505
 2211SOL    HW118095   0.938   3.096  11.094 -0.6649  0.0045  1.1292
 2211SOL    HW218096   0.987   3.148  10.972 -0.6355  1.2138 -0.7420
 2212SOL     OW18097   0.234   3.817   5.344  0.3844  0.1791 -0.6185
 2212SOL    HW118098   0.265   3.733   5.379 -0.4438  0.3704  0.5343
 2212SOL    HW218099   0.209   3.777   5.260  0.3009  0.6168 -0.8005
 2213SOL     OW18100   1.464   4.448   2.547  0.2349  0.0501 -0.1377
 2213SOL    HW118101   1.491   4.429   2.457 -0.2648  1.8121 -0.6526
 2213SOL    HW218102   1.384   4.396   2.547  0.2069  0.0807 -2.5162
 2214SOL     OW18103   3.709   2.098   4.033  0.6004  0.3773 -0.4138
 2214SOL    HW118104   3.759   2.077   4.112 -0.3304 -1.9398 -0.4213
 2214SOL    HW218105   3.701   2.009   3.998 -3.7002  0.3604  0.6078
 2215SOL     OW18106   4.621   1.305   9.162 -0.1929  0.0167 -0.6232
 2215SOL    HW118107   4.703   1.336   9.199 -2.3265  2.8267  1.7414
 2215SOL    HW218108   4.653   1.240   9.100 -1.4429  0.0161 -1.2780
 2216SOL     OW18109   0.493   2.897  13.273  0.2439  0.4670  0.4124
 2216SOL    HW118110   0.519   2.938  13.355  3.7746  0.5915 -0.7634
 2216SOL    HW218111   0.573   2.848  13.250 -0.3911 -0.9263  1.1738
 2217SOL     OW18112   1.956   3.351   8.846  0.2728  0.1587  0.6768
 2217SOL    HW118113   1.901   3.407   8.791  2.1077 -0.9034 -2.2639
 2217SOL    HW218114   1.930   3.385   8.932 -0.0952 -0.8198  0.9572
 2218SOL     OW18115   4.548   2.569   2.390  0.0400 -0.4184 -0.1711
 2218SOL    HW118116   4.537   2.540   2.300 -4.3466  1.3865 -0.2284
 2218SOL    HW218117   4.551   2.488   2.441 -1.9517 -0.0444  0.5380
 2219SOL     OW18118   4.093   3.274  15.203 -0.4957 -0.0979 -0.3318
 2219SOL    HW118119   4.129   3.313  15.123  1.9786 -0.1236  0.7852
 2219SOL    HW218120   4.113   3.343  15.266  0.2351 -1.0700  0.4906
 2220SOL     OW18121   0.830   3.759   2.679 -0.2398  0.0775  0.3603
 2220SOL    HW118122   0.796   3.692   2.739  0.9747  0.0203  0.9760
 2220SOL    HW218123   0.782   3.734   2.600  0.8752 -0.3052 -0.1944
 2221SOL     OW18124   1.297   2.067   7.918 -0.4603  0.0601 -0.1545
 2221SOL    HW118125   1.308   2.160   7.938  0.7398  0.1775 -1.3213
 2221SOL    HW218126   1.370   2.039   7.973 -0.0797 -1.3105 -1.3806
 2222SOL     OW18127   2.255   0.705   7.468 -0.3803  0.3994 -0.4672
 2222SOL    HW118128   2.330   0.754   7.434  1.4782 -0.9692  1.6338
 2222SOL    HW218129   2.223   0.677   7.383  1.8502  0.2106 -1.2392
 2223SOL     OW18130   4.332   3.800  15.850  0.1292 -0.0086  0.2294
 2223SOL    HW118131   4.304   3.835  15.934 -1.4405  0.5667 -0.5255
 2223SOL    HW218132   4.361   3.881  15.807 -2.8758  1.4082  0.8865
 2224SOL     OW18133   2.984   1.253  10.322 -0.1191  0.1080  0.2298
 2224SOL    HW118134   3.028   1.305  10.255  0.9463 -0.7107  0.2857
 2224SOL    HW218135   3.040   1.178  10.301  0.6573  0.2062  1.9272
 2225SOL     OW18136   1.899   0.342   1.740  0.2100  0.4015 -0.0900
 2225SOL    HW118137   1.971   0.279   1.741 -1.2668 -1.2801  0.1720
 2225SOL    HW218138   1.882   0.368   1.830 -0.9999  0.2745 -0.2866
 2226SOL     OW18139   0.739   3.687   6.576  0.2993  0.1706 -0.5916
 2226SOL    HW118140   0.662   3.704   6.630 -0.4447 -0.9995 -1.2857
 2226SOL    HW218141   0.809   3.742   6.610 -1.2762  2.3610 -0.8746
 2227SOL     OW18142   2.082   2.545   6.561  0.6643 -0.3556  0.5456
 2227SOL    HW118143   2.100   2.512   6.649  1.3039  2.1671  1.3718
 2227SOL    HW218144   2.159   2.602   6.550  0.4604  0.0146  1.0320
 2228SOL     OW18145   2.228   4.319  14.044  0.4292  0.1265 -1.0133
 2228SOL    HW118146   2.312   4.300  14.002  0.2888  1.1896 -1.7916
 2228SOL    HW218147   2.238   4.269  14.125 -1.6788  0.0128 -0.8285
 2229SOL     OW18148   2.757   2.800   9.332 -0.6578 -0.1634 -0.8360
 2229SOL    HW118149   2.697   2.785   9.405 -0.2882 -1.8083 -0.8743
 2229SOL    HW218150   2.838   2.754   9.351 -0.7990 -0.3383 -0.6584
 2230SOL     OW18151   2.503   1.484  10.130 -0.0459 -0.0917 -0.6367
 2230SOL    HW118152   2.555   1.471  10.051 -0.0458  0.9590 -0.8064
 2230SOL    HW218153   2.561   1.540  10.182  0.7585 -1.4777 -0.0407
 2231SOL     OW18154   1.294   3.135  11.110 -0.0249 -0.2402  0.8088
 2231SOL    HW118155   1.389   3.135  11.106 -0.1045 -0.3515 -1.4812
 2231SOL    HW218156   1.287   3.230  11.124  2.5915  0.4341 -2.3011
 2232SOL     OW18157   3.170   3.582   5.006  0.0338 -0.1426 -0.2510
 2232SOL    HW118158   3.182   3.673   4.979 -0.1562  0.7758  2.7520
 2232SOL    HW218159   3.149   3.542   4.921 -0.2645  0.3447 -0.4061
 2233SOL     OW18160   3.345   1.115   6.949  0.0420 -0.0517  0.7345
 2233SOL    HW118161   3.392   1.194   6.924 -2.5123  1.0404 -0.7349
 2233SOL    HW218162   3.415   1.052   6.933 -0.0144  0.2967 -0.9349
 2234SOL     OW18163   2.784   2.814   6.834  0.4513  0.2265 -0.3927
 2234SOL    HW118164   2.824   2.805   6.747  0.5879 -2.0254 -0.1050
 2234SOL    HW218165   2.859   2.776   6.880 -0.1716  0.2487  0.6397
 2235SOL     OW18166   3.337   2.907   8.943  0.3137  0.0576 -0.6207
 2235SOL    HW118167   3.245   2.894   8.964  0.3830 -0.2821 -0.5177
 2235SOL    HW218168   3.381   2.827   8.972  0.5486  1.1988  2.0842
 2236SOL     OW18169   2.154   0.794   7.964 -0.1174 -0.0761  0.2382
 2236SOL    HW118170   2.174   0.776   7.872  2.2482 -0.3996  0.8151
 2236SOL    HW218171   2.243   0.789   8.000  0.0538 -0.3160 -0.2181
 2237SOL     OW18172   3.355   3.256   4.691  0.3905 -0.2508 -0.7948
 2237SOL    HW118173   3.433   3.202   4.678  1.0934  0.5443  0.0703
 2237SOL    HW218174   3.375   3.288   4.779 -0.2784  0.8735 -1.0537
 2238SOL     OW18175   3.485   2.081   6.904 -0.3294 -0.3375  0.2147
 2238SOL    HW118176   3.528   2.029   6.837 -0.7950  0.1737 -0.4742
 2238SOL    HW218177   3.564   2.096   6.956  0.4816  0.3312 -1.2251
 2239SOL     OW18178   3.236   4.601   4.699 -0.1691 -0.0962  0.0077
 2239SOL    HW118179   3.173   4.667   4.670  0.2749  0.3935  0.1409
 2239SOL    HW218180   3.263   4.557   4.619 -1.5457  1.5393 -1.3582
 2240SOL     OW18181   3.486   4.506   8.251  0.5740  0.3804 -0.1045
 2240SOL    HW118182   3.423   4.571   8.221  0.7631  0.5168 -0.2077
 2240SOL    HW218183   3.567   4.538   8.212 -1.7761  1.2938 -4.2586
 2241SOL     OW18184   0.781   2.246   0.193 -0.3542  0.1599  0.1894
 2241SOL    HW118185   0.822   2.162   0.214  0.2036  0.7305  1.3895
 2241SOL    HW218186   0.772   2.279   0.282 -0.1898  2.0924 -0.5103
 2242SOL     OW18187   3.437   1.749   1.357  0.1119  0.1817 -0.0464
 2242SOL    HW118188   3.439   1.811   1.284  1.5254 -0.8168 -0.8537
 2242SOL    HW218189   3.350   1.715   1.337 -0.4057  0.7858  1.2425
 2243SOL     OW18190   1.307   0.008   6.335  0.2302 -0.0587  0.3980
 2243SOL    HW118191   1.311   0.051   6.249 -2.7115  1.6086  1.0780
 2243SOL    HW218192   1.370   0.059   6.386  1.7218 -0.7534 -0.7286
 2244SOL     OW18193   1.636   2.553   6.117 -0.2973 -0.3612 -0.1789
 2244SOL    HW118194   1.702   2.570   6.049  0.1601  0.8774  0.5765
 2244SOL    HW218195   1.696   2.505   6.175 -0.4811  0.1268  0.4234
 2245SOL     OW18196   3.073   2.603   1.167 -0.5032  0.2692 -0.3970
 2245SOL    HW118197   3.053   2.511   1.182 -0.2623 -0.0676 -2.1442
 2245SOL    HW218198   2.982   2.632   1.158 -0.1879  1.0939 -0.9847
 2246SOL     OW18199   2.302   1.597   6.129 -0.2798  0.2362 -0.1603
 2246SOL    HW118200   2.240   1.594   6.203  1.8630  1.5399  1.6848
 2246SOL    HW218201   2.377   1.580   6.186  0.6293  0.6237 -1.2572
 2247SOL     OW18202   2.669   4.410   8.598  0.0969  0.1570  0.3861
 2247SOL    HW118203   2.656   4.399   8.504  1.4246 -1.6176  0.3890
 2247SOL    HW218204   2.762   4.429   8.606 -0.3799  1.9561  1.5550
 2248SOL     OW18205   3.793   1.541   7.166  0.2437  0.0710  0.3844
 2248SOL    HW118206   3.869   1.484   7.155 -1.1685 -1.5342 -0.9555
 2248SOL    HW218207   3.827   1.595   7.238 -1.7071  1.5727  0.1731
 2249SOL     OW18208   2.804   0.396   6.438 -0.2326  0.2344 -0.2824
 2249SOL    HW118209   2.747   0.353   6.374  0.1720  0.6416 -0.9184
 2249SOL    HW218210   2.823   0.323   6.497 -1.1383  0.2497  0.0303
 2250SOL     OW18211   3.334   3.904   2.412 -0.8227 -0.2862  0.0878
 2250SOL    HW118212   3.290   3.921   2.329  0.1660 -0.1308 -0.4085
 2250SOL    HW218213   3.403   3.969   2.400  0.9287 -2.5403 -2.0847
 2251SOL     OW18214   3.153   4.301   4.522 -0.0933  0.1254 -0.5384
 2251SOL    HW118215   3.083   4.285   4.458 -2.1205  0.6889  1.5175
 2251SOL    HW218216   3.103   4.347   4.590 -2.2657 -0.3773 -1.7861
 2252SOL     OW18217   4.192   4.416  11.202 -0.2118  0.1972  0.4030
 2252SOL    HW118218   4.233   4.493  11.239 -1.9443  0.6790  1.3482
 2252SOL    HW218219   4.125   4.454  11.145 -1.1636  1.3811  2.3127
 2253SOL     OW18220   3.757   4.058   3.646  0.0366 -0.1701  0.3351
 2253SOL    HW118221   3.773   3.971   3.609  1.1568  0.7117 -1.2480
 2253SOL    HW218222   3.708   4.088   3.569 -2.0873 -3.6950  0.2870
 2254SOL     OW18223   3.409   2.741   1.531  0.1800  0.0547  0.3068
 2254SOL    HW118224   3.368   2.827   1.535  1.6635  0.7743  0.2824
 2254SOL    HW218225   3.381   2.712   1.444 -0.4258  0.0330  0.5108
 2255SOL     OW18226   0.130   1.353   5.649  0.4398 -0.1569  0.4566
 2255SOL    HW118227   0.135   1.431   5.594 -0.5953  0.5021  1.2984
 2255SOL    HW218228   0.085   1.386   5.726  0.7082  2.4757 -0.5315
 2256SOL     OW18229   1.372   1.323   8.215 -1.0693 -0.3342 -0.3484
 2256SOL    HW118230   1.423   1.272   8.277 -0.5877 -1.3165 -1.5420
 2256SOL    HW218231   1.295   1.353   8.263 -1.3028 -2.8122  0.8004
 2257SOL     OW18232   1.717   4.237   6.362  0.6452 -0.1289  0.3564
 2257SOL    HW118233   1.741   4.176   6.432  2.6460  0.5507  0.2690
 2257SOL    HW218234   1.626   4.253   6.387  0.3719 -0.6553 -0.3136
 2258SOL     OW18235   1.812   3.165   0.926  0.1985  0.0328 -0.5570
 2258SOL    HW118236   1.898   3.183   0.964 -0.2926 -0.0711  0.6076
 2258SOL    HW218237   1.804   3.074   0.953  1.5985  0.0716 -0.0325
 2259SOL     OW18238   4.323   4.331   3.506  0.4459 -0.1876  0.3738
 2259SOL    HW118239   4.319   4.425   3.492 -0.0705 -0.3271 -0.4193
 2259SOL    HW218240   4.296   4.323   3.597  0.0645 -0.3346  0.2460
 2260SOL     OW18241   1.516   0.748   4.892  0.1544  0.6662 -0.2947
 2260SOL    HW118242   1.600   0.723   4.931  0.4498 -0.1315 -1.4544
 2260SOL    HW218243   1.530   0.766   4.800 -1.4423  2.4537 -0.1858
 2261SOL     OW18244   3.782   0.666  15.318 -0.6979  0.4271  0.2517
 2261SOL    HW118245   3.786   0.758  15.344  0.1626 -0.2544  2.4634
 2261SOL    HW218246   3.792   0.667  15.223 -1.1845  1.9158  0.2254
 2262SOL     OW18247   0.434   0.578  15.560 -0.3890 -0.0620  0.2319
 2262SOL    HW118248   0.463   0.563  15.651 -1.9262 -1.0177  0.5634
 2262SOL    HW218249   0.347   0.537  15.562 -0.0527 -0.8891 -2.0313
 2263SOL     OW18250   2.490   0.805   7.352 -0.1989  0.6597 -0.0908
 2263SOL    HW118251   2.510   0.711   7.354 -2.5767  0.1453 -0.9308
 2263SOL    HW218252   2.531   0.838   7.432  1.1540 -1.6713  0.1964
 2264SOL     OW18253   0.908   3.295  13.463  0.0784  0.2088 -0.0945
 2264SOL    HW118254   0.932   3.386  13.480 -2.9921  1.3346 -1.6984
 2264SOL    HW218255   0.846   3.304  13.390 -0.3578  0.7575  0.3396
 2265SOL     OW18256   1.062   3.720   9.534  0.6366 -0.3161  0.8038
 2265SOL    HW118257   1.060   3.814   9.552  0.4101 -0.4903  1.6821
 2265SOL    HW218258   0.989   3.708   9.474  1.3175  0.8351 -0.2818
 2266SOL     OW18259   0.220   3.255   1.569 -0.1437  0.2094  0.0162
 2266SOL    HW118260   0.224   3.191   1.498 -0.0338  0.9319 -0.6302
 2266SOL    HW218261   0.286   3.311   1.529  1.7685 -1.1221  1.3387
 2267SOL     OW18262   1.635   2.156   0.220  0.5819 -0.2719 -0.2774
 2267SOL    HW118263   1.544   2.178   0.203  0.5190  0.1653  0.6077
 2267SOL    HW218264   1.680   2.238   0.240 -1.3513  1.0091 -1.1822
 2268SOL     OW18265   3.872   0.203  10.141  0.8210  0.2577  0.3259
 2268SOL    HW118266   3.912   0.176  10.058  0.9678 -0.3368  0.5916
 2268SOL    HW218267   3.790   0.157  10.122  1.2339 -1.2703  2.2241
 2269SOL     OW18268   3.354   1.559   7.827  0.4194 -0.1393  0.4055
 2269SOL    HW118269   3.426   1.589   7.772  0.0436  2.5401  1.3863
 2269SOL    HW218270   3.301   1.638   7.815 -0.9179 -1.1124  0.0063
 2270SOL     OW18271   4.016   4.360   8.026  0.0803  0.8217  0.3575
 2270SOL    HW118272   4.030   4.279   7.978 -1.4087  0.1934  0.9970
 2270SOL    HW218273   4.096   4.370   8.078  1.6256  0.8890 -2.0154
 2271SOL     OW18274   2.164   3.077  10.369 -0.4486  0.3107 -0.0922
 2271SOL    HW118275   2.116   3.000  10.340  0.3280  0.5809 -2.0349
 2271SOL    HW218276   2.103   3.146  10.393  0.3799  0.4642  1.5838
 2272SOL     OW18277   1.703   1.152  14.054  0.5381  0.2196 -0.0045
 2272SOL    HW118278   1.646   1.094  14.004  0.0724  1.1567 -0.5584
 2272SOL    HW218279   1.773   1.089  14.071 -0.1136 -0.5052 -0.0190
 2273SOL     OW18280   4.689   0.956   4.954  0.3338  0.3210 -0.3117
 2273SOL    HW118281   4.634   1.021   4.909  0.7362  1.2832  0.5916
 2273SOL    HW218282   4.694   0.885   4.889  0.0044  2.2302 -2.4125
 2274SOL     OW18283   0.927   0.552  15.916 -0.1588  0.4418 -0.4353
 2274SOL    HW118284   1.015   0.573  15.886 -0.9569  1.1865 -2.2562
 2274SOL    HW218285   0.946   0.537  16.009 -1.0751 -2.7346 -0.7866
 2275SOL     OW18286   1.929   4.608   6.854 -0.3640 -0.0273 -0.2881
 2275SOL    HW118287   1.873   4.626   6.779  1.5735  0.6731 -1.5641
 2275SOL    HW218288   1.927   4.513   6.864 -1.9150 -0.3034 -3.4793
 2276SOL     OW18289   1.307   4.040   2.558  0.3170 -0.2877  0.2175
 2276SOL    HW118290   1.228   3.986   2.565 -1.0246  1.8413  1.2898
 2276SOL    HW218291   1.307   4.088   2.641  0.1637 -0.1058  0.1095
 2277SOL     OW18292   4.004   2.577   0.052  0.8149 -0.1478  0.4368
 2277SOL    HW118293   4.072   2.514   0.030 -0.5959 -0.7537 -2.1903
 2277SOL    HW218294   3.943   2.525   0.105  0.5752 -0.9667 -0.6521
 2278SOL     OW18295   1.832   2.092   5.943  0.0318 -0.1530 -0.8062
 2278SOL    HW118296   1.751   2.141   5.929 -0.3499 -0.8570 -1.1095
 2278SOL    HW218297   1.827   2.006   5.899  0.9179 -1.0793  0.9129
 2279SOL     OW18298   4.628   0.461  12.188  0.2703 -0.0757  0.5371
 2279SOL    HW118299   4.696   0.400  12.216 -0.4282 -0.2201  1.8857
 2279SOL    HW218300   4.542   0.420  12.192  0.4599 -0.5550 -0.1792
 2280SOL     OW18301   0.000   3.835   8.201 -0.5356  0.3889  0.3488
 2280SOL    HW118302   0.081   3.826   8.150 -1.2468 -1.8935 -0.3528
 2280SOL    HW218303   4.682   3.903   8.152  2.7754  0.6222 -2.5438
 2281SOL     OW18304   0.154   0.148   7.802 -0.3739  0.3779  0.0526
 2281SOL    HW118305   0.100   0.227   7.809 -3.0303 -1.5838  1.8659
 2281SOL    HW218306   0.102   0.075   7.836  0.2581 -0.1030 -0.0141
 2282SOL     OW18307   0.904   2.408   5.579  0.0896  0.0493  0.0231
 2282SOL    HW118308   0.995   2.436   5.574  0.1014 -0.1744 -1.0658
 2282SOL    HW218309   0.899   2.387   5.672  0.4681 -0.9300 -0.1781
 2283SOL     OW18310   3.482   2.178  15.183  0.8934 -0.2470 -0.6817
 2283SOL    HW118311   3.525   2.264  15.190 -1.1950  0.4763  3.4174
 2283SOL    HW218312   3.547   2.120  15.143  0.3413 -1.1845 -0.2057
 2284SOL     OW18313   4.662   0.275   7.971 -0.3647 -0.6091  0.5334
 2284SOL    HW118314   4.596   0.224   7.923 -0.0734 -0.9199  0.4682
 2284SOL    HW218315   4.673   0.351   7.913  0.9168  0.8360  2.6847
 2285SOL     OW18316   0.125   2.028   2.766  0.1777 -0.1725 -0.5471
 2285SOL    HW118317   0.048   2.053   2.817  1.9233  1.4328  1.3011
 2285SOL    HW218318   0.189   2.072   2.822  0.4377  1.0052 -1.7631
 2286SOL     OW18319   0.200   1.505   8.327 -0.6184 -0.5863 -0.0753
 2286SOL    HW118320   0.182   1.595   8.354  0.7365  0.0148 -1.2143
 2286SOL    HW218321   0.283   1.489   8.370  0.4245 -1.0760 -2.2766
 2287SOL     OW18322   1.069   2.285   6.072  0.2423  0.1219  0.1747
 2287SOL    HW118323   1.028   2.199   6.076 -1.7099  1.1181  1.7095
 2287SOL    HW218324   1.065   2.309   6.164  1.2540  0.6574  0.0805
 2288SOL     OW18325   2.893   0.289   1.266 -0.0515 -0.6026  0.3936
 2288SOL    HW118326   2.948   0.253   1.336 -0.5032  0.8052  1.4676
 2288SOL    HW218327   2.811   0.239   1.268  0.1114 -0.8545  0.8496
 2289SOL     OW18328   1.643   3.138   8.163  0.3839  0.6079 -0.6053
 2289SOL    HW118329   1.671   3.110   8.250 -0.6499 -0.6691 -0.6802
 2289SOL    HW218330   1.732   3.148   8.131 -0.6646 -0.8040 -3.9723
 2290SOL     OW18331   2.325   0.438   4.668 -0.3593  0.4361 -0.1461
 2290SOL    HW118332   2.258   0.498   4.703  0.3346  1.3243 -0.3483
 2290SOL    HW218333   2.313   0.458   4.575  1.1079 -2.0572 -0.8454
 2291SOL     OW18334   4.664   4.315   6.514  0.3100  0.4378 -0.0801
 2291SOL    HW118335   0.028   4.325   6.536  0.5736  0.6974 -1.2988
 2291SOL    HW218336   4.633   4.404   6.501 -2.2282 -0.7717 -2.4923
 2292SOL     OW18337   3.183   4.051  10.397  0.6379 -0.0976  0.0400
 2292SOL    HW118338   3.216   3.999  10.471 -1.8591 -1.1761  0.4046
 2292SOL    HW218339   3.191   4.138  10.436  1.3398  0.1480 -0.6486
 2293SOL     OW18340   1.294   2.340   7.506 -0.4173  0.3426  0.1008
 2293SOL    HW118341   1.238   2.390   7.446  1.2673  0.6255 -1.2331
 2293SOL    HW218342   1.233   2.343   7.580 -0.2306  1.2048  0.2158
 2294SOL     OW18343   0.489   2.513   2.219 -0.1601  0.3043 -0.1813
 2294SOL    HW118344   0.562   2.493   2.278 -0.5196 -0.9332 -0.1718
 2294SOL    HW218345   0.438   2.570   2.276  0.6748  1.7650 -0.8974
 2295SOL     OW18346   2.546   3.185   8.585 -0.2073  0.3674  0.1128
 2295SOL    HW118347   2.492   3.159   8.511 -0.8327 -0.1388  0.7514
 2295SOL    HW218348   2.569   3.105   8.633  0.2973  1.0405  0.9988
 2296SOL     OW18349   0.947   0.584   2.016  0.2377 -0.2726  0.6227
 2296SOL    HW118350   1.030   0.570   1.970  0.3645  1.1978  0.4124
 2296SOL    HW218351   0.965   0.660   2.071 -1.6199 -0.8379  1.9958
 2297SOL     OW18352   1.877   1.440   4.584 -0.1053 -1.0695 -0.2302
 2297SOL    HW118353   1.909   1.351   4.600 -0.0002 -1.0662 -0.4154
 2297SOL    HW218354   1.828   1.424   4.503 -0.0908  1.0671 -0.6528
 2298SOL     OW18355   4.320   0.789   5.240  0.4759  0.5240 -0.2704
 2298SOL    HW118356   4.365   0.869   5.269 -0.1889  0.8325 -0.0924
 2298SOL    HW218357   4.350   0.777   5.150 -0.3407 -0.6060 -0.3902
 2299SOL     OW18358   0.276   1.750   3.890 -0.0264  0.1497 -0.0557
 2299SOL    HW118359   0.347   1.703   3.934  0.2773 -0.4583 -1.1999
 2299SOL    HW218360   0.292   1.731   3.798 -1.1618 -1.3161  0.0456
 2300SOL     OW18361   1.536   0.955   8.623 -0.3883  0.1661  0.1897
 2300SOL    HW118362   1.590   1.033   8.627 -0.7562  0.5539 -2.3375
 2300SOL    HW218363   1.607   0.891   8.630  0.3495  0.8942 -0.5828
 2301SOL     OW18364   1.434   2.988   4.810 -0.3062  0.0582 -0.0087
 2301SOL    HW118365   1.473   2.901   4.822 -3.8786 -1.4347  0.7386
 2301SOL    HW218366   1.351   2.967   4.767  0.9325  1.1630 -2.9590
 2302SOL     OW18367   2.125   0.278   6.524  0.4153 -0.3376  0.2277
 2302SOL    HW118368   2.159   0.325   6.448  1.0194 -1.6951 -0.3343
 2302SOL    HW218369   2.134   0.347   6.590 -5.2850  3.7024 -3.2444
 2303SOL     OW18370   3.150   3.605  13.475  0.0737 -0.1242  0.5565
 2303SOL    HW118371   3.185   3.517  13.457  0.4193 -0.7966  4.6058
 2303SOL    HW218372   3.223   3.652  13.515  1.8272 -2.0968 -0.2875
 2304SOL     OW18373   1.426   1.224   6.543 -0.3566  0.2675 -0.7626
 2304SOL    HW118374   1.446   1.317   6.543  1.6268 -0.1558  1.3627
 2304SOL    HW218375   1.421   1.202   6.450 -2.0108 -0.5764 -0.4923
 2305SOL     OW18376   3.315   3.587   9.004  0.2103 -0.5317 -0.6483
 2305SOL    HW118377   3.302   3.496   8.977  3.2870 -0.7532 -1.3671
 2305SOL    HW218378   3.289   3.586   9.096  0.2570 -0.8121 -0.6373
 2306SOL     OW18379   2.658   0.120  16.745  0.5771 -0.0627 -0.3186
 2306SOL    HW118380   2.748   0.129  16.714  0.6272  2.3389  0.5508
 2306SOL    HW218381   2.659   0.171  16.826 -2.0648  2.0600 -1.6250
 2307SOL     OW18382   0.198   0.424   2.486  0.1364  0.2539 -0.0985
 2307SOL    HW118383   0.286   0.387   2.476 -0.7145 -2.0559  0.9332
 2307SOL    HW218384   0.214   0.511   2.521  1.1425  1.0220 -2.4233
 2308SOL     OW18385   1.994   2.970   5.168  0.5307 -0.0453  0.2266
 2308SOL    HW118386   1.950   2.914   5.105  1.0007  0.0391 -0.1831
 2308SOL    HW218387   2.087   2.950   5.155  0.2103  0.1071 -2.3337
 2309SOL     OW18388   3.715   3.031   0.355 -0.3994  0.8140 -0.7423
 2309SOL    HW118389   3.711   3.055   0.447 -1.3588  0.0023 -0.5717
 2309SOL    HW218390   3.786   2.967   0.356 -0.3000  0.9774  1.4503
 2310SOL     OW18391   3.576   0.582   0.578  0.1146  0.5037 -0.0580
 2310SOL    HW118392   3.513   0.510   0.569  1.4205 -0.7327  0.5325
 2310SOL    HW218393   3.655   0.532   0.600 -2.0320 -2.4425  0.9710
 2311SOL     OW18394   3.825   3.131   5.689 -0.0268  0.1126  0.0289
 2311SOL    HW118395   3.839   3.208   5.634  2.5111 -0.9077 -0.7647
 2311SOL    HW218396   3.805   3.168   5.775 -1.2331  0.0175 -0.2196
 2312SOL     OW18397   4.458   1.669   4.332 -0.1077 -0.0695  1.2320
 2312SOL    HW118398   4.503   1.679   4.248 -0.9764 -1.6469  0.5647
 2312SOL    HW218399   4.421   1.584   4.308 -0.4708 -0.0069  1.5553
 2313SOL     OW18400   0.940   4.285  17.261 -0.3309  0.3985 -0.1696
 2313SOL    HW118401   0.936   4.380  17.272 -0.0748  0.4344 -0.4017
 2313SOL    HW218402   0.929   4.260  17.352  3.6110 -0.9593 -0.1106
 2314SOL     OW18403   3.119   1.631   4.364  0.4110  0.0322 -0.0536
 2314SOL    HW118404   3.192   1.617   4.425 -0.4394  1.4385  1.2804
 2314SOL    HW218405   3.048   1.583   4.406  0.0622  1.2753  0.7858
 2315SOL     OW18406   3.076   2.813   4.470 -0.3130  0.1377 -0.2177
 2315SOL    HW118407   2.984   2.790   4.453  0.0524 -1.1299 -0.5494
 2315SOL    HW218408   3.075   2.889   4.528  0.5976  0.4740 -0.6468
 2316SOL     OW18409   4.583   3.631   5.457 -0.3588  0.4378  0.2022
 2316SOL    HW118410   4.502   3.609   5.504 -0.7170 -0.3798 -0.7903
 2316SOL    HW218411   4.552   3.601   5.371  4.1594 -0.2009 -1.1895
 2317SOL     OW18412   1.228   1.694   5.753  0.0754  0.0549 -0.3252
 2317SOL    HW118413   1.280   1.636   5.809 -1.0099  0.2759  0.8922
 2317SOL    HW218414   1.185   1.636   5.690  0.5940 -1.1414  0.4178
 2318SOL     OW18415   4.727   4.685   7.923  0.3694 -0.6111 -0.4949
 2318SOL    HW118416   4.643   4.642   7.939  0.4570 -1.5081 -2.3537
 2318SOL    HW218417   0.021   4.716   8.010 -1.2456  0.0692 -0.3168
 2319SOL     OW18418   1.123   4.462   6.090 -0.2118  0.1401 -0.4421
 2319SOL    HW118419   1.170   4.440   6.010 -1.3645 -4.6188  0.1774
 2319SOL    HW218420   1.033   4.447   6.062 -1.3155  2.5313  1.7897
 2320SOL     OW18421   4.128   1.754   1.504  0.0676 -0.2144  0.0917
 2320SOL    HW118422   4.071   1.827   1.480 -0.5824  0.0666  2.5174
 2320SOL    HW218423   4.109   1.687   1.438 -0.4668  0.6092 -0.5785
 2321SOL     OW18424   3.627   2.818  13.727 -0.2946 -0.8101 -0.4767
 2321SOL    HW118425   3.532   2.826  13.720 -0.1130  0.0697 -1.7181
 2321SOL    HW218426   3.673   2.901  13.715 -4.3475  1.4180 -0.6719
 2322SOL     OW18427   1.225   2.615   3.713 -0.4545  0.1718 -0.0930
 2322SOL    HW118428   1.147   2.669   3.700 -0.4060 -0.0349 -1.2403
 2322SOL    HW218429   1.251   2.603   3.621  1.4890  0.0565  0.4789
 2323SOL     OW18430   0.869   2.346   8.195  0.1572  0.0650 -0.1671
 2323SOL    HW118431   0.806   2.307   8.256  0.3430  0.8048  0.5022
 2323SOL    HW218432   0.853   2.439   8.210  0.1517 -0.4266  2.9843
 2324SOL     OW18433   3.561   4.170   4.385  0.0429  0.6508  0.8875
 2324SOL    HW118434   3.524   4.172   4.473 -0.2401  2.0706  0.7376
 2324SOL    HW218435   3.484   4.182   4.330  1.3948 -0.0209 -1.1635
 2325SOL     OW18436   1.214   1.653  10.243 -0.9349 -0.2301 -0.0780
 2325SOL    HW118437   1.181   1.683  10.328 -2.1807  0.5874 -0.8623
 2325SOL    HW218438   1.162   1.573  10.244 -2.2957  0.6731  2.3568
 2326SOL     OW18439   1.366   4.600   1.929 -0.0869 -0.3421  0.4827
 2326SOL    HW118440   1.409   4.662   1.870  0.1813 -0.6729  0.3270
 2326SOL    HW218441   1.326   4.543   1.863  1.5461  0.6117 -1.3479
 2327SOL     OW18442   1.683   3.781  11.886  0.3411  0.1201 -0.7408
 2327SOL    HW118443   1.678   3.732  11.805 -1.3869 -0.9301 -0.0019
 2327SOL    HW218444   1.778   3.791  11.892  0.1949 -0.1890  2.0111
 2328SOL     OW18445   3.604   4.082   6.676  0.0951 -0.4109  0.0358
 2328SOL    HW118446   3.555   4.037   6.745  0.3398  0.1686  0.5846
 2328SOL    HW218447   3.663   4.012   6.646  0.3420 -0.3206  0.3047
 2329SOL     OW18448   4.240   2.088   9.915  0.0965 -0.2961  0.0252
 2329SOL    HW118449   4.192   2.006   9.901 -0.9282  0.0905  1.2712
 2329SOL    HW218450   4.255   2.079  10.009 -0.7110 -2.0897 -0.0101
 2330SOL     OW18451   0.469   2.484   9.520  1.0519 -0.1771  0.9125
 2330SOL    HW118452   0.466   2.557   9.582  3.2957 -0.2303  1.0615
 2330SOL    HW218453   0.515   2.415   9.568  0.2853 -0.1921  1.6422
 2331SOL     OW18454   0.941   3.668   3.259 -0.0492  0.2950  0.3374
 2331SOL    HW118455   0.885   3.595   3.231  0.7322 -0.6736  1.3102
 2331SOL    HW218456   0.878   3.732   3.292 -0.7712 -0.1060 -0.2435
 2332SOL     OW18457   0.709   2.608   9.709  0.1334  0.1618  0.2351
 2332SOL    HW118458   0.791   2.574   9.673 -0.4703 -0.0561 -0.9239
 2332SOL    HW218459   0.711   2.582   9.801  2.1828  0.7439  0.3557
 2333SOL     OW18460   0.561   1.464   1.600 -0.0971 -0.4380 -0.2558
 2333SOL    HW118461   0.533   1.494   1.686 -1.6550  0.6417 -1.1456
 2333SOL    HW218462   0.551   1.369   1.611 -4.4842  0.0156 -0.4203
 2334SOL     OW18463   2.862   2.414   5.630 -0.2831  0.0978  0.3316
 2334SOL    HW118464   2.779   2.369   5.618 -0.1428  0.0016 -0.2675
 2334SOL    HW218465   2.897   2.378   5.711  0.9173 -0.5675 -0.4855
 2335SOL     OW18466   4.599   2.893   4.489  0.5750 -0.5788 -0.3772
 2335SOL    HW118467   4.552   2.973   4.468 -1.0998 -1.3002  0.5761
 2335SOL    HW218468   4.540   2.820   4.471  0.7560 -0.9236  0.4404
 2336SOL     OW18469   1.596   0.702   6.073 -0.3082  0.3594  0.7196
 2336SOL    HW118470   1.679   0.750   6.068  0.4169 -1.0507 -0.6151
 2336SOL    HW218471   1.564   0.735   6.157 -0.8366 -0.8256  0.9738
 2337SOL     OW18472   2.203   1.631   6.400  0.2580  0.3476  0.5179
 2337SOL    HW118473   2.160   1.680   6.470 -0.8886 -1.3705  1.0122
 2337SOL    HW218474   2.272   1.590   6.452  1.9171 -0.6295 -2.4295
 2338SOL     OW18475   1.403   3.719   7.762 -0.5031  0.0438 -0.6531
 2338SOL    HW118476   1.346   3.658   7.808  1.3332 -0.0266  1.5135
 2338SOL    HW218477   1.370   3.717   7.672 -0.0506  0.7675 -0.8394
 2339SOL     OW18478   4.332   1.103   5.558 -0.2848  0.4173 -0.6153
 2339SOL    HW118479   4.267   1.035   5.572  1.4870 -1.3088 -0.7074
 2339SOL    HW218480   4.414   1.064   5.589  0.8469  1.1893 -2.6143
 2340SOL     OW18481   0.458   4.426   3.238  0.3778  0.0691 -0.3352
 2340SOL    HW118482   0.533   4.382   3.198 -0.0718 -2.0861  1.2044
 2340SOL    HW218483   0.384   4.405   3.181  1.6570  2.0986 -2.7703
 2341SOL     OW18484   1.928   3.544  11.963  0.0649  0.0126  0.6812
 2341SOL    HW118485   1.931   3.637  11.938  1.9083  0.4566  2.5494
 2341SOL    HW218486   1.849   3.546  12.018  0.2810  2.1339  0.9114
 2342SOL     OW18487   0.394   3.184  12.927 -0.2831 -0.3770  0.2046
 2342SOL    HW118488   0.445   3.106  12.904 -0.9366 -0.9135  0.5852
 2342SOL    HW218489   0.320   3.173  12.867 -0.3155  2.3903 -0.2338
 2343SOL     OW18490   3.371   3.784   6.315  0.8950 -0.0750  0.1515
 2343SOL    HW118491   3.371   3.795   6.410 -0.2313 -0.1102  0.1498
 2343SOL    HW218492   3.404   3.874   6.305 -0.7916  0.4867 -0.4105
 2344SOL     OW18493   4.326   3.855  12.997 -0.7646  0.3977 -0.2224
 2344SOL    HW118494   4.270   3.858  12.920  0.1230 -3.1672 -0.9813
 2344SOL    HW218495   4.284   3.910  13.063 -0.5415  0.0510  0.2104
 2345SOL     OW18496   1.040   1.894  12.549 -0.3553  0.3949 -0.2349
 2345SOL    HW118497   0.997   1.835  12.611 -0.0419  1.5655  1.1047
 2345SOL    HW218498   1.083   1.830  12.493  0.5082  0.2670  0.5587
 2346SOL     OW18499   1.439   1.653   9.559  0.4912 -0.2497  0.0199
 2346SOL    HW118500   1.354   1.685   9.529  0.0914  1.3195  2.8693
 2346SOL    HW218501   1.478   1.682   9.476  2.5457 -0.9214  0.7526
 2347SOL     OW18502   2.446   0.873   3.985 -0.6357 -0.1799  0.5199
 2347SOL    HW118503   2.437   0.872   3.890 -2.6515 -1.6511  0.7213
 2347SOL    HW218504   2.514   0.808   4.003  0.4128  1.2552  1.7582
 2348SOL     OW18505   2.254   2.665  10.626  0.3304  0.3857 -0.4170
 2348SOL    HW118506   2.184   2.728  10.640  0.8685  0.7348  0.7154
 2348SOL    HW218507   2.318   2.708  10.569  2.7035 -2.1317  0.3453
 2349SOL     OW18508   3.649   0.439   8.665 -0.0004 -0.1967  0.4485
 2349SOL    HW118509   3.716   0.376   8.640  1.6605  2.1054 -0.8458
 2349SOL    HW218510   3.680   0.528   8.647 -0.1289  0.1258  1.8099
 2350SOL     OW18511   4.596   3.447   9.400  0.3782 -0.4483  0.4127
 2350SOL    HW118512   4.531   3.455   9.470 -1.0271 -1.6389 -0.7561
 2350SOL    HW218513   4.535   3.414   9.333  0.0880 -0.5841  0.7436
 2351SOL     OW18514   0.098   1.528   7.851  0.2072  0.2732 -0.0578
 2351SOL    HW118515   0.120   1.604   7.904 -2.3776  1.3895 -0.5697
 2351SOL    HW218516   0.182   1.486   7.832 -0.5962 -1.7922  0.9452
 2352SOL     OW18517   0.408   4.186   2.481  0.4267 -0.4664  0.0811
 2352SOL    HW118518   0.323   4.166   2.442 -0.2398  2.5392 -0.0267
 2352SOL    HW218519   0.458   4.112   2.448  0.0455 -0.5192 -0.3921
 2353SOL     OW18520   3.779   4.224   2.374  0.8203 -0.1932 -0.3454
 2353SOL    HW118521   3.801   4.275   2.453  3.4111 -0.6836 -0.7427
 2353SOL    HW218522   3.721   4.288   2.332  0.1327  0.0399  0.9394
 2354SOL     OW18523   3.183   3.163  16.064 -0.3302  0.6990 -0.0539
 2354SOL    HW118524   3.217   3.084  16.105  1.0879  2.1634  1.5639
 2354SOL    HW218525   3.255   3.200  16.014 -0.5017  0.3832 -0.5363
 2355SOL     OW18526   2.784   0.344  14.032 -0.2248  0.0609 -0.1046
 2355SOL    HW118527   2.716   0.340  13.964  0.3918 -1.7889 -0.6167
 2355SOL    HW218528   2.864   0.306  13.995 -0.7762 -1.9919  0.8747
 2356SOL     OW18529   0.270   1.142   4.200 -0.3657  0.0822  0.3613
 2356SOL    HW118530   0.257   1.234   4.223  1.4022 -0.2737  2.7100
 2356SOL    HW218531   0.193   1.134   4.143 -0.1630  1.0793 -0.0583
 2357SOL     OW18532   1.379   1.442  10.996  0.0118 -0.7201 -0.3469
 2357SOL    HW118533   1.379   1.470  11.087  1.2232 -0.3705 -0.4549
 2357SOL    HW218534   1.410   1.524  10.958 -3.0548  0.8875  0.6663
 2358SOL     OW18535   2.259   2.531  15.165  0.0050 -0.2623  0.1574
 2358SOL    HW118536   2.227   2.442  15.160 -0.4936  0.0467 -1.7928
 2358SOL    HW218537   2.352   2.510  15.179 -0.1534  0.3891  2.2025
 2359SOL     OW18538   3.817   4.006   4.353 -0.0478 -0.5284 -0.1356
 2359SOL    HW118539   3.751   4.058   4.399 -0.7096  0.2427 -1.9561
 2359SOL    HW218540   3.760   3.951   4.300  1.2115  0.1527 -2.2203
 2360SOL     OW18541   2.578   2.311   7.331 -0.5537  0.4127 -0.1326
 2360SOL    HW118542   2.637   2.363   7.277 -2.8310  1.8062 -1.2522
 2360SOL    HW218543   2.637   2.285   7.402  0.4998  1.7707 -0.5255
 2361SOL     OW18544   2.281   0.196   2.657  0.3891  0.4937  0.1137
 2361SOL    HW118545   2.228   0.268   2.621 -1.6569 -2.7147 -3.4044
 2361SOL    HW218546   2.241   0.117   2.619 -0.2372 -0.1792  2.1551
 2362SOL     OW18547   1.065   0.068   2.323 -0.1580  0.0687 -0.0126
 2362SOL    HW118548   1.131   0.103   2.382 -1.6145  1.0664  1.0297
 2362SOL    HW218549   1.066   0.142   2.262 -1.4809 -1.8063 -2.3527
 2363SOL     OW18550   2.267   4.048   2.495 -0.0105 -0.1854  0.3049
 2363SOL    HW118551   2.353   4.018   2.465 -0.4433 -0.9345 -0.1909
 2363SOL    HW218552   2.302   4.128   2.534  0.1860 -0.7908  1.3941
 2364SOL     OW18553   1.678   1.605  12.671  0.0869  0.2419  0.3506
 2364SOL    HW118554   1.692   1.561  12.755 -0.1256 -1.3255 -0.4411
 2364SOL    HW218555   1.622   1.675  12.704  0.3008  1.2211 -1.3872
 2365SOL     OW18556   4.472   2.740   5.371  0.0620 -0.3372 -0.5819
 2365SOL    HW118557   4.514   2.657   5.349 -2.4970 -2.4489  2.6999
 2365SOL    HW218558   4.436   2.720   5.457  0.2959  1.0451 -0.1632
 2366SOL     OW18559   4.647   3.456   7.518  0.7239 -0.2137  0.2118
 2366SOL    HW118560   4.594   3.469   7.598  0.0572 -1.0915 -0.0920
 2366SOL    HW218561   4.728   3.493   7.553  0.4096  0.5375  0.1385
 2367SOL     OW18562   1.554   3.016  15.100 -0.1310 -0.0446 -0.1235
 2367SOL    HW118563   1.633   3.003  15.047 -0.6976  0.1594 -1.0146
 2367SOL    HW218564   1.589   3.085  15.157  1.6031  0.1912 -1.4654
 2368SOL     OW18565   2.561   0.384   4.822 -0.2497  0.2750  0.3181
 2368SOL    HW118566   2.568   0.290   4.803  0.5097  0.2153  0.9045
 2368SOL    HW218567   2.483   0.416   4.777  0.0984 -1.2178 -1.3847
 2369SOL     OW18568   4.375   2.663   5.635  0.0571  0.1299  0.2361
 2369SOL    HW118569   4.328   2.712   5.702  1.8700 -0.1991  1.7397
 2369SOL    HW218570   4.461   2.644   5.672  0.5277  1.8298  0.0285
 2370SOL     OW18571   2.132   4.008  10.192 -0.1739 -0.0556 -0.3846
 2370SOL    HW118572   2.113   3.937  10.254  0.2159  0.8551  0.7674
 2370SOL    HW218573   2.117   3.979  10.102 -4.1538 -1.8457  0.8446
 2371SOL     OW18574   1.023   4.513   8.655  0.4289 -0.0752 -0.2585
 2371SOL    HW118575   1.118   4.509   8.663  0.4733 -0.6769 -1.0594
 2371SOL    HW218576   0.991   4.435   8.700  0.3503  0.4960  0.6609
 2372SOL     OW18577   0.230   1.103   6.793  0.3197 -0.2508 -0.5441
 2372SOL    HW118578   0.311   1.056   6.773  0.3051 -1.2674  1.8160
 2372SOL    HW218579   0.222   1.084   6.886 -1.3141 -0.2046 -0.6796
 2373SOL     OW18580   3.781   3.294   0.150  0.6562 -0.7938 -0.1362
 2373SOL    HW118581   3.847   3.354   0.186  1.4446 -0.9864 -1.2610
 2373SOL    HW218582   3.748   3.352   0.081 -1.0826 -0.1062  1.2886
 2374SOL     OW18583   2.573   1.996   8.330 -0.3115  0.0720 -0.3460
 2374SOL    HW118584   2.600   1.920   8.278 -0.8182  1.2942 -2.3737
 2374SOL    HW218585   2.612   1.982   8.417 -1.3521  0.8370  0.2480
 2375SOL     OW18586   4.352   2.448   3.512  0.1847 -0.3103 -0.3188
 2375SOL    HW118587   4.384   2.506   3.442  0.2182  1.4242  1.1344
 2375SOL    HW218588   4.346   2.364   3.467  0.5578 -0.8958  0.7290
 2376SOL     OW18589   4.188   2.970  17.268  0.0767  0.5052 -0.1237
 2376SOL    HW118590   4.183   2.995  17.175  0.5895  2.3331  0.3356
 2376SOL    HW218591   4.112   2.912  17.272  0.1769  0.3313 -0.6531
 2377SOL     OW18592   3.349   0.885   3.970  0.0175  0.2702  0.2614
 2377SOL    HW118593   3.402   0.932   3.905 -0.1270 -0.8932 -0.6919
 2377SOL    HW218594   3.343   0.957   4.033  0.8268  1.4989 -1.0699
 2378SOL     OW18595   4.728   3.887   9.090  0.5136  0.0398 -0.4148
 2378SOL    HW118596   4.715   3.798   9.056  1.0239 -0.5513  0.9645
 2378SOL    HW218597   4.653   3.937   9.058  1.5795  2.1219  0.3643
 2379SOL     OW18598   4.399   3.667   3.455  0.0677 -0.6303  0.4988
 2379SOL    HW118599   4.456   3.634   3.386 -2.2811  1.7439 -2.5658
 2379SOL    HW218600   4.449   3.739   3.495 -1.7867  2.0466 -2.0146
 2380SOL     OW18601   1.231   3.715  10.293 -0.7152 -0.7501  1.0351
 2380SOL    HW118602   1.282   3.741  10.370 -0.5896  1.2256  0.3078
 2380SOL    HW218603   1.300   3.696  10.229 -0.9822  1.0796  0.2099
 2381SOL     OW18604   1.772   0.941   8.829  0.5455  0.3443 -0.2621
 2381SOL    HW118605   1.747   0.849   8.818 -0.2884  0.4703  0.5285
 2381SOL    HW218606   1.845   0.941   8.768 -0.8210  0.7312 -1.9163
 2382SOL     OW18607   4.566   0.189   3.937 -0.1237 -0.0387 -0.1334
 2382SOL    HW118608   4.616   0.218   4.013 -1.4900  0.6782  0.4869
 2382SOL    HW218609   4.530   0.107   3.972  0.2720 -0.3852 -0.5414
 2383SOL     OW18610   3.190   3.628   5.287  0.3065 -0.0375 -0.1384
 2383SOL    HW118611   3.205   3.639   5.193 -1.3029  0.0845 -0.3794
 2383SOL    HW218612   3.250   3.695   5.318  0.1446  0.2322 -0.4041
 2384SOL     OW18613   4.247   0.443   5.087 -0.3681 -0.4290  0.2677
 2384SOL    HW118614   4.200   0.367   5.123  0.9502 -0.7318  1.3798
 2384SOL    HW218615   4.181   0.508   5.112 -0.3530 -0.3038 -0.0249
 2385SOL     OW18616   0.854   3.617   1.628 -0.3620  0.2098  0.1248
 2385SOL    HW118617   0.888   3.580   1.546 -0.6544 -0.1433  0.1639
 2385SOL    HW218618   0.924   3.596   1.689  0.3274 -1.5743 -1.2496
 2386SOL     OW18619   2.271   0.216   5.853 -0.0131 -0.5025 -0.0491
 2386SOL    HW118620   2.352   0.242   5.898 -0.2281 -1.8023  1.0839
 2386SOL    HW218621   2.223   0.299   5.854  2.1106  0.7265  0.4981
 2387SOL     OW18622   0.473   4.163   6.725 -0.3940  0.0920 -1.0491
 2387SOL    HW118623   0.490   4.103   6.652  1.7262 -1.8175  1.0170
 2387SOL    HW218624   0.540   4.231   6.719 -2.2679  1.9247 -1.2362
 2388SOL     OW18625   4.464   1.413   2.871 -0.1274 -0.3245 -0.0126
 2388SOL    HW118626   4.549   1.406   2.826  0.4253  0.0943  0.9821
 2388SOL    HW218627   4.411   1.461   2.808  0.0842  2.7858  2.1871
 2389SOL     OW18628   1.705   4.316   8.595  0.1062 -0.6678 -0.2640
 2389SOL    HW118629   1.630   4.354   8.640  0.1892  2.3521 -2.6563
 2389SOL    HW218630   1.698   4.360   8.511 -4.0120  1.8939  1.4280
 2390SOL     OW18631   0.998   1.217  14.336 -0.5003  0.4248  0.1440
 2390SOL    HW118632   0.961   1.222  14.424  0.7846 -1.4320  0.8016
 2390SOL    HW218633   0.927   1.183  14.281 -0.0585  1.2010 -0.9129
 2391SOL     OW18634   1.349   4.249   1.228  0.2301 -0.0511 -0.0493
 2391SOL    HW118635   1.411   4.217   1.162 -0.2923 -0.4221 -0.3606
 2391SOL    HW218636   1.334   4.170   1.280 -0.4908 -0.2932 -0.6271
 2392SOL     OW18637   2.095   0.382  13.588 -0.2788 -0.7396 -0.0207
 2392SOL    HW118638   2.071   0.395  13.680 -1.6976 -0.4688 -0.4232
 2392SOL    HW218639   2.014   0.383  13.538 -2.0206  0.4721  2.8187
 2393SOL     OW18640   3.025   4.033   4.930  0.2340  0.5383  0.3914
 2393SOL    HW118641   2.942   4.000   4.964  0.8256 -1.0023  0.3305
 2393SOL    HW218642   3.096   3.987   4.975  0.6044  2.2700  1.5611
 2394SOL     OW18643   4.498   4.198   5.981 -0.3444  0.1881  0.4523
 2394SOL    HW118644   4.468   4.274   5.931 -0.8648 -0.0924  0.3412
 2394SOL    HW218645   4.412   4.184   6.020 -1.3275  2.1494 -0.9617
 2395SOL     OW18646   1.809   4.614   3.216 -0.2485 -0.2222 -0.6692
 2395SOL    HW118647   1.721   4.649   3.204 -1.1853 -2.1509  0.5339
 2395SOL    HW218648   1.854   4.693   3.247 -0.7050  0.7804 -2.5214
 2396SOL     OW18649   1.652   2.852   2.189  0.2036  0.1256 -0.1774
 2396SOL    HW118650   1.717   2.784   2.171 -0.4793 -0.8891  1.1528
 2396SOL    HW218651   1.710   2.926   2.206  0.1796  0.2066 -0.4465
 2397SOL     OW18652   3.682   4.679   4.962  0.0423 -0.3409  0.1354
 2397SOL    HW118653   3.635   4.635   5.032 -0.8060  2.0083  1.0218
 2397SOL    HW218654   3.630   4.651   4.886  0.7877 -0.6163 -0.2720
 2398SOL     OW18655   2.965   2.168   4.094 -0.3700 -0.1310 -0.3545
 2398SOL    HW118656   2.958   2.090   4.038  0.9211 -1.6590  1.6021
 2398SOL    HW218657   2.966   2.240   4.031 -1.4886  0.0712 -0.1344
 2399SOL     OW18658   1.966   1.852   9.291 -0.0617  0.8349 -0.2493
 2399SOL    HW118659   1.916   1.771   9.305  0.0479  0.8086 -0.0094
 2399SOL    HW218660   2.021   1.823   9.218  1.2985  1.5538  0.4858
 2400SOL     OW18661   2.064   3.518   8.023 -0.3411  0.2240  0.0860
 2400SOL    HW118662   2.078   3.509   7.928 -0.4375 -0.1985  0.1123
 2400SOL    HW218663   1.977   3.480   8.012 -0.5539  0.9867 -0.9155
 2401SOL     OW18664   2.731   0.640   5.291  0.3866 -0.1301  0.2585
 2401SOL    HW118665   2.647   0.672   5.326  0.3772  1.5279 -1.2873
 2401SOL    HW218666   2.705   0.549   5.276  0.8734 -0.1307 -0.5514
 2402SOL     OW18667   4.546   2.204   1.955  0.0561  0.7091  0.4609
 2402SOL    HW118668   4.623   2.225   2.007  0.0144 -0.6374  1.0537
 2402SOL    HW218669   4.543   2.281   1.898  1.9128  0.6132  0.2539
 2403SOL     OW18670   1.168   2.546  16.665  0.0981 -0.2117  0.4534
 2403SOL    HW118671   1.106   2.601  16.712  0.2412 -1.9012  2.5833
 2403SOL    HW218672   1.124   2.462  16.676 -0.2463 -0.2901 -1.5794
 2404SOL     OW18673   3.236   1.344   8.266 -0.2808 -0.0430  0.1915
 2404SOL    HW118674   3.327   1.336   8.237 -0.8507  0.1830 -1.6189
 2404SOL    HW218675   3.188   1.338   8.184  0.6948 -1.4934 -0.2672
 2405SOL     OW18676   3.983   1.915   2.118 -0.5987 -0.3488  0.2567
 2405SOL    HW118677   3.897   1.875   2.107  0.0300 -1.6545  0.0902
 2405SOL    HW218678   3.954   2.004   2.137 -1.1082 -0.3025 -0.7886
 2406SOL     OW18679   1.247   3.497   2.301 -0.0896  0.8489 -0.0197
 2406SOL    HW118680   1.334   3.509   2.340 -0.2987 -1.0179  1.0164
 2406SOL    HW218681   1.270   3.532   2.215  1.1299  0.9001  0.3300
 2407SOL     OW18682   4.560   0.901   3.643  0.1450  0.3379  0.4372
 2407SOL    HW118683   4.472   0.888   3.678  0.1975  0.0826  0.4694
 2407SOL    HW218684   4.541   0.892   3.550  0.4045  0.7576  0.3428
 2408SOL     OW18685   3.081   2.460   0.711  0.5118 -0.4047  0.6982
 2408SOL    HW118686   3.002   2.443   0.762  1.2253  1.3030  2.3718
 2408SOL    HW218687   3.141   2.495   0.777  0.5560 -3.3198  2.2497
 2409SOL     OW18688   2.637   4.699  13.811 -0.1695  0.1951  0.0801
 2409SOL    HW118689   2.563   4.672  13.756  0.6804 -1.4898 -0.2270
 2409SOL    HW218690   2.681   0.023  13.744  1.3478 -0.5371  0.5007
 2410SOL     OW18691   0.327   1.529   5.505 -0.2280  0.2493  0.2080
 2410SOL    HW118692   0.339   1.623   5.521 -0.1847  0.5489 -1.6055
 2410SOL    HW218693   0.333   1.517   5.410 -1.1525 -0.8459  0.2900
 2411SOL     OW18694   3.774   1.533  12.067  0.6426  0.7410 -0.4243
 2411SOL    HW118695   3.768   1.444  12.100 -1.3861  0.8471 -0.5359
 2411SOL    HW218696   3.862   1.554  12.098  0.6442 -0.6285  0.4519
 2412SOL     OW18697   3.427   2.180   2.178 -0.4146 -0.4567  0.0953
 2412SOL    HW118698   3.455   2.197   2.088  0.8550  0.4472  0.6586
 2412SOL    HW218699   3.471   2.255   2.218 -1.1730 -0.5494  1.0958
 2413SOL     OW18700   4.563   0.754   7.901  0.2116 -0.2685 -0.1556
 2413SOL    HW118701   4.486   0.696   7.897  1.5747 -2.0239 -0.6177
 2413SOL    HW218702   4.575   0.758   7.996  1.1354 -2.5397 -0.1991
 2414SOL     OW18703   2.763   1.707  16.592 -0.2456 -0.3289 -0.2015
 2414SOL    HW118704   2.713   1.788  16.590 -1.7453 -1.2464  0.8119
 2414SOL    HW218705   2.711   1.643  16.544 -1.9205  1.2991 -0.5698
 2415SOL     OW18706   0.567   3.754   4.318 -0.1059  0.0387  0.3235
 2415SOL    HW118707   0.547   3.847   4.312 -1.5485 -0.2617  0.4083
 2415SOL    HW218708   0.509   3.739   4.392 -0.4930  0.2908  0.0722
 2416SOL     OW18709   1.932   3.260  16.944  0.6278 -0.0886  0.0934
 2416SOL    HW118710   1.993   3.194  16.976 -0.3155 -2.0804 -2.2156
 2416SOL    HW218711   1.896   3.300  17.023  0.1396 -0.6562  0.1560
 2417SOL     OW18712   3.668   3.364   8.992  0.8655  0.1131  1.1160
 2417SOL    HW118713   3.586   3.316   8.978  1.5743 -1.0823  1.0870
 2417SOL    HW218714   3.708   3.302   9.053  0.9649  0.2667  1.2042
 2418SOL     OW18715   1.049   2.510  15.658 -0.2707 -0.0694  0.4594
 2418SOL    HW118716   1.138   2.479  15.641  0.1848  1.5154 -0.0313
 2418SOL    HW218717   1.029   2.569  15.586 -0.8505 -1.2155 -0.3330
 2419SOL     OW18718   3.130   4.724  13.017 -0.7519  0.4222  0.0802
 2419SOL    HW118719   3.149   0.003  13.111  3.1627  1.3470 -0.7508
 2419SOL    HW218720   3.066   0.065  13.003 -0.5952  0.8302  1.3428
 2420SOL     OW18721   1.484   4.704   8.524 -0.2348  1.3354 -0.0275
 2420SOL    HW118722   1.479   0.061   8.484  3.2818  1.5149 -0.0520
 2420SOL    HW218723   1.547   4.725   8.593  1.0405  0.6543 -1.0038
 2421SOL     OW18724   0.491   2.384   3.112  0.0796 -0.2899 -0.1567
 2421SOL    HW118725   0.429   2.415   3.179  1.0889  1.5159 -0.0401
 2421SOL    HW218726   0.507   2.465   3.063  0.4449 -0.5653 -0.4957
 2422SOL     OW18727   2.105   4.467   9.031  0.0314 -0.4836  0.2501
 2422SOL    HW118728   2.077   4.411   9.103 -0.8169 -0.1911  0.1550
 2422SOL    HW218729   2.156   4.421   8.965  3.7361  2.5995  0.9970
 2423SOL     OW18730   3.567   1.971   7.226 -0.1758  0.1019  0.3792
 2423SOL    HW118731   3.586   1.923   7.307  1.5941  0.1163 -0.0329
 2423SOL    HW218732   3.633   2.038   7.208  0.8898 -1.0613 -0.0807
 2424SOL     OW18733   0.516   1.474   7.216 -0.1255  0.3041  0.0492
 2424SOL    HW118734   0.463   1.449   7.141 -0.8463 -2.1685  1.3878
 2424SOL    HW218735   0.541   1.390   7.255  0.7043  0.9027  0.8031
 2425SOL     OW18736   4.718   1.723   8.305 -0.4971  0.2550 -0.3198
 2425SOL    HW118737   4.646   1.662   8.290 -0.2361  0.0454 -0.7133
 2425SOL    HW218738   4.667   1.804   8.305  2.2698  2.0071 -1.1738
 2426SOL     OW18739   1.658   3.324   7.263  0.1067  0.2931  0.3196
 2426SOL    HW118740   1.727   3.267   7.230 -1.0697  0.7617 -3.0068
 2426SOL    HW218741   1.638   3.286   7.348  2.2503 -2.5072 -0.4420
 2427SOL     OW18742   3.429   4.195   4.608 -0.7370 -0.3341 -0.4933
 2427SOL    HW118743   3.337   4.224   4.604 -1.0703 -1.2106  0.7815
 2427SOL    HW218744   3.414   4.139   4.684  1.5052 -0.7876 -0.3970
 2428SOL     OW18745   3.211   2.980   0.487  0.1199  0.3931 -0.3452
 2428SOL    HW118746   3.163   3.023   0.557  0.5020  1.1183 -0.5310
 2428SOL    HW218747   3.218   2.888   0.511  1.0090  1.0421  1.8578
 2429SOL     OW18748   4.045   2.613   2.440 -0.0185 -0.3528 -0.3417
 2429SOL    HW118749   4.055   2.688   2.380  2.9805 -0.1032  0.4920
 2429SOL    HW218750   4.070   2.546   2.377  0.7069 -0.0472 -0.3723
 2430SOL     OW18751   4.162   0.207   5.190 -0.2383 -0.6888  0.8345
 2430SOL    HW118752   4.126   0.126   5.153 -0.5760  0.5944 -1.5925
 2430SOL    HW218753   4.091   0.243   5.243  0.4500  1.7392  0.0742
 2431SOL     OW18754   0.685   0.638   3.726  0.2474  0.2485  0.5555
 2431SOL    HW118755   0.746   0.607   3.659  1.6080 -0.6881  2.2063
 2431SOL    HW218756   0.637   0.701   3.673  1.8768 -1.0022 -2.4163
 2432SOL     OW18757   3.273   2.692  14.439  0.0445 -0.0686  0.0619
 2432SOL    HW118758   3.238   2.604  14.454  3.0700 -1.1861  0.7563
 2432SOL    HW218759   3.262   2.701  14.344  2.6327  0.8429 -0.1547
 2433SOL     OW18760   3.418   4.422   1.791  0.0864 -0.1737 -0.5824
 2433SOL    HW118761   3.494   4.474   1.765 -1.1584  2.7750  1.6528
 2433SOL    HW218762   3.356   4.492   1.811 -0.9892 -1.1304 -0.5934
 2434SOL     OW18763   2.409   2.341   7.563 -0.4601  0.2811  0.8492
 2434SOL    HW118764   2.336   2.373   7.510 -0.0667  0.9118  0.6872
 2434SOL    HW218765   2.468   2.334   7.488  0.9926 -0.7700  2.0908
 2435SOL     OW18766   1.893   0.941  17.081 -0.1114  0.5938 -0.0872
 2435SOL    HW118767   1.829   0.956  17.150  1.1584  1.5970  0.8647
 2435SOL    HW218768   1.889   1.022  17.031  1.0048  1.5439  1.3774
 2436SOL     OW18769   1.974   3.058  15.163  0.1111 -0.1774 -0.4222
 2436SOL    HW118770   2.012   3.041  15.078 -0.8462 -0.7154 -0.7451
 2436SOL    HW218771   1.965   2.969  15.198  0.3266 -0.1502 -0.2960
 2437SOL     OW18772   2.384   4.041   4.446  0.2996  0.0443 -0.3284
 2437SOL    HW118773   2.451   3.975   4.428 -1.0137 -0.7018 -2.4197
 2437SOL    HW218774   2.344   4.050   4.359 -0.2135 -2.2021 -0.3140
 2438SOL     OW18775   4.594   1.696  13.850  0.8051 -0.4075 -0.5633
 2438SOL    HW118776   4.512   1.682  13.896  1.0003  1.3532  0.3545
 2438SOL    HW218777   4.652   1.628  13.883 -1.6895 -2.0799  0.3246
 2439SOL     OW18778   2.877   4.485   6.504  0.1431 -0.4153 -0.2146
 2439SOL    HW118779   2.968   4.455   6.509 -0.4489 -1.9004  2.0419
 2439SOL    HW218780   2.843   4.474   6.594  2.4023 -0.1046  0.6705
 2440SOL     OW18781   1.491   2.574   3.775 -0.3401 -0.1013 -0.2514
 2440SOL    HW118782   1.541   2.541   3.701  0.0932 -0.3801  0.1726
 2440SOL    HW218783   1.403   2.592   3.741 -0.2127  1.9489  0.5055
 2441SOL     OW18784   0.963   1.141   7.868  0.6268  0.1469  0.1019
 2441SOL    HW118785   0.961   1.180   7.780  0.5399  0.0787  0.0731
 2441SOL    HW218786   0.900   1.205   7.903  1.4005  1.6983 -1.3467
 2442SOL     OW18787   3.396   4.003   2.009  0.5151  0.2981 -0.0025
 2442SOL    HW118788   3.402   4.098   2.020  0.4051  0.4449 -1.2302
 2442SOL    HW218789   3.479   3.975   2.047  1.7968  0.8425 -2.3965
 2443SOL     OW18790   1.922   1.546   5.938 -0.2027 -0.1347  0.2929
 2443SOL    HW118791   1.836   1.590   5.935  0.4865  1.0819 -1.9838
 2443SOL    HW218792   1.940   1.535   6.031 -1.5829 -0.3774  0.5379
 2444SOL     OW18793   4.594   2.055   8.196  0.7078 -0.2666 -0.7287
 2444SOL    HW118794   4.676   2.102   8.210 -0.2218  0.9260  0.7941
 2444SOL    HW218795   4.609   2.028   8.106 -0.3274 -2.6927 -0.1622
 2445SOL     OW18796   1.231   2.916  12.531 -0.1678 -0.1696 -0.1220
 2445SOL    HW118797   1.142   2.917  12.567  0.5155 -2.3433  1.5805
 2445SOL    HW218798   1.236   2.991  12.471 -2.8331  0.4002  0.3722
 2446SOL     OW18799   2.810   0.876   4.356  0.5385  0.0783  0.2290
 2446SOL    HW118800   2.850   0.815   4.295  2.6554  0.6322  1.0694
 2446SOL    HW218801   2.737   0.915   4.308  0.5547  0.5391  0.5812
 2447SOL     OW18802   2.359   4.224   3.049 -0.1995 -0.0330  0.3837
 2447SOL    HW118803   2.327   4.282   3.117 -0.9470 -0.2465  0.2099
 2447SOL    HW218804   2.284   4.180   3.009 -0.9347 -0.3223  2.1077
 2448SOL     OW18805   2.264   3.795   7.731  0.0142 -0.0108  0.1093
 2448SOL    HW118806   2.256   3.762   7.821  0.4449  0.3227  0.2691
 2448SOL    HW218807   2.172   3.815   7.712  0.2870  2.3094  1.1375
 2449SOL     OW18808   1.028   0.467  14.788  0.4235  0.4293  0.1498
 2449SOL    HW118809   0.987   0.434  14.708  0.6771 -1.5873  0.8545
 2449SOL    HW218810   1.122   0.454  14.775  0.0374 -2.1436 -0.0132
 2450SOL     OW18811   1.012   2.468  17.432  0.0522  0.6464 -0.1821
 2450SOL    HW118812   0.955   2.398  17.465 -1.7117  1.7236 -0.9537
 2450SOL    HW218813   1.071   2.485  17.506 -0.4373 -0.8114  0.5592
 2451SOL     OW18814   2.524   1.509   4.757  0.3056  0.2230  0.7132
 2451SOL    HW118815   2.532   1.495   4.663 -1.6778 -1.0008  0.7289
 2451SOL    HW218816   2.610   1.481   4.786  0.9871  0.2606 -1.2845
 2452SOL     OW18817   2.127   2.116  17.666 -0.4253 -0.4078  0.4127
 2452SOL    HW118818   2.209   2.072  17.690 -0.5873 -1.1855 -0.4669
 2452SOL    HW218819   2.160   2.206  17.660 -0.9188 -0.3104 -0.8454
 2453SOL     OW18820   2.045   2.437   1.918  0.5398  0.5281 -0.0545
 2453SOL    HW118821   2.117   2.375   1.902 -0.2167  0.0648 -1.6597
 2453SOL    HW218822   2.081   2.519   1.883  1.8923 -0.2197 -0.4321
 2454SOL     OW18823   4.090   3.070   9.328  0.3077 -0.5103 -0.3050
 2454SOL    HW118824   4.164   3.048   9.385  0.3229 -0.2521 -0.2240
 2454SOL    HW218825   4.107   3.163   9.315  1.3928 -0.4554  1.5632
 2455SOL     OW18826   3.512   3.948  10.477  0.2210  0.4105 -0.3578
 2455SOL    HW118827   3.513   3.857  10.448 -0.8641  0.7095 -1.3144
 2455SOL    HW218828   3.591   3.981  10.436  1.7657 -2.6795  0.1714
 2456SOL     OW18829   2.690   0.612  14.070  0.0584 -0.1307  0.3698
 2456SOL    HW118830   2.716   0.524  14.099  1.4256 -0.4889 -1.8958
 2456SOL    HW218831   2.690   0.650  14.158 -0.2342 -0.0953  0.3552
 2457SOL     OW18832   1.932   3.941   9.676 -0.0868 -0.1557 -0.2082
 2457SOL    HW118833   1.928   3.968   9.585  0.9921  0.6711 -0.0141
 2457SOL    HW218834   1.963   4.021   9.719 -2.3148 -0.0082  1.1384
 2458SOL     OW18835   1.607   3.263  15.825 -0.3091 -0.1279 -0.1402
 2458SOL    HW118836   1.586   3.355  15.840  0.7427 -0.0256  0.7021
 2458SOL    HW218837   1.542   3.235  15.761 -0.5663  1.5086 -0.5858
 2459SOL     OW18838   1.337   3.657  15.236  0.3564 -0.5146 -0.4601
 2459SOL    HW118839   1.294   3.657  15.150  2.2950 -0.7309 -1.4282
 2459SOL    HW218840   1.379   3.742  15.247  3.4811 -2.2061  0.4544
 2460SOL     OW18841   4.311   4.726   6.732  0.2029 -0.4174 -0.2302
 2460SOL    HW118842   4.292   4.662   6.801 -0.8252 -1.7593 -1.7568
 2460SOL    HW218843   4.306   4.667   6.657  2.3001  0.1688 -0.8193
 2461SOL     OW18844   4.256   4.528   4.969  0.4458 -0.7281 -0.4528
 2461SOL    HW118845   4.240   4.468   4.896 -0.7143 -0.3133 -0.5428
 2461SOL    HW218846   4.349   4.512   4.987  0.5138  1.3444  0.9840
 2462SOL     OW18847   1.696   3.574  12.090  0.0060 -0.0450  0.6152
 2462SOL    HW118848   1.654   3.593  12.174 -0.9791  2.1884 -0.3637
 2462SOL    HW218849   1.668   3.647  12.034 -0.5679  0.1196  1.1148
 2463SOL     OW18850   1.267   1.478   3.960  0.2384  0.5916  0.5953
 2463SOL    HW118851   1.218   1.405   3.996  0.1320  0.4629  0.1895
 2463SOL    HW218852   1.352   1.456   3.998 -0.2110 -0.0781  1.2229
 2464SOL     OW18853   3.306   1.655  11.791 -0.6412  0.2242 -0.1040
 2464SOL    HW118854   3.368   1.645  11.863  0.6608  1.8489 -1.0354
 2464SOL    HW218855   3.305   1.749  11.773 -3.2864  0.2256  0.0025
 2465SOL     OW18856   2.731   0.082   6.073  0.3804  0.5062  0.0957
 2465SOL    HW118857   2.715   4.718   6.088 -0.3544  1.0008  2.4201
 2465SOL    HW218858   2.826   0.091   6.077  0.4758 -0.2093 -0.8954
 2466SOL     OW18859   0.699   3.723   9.993  0.1702  0.1980  0.2995
 2466SOL    HW118860   0.738   3.650  10.041  1.2950  1.3490  1.1285
 2466SOL    HW218861   0.692   3.790  10.061 -1.0410  1.0189 -0.6301
 2467SOL     OW18862   2.854   3.914   7.758  0.0028 -0.1225 -0.2422
 2467SOL    HW118863   2.809   3.833   7.780 -0.7023  0.1820 -0.5736
 2467SOL    HW218864   2.931   3.876   7.714  0.8421  0.2749  0.8951
 2468SOL     OW18865   3.188   3.977   2.181  0.0548 -0.4616  0.5360
 2468SOL    HW118866   3.123   3.942   2.120  1.0732 -2.0450  0.3628
 2468SOL    HW218867   3.254   4.003   2.117 -0.8070  0.2783 -0.0501
 2469SOL     OW18868   0.087   4.598   5.206  0.3055 -0.1984  0.4234
 2469SOL    HW118869   0.125   4.666   5.149 -0.5209  0.0570  0.1801
 2469SOL    HW218870   4.728   4.587   5.169  0.2435  0.1218  0.4774
 2470SOL     OW18871   3.122   0.644  15.357 -0.1351 -0.1997 -0.1110
 2470SOL    HW118872   3.085   0.557  15.343  0.6519 -0.6241  0.4676
 2470SOL    HW218873   3.068   0.688  15.291  0.7660  0.4713 -0.4046
 2471SOL     OW18874   2.370   3.895   9.837 -0.0248 -0.1245  0.0809
 2471SOL    HW118875   2.396   3.808   9.868 -2.5931 -1.1217 -0.5476
 2471SOL    HW218876   2.424   3.947   9.896 -0.5531  0.8846 -0.3128
 2472SOL     OW18877   3.481   3.251   4.379  0.3279  0.4146 -0.1680
 2472SOL    HW118878   3.451   3.162   4.362 -0.8590  0.5909  1.0001
 2472SOL    HW218879   3.539   3.242   4.455 -0.3339  1.2577  0.4379
 2473SOL     OW18880   4.384   1.535   7.165 -0.1087 -0.6523  0.2712
 2473SOL    HW118881   4.389   1.487   7.082 -0.2339 -0.1345 -0.0348
 2473SOL    HW218882   4.400   1.459   7.221  1.6049 -0.9122 -0.5734
 2474SOL     OW18883   4.617   3.910  11.075 -0.2706 -0.5444 -0.1193
 2474SOL    HW118884   4.577   3.942  11.156  0.5936  0.4259 -0.0758
 2474SOL    HW218885   4.707   3.900  11.105  0.4172  3.6623 -0.7993
 2475SOL     OW18886   1.082   4.146   1.857  0.3016  0.2460  0.3326
 2475SOL    HW118887   1.115   4.063   1.821 -0.6572  0.5430 -1.1989
 2475SOL    HW218888   1.061   4.122   1.947  0.3954  1.0627  0.5747
 2476SOL     OW18889   3.774   0.212   1.568 -0.7755 -0.1824  0.3644
 2476SOL    HW118890   3.795   0.189   1.658 -3.3797  2.5001  1.6659
 2476SOL    HW218891   3.750   0.128   1.529  2.9143 -0.3033 -1.6566
 2477SOL     OW18892   0.688   1.126   5.080 -0.2795  0.0667 -0.1651
 2477SOL    HW118893   0.774   1.153   5.050 -0.4845 -0.3026 -1.0701
 2477SOL    HW218894   0.682   1.040   5.038  1.6234  0.9142 -2.1248
 2478SOL     OW18895   0.140   2.298   1.344 -0.2205 -0.1512 -0.4621
 2478SOL    HW118896   0.201   2.233   1.311  0.4183  0.6542 -0.8740
 2478SOL    HW218897   0.082   2.314   1.270  0.5408  1.1306 -0.7894
 2479SOL     OW18898   2.382   4.456  13.488 -0.3058  0.3120  0.0543
 2479SOL    HW118899   2.401   4.527  13.426  2.3830 -1.0452 -0.6701
 2479SOL    HW218900   2.459   4.405  13.465 -0.0687  0.1277  1.2902
 2480SOL     OW18901   1.293   0.599   9.094 -0.4697 -0.0407 -0.4672
 2480SOL    HW118902   1.324   0.543   9.165 -0.1588  0.4273 -0.2357
 2480SOL    HW218903   1.337   0.559   9.019 -1.1315  0.3478 -1.0708
 2481SOL     OW18904   3.863   3.700   8.206  0.5381 -0.1653  0.1281
 2481SOL    HW118905   3.858   3.619   8.155 -0.7308 -0.2174  0.3473
 2481SOL    HW218906   3.917   3.664   8.277  0.2352 -1.1344 -0.1311
 2482SOL     OW18907   1.210   3.816   8.603 -0.2096  0.0702  0.6978
 2482SOL    HW118908   1.252   3.828   8.688  0.2408 -0.1230  0.5048
 2482SOL    HW218909   1.231   3.726   8.575 -0.3191  0.2521  0.0390
 2483SOL     OW18910   4.466   0.813   4.548 -0.2629 -0.1193 -0.0083
 2483SOL    HW118911   4.532   0.882   4.553 -0.5648  0.2581 -1.2215
 2483SOL    HW218912   4.409   0.848   4.480  3.4420  0.4899 -2.7702
 2484SOL     OW18913   2.722   0.967  14.462 -0.2726  0.1123  0.2687
 2484SOL    HW118914   2.644   0.967  14.518 -0.4314 -0.3550  0.0508
 2484SOL    HW218915   2.785   0.975  14.533  0.8264 -0.0230 -0.6843
 2485SOL     OW18916   2.078   1.291   7.241 -0.6763  0.0702  0.1882
 2485SOL    HW118917   2.012   1.359   7.256  0.6157  1.0421  1.4059
 2485SOL    HW218918   2.096   1.305   7.148  2.1619  0.4800  0.7948
 2486SOL     OW18919   0.007   1.394   2.775  0.0057 -0.4242 -0.2039
 2486SOL    HW118920   0.040   1.423   2.860 -1.5612  0.3051  0.1644
 2486SOL    HW218921   0.062   1.435   2.708 -0.4603 -0.7306 -0.7806
 2487SOL     OW18922   1.727   0.910  17.278  0.4273  0.4971  0.2505
 2487SOL    HW118923   1.750   0.939  17.367  0.4321 -0.8801  0.6998
 2487SOL    HW218924   1.778   0.831  17.261  0.2660  0.6453 -0.8759
 2488SOL     OW18925   2.702   0.171   5.801 -0.1737  0.1180 -0.5055
 2488SOL    HW118926   2.661   0.179   5.887  2.3435  2.2787  0.5080
 2488SOL    HW218927   2.627   0.146   5.746 -1.7171  0.8541  1.2535
 2489SOL     OW18928   1.792   0.888  10.015 -0.1558  0.0803 -0.7851
 2489SOL    HW118929   1.860   0.946  10.050 -0.2712  0.0213 -0.4652
 2489SOL    HW218930   1.723   0.954  10.019 -0.3015  0.1054 -3.6098
 2490SOL     OW18931   3.185   2.258   5.330 -0.2092  0.0896  0.3791
 2490SOL    HW118932   3.135   2.212   5.398 -0.2486  0.9549  0.9396
 2490SOL    HW218933   3.220   2.331   5.381  0.1850  2.3087 -3.0753
 2491SOL     OW18934   2.682   0.837   2.923 -0.4419  0.0506 -0.3043
 2491SOL    HW118935   2.587   0.846   2.919 -0.7958 -3.4418  0.6278
 2491SOL    HW218936   2.701   0.778   2.851  1.2344 -1.1473  1.1009
 2492SOL     OW18937   3.219   0.683  14.596  0.4062  0.0793  0.0666
 2492SOL    HW118938   3.238   0.742  14.669 -1.5774  0.4225  0.3039
 2492SOL    HW218939   3.279   0.723  14.534 -1.0685  2.1540 -0.0222
 2493SOL     OW18940   3.032   1.253   7.209 -0.4694 -0.1136  0.5123
 2493SOL    HW118941   3.084   1.329   7.234 -0.9331  0.2876  0.2479
 2493SOL    HW218942   3.089   1.183   7.241  1.2473  0.9780 -0.1706
 2494SOL     OW18943   1.101   1.868   7.422 -0.2169 -0.0857 -0.0133
 2494SOL    HW118944   1.196   1.880   7.429  0.0712 -1.9888 -0.8144
 2494SOL    HW218945   1.081   1.958   7.447 -0.5656 -0.1359 -0.1197
 2495SOL     OW18946   1.328   3.509   1.713  0.6487  0.0701 -0.0145
 2495SOL    HW118947   1.388   3.583   1.725  1.6125 -0.7246  0.0010
 2495SOL    HW218948   1.386   3.435   1.698  1.0869  0.7538 -1.6716
 2496SOL     OW18949   4.009   0.807   8.370  0.1261 -0.4509  0.7830
 2496SOL    HW118950   3.990   0.720   8.336  2.2894 -0.1084 -1.2983
 2496SOL    HW218951   4.026   0.789   8.463  1.0487 -1.4987  0.4086
 2497SOL     OW18952   3.544   1.895  10.507 -0.1751 -0.3837  0.1761
 2497SOL    HW118953   3.600   1.904  10.584  0.0849  1.8381 -0.2938
 2497SOL    HW218954   3.535   1.984  10.475  0.9757 -0.4921 -0.4313
 2498SOL     OW18955   3.347   1.274  12.659 -0.1840  0.8938  0.0289
 2498SOL    HW118956   3.371   1.339  12.725  0.2045  0.4070  0.3791
 2498SOL    HW218957   3.253   1.278  12.648 -0.2277  0.3672  0.1658
 2499SOL     OW18958   1.750   1.800   5.218  0.4018 -0.0263  0.0895
 2499SOL    HW118959   1.751   1.766   5.307  3.1407 -0.8120 -0.2506
 2499SOL    HW218960   1.761   1.891   5.242  0.8895  0.6798 -2.8010
 2500SOL     OW18961   1.733   0.914   2.171 -0.7849 -0.3735 -0.7915
 2500SOL    HW118962   1.799   0.975   2.203 -0.8892 -1.2008  0.9973
 2500SOL    HW218963   1.786   0.850   2.124 -1.0087  0.1694 -1.8011
 2501SOL     OW18964   3.420   2.382   5.865  0.3143  0.2560 -0.0426
 2501SOL    HW118965   3.504   2.417   5.896 -0.0682 -0.9161  2.3483
 2501SOL    HW218966   3.436   2.369   5.772  2.2199 -2.1950  0.6561
 2502SOL     OW18967   4.698   2.321   9.895  0.1579  0.0835  0.2857
 2502SOL    HW118968   0.018   2.402   9.881  1.2489 -0.8341 -1.1272
 2502SOL    HW218969   0.023   2.257   9.850  0.9338  0.3832  0.7934
 2503SOL     OW18970   1.625   3.237   4.285  0.2248 -0.0484 -0.0189
 2503SOL    HW118971   1.680   3.284   4.221 -1.3521  0.0950 -1.2761
 2503SOL    HW218972   1.584   3.313   4.326  1.3828 -0.3556  1.6854
 2504SOL     OW18973   4.547   0.823   5.474 -0.0196 -0.2049 -0.0086
 2504SOL    HW118974   4.524   0.880   5.401 -1.4048 -0.2975  0.3517
 2504SOL    HW218975   4.642   0.837   5.476 -0.1684  0.9091 -0.8363
 2505SOL     OW18976   2.202   0.381   4.050 -0.2010 -0.2502  0.0119
 2505SOL    HW118977   2.212   0.333   4.132 -0.5607 -0.8213 -0.2730
 2505SOL    HW218978   2.287   0.390   4.006 -0.5766 -4.0018 -1.4686
 2506SOL     OW18979   4.003   2.655  12.491  0.3815 -0.9346  0.7026
 2506SOL    HW118980   4.025   2.609  12.410  3.9169 -1.0697  1.7068
 2506SOL    HW218981   4.091   2.672  12.525  0.1303  1.3030  0.2230
 2507SOL     OW18982   2.816   3.213   3.242 -0.2637  0.3922  0.3216
 2507SOL    HW118983   2.873   3.139   3.219  1.3294  1.5848  0.4653
 2507SOL    HW218984   2.881   3.282   3.235 -0.0445  0.2608  1.0115
 2508SOL     OW18985   2.295   4.226  10.177 -0.4892 -0.8610 -0.4697
 2508SOL    HW118986   2.268   4.272  10.097  1.3045  0.7950 -0.1068
 2508SOL    HW218987   2.236   4.151  10.182 -2.8538  0.9719 -0.5553
 2509SOL     OW18988   0.402   2.114   7.946  0.0322  0.7234  0.1940
 2509SOL    HW118989   0.390   2.046   8.013 -1.2299  0.2327 -0.5342
 2509SOL    HW218990   0.309   2.137   7.942 -0.1359 -0.3980 -2.3064
 2510SOL     OW18991   3.364   1.944   3.587  0.1785  0.5673  0.4071
 2510SOL    HW118992   3.356   1.907   3.675  0.3935 -1.4570 -0.4423
 2510SOL    HW218993   3.391   1.867   3.538  2.0403 -0.2594  2.7008
 2511SOL     OW18994   0.307   2.883   7.910  0.2972 -0.0551 -0.1983
 2511SOL    HW118995   0.255   2.956   7.877 -1.3938 -0.5215  1.4895
 2511SOL    HW218996   0.372   2.876   7.839  0.2842 -1.7548 -0.0365
 2512SOL     OW18997   0.930   1.643  14.884 -0.5424 -0.3800 -0.0487
 2512SOL    HW118998   0.914   1.608  14.972  0.1789 -1.9557 -0.5343
 2512SOL    HW218999   0.870   1.598  14.824  1.1266 -1.2647 -1.0702
 2513SOL     OW19000   0.856   2.683   2.567  0.2526  0.2729  0.4047
 2513SOL    HW119001   0.890   2.658   2.480  0.6986 -0.3406  0.7516
 2513SOL    HW219002   0.930   2.669   2.626  0.7277 -1.5515 -0.5993
 2514SOL     OW19003   3.670   0.686   2.157  0.1141 -0.2108 -0.2553
 2514SOL    HW119004   3.633   0.734   2.231 -0.0503 -0.5790 -0.0990
 2514SOL    HW219005   3.758   0.722   2.149  0.0782  0.2982  1.5234
 2515SOL     OW19006   1.950   0.540   1.552 -0.1616 -0.2656  0.7121
 2515SOL    HW119007   2.012   0.516   1.482 -1.1054 -1.2889  0.2259
 2515SOL    HW219008   1.934   0.461   1.603  1.2518 -0.8481  0.2509
 2516SOL     OW19009   0.134   0.002   6.617 -0.4624 -0.4647  0.1988
 2516SOL    HW119010   0.155   4.659   6.677 -0.0585  0.1968  0.8524
 2516SOL    HW219011   0.056   0.045   6.652  0.3872  1.8603 -0.7867
 2517SOL     OW19012   4.439   4.518   2.542  0.5011  0.6238 -0.3476
 2517SOL    HW119013   4.391   4.599   2.555  3.1387  2.3242 -1.0957
 2517SOL    HW219014   4.508   4.527   2.608  0.4025  1.6244 -0.3737
 2518SOL     OW19015   3.211   3.847   7.438  0.0800  0.6029  0.0482
 2518SOL    HW119016   3.200   3.753   7.423  0.0765  1.0075 -2.3661
 2518SOL    HW219017   3.306   3.859   7.442  0.0859  0.3281  0.7061
 2519SOL     OW19018   1.656   3.212  12.379 -0.1903  0.3895  0.0261
 2519SOL    HW119019   1.565   3.197  12.352 -0.1419 -0.7950  0.5195
 2519SOL    HW219020   1.632   3.277  12.446 -1.0592 -0.1642  0.2513
 2520SOL     OW19021   3.906   1.387   5.306 -0.0301  0.5572 -0.0380
 2520SOL    HW119022   3.828   1.405   5.254  0.3125 -0.3865 -0.8757
 2520SOL    HW219023   3.942   1.311   5.260  0.9021  0.3332  1.0666
 2521SOL     OW19024   2.297   4.263  16.396  0.3972 -0.5825  0.0911
 2521SOL    HW119025   2.204   4.285  16.404  1.0492  1.7139  1.2757
 2521SOL    HW219026   2.330   4.349  16.367 -1.9561  0.7586  1.3804
 2522SOL     OW19027   2.873   1.432   9.995 -0.2254  0.2434  0.1274
 2522SOL    HW119028   2.951   1.387  10.027 -1.5594 -1.5371  0.8470
 2522SOL    HW219029   2.822   1.364   9.950  0.4004  0.3588 -0.7474
 2523SOL     OW19030   4.165   0.326  14.306  0.0991  0.3478  0.1585
 2523SOL    HW119031   4.135   0.416  14.323 -1.0976 -0.2183  1.0964
 2523SOL    HW219032   4.229   0.315  14.376  0.9802  0.5031 -0.6347
 2524SOL     OW19033   1.600   0.021   2.204  0.0743  0.1010  0.1563
 2524SOL    HW119034   1.615   0.012   2.110  0.3397 -0.5133  0.2558
 2524SOL    HW219035   1.505   0.015   2.210 -0.0311  0.4791 -1.1282
 2525SOL     OW19036   2.882   2.557   2.238 -0.3477 -0.0266  0.6259
 2525SOL    HW119037   2.813   2.537   2.302 -0.1709  1.3686  1.2506
 2525SOL    HW219038   2.840   2.571   2.153  0.2492  0.8287  0.4779
 2526SOL     OW19039   0.616   0.384   7.463  0.9111 -0.1131  0.0199
 2526SOL    HW119040   0.673   0.454   7.432 -1.6628  1.1178 -1.8432
 2526SOL    HW219041   0.654   0.359   7.547  0.5992  0.4514  0.3274
 2527SOL     OW19042   1.602   0.348  14.967 -0.6257 -0.3924  1.2219
 2527SOL    HW119043   1.639   0.335  14.880  0.2516 -2.2749  1.8789
 2527SOL    HW219044   1.630   0.264  15.004 -0.9314 -1.7162 -1.6172
 2528SOL     OW19045   0.607   0.528  14.808  0.1921 -0.8781  0.0780
 2528SOL    HW119046   0.591   0.454  14.867  1.8400 -1.0257  0.3364
 2528SOL    HW219047   0.596   0.599  14.871  2.1949 -0.1920 -0.3617
 2529SOL     OW19048   4.636   0.366   3.710 -0.3508  0.0069 -0.3777
 2529SOL    HW119049   4.680   0.366   3.796 -1.3151  0.0599  0.1178
 2529SOL    HW219050   4.616   0.273   3.715  0.9970 -0.2946 -0.5400
 2530SOL     OW19051   4.302   3.108   6.117 -0.5017  0.0840 -0.4154
 2530SOL    HW119052   4.294   3.140   6.027 -0.0199  1.0034 -0.1406
 2530SOL    HW219053   4.211   3.099   6.146 -0.5135  1.1485 -0.1164
 2531SOL     OW19054   0.833   4.064   3.498  0.0186 -0.0711  0.4331
 2531SOL    HW119055   0.919   4.046   3.535  0.6787  0.2076 -0.9910
 2531SOL    HW219056   0.842   4.059   3.403 -1.0790  1.6590  0.2471
 2532SOL     OW19057   3.606   0.470   4.300 -0.0778 -0.1752  0.1244
 2532SOL    HW119058   3.586   0.564   4.306  0.6760 -0.2129  3.2528
 2532SOL    HW219059   3.631   0.460   4.392 -3.5944 -1.2080  0.9885
 2533SOL     OW19060   1.595   1.129   1.046  0.0487 -0.1874 -0.2239
 2533SOL    HW119061   1.593   1.223   1.028  4.2975 -0.1897 -0.5250
 2533SOL    HW219062   1.646   1.126   1.127  1.7149 -1.1370 -1.3131
 2534SOL     OW19063   2.272   4.254  12.456  0.0215 -0.1488  0.1299
 2534SOL    HW119064   2.205   4.311  12.417  0.8342 -0.1253 -1.2524
 2534SOL    HW219065   2.220   4.199  12.515  0.8820 -1.0953  0.0097
 2535SOL     OW19066   0.193   2.442   1.649  0.2153  0.3569 -0.7151
 2535SOL    HW119067   0.160   2.492   1.724  1.2642  0.8459 -0.5836
 2535SOL    HW219068   0.181   2.350   1.676 -0.7590  0.7245  0.1283
 2536SOL     OW19069   1.091   0.719  11.505 -0.6594  0.0502  0.1215
 2536SOL    HW119070   1.090   0.714  11.601 -2.6207 -2.3797 -0.0291
 2536SOL    HW219071   1.118   0.810  11.490  1.0455 -0.3946  0.5025
 2537SOL     OW19072   1.184   2.907   2.172  0.5674  0.0043  0.9847
 2537SOL    HW119073   1.167   2.932   2.263 -0.7428  1.6952  0.2754
 2537SOL    HW219074   1.271   2.946   2.160  0.0684  0.8796  0.1500
 2538SOL     OW19075   0.819   2.878  12.154 -0.4534 -0.4489  0.0508
 2538SOL    HW119076   0.834   2.841  12.067 -2.0588 -0.5464 -0.1894
 2538SOL    HW219077   0.854   2.812  12.214 -0.3611 -0.6374 -0.2119
 2539SOL     OW19078   0.781   3.681   2.391  0.1213  0.4261  0.5824
 2539SOL    HW119079   0.754   3.722   2.308  0.4661  0.3425  0.4278
 2539SOL    HW219080   0.874   3.662   2.377  0.1044  1.1363 -0.4534
 2540SOL     OW19081   1.694   3.647   7.337  0.1651 -0.2989  0.2810
 2540SOL    HW119082   1.722   3.559   7.312  1.2538  0.3681 -0.8812
 2540SOL    HW219083   1.761   3.696   7.291  3.7913 -2.3874  3.3084
 2541SOL     OW19084   0.145   1.843   7.460  0.0740 -0.5684  0.6510
 2541SOL    HW119085   0.109   1.873   7.377  2.2643  2.3240  0.7484
 2541SOL    HW219086   0.074   1.788   7.491 -0.5563 -1.1517 -1.8407
 2542SOL     OW19087   1.906   3.187  15.637  0.2627  0.2040 -0.2468
 2542SOL    HW119088   1.929   3.227  15.721 -2.4522  0.8657  0.1943
 2542SOL    HW219089   1.962   3.110  15.637  1.5093  1.1063 -1.1195
 2543SOL     OW19090   0.653   3.274   3.093 -0.1869 -0.0712 -0.1179
 2543SOL    HW119091   0.636   3.206   3.158  1.5548 -0.7688 -0.3908
 2543SOL    HW219092   0.584   3.265   3.027 -0.4436 -0.0239  0.1445
 2544SOL     OW19093   1.506   2.425   8.291  0.3926  0.4358  0.1589
 2544SOL    HW119094   1.455   2.345   8.276 -0.5881  1.0779  0.0482
 2544SOL    HW219095   1.434   2.489   8.292  0.9543  1.0609  1.4776
 2545SOL     OW19096   3.704   3.824   4.179 -0.1461 -0.5261 -0.1353
 2545SOL    HW119097   3.700   3.878   4.100 -0.6445  1.0271  0.9405
 2545SOL    HW219098   3.639   3.764   4.142 -1.2412 -0.0607  1.0528
 2546SOL     OW19099   2.901   1.007  12.151 -0.3950 -0.3512  0.7964
 2546SOL    HW119100   2.909   0.979  12.060  2.7616 -0.0390  0.9547
 2546SOL    HW219101   2.975   0.971  12.201 -0.3733 -0.9680  0.3118
 2547SOL     OW19102   2.922   2.627   8.465  0.7341 -0.0508 -0.1191
 2547SOL    HW119103   2.968   2.549   8.496  2.1997  0.6168 -0.6203
 2547SOL    HW219104   2.901   2.586   8.381 -0.1381  1.7641 -0.7807
 2548SOL     OW19105   2.207   3.896   5.142 -0.6378  0.2309  0.2787
 2548SOL    HW119106   2.216   3.985   5.177 -1.1645  0.0422  0.8742
 2548SOL    HW219107   2.114   3.878   5.154 -0.1617 -2.0280  0.5699
 2549SOL     OW19108   1.705   0.097  15.011 -0.0805  0.3034 -0.7538
 2549SOL    HW119109   1.668   0.031  14.953 -0.0244 -1.7244  1.4798
 2549SOL    HW219110   1.780   0.047  15.045  0.7931  1.1287 -1.4689
 2550SOL     OW19111   4.419   0.693  17.502  0.0083  0.5960 -0.5026
 2550SOL    HW119112   4.452   0.762  17.559  1.1064 -0.7356  0.4823
 2550SOL    HW219113   4.438   0.733  17.417  1.2525 -0.0390 -0.5229
 2551SOL     OW19114   3.510   0.265   7.295 -0.2123 -0.1725 -0.5406
 2551SOL    HW119115   3.580   0.276   7.359  0.7098 -0.1581 -1.5637
 2551SOL    HW219116   3.545   0.188   7.251  0.2799  0.5668 -1.4398
 2552SOL     OW19117   3.762   0.597  10.350  0.0923 -0.1744  0.5255
 2552SOL    HW119118   3.713   0.546  10.413 -2.0092  0.1193 -0.8540
 2552SOL    HW219119   3.847   0.553  10.351  0.1486 -0.1325 -2.6391
 2553SOL     OW19120   2.828   3.814   2.440 -0.5257  0.2134  0.1957
 2553SOL    HW119121   2.800   3.739   2.387 -2.1402  0.3263  0.8738
 2553SOL    HW219122   2.856   3.777   2.523 -2.0895  1.0226  1.0982
 2554SOL     OW19123   4.250   2.948   9.059 -0.1148 -0.3355 -0.3736
 2554SOL    HW119124   4.325   2.905   9.100 -0.5593 -1.6461 -0.9325
 2554SOL    HW219125   4.184   2.880   9.071  2.1635 -2.6021 -0.7972
 2555SOL     OW19126   1.470   4.679   3.482 -0.1628  0.2121  1.0894
 2555SOL    HW119127   1.475   4.612   3.414 -1.0500 -0.1273  1.3604
 2555SOL    HW219128   1.468   0.033   3.433  0.7631  1.6078  3.3805
 2556SOL     OW19129   0.981   1.782   5.269 -0.1216  0.6968 -0.2829
 2556SOL    HW119130   1.041   1.854   5.252 -0.1870  1.4329  2.6115
 2556SOL    HW219131   1.001   1.763   5.361  0.7146 -4.0596 -1.4581
 2557SOL     OW19132   2.729   1.342   2.262  0.1600  0.3158 -0.7586
 2557SOL    HW119133   2.728   1.284   2.185 -0.6022  1.3731 -1.5380
 2557SOL    HW219134   2.636   1.355   2.282  0.3421  0.4563 -0.0187
 2558SOL     OW19135   3.173   1.789   2.428 -0.7584 -0.1520 -0.0826
 2558SOL    HW119136   3.249   1.828   2.384 -0.0559  0.2462  1.5030
 2558SOL    HW219137   3.107   1.857   2.413 -0.8167 -0.2724 -0.3757
 2559SOL     OW19138   3.331   4.202  15.405  0.5492 -0.2546 -0.2391
 2559SOL    HW119139   3.314   4.110  15.426 -0.9906  0.1532  0.3243
 2559SOL    HW219140   3.364   4.238  15.488  2.3682 -1.4839 -0.4270
 2560SOL     OW19141   1.319   0.635  12.503  0.3368  0.3750 -0.4536
 2560SOL    HW119142   1.362   0.657  12.585 -1.3340 -5.9460  2.1160
 2560SOL    HW219143   1.323   0.717  12.454 -1.5934  1.5120  1.3053
 2561SOL     OW19144   3.931   0.134   9.882 -0.4979 -0.1085  0.1324
 2561SOL    HW119145   3.864   0.066   9.873  0.0540 -0.7276  0.6397
 2561SOL    HW219146   3.913   0.182   9.802  1.2845 -1.8278 -1.3023
 2562SOL     OW19147   1.199   0.634   8.285  0.0334  0.3906  0.0573
 2562SOL    HW119148   1.240   0.704   8.337 -1.8653  1.6442 -0.1421
 2562SOL    HW219149   1.205   0.674   8.198  0.3414 -0.3056 -0.2421
 2563SOL     OW19150   2.270   2.959   7.643 -0.0309  0.3687 -0.3931
 2563SOL    HW119151   2.299   3.049   7.626 -0.1913 -0.1392 -3.2664
 2563SOL    HW219152   2.217   2.985   7.718  0.2348 -0.3522  0.0456
 2564SOL     OW19153   3.050   4.589   7.311  0.2254  0.3360 -0.0654
 2564SOL    HW119154   3.128   4.604   7.364 -0.0514  0.9498  0.1774
 2564SOL    HW219155   3.009   4.674   7.327  1.2064  0.9462 -0.7498
 2565SOL     OW19156   2.018   0.289   4.595 -0.0979  0.2160 -0.2065
 2565SOL    HW119157   2.081   0.224   4.626  0.0566  0.0388 -0.9077
 2565SOL    HW219158   1.956   0.276   4.667 -1.4434 -2.3964 -1.8567
 2566SOL     OW19159   4.026   2.648   3.525  0.8624 -0.0691 -0.5953
 2566SOL    HW119160   4.022   2.554   3.510 -1.3273  0.0830 -0.8569
 2566SOL    HW219161   4.120   2.661   3.542  0.8572  0.5023 -1.0125
 2567SOL     OW19162   2.359   3.263   1.211  1.0655  0.2084  0.0658
 2567SOL    HW119163   2.425   3.332   1.221 -0.0338  1.1874  0.5241
 2567SOL    HW219164   2.302   3.294   1.140 -0.4479 -0.4423  1.0049
 2568SOL     OW19165   3.923   3.035  12.148  0.1911 -0.1180  0.2174
 2568SOL    HW119166   4.006   3.057  12.191  0.2478 -1.0672  0.5778
 2568SOL    HW219167   3.867   2.993  12.213  0.4787 -1.1708 -0.2189
 2569SOL     OW19168   0.125   3.769  10.750 -0.2880 -0.0466 -0.4241
 2569SOL    HW119169   0.201   3.773  10.807 -0.9628 -0.5802  0.5076
 2569SOL    HW219170   0.136   3.860  10.723 -1.7001  0.0392 -0.7113
 2570SOL     OW19171   3.192   0.684   5.817  0.3359  0.3029 -0.6635
 2570SOL    HW119172   3.222   0.615   5.758  0.5044 -1.4048  1.4187
 2570SOL    HW219173   3.264   0.708   5.875 -0.2406 -0.1672  0.2543
 2571SOL     OW19174   2.716   3.839   8.890  0.2358  0.0666 -0.5915
 2571SOL    HW119175   2.713   3.788   8.810  0.5063 -2.5082  1.0458
 2571SOL    HW219176   2.640   3.897   8.882  0.1915  0.0731 -0.1610
 2572SOL     OW19177   1.696   4.595  15.508 -0.2455 -0.1298  0.0117
 2572SOL    HW119178   1.767   4.536  15.483  1.0017  1.6828 -0.6882
 2572SOL    HW219179   1.650   4.606  15.425 -2.6903 -0.9830  1.2451
 2573SOL     OW19180   0.971   1.154   2.860 -0.1218 -0.4566  0.3693
 2573SOL    HW119181   1.052   1.123   2.821  0.2431 -2.1652  2.4250
 2573SOL    HW219182   0.927   1.069   2.851 -1.9080  0.3920  1.1286
 2574SOL     OW19183   2.792   1.645   0.234 -0.4677  0.5053 -0.6541
 2574SOL    HW119184   2.878   1.613   0.209 -0.9656  0.1583 -1.9302
 2574SOL    HW219185   2.791   1.627   0.328  0.8669  0.2246 -0.6980
 2575SOL     OW19186   2.710   1.798   6.979  0.4957  0.1371 -0.0258
 2575SOL    HW119187   2.793   1.806   7.026  1.7280 -1.9760 -1.8639
 2575SOL    HW219188   2.706   1.705   6.955 -0.2899  1.1289 -3.6757
 2576SOL     OW19189   3.838   3.503   8.032  0.3104 -0.1397 -0.2020
 2576SOL    HW119190   3.880   3.540   7.955 -1.8973 -1.3710 -2.0196
 2576SOL    HW219191   3.807   3.416   8.005  1.9317 -0.8026  0.0524
 2577SOL     OW19192   1.451   3.898  15.262 -0.2581  0.0429 -0.3373
 2577SOL    HW119193   1.392   3.973  15.251 -0.4542 -0.3373 -1.8643
 2577SOL    HW219194   1.521   3.924  15.203 -1.0728  2.3352 -0.2768
 2578SOL     OW19195   2.009   4.434   3.237  0.1281 -0.4366 -0.5163
 2578SOL    HW119196   2.051   4.481   3.165  0.7227 -0.2235 -0.0285
 2578SOL    HW219197   1.930   4.487   3.250  0.0765 -0.7410  0.4183
 2579SOL     OW19198   2.640   0.948   9.285 -0.0515  0.3123  0.3269
 2579SOL    HW119199   2.581   0.874   9.266 -1.5840  1.7318 -0.3926
 2579SOL    HW219200   2.712   0.893   9.317 -1.2032 -1.5539 -0.2950
 2580SOL     OW19201   4.093   1.236   5.877 -0.0274 -0.5211 -0.0717
 2580SOL    HW119202   4.117   1.153   5.917  1.0035  0.1663  0.7310
 2580SOL    HW219203   4.080   1.293   5.953  0.6053  1.0424 -1.1460
 2581SOL     OW19204   1.030   2.618   2.360  0.3490 -0.1366 -0.6775
 2581SOL    HW119205   1.032   2.642   2.268 -0.1924 -1.4168 -1.0119
 2581SOL    HW219206   1.110   2.653   2.399 -0.5400  1.0751  0.0659
 2582SOL     OW19207   1.350   3.840   5.484 -0.3035  0.3691 -0.3841
 2582SOL    HW119208   1.407   3.896   5.536  0.0627 -0.1123 -0.2646
 2582SOL    HW219209   1.347   3.890   5.403  0.3765  0.8705 -0.1037
 2583SOL     OW19210   4.604   2.114  17.460 -0.1887 -0.2730  0.0931
 2583SOL    HW119211   4.584   2.023  17.436  2.2583 -0.2478 -1.9335
 2583SOL    HW219212   4.695   2.098  17.485 -0.3813 -0.1501  0.8677
 2584SOL     OW19213   1.651   2.989   7.219 -0.3645  0.7457  0.0173
 2584SOL    HW119214   1.664   3.023   7.131 -0.1732 -0.4211 -0.4111
 2584SOL    HW219215   1.649   2.895   7.198 -0.8404  0.7574  0.0147
 2585SOL     OW19216   2.659   4.105   7.060 -0.0745  0.3278 -0.2210
 2585SOL    HW119217   2.620   4.042   7.121  1.0260 -0.3252 -0.1870
 2585SOL    HW219218   2.584   4.161   7.042 -1.8912 -1.7866  0.6888
 2586SOL     OW19219   2.942   0.669   6.173 -0.5112 -0.6380  0.3345
 2586SOL    HW119220   2.957   0.761   6.193 -0.2842 -1.0871  2.2283
 2586SOL    HW219221   2.969   0.631   6.257  0.7802  0.9536  0.6288
 2587SOL     OW19222   4.499   3.990  10.846 -0.4279 -0.1175 -0.0703
 2587SOL    HW119223   4.566   3.954  10.904  0.3804  1.4875 -0.0297
 2587SOL    HW219224   4.509   4.083  10.861  1.7077 -0.2245 -0.8519
 2588SOL     OW19225   0.872   3.458   7.701  0.5029 -0.0603 -0.1153
 2588SOL    HW119226   0.920   3.419   7.774 -1.3608 -0.6025  0.8408
 2588SOL    HW219227   0.871   3.378   7.649  0.6389 -1.5010  2.1086
 2589SOL     OW19228   1.756   2.132   7.405  0.7410 -0.3685 -0.3225
 2589SOL    HW119229   1.790   2.185   7.477 -3.9604  1.0105  0.8440
 2589SOL    HW219230   1.668   2.113   7.437  1.1528 -1.4367  0.1844
 2590SOL     OW19231   2.738   0.715   2.689  0.1068 -0.4217 -0.2338
 2590SOL    HW119232   2.698   0.634   2.657 -1.9069  0.2265  0.6382
 2590SOL    HW219233   2.678   0.781   2.654 -1.4605 -0.7685  1.7777
 2591SOL     OW19234   0.405   1.284   0.965  0.2529  0.0536 -0.2019
 2591SOL    HW119235   0.491   1.324   0.976  0.2178  0.0380  0.1152
 2591SOL    HW219236   0.369   1.263   1.051  0.1060  1.7093  0.1347
 2592SOL     OW19237   3.305   1.947   2.891  0.3291  0.0710 -0.2976
 2592SOL    HW119238   3.316   2.033   2.850  1.4767 -0.9445 -2.1161
 2592SOL    HW219239   3.297   1.891   2.815  0.0710 -0.2501 -0.0298
 2593SOL     OW19240   4.724   0.018  10.930  0.0799  0.2301 -0.0137
 2593SOL    HW119241   0.047   0.099  10.924 -0.1815  0.4324  0.4539
 2593SOL    HW219242   0.052   4.678  10.964 -0.5359 -0.5887 -0.6755
 2594SOL     OW19243   1.578   1.722  11.191  0.6058  0.0171 -0.2129
 2594SOL    HW119244   1.633   1.700  11.266  1.1123 -0.8488 -0.8374
 2594SOL    HW219245   1.516   1.649  11.190 -1.5226  1.8364 -1.7856
 2595SOL     OW19246   4.250   3.994   6.526 -0.1163 -0.4911 -0.0545
 2595SOL    HW119247   4.215   4.080   6.502 -0.0596 -0.2150  0.8504
 2595SOL    HW219248   4.310   3.964   6.458 -0.7593 -1.5830 -0.1226
 2596SOL     OW19249   4.019   1.433  11.029 -0.5182  0.2445 -0.3843
 2596SOL    HW119250   3.988   1.396  11.111  1.1435  2.0026  1.0278
 2596SOL    HW219251   4.103   1.389  11.014 -1.9206 -3.0110  1.2888
 2597SOL     OW19252   0.524   1.454  10.008  0.1185  0.4221 -0.0278
 2597SOL    HW119253   0.564   1.432   9.924  2.4280 -0.1461  1.2080
 2597SOL    HW219254   0.602   1.482  10.057 -0.6108 -2.7038  2.9707
 2598SOL     OW19255   2.414   4.265   7.009  0.1525  0.1123  0.4389
 2598SOL    HW119256   2.397   4.269   6.915  1.1731  0.1615  0.2620
 2598SOL    HW219257   2.333   4.294   7.050  0.2327  1.9557 -0.7551
 2599SOL     OW19258   0.190   2.306   4.101 -0.1560 -0.2727 -0.5738
 2599SOL    HW119259   0.241   2.365   4.157  0.9557 -1.2097 -0.6161
 2599SOL    HW219260   0.105   2.351   4.101  0.4924  1.0177  3.1302
 2600SOL     OW19261   4.151   3.580  13.171  0.6017  0.6521 -0.4073
 2600SOL    HW119262   4.084   3.512  13.158  0.9191  0.0117  1.2833
 2600SOL    HW219263   4.113   3.665  13.148  2.1304  0.8983 -1.9635
 2601SOL     OW19264   3.620   0.958   6.674 -0.0251 -0.2265  0.1879
 2601SOL    HW119265   3.616   0.946   6.769  0.9312  1.5057  0.4635
 2601SOL    HW219266   3.565   1.034   6.653 -0.9021 -0.4488  1.7261
 2602SOL     OW19267   1.614   3.979  12.516  0.3900 -0.0138 -0.1747
 2602SOL    HW119268   1.657   3.914  12.572 -0.7904 -0.0904  0.6523
 2602SOL    HW219269   1.646   3.949  12.431 -2.4843  0.6981 -1.5281
 2603SOL     OW19270   0.064   0.375  10.515  0.0556 -0.2501  0.3447
 2603SOL    HW119271   0.066   0.462  10.475  3.3712 -0.2904  0.4538
 2603SOL    HW219272   4.705   0.376  10.553 -0.4411 -2.4389 -0.7167
 2604SOL     OW19273   3.771   2.234  17.193  0.8353 -0.1326  0.0438
 2604SOL    HW119274   3.685   2.193  17.198 -0.3716  2.2753 -1.1288
 2604SOL    HW219275   3.829   2.169  17.233  0.2198 -0.4103  0.4923
 2605SOL     OW19276   0.472   0.712   9.003  0.5650 -0.8746  0.0275
 2605SOL    HW119277   0.527   0.673   8.935  0.1869 -1.4037  0.0243
 2605SOL    HW219278   0.506   0.667   9.081  0.3735 -1.6179 -0.3185
 2606SOL     OW19279   2.117   4.280  10.770 -0.1650  1.0108 -0.8331
 2606SOL    HW119280   2.154   4.366  10.791  1.6386  0.3377 -1.2915
 2606SOL    HW219281   2.199   4.234  10.786 -1.5604 -1.4433 -0.7756
 2607SOL     OW19282   2.175   4.030   3.245  0.3514 -0.3704 -0.7296
 2607SOL    HW119283   2.193   4.008   3.337  0.7448 -1.3477 -1.0454
 2607SOL    HW219284   2.213   3.952   3.204 -0.3558 -0.6214 -0.9103
 2608SOL     OW19285   0.037   3.729   2.853  0.4728  0.2443 -0.0467
 2608SOL    HW119286   0.030   3.634   2.844 -0.4595  0.3508 -0.4473
 2608SOL    HW219287   0.013   3.732   2.945  1.7898 -0.4289  0.3060
 2609SOL     OW19288   2.321   1.713   9.713 -0.0449 -0.2115 -0.0205
 2609SOL    HW119289   2.316   1.729   9.619 -0.9288  1.0439  0.2364
 2609SOL    HW219290   2.278   1.628   9.707 -2.3485  1.0091 -0.8058
 2610SOL     OW19291   3.181   1.354   6.494 -0.5060 -0.2305 -0.5269
 2610SOL    HW119292   3.203   1.428   6.438 -1.7109  0.6276  0.1313
 2610SOL    HW219293   3.107   1.389   6.543 -0.7668  1.4572 -2.1552
 2611SOL     OW19294   3.550   0.998  15.392  0.4817  0.2600 -0.2007
 2611SOL    HW119295   3.645   1.009  15.384  0.5219  0.9283  1.1721
 2611SOL    HW219296   3.535   1.057  15.466  2.2774 -0.4603  0.7175
 2612SOL     OW19297   3.055   1.253   3.297  0.2728  0.3384  0.0091
 2612SOL    HW119298   3.063   1.269   3.391 -1.3044 -1.4038  0.4292
 2612SOL    HW219299   2.961   1.238   3.288  0.2038  0.5760  0.3293
 2613SOL     OW19300   2.087   1.577   3.299 -0.6693  0.3851 -0.0054
 2613SOL    HW119301   2.050   1.661   3.270 -1.1083  0.1963  0.0149
 2613SOL    HW219302   2.099   1.597   3.392 -1.6962 -0.8018  0.3824
 2614SOL     OW19303   3.381   4.008  16.342  0.1602 -0.2297 -0.0555
 2614SOL    HW119304   3.470   3.986  16.370  0.0141 -0.8948 -0.1186
 2614SOL    HW219305   3.337   3.926  16.362 -0.0152 -0.5274 -1.7063
 2615SOL     OW19306   1.411   0.447   8.237 -0.3867  0.6479  0.6080
 2615SOL    HW119307   1.316   0.460   8.244 -0.8626 -0.5412 -3.6570
 2615SOL    HW219308   1.441   0.480   8.152  3.3023  0.2422  1.7643
 2616SOL     OW19309   4.138   3.741   2.824  0.5277  0.5391  0.5311
 2616SOL    HW119310   4.134   3.655   2.781 -3.0248  0.4982  0.9469
 2616SOL    HW219311   4.134   3.795   2.745 -0.0080 -0.0749  0.1289
 2617SOL     OW19312   4.231   3.201   7.325  0.3562 -0.2205 -0.1813
 2617SOL    HW119313   4.197   3.200   7.236 -0.1591 -4.1008  0.0676
 2617SOL    HW219314   4.324   3.189   7.307  0.3707 -0.5474  0.1110
 2618SOL     OW19315   4.088   1.242  14.844  0.0489 -0.1450  0.0764
 2618SOL    HW119316   4.172   1.226  14.887  0.7205 -1.0908 -1.5701
 2618SOL    HW219317   4.036   1.229  14.923  0.0143 -2.8472 -0.3877
 2619SOL     OW19318   3.486   3.477   6.664 -0.0780  0.2122 -0.4406
 2619SOL    HW119319   3.542   3.544   6.624 -1.4279  2.4975  1.5075
 2619SOL    HW219320   3.396   3.498   6.637 -0.7367 -2.4295 -0.3350
 2620SOL     OW19321   0.464   2.045   8.906  0.1116  0.1882 -0.2739
 2620SOL    HW119322   0.446   2.112   8.972  2.2452  0.2602  0.2556
 2620SOL    HW219323   0.430   1.965   8.945  0.6375  1.0234  1.8984
 2621SOL     OW19324   2.434   4.358   9.111 -0.1618  0.0120 -0.1370
 2621SOL    HW119325   2.426   4.271   9.151 -0.6128  0.1951  0.1711
 2621SOL    HW219326   2.469   4.409   9.183  2.1904  1.2891 -2.2030
 2622SOL     OW19327   3.386   2.354   8.918 -0.1809 -0.1563 -0.5693
 2622SOL    HW119328   3.420   2.296   8.986 -0.8999  0.4990  0.3551
 2622SOL    HW219329   3.442   2.318   8.850  1.2373 -0.8068  0.9550
 2623SOL     OW19330   4.591   1.779   7.997  0.0989 -0.3035  0.2635
 2623SOL    HW119331   4.676   1.744   8.023  0.0280 -1.5024 -1.0637
 2623SOL    HW219332   4.625   1.866   7.978 -2.6304  1.1531  2.1246
 2624SOL     OW19333   0.169   1.769  17.644 -0.2437  0.2431  0.5697
 2624SOL    HW119334   0.202   1.832  17.580  0.5669  1.0240  1.7546
 2624SOL    HW219335   0.130   1.834  17.703  2.1182  0.5555  1.7788
 2625SOL     OW19336   1.051   4.396  12.624  0.2149  0.0288 -0.1682
 2625SOL    HW119337   1.124   4.377  12.565  0.1498 -1.3473  0.1796
 2625SOL    HW219338   0.976   4.357  12.580 -0.6319  1.3051  0.1529
 2626SOL     OW19339   0.077   2.722   0.117  0.7401 -0.3511 -0.2154
 2626SOL    HW119340   0.097   2.760   0.032 -1.7926  0.7691 -0.3044
 2626SOL    HW219341   0.081   2.796   0.178  0.4661  0.2588 -0.9409
 2627SOL     OW19342   2.538   0.717   5.547  0.7991 -0.3883  0.2762
 2627SOL    HW119343   2.598   0.790   5.559 -0.3519  0.6179 -0.1533
 2627SOL    HW219344   2.527   0.684   5.636 -0.2407 -1.4037 -0.2256
 2628SOL     OW19345   4.669   2.138  16.411  0.3885 -0.1707 -0.2152
 2628SOL    HW119346   4.609   2.201  16.449 -0.4327 -1.3108  0.3687
 2628SOL    HW219347   4.631   2.052  16.430 -4.3781  1.9281 -0.4799
 2629SOL     OW19348   2.402   0.783  10.845  0.3129  0.1625  0.2326
 2629SOL    HW119349   2.377   0.697  10.879 -2.0578  1.1193  0.8346
 2629SOL    HW219350   2.352   0.793  10.764  1.5632 -2.0143 -0.8174
 2630SOL     OW19351   4.130   0.772   6.285 -0.2163  0.2299 -0.8437
 2630SOL    HW119352   4.148   0.699   6.227  0.4451 -1.3161  1.3082
 2630SOL    HW219353   4.047   0.751   6.329 -0.5487  2.7846 -0.2274
 2631SOL     OW19354   4.119   1.882  17.294 -0.0291  0.4095 -0.5310
 2631SOL    HW119355   4.185   1.848  17.234 -0.3012  0.4712 -0.8608
 2631SOL    HW219356   4.107   1.803  17.348  3.2405 -0.0399 -0.4507
 2632SOL     OW19357   1.979   1.948   5.065  0.3245  0.2343 -0.2169
 2632SOL    HW119358   1.935   1.967   5.148 -1.0520 -2.3186 -0.3523
 2632SOL    HW219359   2.039   1.878   5.093  1.6895  1.9546  1.1509
 2633SOL     OW19360   1.328   3.697   3.806 -0.5762  0.2934  0.3559
 2633SOL    HW119361   1.309   3.643   3.883  4.8897 -2.4467 -0.2193
 2633SOL    HW219362   1.244   3.741   3.797  0.2103  2.1433  1.9466
 2634SOL     OW19363   4.601   3.490  14.420  0.4334  0.5794 -0.7110
 2634SOL    HW119364   4.589   3.441  14.339 -2.7884  0.8869 -0.3996
 2634SOL    HW219365   4.695   3.507  14.418  0.8363 -1.2475  1.7864
 2635SOL     OW19366   0.469   1.866   4.593  0.2726  0.0454  0.2360
 2635SOL    HW119367   0.517   1.836   4.671  0.5083 -1.2824 -0.4176
 2635SOL    HW219368   0.443   1.956   4.613  0.1379 -0.0012  0.2682
 2636SOL     OW19369   0.529   4.207   5.654 -0.0331 -0.1769 -0.2339
 2636SOL    HW119370   0.503   4.289   5.696  1.4346 -0.5615  1.4114
 2636SOL    HW219371   0.623   4.222   5.647 -0.5614  2.1189 -2.5365
 2637SOL     OW19372   3.726   1.951  11.631 -0.5376 -0.5568 -0.2068
 2637SOL    HW119373   3.741   1.952  11.536  0.6756 -1.1899 -0.0231
 2637SOL    HW219374   3.630   1.946  11.636 -0.4468 -1.0384  0.8497
 2638SOL     OW19375   0.288   2.276   3.811 -0.4753 -0.3146 -0.2042
 2638SOL    HW119376   0.235   2.282   3.890 -0.3921 -0.2353 -0.1559
 2638SOL    HW219377   0.328   2.191   3.827 -0.1138 -0.1001  0.0249
 2639SOL     OW19378   2.711   1.332   3.503  0.5995 -0.0798  0.1169
 2639SOL    HW119379   2.721   1.425   3.483  2.8403 -0.8970 -2.5609
 2639SOL    HW219380   2.743   1.293   3.422 -0.3137  1.9362 -1.2012
 2640SOL     OW19381   3.011   2.724   6.205 -0.1695  0.5458 -0.3700
 2640SOL    HW119382   3.060   2.805   6.204 -2.0248  1.6855  0.8756
 2640SOL    HW219383   2.922   2.759   6.204 -0.7454 -0.8481  0.3708
 2641SOL     OW19384   3.564   0.145   4.239  0.3993 -0.5942  0.4087
 2641SOL    HW119385   3.507   0.218   4.263 -0.0098 -0.6655 -0.3449
 2641SOL    HW219386   3.572   0.103   4.325  1.9764  0.6967  0.8891
 2642SOL     OW19387   4.518   1.717   9.432 -0.1122  0.0139  0.2988
 2642SOL    HW119388   4.547   1.773   9.504 -1.6834  0.7846  0.3252
 2642SOL    HW219389   4.490   1.643   9.486  1.0320 -0.3661  0.3788
 2643SOL     OW19390   0.938   4.430   9.057 -0.4595 -0.0872 -0.0644
 2643SOL    HW119391   0.915   4.504   9.000  0.9263  1.9240  1.9511
 2643SOL    HW219392   0.857   4.426   9.107 -0.4059 -1.1316 -0.0662
 2644SOL     OW19393   1.005   0.598   8.465 -0.4757 -0.1020 -0.2304
 2644SOL    HW119394   0.946   0.527   8.438 -1.9221  0.9880  0.0465
 2644SOL    HW219395   1.061   0.597   8.388  1.5033  1.0866  1.1926
 2645SOL     OW19396   1.649   4.355   2.947 -0.3197  0.2299 -1.0595
 2645SOL    HW119397   1.707   4.295   2.900  1.7731  0.4233  1.2608
 2645SOL    HW219398   1.659   4.319   3.035 -0.9825  1.2052 -0.5872
 2646SOL     OW19399   2.169   3.291   4.595  0.9337  0.0525 -0.0155
 2646SOL    HW119400   2.161   3.377   4.636  2.5797 -0.3182  1.1113
 2646SOL    HW219401   2.082   3.283   4.556  2.0822  2.9862 -3.1114
 2647SOL     OW19402   4.083   3.385  16.785  0.1368  0.3451 -0.0440
 2647SOL    HW119403   4.177   3.393  16.803  0.3926 -2.4543 -0.1833
 2647SOL    HW219404   4.089   3.325  16.711 -1.7440  0.7084 -0.4979
 2648SOL     OW19405   0.093   3.472  12.153 -0.9298 -0.2454  0.1386
 2648SOL    HW119406   0.088   3.386  12.195  1.5302 -0.3811  0.1320
 2648SOL    HW219407   0.116   3.523  12.230  1.9714 -1.4205  0.0300
 2649SOL     OW19408   3.035   0.167  15.288 -0.2240 -0.4043  0.4857
 2649SOL    HW119409   3.127   0.164  15.262 -0.9417 -0.0951 -2.1212
 2649SOL    HW219410   3.028   0.263  15.294  2.1431 -0.1681 -0.6464
 2650SOL     OW19411   3.169   3.335   7.254  0.3593 -0.3602 -0.2382
 2650SOL    HW119412   3.092   3.381   7.221 -1.4906 -1.6514  2.3008
 2650SOL    HW219413   3.138   3.245   7.248 -1.2407  0.1620  0.1773
 2651SOL     OW19414   2.938   1.492   0.868  0.4686 -0.0341  0.4684
 2651SOL    HW119415   2.847   1.462   0.870  1.0288 -1.7280  0.7759
 2651SOL    HW219416   2.986   1.421   0.910  2.5275  0.3823 -1.1990
 2652SOL     OW19417   1.297   3.390  13.473 -0.1803 -0.4065  0.3779
 2652SOL    HW119418   1.370   3.371  13.415 -1.2886  0.8866 -1.4327
 2652SOL    HW219419   1.334   3.400  13.561  1.2999 -0.5820 -0.2275
 2653SOL     OW19420   2.256   3.425   7.123 -0.4657  0.5814  0.1297
 2653SOL    HW119421   2.315   3.419   7.198 -1.1574  2.0518  0.8105
 2653SOL    HW219422   2.179   3.442   7.178  1.1033 -0.6377  2.6737
 2654SOL     OW19423   1.907   2.022  13.248 -0.1998 -0.8041  0.0731
 2654SOL    HW119424   1.923   2.028  13.342  2.4274  1.0626 -0.4895
 2654SOL    HW219425   1.824   1.976  13.236 -1.0077  0.6525  0.0336
 2655SOL     OW19426   1.470   1.257   4.601  0.0856  0.0244 -0.9758
 2655SOL    HW119427   1.457   1.305   4.520  1.8053 -1.6399 -2.2248
 2655SOL    HW219428   1.534   1.191   4.575  1.9507  1.6038 -0.4215
 2656SOL     OW19429   3.206   4.155   6.252  0.3404 -0.4612 -0.2519
 2656SOL    HW119430   3.230   4.248   6.256  0.2984 -0.4672  0.1614
 2656SOL    HW219431   3.292   4.114   6.261 -0.9669 -3.3709 -1.3859
 2657SOL     OW19432   4.166   4.424   5.832 -0.0548 -0.2752 -0.5430
 2657SOL    HW119433   4.133   4.336   5.853  1.1832 -0.8463 -0.9730
 2657SOL    HW219434   4.181   4.410   5.739  0.4161 -0.6366 -0.4189
 2658SOL     OW19435   0.738   3.622   8.588 -0.3685  0.2203  0.8110
 2658SOL    HW119436   0.808   3.688   8.588 -0.1556  0.0075 -0.5645
 2658SOL    HW219437   0.677   3.671   8.532 -2.2450 -1.1195  1.6952
 2659SOL     OW19438   3.648   4.715  16.261 -0.0652 -0.3492 -0.0620
 2659SOL    HW119439   3.586   4.642  16.263  2.3723 -2.4154 -0.4379
 2659SOL    HW219440   3.714   4.680  16.201  0.7728 -1.3985  1.4797
 2660SOL     OW19441   3.984   3.008   8.526  0.4213 -0.0130 -0.3765
 2660SOL    HW119442   3.914   2.995   8.462  1.6969 -2.2501 -1.2965
 2660SOL    HW219443   3.979   2.928   8.577  1.2963  0.5342  0.5670
 2661SOL     OW19444   0.952   1.190   2.276  0.1161 -0.7464 -0.4672
 2661SOL    HW119445   0.963   1.121   2.340 -0.7433  0.0717  0.5737
 2661SOL    HW219446   1.023   1.171   2.214  0.7046 -0.3107  0.0747
 2662SOL     OW19447   0.850   3.751   6.968 -0.2332  0.0021  0.2021
 2662SOL    HW119448   0.804   3.667   6.971 -0.7749  0.2485 -1.0591
 2662SOL    HW219449   0.771   3.803   6.948  0.5137  0.2468 -2.1115
 2663SOL     OW19450   3.781   3.380   2.630 -0.0127  0.4777 -0.4069
 2663SOL    HW119451   3.781   3.343   2.718 -0.7411 -0.9819 -1.0170
 2663SOL    HW219452   3.831   3.313   2.584 -0.9314 -1.1274  0.9326
 2664SOL     OW19453   2.400   3.026  14.272  0.7329 -0.3213 -0.5137
 2664SOL    HW119454   2.423   2.936  14.296  2.0383  0.0226 -0.4865
 2664SOL    HW219455   2.329   3.042  14.334  1.3428 -0.9721  0.3416
 2665SOL     OW19456   4.481   0.919   2.792  0.3297 -0.0238  0.0482
 2665SOL    HW119457   4.452   0.997   2.840  0.2519 -0.9986  1.6077
 2665SOL    HW219458   4.555   0.949   2.740  0.4397  0.2697  0.3755
 2666SOL     OW19459   3.800   3.576  13.173 -0.3343  0.4178 -0.0670
 2666SOL    HW119460   3.836   3.511  13.113  2.9020  0.1284  2.1658
 2666SOL    HW219461   3.782   3.641  13.105 -0.4393 -0.0637 -0.5045
 2667SOL     OW19462   2.824   3.596   7.487 -0.6184  0.0995 -0.3911
 2667SOL    HW119463   2.840   3.549   7.405  0.6033 -0.3556  0.1209
 2667SOL    HW219464   2.893   3.559   7.542  0.4905  1.2223 -1.0400
 2668SOL     OW19465   2.033   4.112   5.558  0.0838 -0.4927 -0.4289
 2668SOL    HW119466   2.041   4.141   5.649  0.6800 -1.2496 -0.2476
 2668SOL    HW219467   2.121   4.082   5.540 -0.3415 -1.1100 -1.4572
 2669SOL     OW19468   0.309   1.142  11.830  0.0566 -0.0235  0.3812
 2669SOL    HW119469   0.216   1.157  11.848  0.9516  2.0691  3.2646
 2669SOL    HW219470   0.339   1.142  11.921  1.0836 -2.7424  0.0313
 2670SOL     OW19471   4.139   3.492   2.728  0.6090  0.6926 -0.2084
 2670SOL    HW119472   4.116   3.476   2.820  0.4908 -0.6295 -0.4735
 2670SOL    HW219473   4.106   3.414   2.683 -1.1452  0.7505  0.9773
 2671SOL     OW19474   2.633   4.103   6.686  0.2193 -0.2874 -0.1559
 2671SOL    HW119475   2.557   4.160   6.695  1.7950  1.9184 -0.6954
 2671SOL    HW219476   2.663   4.123   6.597  1.8295 -1.0246  0.2348
 2672SOL     OW19477   2.842   2.949   2.719 -0.3116  0.1079  0.1162
 2672SOL    HW119478   2.780   2.914   2.656  0.2492 -2.2511  0.8825
 2672SOL    HW219479   2.914   2.887   2.705 -0.1073  0.1467  0.9640
 2673SOL     OW19480   1.269   3.592  14.822  0.5256 -0.2839 -0.4358
 2673SOL    HW119481   1.242   3.608  14.912 -2.4264 -0.1451 -1.3665
 2673SOL    HW219482   1.337   3.524  14.827  1.2077  0.4697  0.5752
 2674SOL     OW19483   1.350   0.168   6.119 -0.2760  0.4170  0.2991
 2674SOL    HW119484   1.295   0.139   6.046 -3.1954 -0.0754  2.6926
 2674SOL    HW219485   1.360   0.262   6.100 -0.9286  0.4553  0.1365
 2675SOL     OW19486   4.302   3.747  10.903  0.7617  0.1654 -0.0202
 2675SOL    HW119487   4.318   3.693  10.980  1.1424  0.2672 -0.0290
 2675SOL    HW219488   4.385   3.744  10.857  1.1499 -1.1523  0.7672
 2676SOL     OW19489   1.309   3.307   9.811 -0.2421  0.0681  0.3135
 2676SOL    HW119490   1.402   3.301   9.788  0.0281  0.5892  1.2314
 2676SOL    HW219491   1.278   3.220   9.786 -0.8709  0.7236 -1.1714
 2677SOL     OW19492   1.875   1.498   5.297 -0.2108 -0.7582 -0.0980
 2677SOL    HW119493   1.787   1.470   5.323 -0.5769  0.5354  0.0670
 2677SOL    HW219494   1.880   1.593   5.306  0.6961 -0.7114 -1.0381
 2678SOL     OW19495   1.563   4.458   5.799  0.3728  0.0209  0.0395
 2678SOL    HW119496   1.606   4.374   5.786 -0.7233 -0.2343 -1.9112
 2678SOL    HW219497   1.633   4.523   5.792 -0.5483  1.1376  1.1271
 2679SOL     OW19498   0.446   0.466  13.414  0.2824 -0.0205  0.1991
 2679SOL    HW119499   0.489   0.411  13.348  0.7439 -0.5528  0.9390
 2679SOL    HW219500   0.521   0.496  13.465  0.7536  1.3072 -1.2602
 2680SOL     OW19501   4.636   2.499   7.206  0.1682 -0.3594  0.1574
 2680SOL    HW119502   4.609   2.410   7.227  1.7237 -1.4184 -2.2980
 2680SOL    HW219503   4.551   2.544   7.211  0.1314 -0.2241 -1.4479
 2681SOL     OW19504   3.830   4.333   5.246  0.8409 -0.9255 -0.4860
 2681SOL    HW119505   3.898   4.370   5.303 -0.6098  1.0864 -0.0649
 2681SOL    HW219506   3.765   4.319   5.314  0.4645 -0.7402 -0.8100
 2682SOL     OW19507   1.724   1.535  16.698  0.3470  0.0314  0.0140
 2682SOL    HW119508   1.655   1.502  16.642 -0.4680 -0.3579  1.2514
 2682SOL    HW219509   1.713   1.481  16.776 -2.5839  1.3278  0.4769
 2683SOL     OW19510   4.612   3.252  15.652  0.3778  0.2620  0.0375
 2683SOL    HW119511   4.679   3.318  15.639  2.0908 -1.2819  1.0263
 2683SOL    HW219512   4.600   3.219  15.563  1.7671  0.8297 -0.3491
 2684SOL     OW19513   0.593   3.044   8.268 -0.0060 -0.1684 -0.3471
 2684SOL    HW119514   0.515   2.999   8.299  2.0279 -1.7007  2.6274
 2684SOL    HW219515   0.580   3.134   8.299  0.9976  0.2905 -1.2448
 2685SOL     OW19516   2.180   0.663   9.239 -0.0552 -0.4841 -0.0668
 2685SOL    HW119517   2.099   0.715   9.237 -0.3360 -0.8623  2.2104
 2685SOL    HW219518   2.173   0.649   9.333  4.0027  0.8543  0.4113
 2686SOL     OW19519   3.219   2.375   3.024 -0.2489  1.0032 -0.0461
 2686SOL    HW119520   3.284   2.364   3.093 -1.9016 -0.1367  1.3196
 2686SOL    HW219521   3.207   2.284   2.996 -0.7352  0.7172  1.1103
 2687SOL     OW19522   0.536   2.611   2.618  0.2240  0.0899 -0.0710
 2687SOL    HW119523   0.492   2.680   2.668  0.2314 -0.1617  0.2768
 2687SOL    HW219524   0.474   2.539   2.612  0.5722 -0.2019 -0.1296
 2688SOL     OW19525   0.227   2.931   2.794 -0.3558  0.0498 -0.5873
 2688SOL    HW119526   0.303   2.979   2.758 -0.7326  0.9056 -0.2416
 2688SOL    HW219527   0.246   2.927   2.887  1.6213 -0.2908 -0.9957
 2689SOL     OW19528   3.075   4.301   5.374 -0.3419 -0.3279 -0.0591
 2689SOL    HW119529   3.025   4.368   5.329  1.0776  0.3039 -0.6945
 2689SOL    HW219530   3.027   4.292   5.456 -1.3973 -2.1228 -0.8775
 2690SOL     OW19531   2.110   3.076   8.692 -0.0613  0.5619  0.0851
 2690SOL    HW119532   2.159   3.002   8.726 -1.0718 -1.1734 -2.1993
 2690SOL    HW219533   2.119   3.069   8.597 -1.8990 -2.1523  0.1240
 2691SOL     OW19534   0.798   3.240   5.611 -0.1847 -0.0890 -0.3127
 2691SOL    HW119535   0.762   3.329   5.623  0.0634 -0.0727  0.2715
 2691SOL    HW219536   0.858   3.239   5.685 -0.2420 -0.0107 -0.2642
 2692SOL     OW19537   3.198   1.712   1.216 -0.4288 -0.5654 -0.1090
 2692SOL    HW119538   3.243   1.785   1.171 -0.8116 -0.3414 -0.1238
 2692SOL    HW219539   3.168   1.657   1.145  0.8532  0.4960 -1.4849
 2693SOL     OW19540   1.016   0.067   1.738 -0.4448  0.7480 -0.3058
 2693SOL    HW119541   1.042   0.086   1.828  4.0518  0.0932 -1.4711
 2693SOL    HW219542   0.958   0.141   1.717  0.4797  1.4463 -0.3971
 2694SOL     OW19543   4.254   3.005  16.073 -0.5533 -0.0946  0.3481
 2694SOL    HW119544   4.226   2.947  16.144  1.1243 -1.7220 -0.3293
 2694SOL    HW219545   4.311   2.946  16.023  0.8738  2.1300 -0.6459
 2695SOL     OW19546   1.293   4.496   8.018  0.9955 -0.1072 -0.5586
 2695SOL    HW119547   1.298   4.591   8.010 -1.3673  0.0715  0.2262
 2695SOL    HW219548   1.292   4.484   8.113 -1.6246  0.2071 -0.5407
 2696SOL     OW19549   1.348   0.864  12.353  0.3967 -0.2432  0.1113
 2696SOL    HW119550   1.352   0.810  12.274 -0.8875 -0.0856 -0.0607
 2696SOL    HW219551   1.426   0.918  12.347 -1.4463  2.4392  0.7022
 2697SOL     OW19552   2.434   4.467   5.393  0.5410 -0.0765  0.5483
 2697SOL    HW119553   2.481   4.514   5.324 -1.9362 -0.0525 -1.1233
 2697SOL    HW219554   2.364   4.529   5.413  1.4912  1.5905 -1.3609
 2698SOL     OW19555   0.427   0.009  12.341  0.0549  0.4697 -0.2245
 2698SOL    HW119556   0.508   4.705  12.301  0.4353  2.0850 -0.8016
 2698SOL    HW219557   0.403   0.073  12.274 -1.0006  0.3013 -0.0053
 2699SOL     OW19558   3.629   4.259   4.903 -0.2024  0.3533 -0.1689
 2699SOL    HW119559   3.597   4.313   4.831 -0.1446  1.1930  0.4315
 2699SOL    HW219560   3.634   4.335   4.962  0.2602  0.8202 -0.8061
 2700SOL     OW19561   1.886   2.724   7.011  0.0167  0.6809 -0.6247
 2700SOL    HW119562   1.880   2.668   6.934  1.0607  1.6612 -1.4186
 2700SOL    HW219563   1.907   2.809   6.972  1.2845  0.7883  0.2672
 2701SOL     OW19564   2.279   4.166   6.738 -0.5210 -0.7218 -0.1529
 2701SOL    HW119565   2.269   4.074   6.764 -2.5333 -0.7453 -0.9859
 2701SOL    HW219566   2.247   4.165   6.647 -1.2250  0.8505  0.0879
 2702SOL     OW19567   0.330   3.267  12.255  1.0022 -0.5515 -0.1836
 2702SOL    HW119568   0.245   3.224  12.255  1.3579 -1.2118  4.7250
 2702SOL    HW219569   0.336   3.325  12.331  3.5905 -0.3138 -0.5603
 2703SOL     OW19570   4.669   3.215   1.021  0.2370  0.1711 -0.3445
 2703SOL    HW119571   0.001   3.289   1.020 -1.4658  1.5726  0.0556
 2703SOL    HW219572   4.687   3.190   1.112  1.4866  1.8700 -0.1167
 2704SOL     OW19573   2.390   1.279  11.488 -0.3346 -0.2907 -0.2304
 2704SOL    HW119574   2.481   1.269  11.462  0.2482  2.9954  0.4638
 2704SOL    HW219575   2.363   1.367  11.460  1.8107  0.8194  1.1131
 2705SOL     OW19576   0.858   2.336   4.791  0.3843  0.3943 -0.0804
 2705SOL    HW119577   0.926   2.312   4.855  0.2561 -1.2179 -0.5454
 2705SOL    HW219578   0.783   2.277   4.789 -0.2807  1.2896 -1.2031
 2706SOL     OW19579   2.430   0.215  14.850 -0.4413 -0.3280  0.3288
 2706SOL    HW119580   2.399   0.181  14.935 -2.2566  1.0675  0.2283
 2706SOL    HW219581   2.370   0.288  14.838 -0.2027 -0.0495  0.8541
 2707SOL     OW19582   0.200   1.275   3.265  0.6920 -0.0436  0.1731
 2707SOL    HW119583   0.232   1.223   3.339 -0.5129 -1.6130 -0.4080
 2707SOL    HW219584   0.265   1.345   3.264 -0.8220  1.3711  0.2410
 2708SOL     OW19585   0.279   2.765   7.272  0.1478  0.2801 -0.0070
 2708SOL    HW119586   0.245   2.721   7.194 -2.0837 -0.0157  1.1526
 2708SOL    HW219587   0.197   2.794   7.311 -0.4582 -0.4875 -0.7082
 2709SOL     OW19588   3.186   1.177  10.835 -0.1975  0.9497  0.1854
 2709SOL    HW119589   3.167   1.200  10.744 -2.6185 -1.0338  0.1750
 2709SOL    HW219590   3.097   1.191  10.869  0.2870  0.8795  1.4773
 2710SOL     OW19591   1.783   3.594   5.229 -0.2221  0.4443 -0.1379
 2710SOL    HW119592   1.790   3.561   5.319  0.3235  1.5791  0.2392
 2710SOL    HW219593   1.863   3.648   5.229 -0.7955  1.2913  0.9242
 2711SOL     OW19594   0.797   3.912   8.294  0.6353  0.2240  0.5072
 2711SOL    HW119595   0.824   3.822   8.275 -2.4929 -0.8520  1.1464
 2711SOL    HW219596   0.741   3.927   8.217  2.6334 -1.9518 -1.3563
 2712SOL     OW19597   2.616   2.566   6.959  0.5233 -0.3782 -0.3874
 2712SOL    HW119598   2.588   2.608   6.878 -0.4731  1.5099  0.9273
 2712SOL    HW219599   2.553   2.604   7.020  0.9328  1.1004 -0.8850
 2713SOL     OW19600   4.189   1.255   4.510  0.0647 -0.8373  0.2815
 2713SOL    HW119601   4.199   1.233   4.417 -0.0263  2.6324 -0.5588
 2713SOL    HW219602   4.275   1.240   4.549  2.0564  3.3648 -2.4248
 2714SOL     OW19603   1.069   2.278  11.822  0.4870  0.2350 -0.0640
 2714SOL    HW119604   1.096   2.276  11.913  0.7319 -0.8557 -0.1714
 2714SOL    HW219605   0.976   2.297  11.834  0.6137  1.6579 -1.3281
 2715SOL     OW19606   2.531   1.212   6.540 -0.4518 -0.0355 -0.0432
 2715SOL    HW119607   2.524   1.152   6.466  0.2376  0.6020 -0.6273
 2715SOL    HW219608   2.625   1.229   6.543 -0.3087 -0.8254 -0.0347
 2716SOL     OW19609   4.592   4.688   8.483 -0.2552  0.2648 -0.2644
 2716SOL    HW119610   4.526   4.667   8.550  0.5517 -0.4865  0.2955
 2716SOL    HW219611   4.554   0.036   8.441 -2.8310 -1.1955 -0.6427
 2717SOL     OW19612   2.371   4.540   2.900  0.3446  0.1781  0.4378
 2717SOL    HW119613   2.426   4.463   2.916  0.0732 -0.0904  0.0598
 2717SOL    HW219614   2.421   4.606   2.947  2.0909  2.2065 -4.2443
 2718SOL     OW19615   0.858   1.222  14.562 -0.6486 -0.1025  0.3791
 2718SOL    HW119616   0.849   1.136  14.601 -0.8045  0.1209  0.8377
 2718SOL    HW219617   0.764   1.241  14.551  0.0021  2.5331 -0.6726
 2719SOL     OW19618   2.064   3.375   7.749  0.2001  0.4098 -0.3194
 2719SOL    HW119619   2.108   3.292   7.769  1.1318  1.0641  0.3724
 2719SOL    HW219620   2.021   3.348   7.668  0.0908  1.0505 -0.4771
 2720SOL     OW19621   2.432   0.824   5.323 -0.7303  0.3740 -0.5041
 2720SOL    HW119622   2.462   0.773   5.397  2.1666  2.1882 -0.4219
 2720SOL    HW219623   2.512   0.871   5.301 -0.1522  0.4566  1.8060
 2721SOL     OW19624   4.394   3.394  17.711 -0.0776 -0.5790  0.1563
 2721SOL    HW119625   4.348   3.329   0.047  0.3305 -1.7931 -0.9881
 2721SOL    HW219626   4.322   3.413  17.650  0.0921  0.1173  0.1780
 2722SOL     OW19627   1.223   2.460  11.647  0.0903 -0.3287  0.6137
 2722SOL    HW119628   1.164   2.410  11.704  3.0569 -3.7179  0.7339
 2722SOL    HW219629   1.171   2.464  11.567  0.6700  0.2381  0.2671
 2723SOL     OW19630   1.346   4.183   7.000  0.1383 -0.6096 -0.4604
 2723SOL    HW119631   1.437   4.178   7.029 -0.2056  0.1831  0.7556
 2723SOL    HW219632   1.315   4.252   7.059 -0.4159 -0.1267 -1.3102
 2724SOL     OW19633   2.736   3.736   3.015  0.1716  0.0616  0.2315
 2724SOL    HW119634   2.823   3.723   3.051  0.2162  0.1229  0.1462
 2724SOL    HW219635   2.731   3.818   2.966  3.6863  1.1690  1.7665
 2725SOL     OW19636   0.016   0.698   2.377  0.3947 -0.3081 -0.4250
 2725SOL    HW119637   0.031   0.630   2.311  2.4545  0.3733 -0.6415
 2725SOL    HW219638   4.669   0.664   2.424 -0.5977 -1.4118 -2.8695
 2726SOL     OW19639   0.066   1.650   9.946 -0.2066 -0.3315  0.4191
 2726SOL    HW119640   0.130   1.609  10.005  0.6711 -0.0917 -0.3783
 2726SOL    HW219641   4.725   1.673  10.008  0.3490  0.1463  0.8736
 2727SOL     OW19642   2.493   2.062   7.384  0.7353 -0.8641 -0.2180
 2727SOL    HW119643   2.398   2.073   7.376  1.1299  0.9588 -2.4430
 2727SOL    HW219644   2.529   2.150   7.369 -2.4797  0.0119 -3.1012
 2728SOL     OW19645   1.498   1.948   1.447 -0.8277 -0.2203 -0.3178
 2728SOL    HW119646   1.584   1.987   1.463  0.4010 -2.1006 -2.4179
 2728SOL    HW219647   1.520   1.904   1.365  0.4319 -0.4401  0.1373
 2729SOL     OW19648   0.388   4.345   4.212  0.1059 -0.1889 -0.3811
 2729SOL    HW119649   0.473   4.326   4.173  0.5479  0.0485  0.4754
 2729SOL    HW219650   0.381   4.437   4.185 -1.8755  0.4765  2.4050
 2730SOL     OW19651   3.688   0.397  15.062 -0.4774 -0.5723  0.1397
 2730SOL    HW119652   3.608   0.386  15.112 -0.5642 -0.3708  0.0450
 2730SOL    HW219653   3.695   0.492  15.056 -2.0334 -0.4456  0.4971
 2731SOL     OW19654   1.952   1.001  14.069 -0.3514 -0.3505 -0.0004
 2731SOL    HW119655   1.966   1.011  13.974  1.0739  0.3567  0.2953
 2731SOL    HW219656   2.035   0.961  14.093 -0.9379 -1.0487  0.8502
 2732SOL     OW19657   3.743   1.316   8.789  0.8249 -0.2321 -0.2349
 2732SOL    HW119658   3.730   1.224   8.768 -3.7282  0.8925 -2.4218
 2732SOL    HW219659   3.794   1.336   8.710 -1.1089  1.0864 -1.1559
 2733SOL     OW19660   4.510   2.900   1.483 -0.3816 -0.5423  0.0100
 2733SOL    HW119661   4.457   2.977   1.503  2.2457  1.1173  0.5809
 2733SOL    HW219662   4.553   2.895   1.568 -0.5504 -0.7884  0.0827
 2734SOL     OW19663   3.637   2.481  11.423  0.1904  0.0111  0.4410
 2734SOL    HW119664   3.697   2.542  11.465  1.2944 -0.4323 -0.4725
 2734SOL    HW219665   3.692   2.430  11.363  0.9561 -0.8019  1.8264
 2735SOL     OW19666   1.012   1.213   5.585 -0.5206 -0.0669  0.5557
 2735SOL    HW119667   0.994   1.196   5.493  0.2475  0.2767  0.3498
 2735SOL    HW219668   1.072   1.143   5.610 -2.7144 -1.2685  2.4003
 2736SOL     OW19669   0.881   3.335   1.891  0.2820  0.5492  0.2443
 2736SOL    HW119670   0.949   3.334   1.824 -1.5792  2.8648 -1.7105
 2736SOL    HW219671   0.910   3.415   1.936 -2.2234  2.0537 -0.7821
 2737SOL     OW19672   4.689   1.990   7.281  0.0356  0.1432 -0.6299
 2737SOL    HW119673   0.036   2.044   7.259  1.0783 -1.5818 -1.1938
 2737SOL    HW219674   4.670   1.944   7.200 -0.6251  0.4995 -0.6821
 2738SOL     OW19675   4.728   2.746   7.193  0.5430  0.1142 -0.0164
 2738SOL    HW119676   4.662   2.767   7.127  0.2025  0.6448  0.4931
 2738SOL    HW219677   4.707   2.653   7.206 -0.0472  0.2631  0.0912
 2739SOL     OW19678   0.444   2.916  12.848  0.5210 -0.1002  0.0618
 2739SOL    HW119679   0.501   2.905  12.771 -0.7572 -2.0707 -0.6214
 2739SOL    HW219680   0.434   2.825  12.877 -0.5704 -0.6119 -1.8992
 2740SOL     OW19681   3.694   4.567   2.319 -0.0615 -0.0964 -0.0535
 2740SOL    HW119682   3.624   4.513   2.283  0.4758 -1.7772  1.3942
 2740SOL    HW219683   3.645   4.597   2.396 -1.3235  1.6313 -1.5338
 2741SOL     OW19684   3.721   0.675   5.164 -0.4803 -0.5086 -0.2392
 2741SOL    HW119685   3.781   0.746   5.186 -2.4226  0.4337  1.9803
 2741SOL    HW219686   3.716   0.632   5.250  3.9004  0.3432  0.4125
 2742SOL     OW19687   3.755   1.732   1.670 -0.3711  0.0014 -0.3286
 2742SOL    HW119688   3.805   1.764   1.595 -0.5983  0.9533 -0.0707
 2742SOL    HW219689   3.708   1.808   1.705  0.5984  0.7793 -0.7256
 2743SOL     OW19690   3.546   1.601   5.626  0.0634 -0.1127 -0.1658
 2743SOL    HW119691   3.583   1.629   5.710  3.6429  2.0913 -2.4599
 2743SOL    HW219692   3.457   1.573   5.646  0.9184 -1.9298  1.1208
 2744SOL     OW19693   2.006   2.902   0.296  0.6722  0.1092  0.5947
 2744SOL    HW119694   1.918   2.895   0.258  0.7513 -0.3394  0.4965
 2744SOL    HW219695   1.986   2.900   0.390  0.9229  0.3834  0.6561
 2745SOL     OW19696   0.526   2.498   4.897  0.0827 -0.5834 -0.1437
 2745SOL    HW119697   0.469   2.465   4.966  0.0731  0.5962  0.4128
 2745SOL    HW219698   0.612   2.473   4.930 -1.0367 -2.0085  1.6891
 2746SOL     OW19699   1.572   3.911   6.979 -0.5057  0.1701 -0.8193
 2746SOL    HW119700   1.487   3.896   7.021 -0.2116  3.3192  0.8754
 2746SOL    HW219701   1.587   4.005   6.982 -1.7095  0.3393 -0.1782
 2747SOL     OW19702   4.292   0.114   4.890  0.8501 -0.2929  0.3014
 2747SOL    HW119703   4.212   0.111   4.941  0.6464  2.5707  0.1337
 2747SOL    HW219704   4.336   0.035   4.922 -0.4823 -1.8607 -1.7205
 2748SOL     OW19705   2.018   4.292   1.412 -0.0547  0.5256 -0.7538
 2748SOL    HW119706   2.082   4.221   1.418  1.2809  1.9104  1.2745
 2748SOL    HW219707   2.081   4.353   1.375  1.4044  0.2119  1.2320
 2749SOL     OW19708   0.023   1.226  16.148  0.6176  0.3999 -0.6464
 2749SOL    HW119709   0.091   1.220  16.081  1.1691  0.6467 -0.1106
 2749SOL    HW219710   4.689   1.159  16.122  1.7909  0.0108 -2.5328
 2750SOL     OW19711   2.020   4.411  12.057 -0.5523 -0.3091 -0.2114
 2750SOL    HW119712   2.073   4.472  12.006  1.3121 -1.0866  0.7949
 2750SOL    HW219713   1.943   4.464  12.074  0.8878  1.4560  0.7885
 2751SOL     OW19714   2.999   4.536   1.787  0.2743 -0.0337 -0.1758
 2751SOL    HW119715   2.999   4.459   1.731 -0.3779 -0.4494  0.3839
 2751SOL    HW219716   2.905   4.552   1.799 -0.0712 -0.4928 -2.3836
 2752SOL     OW19717   1.070   0.282  17.370  0.4223 -0.0061 -0.6703
 2752SOL    HW119718   1.092   0.333  17.447 -1.9029  1.4640 -0.9627
 2752SOL    HW219719   1.139   0.307  17.308  0.8983 -0.9459 -0.5227
 2753SOL     OW19720   2.815   4.115   9.430 -0.1056  0.2873  0.4038
 2753SOL    HW119721   2.909   4.096   9.431  0.1606  1.7214  2.0937
 2753SOL    HW219722   2.817   4.207   9.457  1.0197  1.1389 -2.5393
 2754SOL     OW19723   1.584   1.720   7.392  0.1066 -0.9700  0.3167
 2754SOL    HW119724   1.541   1.636   7.377  0.1704 -0.6763 -1.4315
 2754SOL    HW219725   1.635   1.684   7.465 -0.4203  1.0148  1.6579
 2755SOL     OW19726   2.348   0.401  13.525 -0.1330 -0.6207  0.6519
 2755SOL    HW119727   2.376   0.327  13.580  3.5344  0.1695 -0.1615
 2755SOL    HW219728   2.254   0.383  13.528 -0.3106  0.1734 -0.2325
 2756SOL     OW19729   4.413   1.321   8.214 -0.3735 -0.1395 -0.0689
 2756SOL    HW119730   4.351   1.351   8.148  0.5832 -1.8309 -1.7452
 2756SOL    HW219731   4.487   1.281   8.168 -0.4546  1.3256 -1.4725
 2757SOL     OW19732   1.010   0.674   0.170  0.3410  0.0400  0.0406
 2757SOL    HW119733   1.070   0.749   0.172  0.4298 -0.0399  0.5110
 2757SOL    HW219734   1.039   0.640   0.254  0.2539 -1.0624 -0.3818
 2758SOL     OW19735   2.822   3.696   1.889  0.3310 -0.3607  0.1496
 2758SOL    HW119736   2.727   3.701   1.893  0.3282 -1.3683  1.0684
 2758SOL    HW219737   2.839   3.603   1.899  1.3701 -0.1612  0.2919
 2759SOL     OW19738   4.336   3.736   1.232  0.1657  0.3435  0.2745
 2759SOL    HW119739   4.405   3.798   1.255  0.9785 -0.1184 -0.8609
 2759SOL    HW219740   4.389   3.672   1.184  1.0543  1.5252 -0.3369
 2760SOL     OW19741   0.654   0.294  13.306  0.3401 -0.0501  0.1209
 2760SOL    HW119742   0.625   0.230  13.241  1.6117  1.0806 -1.5691
 2760SOL    HW219743   0.689   0.237  13.375 -0.6506  0.7150  1.2444
 2761SOL     OW19744   4.040   2.216   5.603  0.2268  0.3193  0.1056
 2761SOL    HW119745   3.988   2.296   5.606 -1.5977 -0.8735  0.2101
 2761SOL    HW219746   4.103   2.244   5.537  1.4280  1.5673  1.7454
 2762SOL     OW19747   4.222   3.454   6.299 -0.0298  0.0902  0.5759
 2762SOL    HW119748   4.227   3.539   6.255 -0.0816 -0.5248 -0.6171
 2762SOL    HW219749   4.144   3.423   6.253 -0.9008  1.1665  1.3231
 2763SOL     OW19750   0.014   3.806   3.119  0.2636 -0.0480 -0.4102
 2763SOL    HW119751   0.083   3.818   3.185 -0.5234 -0.2901  0.4633
 2763SOL    HW219752   4.676   3.760   3.170  2.2355 -1.5193  0.8332
 2764SOL     OW19753   0.144   1.169   7.910  0.0940 -0.1125 -0.0962
 2764SOL    HW119754   0.119   1.080   7.934  0.4113 -0.7289 -2.0435
 2764SOL    HW219755   0.133   1.204   7.999  0.4834 -3.0980  1.1202
 2765SOL     OW19756   3.428   2.777   9.344 -0.0954 -0.0335 -0.7343
 2765SOL    HW119757   3.519   2.769   9.373  0.1515  0.3627 -1.3917
 2765SOL    HW219758   3.409   2.866   9.373 -0.2706  0.4092 -2.1948
 2766SOL     OW19759   1.944   3.979   9.410 -0.1420 -0.5862  0.2758
 2766SOL    HW119760   1.919   3.908   9.351  0.3100 -2.0513  1.8379
 2766SOL    HW219761   1.889   4.047   9.370  0.7788 -1.3393 -2.2248
 2767SOL     OW19762   3.433   4.484   2.719 -0.6091  0.3682 -0.1506
 2767SOL    HW119763   3.356   4.488   2.776  0.2059  1.3330  0.8644
 2767SOL    HW219764   3.433   4.390   2.697 -1.6820  0.2146  0.5155
 2768SOL     OW19765   3.270   2.752   2.050  0.2600 -0.0229  0.3769
 2768SOL    HW119766   3.225   2.673   2.079 -0.9992 -0.0160 -1.5097
 2768SOL    HW219767   3.265   2.740   1.955  0.9848  2.9524 -0.0428
 2769SOL     OW19768   3.072   3.158   3.847  0.4046  0.4334  0.6091
 2769SOL    HW119769   3.126   3.107   3.786 -1.2495 -0.3318 -0.2307
 2769SOL    HW219770   3.063   3.245   3.806 -1.7415  1.3410  3.0410
 2770SOL     OW19771   4.059   0.572   1.818  0.5577 -0.1491  0.6443
 2770SOL    HW119772   4.013   0.654   1.802  0.1881  0.2288  3.7175
 2770SOL    HW219773   4.020   0.537   1.897 -0.2500  0.9238  0.7153
 2771SOL     OW19774   1.106   1.992  16.447 -0.1875  0.2997  0.5750
 2771SOL    HW119775   1.033   2.040  16.410  1.7100 -0.4692 -4.1420
 2771SOL    HW219776   1.175   2.020  16.386  1.3850 -4.4679  0.1524
 2772SOL     OW19777   1.715   2.324   9.623 -0.4784  0.0435  0.3584
 2772SOL    HW119778   1.741   2.235   9.597 -1.1931 -0.3687  1.0354
 2772SOL    HW219779   1.801   2.364   9.636  0.1628 -0.6362 -1.8826
 2773SOL     OW19780   0.781   4.045  11.468 -0.4995  0.3102  0.4200
 2773SOL    HW119781   0.784   4.140  11.468  1.7776  0.2583  1.4527
 2773SOL    HW219782   0.724   4.034  11.393  1.9457  2.8673 -1.8079
 2774SOL     OW19783   3.218   0.049   6.651 -0.1876 -0.2704  0.5415
 2774SOL    HW119784   3.235   4.703   6.709  1.1805 -0.7139 -0.4500
 2774SOL    HW219785   3.152   0.096   6.702 -0.1446  0.4400 -0.0664
 2775SOL     OW19786   0.683   3.833   3.253 -0.5797  0.6918 -0.3870
 2775SOL    HW119787   0.621   3.773   3.293  1.0540 -3.2029 -3.6467
 2775SOL    HW219788   0.688   3.809   3.161 -0.2362  0.1427 -0.2263
 2776SOL     OW19789   0.625   0.971   8.080 -0.2241 -0.0522 -0.4637
 2776SOL    HW119790   0.667   0.895   8.040  0.6204  0.5871 -0.8092
 2776SOL    HW219791   0.677   0.990   8.159 -0.5178  1.4706 -0.6440
 2777SOL     OW19792   1.760   1.078   6.690 -0.1749  0.3048 -0.1708
 2777SOL    HW119793   1.803   1.055   6.607  0.7219  0.8007  0.1479
 2777SOL    HW219794   1.766   1.174   6.690  0.0370  0.2907 -2.5805
 2778SOL     OW19795   0.886   1.059  16.802  0.4485 -0.0891 -0.0856
 2778SOL    HW119796   0.878   1.024  16.891 -3.1337  0.6285 -0.1098
 2778SOL    HW219797   0.935   1.140  16.815  2.1526 -0.7986 -1.9736
 2779SOL     OW19798   4.667   2.230   9.461 -0.1432 -0.1753 -0.0739
 2779SOL    HW119799   4.667   2.324   9.448 -1.5894 -0.0797  0.6466
 2779SOL    HW219800   4.615   2.221   9.541 -1.4490  0.4374 -0.8683
 2780SOL     OW19801   1.070   2.282  14.660  0.8711  0.4523 -0.2206
 2780SOL    HW119802   1.080   2.218  14.589  1.7063 -1.1868  1.3735
 2780SOL    HW219803   1.158   2.316  14.673  0.4566  1.6193 -0.4628
 2781SOL     OW19804   3.621   2.762   3.263  0.4144 -0.7057  0.0825
 2781SOL    HW119805   3.705   2.790   3.300  1.4327 -1.8549 -1.3277
 2781SOL    HW219806   3.632   2.667   3.270  4.0475 -0.2693  0.5793
 2782SOL     OW19807   2.186   2.875  12.560  0.5783  0.1086 -0.0574
 2782SOL    HW119808   2.093   2.886  12.576  0.2095 -1.8008 -0.8724
 2782SOL    HW219809   2.170   2.806  12.496 -1.2427  0.9072 -0.4560
 2783SOL     OW19810   4.598   0.837   8.863 -0.0594  0.2129 -0.3054
 2783SOL    HW119811   4.557   0.777   8.925  0.9686  0.9794  1.0946
 2783SOL    HW219812   4.670   0.779   8.838  0.0556  1.3014 -2.5327
 2784SOL     OW19813   1.980   0.491   3.458 -0.3445 -0.9337 -0.3835
 2784SOL    HW119814   2.059   0.486   3.404 -0.3582 -2.4006 -0.2742
 2784SOL    HW219815   1.929   0.417   3.425  2.7544 -3.1536 -0.2385
 2785SOL     OW19816   4.331   0.643   7.111  0.3584  0.0898  0.3795
 2785SOL    HW119817   4.279   0.719   7.084  1.4090  0.1247 -1.5776
 2785SOL    HW219818   4.332   0.596   7.027 -0.4060 -3.3569  2.2957
 2786SOL     OW19819   0.296   2.677   2.809 -0.0374  0.3173 -0.4373
 2786SOL    HW119820   0.244   2.753   2.780 -3.8267 -1.8655  0.6772
 2786SOL    HW219821   0.237   2.615   2.767 -0.1966 -0.5673  1.1063
 2787SOL     OW19822   3.738   3.334   4.158  0.3942  0.2570  0.0296
 2787SOL    HW119823   3.740   3.379   4.074  2.9906 -0.1640 -0.1186
 2787SOL    HW219824   3.645   3.328   4.180 -0.2668 -0.0393 -2.8551
 2788SOL     OW19825   3.041   1.288   2.534 -0.3053  0.2603  0.1686
 2788SOL    HW119826   3.088   1.350   2.477 -1.0475  0.4874 -0.1943
 2788SOL    HW219827   3.060   1.208   2.484  1.2135  0.6492  0.1153
 2789SOL     OW19828   2.113   0.466   6.004  0.7285  0.1266  0.0619
 2789SOL    HW119829   2.119   0.383   6.052  1.7402  1.2815  1.9416
 2789SOL    HW219830   2.021   0.455   5.980  0.8038  1.3665 -0.7770
 2790SOL     OW19831   1.671   0.458  11.648 -0.0341 -0.2587  0.6013
 2790SOL    HW119832   1.655   0.435  11.739 -1.5887 -0.4289  0.2905
 2790SOL    HW219833   1.591   0.494  11.609 -0.5802 -0.0484  1.9172
 2791SOL     OW19834   2.338   1.181   8.782  0.2954 -0.4109 -0.3014
 2791SOL    HW119835   2.322   1.125   8.858 -2.9261 -1.7657 -1.9601
 2791SOL    HW219836   2.432   1.178   8.769  0.0674  0.2046 -2.0439
 2792SOL     OW19837   1.113   2.502   9.435 -0.6967  0.6968  0.0089
 2792SOL    HW119838   1.127   2.428   9.493  0.7767  0.2534 -0.8962
 2792SOL    HW219839   1.199   2.510   9.394 -0.5834  0.4485  0.1989
 2793SOL     OW19840   0.338   1.094   3.887  0.3136  0.2000  0.0413
 2793SOL    HW119841   0.383   1.162   3.838 -0.1936 -0.3133 -1.1359
 2793SOL    HW219842   0.329   1.137   3.972 -1.1956  0.1088 -0.0663
 2794SOL     OW19843   3.966   4.494  12.164  0.4530 -0.6051  0.0671
 2794SOL    HW119844   4.036   4.558  12.177  0.0672 -0.0945 -0.3947
 2794SOL    HW219845   3.986   4.431  12.233  0.9615  0.0402  0.5100
 2795SOL     OW19846   4.650   0.352   6.992  0.4688 -0.1127 -0.1164
 2795SOL    HW119847   4.687   0.348   7.080 -1.6086 -2.3133  0.6633
 2795SOL    HW219848   0.001   0.342   6.941 -0.7185 -1.1578 -1.7916
 2796SOL     OW19849   1.290   0.873  13.191 -0.3012  0.2892  0.3381
 2796SOL    HW119850   1.269   0.961  13.160 -0.1738 -0.0227 -0.6525
 2796SOL    HW219851   1.355   0.846  13.126  0.4367  1.6600  0.5061
 2797SOL     OW19852   3.936   0.763   5.772  0.1287 -0.3027 -0.0039
 2797SOL    HW119853   3.918   0.735   5.862 -0.7825  4.6072  1.3420
 2797SOL    HW219854   4.029   0.738   5.771  0.2193  0.1368 -2.2194
 2798SOL     OW19855   3.430   1.966  11.520 -0.1787  0.6347 -0.0075
 2798SOL    HW119856   3.382   2.049  11.510  1.4315  1.6242  0.4581
 2798SOL    HW219857   3.382   1.919  11.588 -0.0164  1.6945  0.8489
 2799SOL     OW19858   2.465   4.538   8.734 -0.3438  0.5223  0.2309
 2799SOL    HW119859   2.477   4.598   8.661 -1.7058  1.2254  0.5879
 2799SOL    HW219860   2.520   4.462   8.715 -0.2303  0.2531  1.6023
 2800SOL     OW19861   0.934   0.599   4.609  0.1521  0.3585 -0.1085
 2800SOL    HW119862   0.957   0.522   4.558  0.6681  0.6649 -0.3388
 2800SOL    HW219863   1.008   0.656   4.588  1.8278 -1.7441  0.0787
 2801SOL     OW19864   2.401   0.073   5.347  0.1386  0.2800 -1.0752
 2801SOL    HW119865   2.390   0.053   5.254  0.4068 -0.4562 -0.9486
 2801SOL    HW219866   2.456   0.151   5.340  0.9540 -0.0282  2.0019
 2802SOL     OW19867   1.159   0.797  14.986 -0.4297 -0.1948 -0.5346
 2802SOL    HW119868   1.104   0.868  15.019  1.6888  1.3585 -0.3161
 2802SOL    HW219869   1.132   0.804  14.895 -1.1133  0.1565 -0.3059
 2803SOL     OW19870   2.375   3.620   1.737 -0.0314  0.2579  1.2413
 2803SOL    HW119871   2.379   3.542   1.792 -1.0093  0.6174  1.8328
 2803SOL    HW219872   2.282   3.611   1.713  0.3297  2.5498 -0.9955
 2804SOL     OW19873   3.415   0.937   9.658 -0.1502  0.0616 -0.6174
 2804SOL    HW119874   3.363   0.935   9.738  0.4747 -0.8392 -0.2344
 2804SOL    HW219875   3.414   1.027   9.625 -0.3858 -0.0241 -0.8516
 2805SOL     OW19876   2.004   0.716   2.497  0.5798 -0.7189  0.5377
 2805SOL    HW119877   1.914   0.725   2.464  1.4545 -0.1742 -1.7163
 2805SOL    HW219878   2.034   0.803   2.469  0.5266 -1.2098 -1.0454
 2806SOL     OW19879   4.546   1.314  12.723  0.2190 -0.4535 -0.2364
 2806SOL    HW119880   4.509   1.276  12.643  0.0604  0.6881 -0.7059
 2806SOL    HW219881   4.509   1.260  12.792  1.8641 -0.9081  0.2946
 2807SOL     OW19882   3.155   4.364   8.371  0.0370 -0.1818 -0.3037
 2807SOL    HW119883   3.097   4.438   8.387  1.4206  0.5186  1.4530
 2807SOL    HW219884   3.122   4.300   8.433  0.7369  2.7957  3.1354
 2808SOL     OW19885   1.895   2.376   4.702  0.1157  0.2060  0.1352
 2808SOL    HW119886   1.868   2.361   4.612  1.4622 -2.3494  0.1751
 2808SOL    HW219887   1.815   2.390   4.753  0.6124  0.9051  0.7332
 2809SOL     OW19888   3.129   3.763  11.296  0.1270  0.0046 -0.4078
 2809SOL    HW119889   3.211   3.714  11.290  0.1005 -0.0097 -0.6394
 2809SOL    HW219890   3.155   3.847  11.259  0.7530  0.3631  0.8207
 2810SOL     OW19891   3.307   2.031   8.307 -0.1723 -0.0209  0.2535
 2810SOL    HW119892   3.365   2.086   8.253  0.2703 -0.0123  0.7317
 2810SOL    HW219893   3.297   1.957   8.248 -1.7675  2.7337 -2.9769
 2811SOL     OW19894   3.844   3.920  16.156 -0.0700  0.3023 -0.2599
 2811SOL    HW119895   3.816   3.909  16.247 -2.2492 -0.2884 -0.9776
 2811SOL    HW219896   3.798   4.001  16.134  2.7955  2.4382  1.6942
 2812SOL     OW19897   2.899   4.696   1.098  0.5629 -0.2933 -0.5066
 2812SOL    HW119898   2.859   4.655   1.174  1.7438 -0.4907  0.0007
 2812SOL    HW219899   2.816   4.699   1.050  0.2369 -0.9417  0.0162
 2813SOL     OW19900   3.480   4.594  12.300  0.0478  1.1484  0.0615
 2813SOL    HW119901   3.407   4.577  12.360 -0.0841  1.8878  0.1042
 2813SOL    HW219902   3.456   4.537  12.227 -0.0266 -1.8382  2.4307
 2814SOL     OW19903   0.642   0.955   4.883 -0.1077  0.1312 -0.4396
 2814SOL    HW119904   0.610   0.877   4.928  2.7684  0.2023  1.6584
 2814SOL    HW219905   0.559   0.974   4.839  0.0186  0.6541 -0.4534
 2815SOL     OW19906   1.831   1.111   5.148  0.6723 -0.2158 -0.0390
 2815SOL    HW119907   1.887   1.035   5.133  0.5973 -0.4523  0.9262
 2815SOL    HW219908   1.878   1.178   5.098  1.0715 -1.3183 -1.1550
 2816SOL     OW19909   3.704   0.438  10.564 -0.3041  0.2347 -0.3499
 2816SOL    HW119910   3.655   0.445  10.645 -0.2045 -1.8132 -0.1273
 2816SOL    HW219911   3.726   0.345  10.560  2.3345  0.7936  0.9684
 2817SOL     OW19912   0.353   1.858   8.101  0.0746 -0.2166  0.1224
 2817SOL    HW119913   0.394   1.844   8.186  2.0236 -2.5673 -1.1955
 2817SOL    HW219914   0.401   1.793   8.049  1.2995  0.7026  0.0837
 2818SOL     OW19915   1.111   2.154   2.975  0.4145 -0.1623  0.2479
 2818SOL    HW119916   1.134   2.246   2.985  1.0015 -0.1791 -0.9884
 2818SOL    HW219917   1.200   2.122   2.960  0.0663  0.6109 -3.3569
 2819SOL     OW19918   3.830   4.355   1.605  0.0294  0.4033  0.0747
 2819SOL    HW119919   3.894   4.423   1.621  0.7980 -0.6128  1.3035
 2819SOL    HW219920   3.756   4.416   1.597  1.0969  1.5961 -0.5939
 2820SOL     OW19921   2.211   0.199   3.822 -0.1055 -0.3665  0.0265
 2820SOL    HW119922   2.218   0.182   3.916 -1.8274 -0.8355  0.0703
 2820SOL    HW219923   2.287   0.153   3.786  0.7822  0.1000  1.2762
 2821SOL     OW19924   4.348   1.979   2.032  0.2625 -0.9231  0.0922
 2821SOL    HW119925   4.403   2.057   2.037 -1.0153 -0.1805  2.4644
 2821SOL    HW219926   4.357   1.963   1.938  0.5139  0.5673 -0.1399
 2822SOL     OW19927   3.500   0.778   6.387  1.0616  0.0647 -0.4159
 2822SOL    HW119928   3.499   0.872   6.408  1.6111 -0.1634  0.6339
 2822SOL    HW219929   3.412   0.750   6.411  2.0283 -2.6111 -0.0003
 2823SOL     OW19930   2.749   0.222  17.609 -0.4956  0.0335 -0.3566
 2823SOL    HW119931   2.785   0.208  17.697 -0.0993  0.4640 -0.4465
 2823SOL    HW219932   2.750   0.318  17.611  2.7033  0.0221 -1.5899
 2824SOL     OW19933   4.051   1.864   7.416 -0.0079  0.2822  0.4952
 2824SOL    HW119934   4.126   1.834   7.363  0.0517 -1.1724  1.4201
 2824SOL    HW219935   4.092   1.919   7.483  0.8056  0.2897  0.0005
 2825SOL     OW19936   2.086   0.697   3.783 -0.3138  0.1265  0.0479
 2825SOL    HW119937   2.004   0.709   3.734 -2.0064 -2.3604  2.3244
 2825SOL    HW219938   2.137   0.630   3.737  0.3632 -1.1028  2.6314
 2826SOL     OW19939   0.306   1.764   3.319 -0.4442 -0.0792  0.0156
 2826SOL    HW119940   0.366   1.838   3.326  0.6037 -0.9902  0.6876
 2826SOL    HW219941   0.227   1.807   3.287 -1.2222 -1.0285  0.6448
 2827SOL     OW19942   0.085   2.528   7.458 -0.6251 -0.2077 -0.0116
 2827SOL    HW119943   0.085   2.585   7.381 -0.7857 -0.6056 -0.3086
 2827SOL    HW219944   4.720   2.523   7.475 -0.2332  1.1319  2.5953
 2828SOL     OW19945   4.354   1.113   1.996  0.0073  0.4821 -0.1722
 2828SOL    HW119946   4.400   1.171   1.935  0.7097 -1.0213 -1.0961
 2828SOL    HW219947   4.338   1.167   2.073 -0.0814  0.4246 -0.1508
 2829SOL     OW19948   0.477   0.220   5.079  0.4668  0.4057 -0.2989
 2829SOL    HW119949   0.545   0.266   5.128 -0.9574  1.8607  0.3097
 2829SOL    HW219950   0.515   0.218   4.991 -0.6429  0.8864 -0.7896
 2830SOL     OW19951   4.450   2.229   8.927  0.0117 -0.3208  0.1363
 2830SOL    HW119952   4.441   2.314   8.883  2.1620 -0.1167  0.0724
 2830SOL    HW219953   4.503   2.179   8.865 -0.3093  0.7183 -0.9798
 2831SOL     OW19954   0.965   1.631   7.035  0.6009  0.4693  0.0492
 2831SOL    HW119955   0.977   1.578   7.113  1.1240  1.4862  0.6542
 2831SOL    HW219956   0.965   1.719   7.074 -0.4367  1.0616 -1.2832
 2832SOL     OW19957   3.990   4.583   7.835 -0.2152 -0.7468  0.1524
 2832SOL    HW119958   4.000   4.502   7.884 -0.1134 -1.1016 -0.4557
 2832SOL    HW219959   3.948   4.646   7.893  1.0791  1.4153 -1.2495
 2833SOL     OW19960   0.516   2.789   7.123 -0.3000  0.1168 -0.2669
 2833SOL    HW119961   0.575   2.857   7.155 -0.7875  0.0595  0.7608
 2833SOL    HW219962   0.451   2.791   7.194  0.0443  3.4464 -0.0467
 2834SOL     OW19963   4.565   3.722   4.798 -0.0045  0.3583 -0.7452
 2834SOL    HW119964   4.593   3.809   4.773  0.7582 -0.1067 -1.4983
 2834SOL    HW219965   4.527   3.733   4.886  0.1359  0.9646 -0.7604
 2835SOL     OW19966   2.027   4.248   9.195 -0.5294 -0.0278  0.2700
 2835SOL    HW119967   1.940   4.217   9.169 -0.5050  0.1212  0.0102
 2835SOL    HW219968   2.024   4.235   9.290 -1.9367  0.1662  0.2459
 2836SOL     OW19969   0.421   3.918   7.384  0.3007  0.1258  0.6975
 2836SOL    HW119970   0.446   3.911   7.292 -1.0262  0.2310  0.3224
 2836SOL    HW219971   0.504   3.889   7.420  1.0519  1.7795  0.2865
 2837SOL     OW19972   2.647   2.853  12.206 -0.1701 -0.4702  0.0811
 2837SOL    HW119973   2.675   2.810  12.287  0.9488  0.2893  0.1059
 2837SOL    HW219974   2.557   2.822  12.199 -0.8296  1.4675 -0.0735
 2838SOL     OW19975   1.438   0.986   7.541  0.6128 -0.2993  0.3592
 2838SOL    HW119976   1.365   0.924   7.553  0.3485 -0.1311 -0.4054
 2838SOL    HW219977   1.508   0.931   7.575  1.5500 -1.9995 -4.3515
 2839SOL     OW19978   1.740   0.227  12.757 -0.1920 -0.4302 -0.3957
 2839SOL    HW119979   1.694   0.152  12.795  1.1821 -1.5976 -1.0220
 2839SOL    HW219980   1.827   0.189  12.750 -0.9813 -2.4868  0.7154
 2840SOL     OW19981   0.509   2.476   7.722 -0.5122 -0.1533  0.0924
 2840SOL    HW119982   0.532   2.548   7.663  0.2033  0.8351  1.5800
 2840SOL    HW219983   0.417   2.499   7.736  0.0642  1.0834  1.8324
 2841SOL     OW19984   0.848   4.627  13.573 -0.2301 -0.0372 -0.4105
 2841SOL    HW119985   0.926   4.674  13.602  0.4269 -0.9934 -0.6307
 2841SOL    HW219986   0.872   4.534  13.571  1.3303  0.4285 -3.0029
 2842SOL     OW19987   1.026   0.985   2.471  0.9925  0.4012 -0.3123
 2842SOL    HW119988   0.996   0.929   2.543 -0.5880 -1.1143 -2.1456
 2842SOL    HW219989   1.074   0.920   2.420 -1.2370 -0.9339 -0.7112
 2843SOL     OW19990   4.486   2.251   6.296 -0.7417  0.0813  0.1037
 2843SOL    HW119991   4.486   2.169   6.246 -0.7270 -0.0507  0.3232
 2843SOL    HW219992   4.516   2.226   6.383  1.6253  0.0689 -0.7114
 2844SOL     OW19993   2.325   1.492   2.486  0.2884 -0.3364  0.0253
 2844SOL    HW119994   2.282   1.563   2.534  1.9910  0.7217 -0.0255
 2844SOL    HW219995   2.414   1.502   2.519  0.9917  0.6507 -2.1726
 2845SOL     OW19996   3.286   3.728   4.698 -0.3898 -0.3541  0.0575
 2845SOL    HW119997   3.261   3.750   4.787  0.9214 -0.0984  0.3549
 2845SOL    HW219998   3.219   3.759   4.636  0.0425  0.7355  0.1415
 2846SOL     OW19999   3.821   2.003   1.329  0.5880  0.2574  0.0505
 2846SOL    HW120000   3.848   1.983   1.419 -0.3860 -1.5946 -0.0792
 2846SOL    HW220001   3.895   1.973   1.277 -0.1702 -1.5019  0.0035
 2847SOL     OW20002   2.230   4.067   9.056 -0.2153  0.2558 -0.2136
 2847SOL    HW120003   2.227   4.131   9.127  0.7764  1.2787 -1.0833
 2847SOL    HW220004   2.160   4.103   9.001 -1.8838 -2.6829  0.0117
 2848SOL     OW20005   0.092   2.159   4.482 -0.3802 -0.4830 -0.3314
 2848SOL    HW120006   0.101   2.249   4.512  3.2362 -1.0567  0.2358
 2848SOL    HW220007   0.029   2.169   4.410  1.1359 -1.6210 -1.8184
 2849SOL     OW20008   2.261   3.894   6.796  0.5902  0.1855  0.1265
 2849SOL    HW120009   2.249   3.870   6.704  0.4438 -1.1035  0.4857
 2849SOL    HW220010   2.353   3.869   6.805  1.6895  4.8653  1.6432
 2850SOL     OW20011   1.281   1.586   4.798 -0.6044  0.1451 -0.3043
 2850SOL    HW120012   1.220   1.645   4.842  1.0742 -0.0132  2.1972
 2850SOL    HW220013   1.219   1.539   4.742 -2.2643  1.9246  0.0174
 2851SOL     OW20014   1.206   4.071   1.050  0.0008  0.4392 -0.4320
 2851SOL    HW120015   1.284   4.124   1.032  0.0589  0.2707 -0.6681
 2851SOL    HW220016   1.240   4.046   1.136 -2.9682  2.2691  1.2687
 2852SOL     OW20017   4.607   4.560   5.587 -0.1905  0.4689 -0.2013
 2852SOL    HW120018   4.689   4.516   5.570 -0.7247 -0.4057 -0.5052
 2852SOL    HW220019   4.637   4.642   5.627 -0.2807  0.6929 -0.5878
 2853SOL     OW20020   2.719   2.618   7.515 -0.2457  0.9560  0.3988
 2853SOL    HW120021   2.661   2.597   7.441 -2.2456  0.1088  2.1939
 2853SOL    HW220022   2.665   2.685   7.557 -1.6685  0.9458 -1.3710
 2854SOL     OW20023   2.308   3.249  13.800  0.2024  0.1553  0.5515
 2854SOL    HW120024   2.234   3.195  13.772 -0.0261 -0.2209  1.8956
 2854SOL    HW220025   2.324   3.204  13.883 -0.3930 -1.4305 -0.1932
 2855SOL     OW20026   1.178   1.841   4.392 -0.1596  0.0712  0.1286
 2855SOL    HW120027   1.114   1.847   4.463 -2.2861  2.6428 -2.0237
 2855SOL    HW220028   1.131   1.777   4.340  0.6518  0.6999 -1.3807
 2856SOL     OW20029   0.230   0.223  17.542  0.4694  0.8421  0.5626
 2856SOL    HW120030   0.237   0.305  17.591  0.9724  1.1364 -0.0015
 2856SOL    HW220031   0.305   0.231  17.483 -0.3175 -1.2251 -0.7307
 2857SOL     OW20032   3.886   1.187   4.651  0.1911  0.2067  0.0305
 2857SOL    HW120033   3.926   1.104   4.626  2.9136  1.6188 -0.3740
 2857SOL    HW220034   3.823   1.200   4.581  0.4018 -1.0541 -0.3923
 2858SOL     OW20035   0.743   3.028  17.673 -1.6356  0.1741  0.3342
 2858SOL    HW120036   0.759   3.106  17.621 -4.3296  0.9291  0.6706
 2858SOL    HW220037   0.771   2.959  17.613 -0.2792  0.9476  0.0925
 2859SOL     OW20038   0.088   2.945  10.845  0.2362 -0.6834 -0.0407
 2859SOL    HW120039   0.060   2.982  10.928  3.9945  0.6917  0.6057
 2859SOL    HW220040   0.012   2.893  10.818 -1.9201  3.1098 -1.1400
 2860SOL     OW20041   4.422   2.818   7.292 -0.4829 -0.0797 -0.6015
 2860SOL    HW120042   4.427   2.799   7.198  0.8244 -0.8865 -0.3654
 2860SOL    HW220043   4.416   2.913   7.298  0.0039 -0.0782 -0.1463
 2861SOL     OW20044   3.202   4.585  12.788 -0.4755 -0.4884 -0.1001
 2861SOL    HW120045   3.218   4.672  12.753  2.1209 -1.3742 -1.0853
 2861SOL    HW220046   3.180   4.614  12.877  1.3920  2.4584 -0.5917
 2862SOL     OW20047   1.973   0.295   8.990 -0.2310 -0.4762 -0.1608
 2862SOL    HW120048   2.046   0.236   9.007  0.5067  0.0625 -1.4423
 2862SOL    HW220049   1.918   0.281   9.067  1.4453  0.0214  1.1341
 2863SOL     OW20050   1.211   2.845   5.082 -0.0357  0.3665 -0.1697
 2863SOL    HW120051   1.157   2.777   5.043 -0.0229  0.0144  0.4245
 2863SOL    HW220052   1.186   2.845   5.174  1.3674  0.4416  0.2183
 2864SOL     OW20053   1.341   3.805   1.765  0.8398 -0.0611 -0.4718
 2864SOL    HW120054   1.383   3.879   1.721  2.0426 -0.5113 -0.0842
 2864SOL    HW220055   1.364   3.817   1.857 -0.1345  1.1126 -0.3855
 2865SOL     OW20056   3.257   1.506   3.243  0.0796  0.0226 -0.0791
 2865SOL    HW120057   3.171   1.494   3.283 -0.2095  0.2644 -0.6299
 2865SOL    HW220058   3.265   1.600   3.255 -0.9604  0.1193 -0.1109
 2866SOL     OW20059   0.196   3.357  17.552 -0.0702 -0.6095  0.4484
 2866SOL    HW120060   0.192   3.451  17.536  3.3991 -0.4737  0.4999
 2866SOL    HW220061   0.128   3.348  17.620  1.0112  0.8134  1.7017
 2867SOL     OW20062   4.090   3.928  15.431  0.5298 -0.5470  0.6906
 2867SOL    HW120063   4.150   3.979  15.377  1.8064 -0.7635  1.8690
 2867SOL    HW220064   4.145   3.947  15.507 -2.9467  0.0694  3.0714
 2868SOL     OW20065   2.140   0.448  12.680 -0.3925  0.0766 -0.4331
 2868SOL    HW120066   2.196   0.380  12.641  1.1450  1.4428 -0.6398
 2868SOL    HW220067   2.103   0.404  12.756 -2.2995  0.5538 -1.0865
 2869SOL     OW20068   0.553   0.833   5.176 -0.0435  0.2661  0.6592
 2869SOL    HW120069   0.523   0.803   5.090  0.8694 -0.8199  0.7294
 2869SOL    HW220070   0.463   0.843   5.208 -0.1607  2.1672 -0.2575
 2870SOL     OW20071   4.106   4.662  14.238  0.6458  0.0899 -0.0109
 2870SOL    HW120072   4.178   4.712  14.275  0.3915  0.8077 -0.4838
 2870SOL    HW220073   4.038   4.681  14.303  3.5054  0.9864  2.7086
 2871SOL     OW20074   2.625   4.358  11.598  0.2269 -0.3607 -0.1238
 2871SOL    HW120075   2.705   4.365  11.546  0.2226 -0.6803 -0.1750
 2871SOL    HW220076   2.595   4.285  11.543  0.3757  0.0632 -0.7639
 2872SOL     OW20077   4.502   0.471   8.771  0.0222 -0.3808 -0.0366
 2872SOL    HW120078   4.443   0.419   8.717 -0.2321  2.0170 -2.0738
 2872SOL    HW220079   4.570   0.490   8.707 -1.2566 -0.0654 -1.3135
 2873SOL     OW20080   4.616   3.807  13.310 -0.0251  0.1071  0.8374
 2873SOL    HW120081   4.606   3.769  13.223  0.5405 -0.1313  0.8772
 2873SOL    HW220082   4.707   3.784  13.323 -0.2885 -0.5210  1.5724
 2874SOL     OW20083   0.476   1.745   7.076 -0.2977 -0.4197 -0.4116
 2874SOL    HW120084   0.426   1.824   7.096  0.6055 -0.1194  0.6164
 2874SOL    HW220085   0.470   1.702   7.161  0.7104  1.0044  0.3715
 2875SOL     OW20086   1.687   0.317   5.892  0.1555 -0.3929  0.0089
 2875SOL    HW120087   1.763   0.364   5.927  0.0090 -1.0622  1.2387
 2875SOL    HW220088   1.625   0.388   5.882 -2.3815 -2.5932  0.1421
 2876SOL     OW20089   1.770   3.788   5.547 -0.1900  0.2394 -0.1410
 2876SOL    HW120090   1.784   3.794   5.452 -1.4093 -2.3102 -0.4765
 2876SOL    HW220091   1.749   3.877   5.577 -2.3486 -0.3271  0.0565
 2877SOL     OW20092   3.213   1.505   7.242 -0.1540 -0.0538  0.2846
 2877SOL    HW120093   3.265   1.548   7.175 -0.9639  1.5829  0.7234
 2877SOL    HW220094   3.269   1.506   7.320  0.6965  0.8712 -0.3363
 2878SOL     OW20095   0.951   2.115   8.855  0.3744 -0.5165 -0.5179
 2878SOL    HW120096   0.882   2.073   8.905  0.5462  1.3395  1.2794
 2878SOL    HW220097   0.898   2.182   8.812  0.5257  0.7072  1.2334
 2879SOL     OW20098   3.182   0.562   2.790 -0.0590  0.9037  0.0845
 2879SOL    HW120099   3.184   0.496   2.721  0.4629 -0.3470  1.3181
 2879SOL    HW220100   3.251   0.620   2.757  0.5268 -0.4084 -0.9887
 2880SOL     OW20101   1.659   3.383   3.932 -0.5834 -0.5713 -0.0863
 2880SOL    HW120102   1.582   3.413   3.980 -0.0434  0.0933  0.3580
 2880SOL    HW220103   1.609   3.324   3.876 -0.0135 -2.1392  1.0429
 2881SOL     OW20104   0.744   1.825   9.452 -0.4865  0.3876  0.1150
 2881SOL    HW120105   0.792   1.754   9.408 -1.6384  1.3078 -2.5978
 2881SOL    HW220106   0.669   1.833   9.394 -2.2901 -0.8626  2.2766
 2882SOL     OW20107   1.791   0.740  15.948 -0.4496 -0.6452  0.2372
 2882SOL    HW120108   1.867   0.782  15.909  0.1074 -1.1947  0.7132
 2882SOL    HW220109   1.714   0.794  15.931  0.4938  0.4440 -0.5335
 2883SOL     OW20110   2.997   3.046  13.490  0.1907  0.3601  0.5073
 2883SOL    HW120111   2.975   3.121  13.544  0.1274  1.1138 -0.5584
 2883SOL    HW220112   2.910   3.007  13.488  0.2992  0.1885 -1.3821
 2884SOL     OW20113   3.906   2.427   2.621  0.2627  0.3560  0.1215
 2884SOL    HW120114   3.926   2.501   2.564 -1.3088  1.5651  1.1669
 2884SOL    HW220115   3.988   2.379   2.607  0.0040 -0.0274 -0.1116
 2885SOL     OW20116   4.157   2.742   4.651  0.6556  0.5179  0.1019
 2885SOL    HW120117   4.108   2.663   4.630 -0.3144  0.9000  0.9599
 2885SOL    HW220118   4.247   2.719   4.629  1.0844  1.0468  1.2529
 2886SOL     OW20119   1.598   3.149   2.022  0.3892  0.1437 -0.1368
 2886SOL    HW120120   1.620   3.213   1.954  0.2885 -0.7247 -0.9692
 2886SOL    HW220121   1.680   3.126   2.066  0.3855  0.1414 -0.1311
 2887SOL     OW20122   2.039   4.365   7.850  0.8142 -0.5806  0.1596
 2887SOL    HW120123   2.007   4.276   7.841 -0.4113 -0.0936 -0.3109
 2887SOL    HW220124   2.086   4.379   7.768 -1.3314  1.3487 -0.7635
 2888SOL     OW20125   1.652   3.403   0.943 -0.8772 -0.0289  0.6724
 2888SOL    HW120126   1.614   3.400   1.030 -0.7300  1.2511  0.7840
 2888SOL    HW220127   1.680   3.312   0.936  2.1203  0.9464 -0.1427
 2889SOL     OW20128   4.132   2.043   9.215  0.1656  0.0649 -0.2505
 2889SOL    HW120129   4.221   2.032   9.249  0.1845  4.0547  0.9517
 2889SOL    HW220130   4.087   1.981   9.273  1.3103  0.9142  1.5681
 2890SOL     OW20131   3.611   2.004   7.694  0.0903 -0.5704 -0.4473
 2890SOL    HW120132   3.600   2.063   7.769  0.4623 -0.1169 -0.7464
 2890SOL    HW220133   3.611   2.072   7.626 -3.8746 -0.1277 -0.0203
 2891SOL     OW20134   0.813   3.297   7.381  0.4465 -0.0443  0.5103
 2891SOL    HW120135   0.858   3.217   7.353  2.8826  1.6642 -0.5227
 2891SOL    HW220136   0.828   3.351   7.303  1.3043  0.0396  0.7301
 2892SOL     OW20137   1.792   2.552  10.771  0.2851 -0.0205  0.2560
 2892SOL    HW120138   1.724   2.490  10.798 -0.5191  1.1270  0.9001
 2892SOL    HW220139   1.831   2.549  10.859 -2.0571 -1.0051  1.2773
 2893SOL     OW20140   4.368   0.844   5.901 -0.0646 -0.7344  0.4552
 2893SOL    HW120141   4.410   0.829   5.985  1.5185 -1.7997 -0.5201
 2893SOL    HW220142   4.382   0.758   5.861  0.5892 -0.9771  1.1981
 2894SOL     OW20143   0.261   0.051   0.070  0.2074  0.3076 -0.3087
 2894SOL    HW120144   0.292   4.694   0.040  0.1439  0.1480  0.0869
 2894SOL    HW220145   0.191   0.059   0.006 -0.0866  2.5392  0.2938
 2895SOL     OW20146   0.902   0.490  15.092 -0.3509 -0.0258 -0.4045
 2895SOL    HW120147   0.813   0.466  15.116  0.2879  0.5315  2.5594
 2895SOL    HW220148   0.911   0.461  15.002 -0.2316  1.1200 -0.7638
 2896SOL     OW20149   1.599   0.328  12.196 -0.3592 -0.1916  0.0033
 2896SOL    HW120150   1.624   0.419  12.214 -0.2566 -0.0326 -0.9170
 2896SOL    HW220151   1.575   0.306  12.286  0.7741 -3.2604 -0.4269
 2897SOL     OW20152   1.197   0.888   3.653  0.0801 -0.0308  0.1038
 2897SOL    HW120153   1.189   0.820   3.586 -3.1497  0.0071  0.4166
 2897SOL    HW220154   1.262   0.854   3.714 -1.0057 -1.9440  0.1766
 2898SOL     OW20155   1.753   3.580   3.746 -0.0323 -0.0082  0.3287
 2898SOL    HW120156   1.673   3.583   3.694 -0.2284  0.3558  0.6552
 2898SOL    HW220157   1.728   3.518   3.814 -0.3804 -0.6713 -0.4018
 2899SOL     OW20158   4.333   4.656  11.294  0.0866 -0.4296 -0.1020
 2899SOL    HW120159   4.425   4.679  11.303  0.0420  0.2619 -1.4467
 2899SOL    HW220160   4.294   0.011  11.268 -2.1163 -1.6291 -0.7321
 2900SOL     OW20161   4.173   3.331   1.487 -0.0503  0.1642  0.5984
 2900SOL    HW120162   4.089   3.329   1.440 -0.4163 -1.6912  1.2917
 2900SOL    HW220163   4.143   3.343   1.577 -0.3280 -1.1068  0.6804
 2901SOL     OW20164   4.517   0.084   8.915  0.3972  0.4945 -0.4166
 2901SOL    HW120165   4.578   0.039   8.973  0.1843 -0.9871 -1.3439
 2901SOL    HW220166   4.500   0.014   8.852 -0.3148  1.0592 -0.8520
 2902SOL     OW20167   3.159   3.712   8.763 -0.4997 -0.8787 -0.7204
 2902SOL    HW120168   3.153   3.798   8.806  1.9910 -1.3475  0.5332
 2902SOL    HW220169   3.226   3.667   8.814 -0.5222  0.3591  0.4110
 2903SOL     OW20170   1.860   3.219   3.603 -0.6772 -0.1413  0.2411
 2903SOL    HW120171   1.900   3.289   3.654  1.4188 -1.1144 -0.0694
 2903SOL    HW220172   1.783   3.267   3.573  0.3337 -0.1629 -2.3176
 2904SOL     OW20173   1.611   1.205   5.006 -0.3530  0.6290  0.5699
 2904SOL    HW120174   1.663   1.160   5.072 -0.6999 -1.6653 -0.7106
 2904SOL    HW220175   1.566   1.266   5.065 -1.0366  1.0985 -0.4327
 2905SOL     OW20176   2.293   4.237   5.516  0.0548 -0.0457 -0.0236
 2905SOL    HW120177   2.247   4.301   5.461 -0.9234 -2.0919 -1.5732
 2905SOL    HW220178   2.360   4.196   5.461 -1.4012 -4.5644  1.5468
 2906SOL     OW20179   1.735   4.387   2.122  0.5702  0.8128  0.1025
 2906SOL    HW120180   1.734   4.394   2.027 -1.9253 -0.5234  0.0258
 2906SOL    HW220181   1.827   4.390   2.150  1.0687 -1.1371 -1.3010
 2907SOL     OW20182   0.085   1.865  15.036  0.3415  0.2347 -0.5402
 2907SOL    HW120183   0.120   1.944  15.077 -0.2683  0.6987 -0.9081
 2907SOL    HW220184   0.109   1.806  15.107 -0.3502  1.2260  0.5126
 2908SOL     OW20185   4.687   0.497   7.800  0.4672  0.3407  0.3703
 2908SOL    HW120186   4.716   0.502   7.709  0.6549 -1.7856  0.3155
 2908SOL    HW220187   4.623   0.569   7.809 -0.3737 -0.5751  1.6737
 2909SOL     OW20188   4.230   4.363   5.556 -0.3779 -0.2498 -0.3541
 2909SOL    HW120189   4.292   4.313   5.503  1.7088  1.8911  0.0739
 2909SOL    HW220190   4.144   4.330   5.528 -0.5891  2.0200 -2.4417
 2910SOL     OW20191   0.317   1.746   4.390  0.1402 -0.0935 -0.3471
 2910SOL    HW120192   0.372   1.784   4.458 -1.0355 -0.4785  0.8120
 2910SOL    HW220193   0.284   1.829   4.357 -0.0074 -0.6492 -1.6056
 2911SOL     OW20194   4.590   2.545  14.719  0.1357 -0.0208  0.3018
 2911SOL    HW120195   4.639   2.608  14.771 -1.6351  0.3033  1.5717
 2911SOL    HW220196   4.642   2.469  14.744  0.8097  0.2989 -0.1036
 2912SOL     OW20197   3.960   2.210   6.202  0.3949  0.4211 -0.0710
 2912SOL    HW120198   3.980   2.137   6.261  0.9600 -0.5651 -1.4780
 2912SOL    HW220199   3.960   2.282   6.266 -1.9499 -0.7364  1.2064
 2913SOL     OW20200   2.156   3.823   5.763 -0.3754  0.1680 -0.0476
 2913SOL    HW120201   2.195   3.760   5.824 -1.3924 -0.1364  0.2824
 2913SOL    HW220202   2.068   3.785   5.765 -0.2974 -0.0287 -0.2991
 2914SOL     OW20203   3.033   3.755   3.183 -0.5261  0.0470  0.0340
 2914SOL    HW120204   2.984   3.736   3.263 -0.2029 -0.0497  0.2071
 2914SOL    HW220205   3.108   3.801   3.220 -0.5313  0.2236 -0.1732
 2915SOL     OW20206   4.446   4.080   0.300 -0.2254  0.1506 -0.3307
 2915SOL    HW120207   4.406   3.995   0.312 -0.0786  0.2186  0.6708
 2915SOL    HW220208   4.429   4.139   0.374 -4.7702 -1.0840 -0.4498
 2916SOL     OW20209   1.911   2.634   2.424  0.0769  0.1732  0.4581
 2916SOL    HW120210   1.832   2.658   2.377 -0.6159 -1.6109  0.7216
 2916SOL    HW220211   1.954   2.719   2.429  1.4611 -0.5919  1.6631
 2917SOL     OW20212   0.106   0.201  13.657  0.9647  0.4581  0.3610
 2917SOL    HW120213   0.144   0.228  13.574  2.6512 -2.1136  0.2906
 2917SOL    HW220214   0.173   0.139  13.686  0.3505 -0.4796 -0.2279
 2918SOL     OW20215   0.179   2.858  13.562 -0.0777  0.3547  0.1857
 2918SOL    HW120216   0.193   2.947  13.596  2.0432  1.1705 -2.8314
 2918SOL    HW220217   0.258   2.854  13.507 -0.4158  3.0694 -0.4909
 2919SOL     OW20218   3.425   2.746   5.276 -0.0695 -0.0018  0.4125
 2919SOL    HW120219   3.408   2.780   5.188 -1.4668 -1.1417  0.2387
 2919SOL    HW220220   3.455   2.830   5.312  0.9929  0.3092 -1.1742
 2920SOL     OW20221   1.366   3.473   9.349  0.4879 -0.1810 -0.3256
 2920SOL    HW120222   1.404   3.539   9.406 -1.3407 -1.7966  2.8032
 2920SOL    HW220223   1.271   3.486   9.355  0.3187 -0.9429 -1.3795
 2921SOL     OW20224   3.740   2.981   1.754 -0.0358 -0.9582  0.7331
 2921SOL    HW120225   3.676   3.052   1.766  0.1165 -1.0387  1.9564
 2921SOL    HW220226   3.816   3.015   1.802  0.0941  0.8943 -0.7665
 2922SOL     OW20227   3.234   0.201   4.143  0.5069 -0.0932  0.3653
 2922SOL    HW120228   3.265   0.214   4.233 -2.0088  0.4908  1.1548
 2922SOL    HW220229   3.319   0.228   4.108  1.9390 -3.5913  1.1136
 2923SOL     OW20230   0.502   3.155   6.510  0.2913  0.2872 -0.2782
 2923SOL    HW120231   0.522   3.094   6.581  0.9054  1.7526  0.8105
 2923SOL    HW220232   0.526   3.114   6.427  0.1098  1.0669 -0.7170
 2924SOL     OW20233   1.636   4.687  12.457 -0.7506  0.1173  0.2399
 2924SOL    HW120234   1.728   4.676  12.479 -0.8999  1.1618  1.4032
 2924SOL    HW220235   1.592   4.636  12.525 -0.3871  1.0689  1.1837
 2925SOL     OW20236   1.996   0.403  15.053  0.5306  0.3798 -0.2242
 2925SOL    HW120237   2.025   0.338  15.117  2.2775  0.8396 -0.5429
 2925SOL    HW220238   1.917   0.443  15.091  1.1602 -1.8701  3.4248
 2926SOL     OW20239   3.463   1.065   4.642 -0.1408 -0.0399  0.4463
 2926SOL    HW120240   3.411   1.009   4.700 -1.0775 -0.7769 -1.1011
 2926SOL    HW220241   3.550   1.059   4.682 -0.0991  0.4252  0.4251
 2927SOL     OW20242   0.022   2.701  16.867  0.1774 -1.1417  0.0093
 2927SOL    HW120243   4.666   2.746  16.862  0.5704 -0.4451 -0.3914
 2927SOL    HW220244   0.003   2.619  16.913 -0.5258 -0.3134  1.2173
 2928SOL     OW20245   2.314   2.180   3.789  0.0542 -0.3074 -0.1592
 2928SOL    HW120246   2.388   2.224   3.748 -0.0452 -1.5097 -1.6157
 2928SOL    HW220247   2.240   2.241   3.783  0.1066 -0.1479  0.7477
 2929SOL     OW20248   2.640   2.432   4.115  0.0283  0.1202  0.1873
 2929SOL    HW120249   2.596   2.352   4.089 -0.3637 -0.0359  1.3223
 2929SOL    HW220250   2.654   2.410   4.207 -1.5927 -0.7745  0.2127
 2930SOL     OW20251   0.006   0.344   3.442  0.2181 -0.5283  0.1276
 2930SOL    HW120252   0.071   0.278   3.467  1.3619  1.0450  1.3655
 2930SOL    HW220253   4.700   0.355   3.531  0.6572 -2.1399  0.5008
 2931SOL     OW20254   4.120   3.480  12.350 -0.2153  0.0582 -0.3907
 2931SOL    HW120255   4.191   3.422  12.322  1.3173  1.7105  0.0152
 2931SOL    HW220256   4.181   3.554  12.360  1.1884 -1.1286 -0.1641
 2932SOL     OW20257   1.237   1.080   0.756  0.7996  0.1074  0.3411
 2932SOL    HW120258   1.190   1.126   0.825 -1.8849  0.0187 -1.4353
 2932SOL    HW220259   1.199   1.113   0.675  2.8094  4.2120  1.1087
 2933SOL     OW20260   3.005   0.098   2.608 -0.2359  0.5070 -0.0299
 2933SOL    HW120261   2.971   0.009   2.617 -0.7019  0.8299  1.3961
 2933SOL    HW220262   3.101   0.088   2.612 -0.3236 -0.3233  0.0294
 2934SOL     OW20263   0.070   3.415   6.650  0.0538 -0.1209 -0.6735
 2934SOL    HW120264   0.068   3.501   6.608 -2.0548  0.5503  0.8073
 2934SOL    HW220265   4.709   3.406   6.681  0.7731 -0.0587  1.4214
 2935SOL     OW20266   1.167   1.389   0.626 -0.0283  0.0078 -0.6233
 2935SOL    HW120267   1.135   1.359   0.711 -1.8992  0.1078 -1.2986
 2935SOL    HW220268   1.179   1.307   0.579 -0.7047  0.7555 -2.0929
 2936SOL     OW20269   1.160   1.289  12.196 -0.5795  0.6448 -0.2754
 2936SOL    HW120270   1.129   1.296  12.286 -1.1397  0.3187 -0.4415
 2936SOL    HW220271   1.082   1.251  12.155 -0.3497 -0.3607  0.2192
 2937SOL     OW20272   0.983   4.038  17.697  0.8818  0.2992  0.5363
 2937SOL    HW120273   1.051   4.029   0.048  1.1059 -0.5680  0.1993
 2937SOL    HW220274   0.978   3.944  17.680  0.0092 -0.0140  2.5776
 2938SOL     OW20275   0.350   1.513   7.612 -0.4026 -0.3964 -0.2394
 2938SOL    HW120276   0.279   1.558   7.567 -0.9996 -2.0529 -0.9902
 2938SOL    HW220277   0.309   1.438   7.656 -1.0379 -0.0454 -0.2387
 2939SOL     OW20278   0.744   4.616   7.913 -0.4728 -0.6540 -0.5621
 2939SOL    HW120279   0.766   4.527   7.941  0.9282  0.0703  0.6398
 2939SOL    HW220280   0.820   4.669   7.936 -0.8755 -1.0766  1.8205
 2940SOL     OW20281   0.683   1.140   2.182  0.5333 -0.5944  0.4466
 2940SOL    HW120282   0.738   1.119   2.257  1.4876  0.5296  0.0654
 2940SOL    HW220283   0.758   1.175   2.134  0.2017  1.5133  1.4572
 2941SOL     OW20284   3.479   2.129   3.450  0.0870  0.4878 -0.3583
 2941SOL    HW120285   3.461   2.205   3.507 -1.6075  1.2080 -1.8475
 2941SOL    HW220286   3.444   2.055   3.500 -2.2802  1.0979 -1.1064
 2942SOL     OW20287   1.446   2.287   8.943  0.5188  0.0961 -0.1752
 2942SOL    HW120288   1.370   2.249   8.899  0.7245 -2.0168  1.2787
 2942SOL    HW220289   1.438   2.242   9.027  2.0183  0.2066  0.0231
 2943SOL     OW20290   2.900   4.086   6.116  0.1754 -0.1821 -0.4328
 2943SOL    HW120291   2.837   4.127   6.056  1.6869  0.5523 -1.5208
 2943SOL    HW220292   2.963   4.158   6.113  0.5109 -0.5127 -1.3093
 2944SOL     OW20293   2.197   0.779   4.977 -0.4812 -0.1361 -0.6657
 2944SOL    HW120294   2.285   0.764   4.941 -0.1085  2.4588 -0.8035
 2944SOL    HW220295   2.218   0.856   5.029 -2.2469 -0.6375  0.7866
 2945SOL     OW20296   2.183   4.562   5.236  0.0300 -0.2522 -0.6193
 2945SOL    HW120297   2.270   4.598   5.220  0.8755 -1.5979  0.9942
 2945SOL    HW220298   2.134   4.642   5.218  0.6724  0.1053 -0.7783
 2946SOL     OW20299   4.108   0.955   2.780  0.0102 -0.1286 -0.1757
 2946SOL    HW120300   4.038   1.008   2.741 -0.3655  0.1756  0.9241
 2946SOL    HW220301   4.101   0.975   2.873 -1.0212 -1.3401  0.0022
 2947SOL     OW20302   1.774   1.297   9.523 -0.3179 -0.0085 -0.3069
 2947SOL    HW120303   1.766   1.248   9.605 -0.9863 -1.8905 -1.5030
 2947SOL    HW220304   1.748   1.382   9.558 -0.0870 -0.9202  2.0923
 2948SOL     OW20305   0.600   0.509   1.394 -0.1442 -0.0978 -0.5007
 2948SOL    HW120306   0.546   0.487   1.469 -0.3700  0.6201 -0.4470
 2948SOL    HW220307   0.534   0.537   1.331 -1.9104 -3.0238  0.0691
 2949SOL     OW20308   2.588   4.611   5.197 -0.3593 -0.2204  0.5486
 2949SOL    HW120309   2.531   4.670   5.148 -0.5132 -1.9161 -1.3529
 2949SOL    HW220310   2.658   4.670   5.223  0.4244 -0.8591 -0.0877
 2950SOL     OW20311   3.155   2.921  17.106 -0.1978 -0.3175  0.3421
 2950SOL    HW120312   3.117   2.846  17.059  1.3308 -0.5862 -0.4611
 2950SOL    HW220313   3.088   2.989  17.100  0.0604  0.0241  1.3434
 2951SOL     OW20314   3.846   3.342   3.198  0.1955 -0.2555  0.4523
 2951SOL    HW120315   3.910   3.292   3.249 -0.1914  0.7402  1.9176
 2951SOL    HW220316   3.883   3.430   3.200  2.0106 -1.0218  0.7139
 2952SOL     OW20317   1.368   3.908  11.253  0.1785  0.0564  0.0236
 2952SOL    HW120318   1.452   3.932  11.294  0.2331 -0.5950  0.2909
 2952SOL    HW220319   1.306   3.915  11.326 -1.4498 -1.3050 -1.2494
 2953SOL     OW20320   1.974   4.183   3.105  0.8141  0.4672 -0.1090
 2953SOL    HW120321   1.997   4.256   3.163 -0.7356  2.4242 -1.9782
 2953SOL    HW220322   2.043   4.121   3.130 -0.8446 -1.5173 -0.3668
 2954SOL     OW20323   4.356   1.919   9.728 -0.0469 -0.5612 -0.6011
 2954SOL    HW120324   4.448   1.902   9.705  0.6959 -3.1044  4.2873
 2954SOL    HW220325   4.358   1.996   9.786  2.0460 -1.3912  0.4381
 2955SOL     OW20326   3.894   3.757  16.865 -0.0558 -0.2755 -0.3924
 2955SOL    HW120327   3.916   3.825  16.802 -0.2480 -0.2133 -0.3898
 2955SOL    HW220328   3.811   3.724  16.832  0.2906 -1.4830 -0.0550
 2956SOL     OW20329   2.933   2.006   9.953 -0.3280  0.0209  0.1259
 2956SOL    HW120330   2.904   1.940  10.017  0.4384 -1.4062 -0.9868
 2956SOL    HW220331   2.917   1.957   9.872  1.4658 -0.7512  0.2412
 2957SOL     OW20332   2.437   3.532  11.780  0.3677 -0.2448  0.0113
 2957SOL    HW120333   2.421   3.438  11.773  1.1529 -0.3588 -0.2611
 2957SOL    HW220334   2.363   3.570  11.827 -0.1384 -2.5370  1.0352
 2958SOL     OW20335   0.295   2.205   8.527  0.4279 -0.2312  0.4351
 2958SOL    HW120336   0.291   2.300   8.521 -0.4419 -0.3335 -0.4937
 2958SOL    HW220337   0.200   2.191   8.525  0.5336 -0.6445 -2.2152
 2959SOL     OW20338   2.565   4.231   4.523  0.1164 -0.4521 -0.1480
 2959SOL    HW120339   2.515   4.152   4.502  0.2753 -1.2555  2.5455
 2959SOL    HW220340   2.597   4.261   4.438 -2.4860  1.4151 -0.4633
 2960SOL     OW20341   3.001   1.080   9.413  0.1367 -0.0376  0.1205
 2960SOL    HW120342   3.061   1.013   9.381  0.5872 -0.4719  1.8694
 2960SOL    HW220343   2.913   1.051   9.393  1.5877 -3.9182 -0.5642
 2961SOL     OW20344   3.171   2.956  11.365 -0.3030  0.0132 -0.2245
 2961SOL    HW120345   3.186   3.048  11.345  0.0002 -0.1354 -0.6796
 2961SOL    HW220346   3.094   2.940  11.311 -0.1352 -0.1836 -0.4026
 2962SOL     OW20347   0.234   0.491   7.356  0.1242  0.1589 -0.0031
 2962SOL    HW120348   0.312   0.485   7.301 -0.4732 -2.3467 -0.5774
 2962SOL    HW220349   0.276   0.446   7.429  1.2627  0.4908 -0.4569
 2963SOL     OW20350   2.981   1.656  11.716  0.2639 -0.1821  0.3262
 2963SOL    HW120351   2.912   1.648  11.650 -0.6672  0.4540  1.2117
 2963SOL    HW220352   3.044   1.689  11.653 -0.7510  2.3662  0.6496
 2964SOL     OW20353   3.543   3.598  13.327  0.0483 -0.7550 -0.1947
 2964SOL    HW120354   3.623   3.606  13.275  0.4303  0.0343  0.5106
 2964SOL    HW220355   3.476   3.592  13.259  0.8444 -0.3467 -1.0069
 2965SOL     OW20356   4.020   1.281   3.305 -0.3631  0.1978  0.1019
 2965SOL    HW120357   4.018   1.343   3.378  0.2981 -1.4276  1.5045
 2965SOL    HW220358   3.933   1.241   3.307 -0.3705  0.1362 -1.1744
 2966SOL     OW20359   0.811   4.549   4.224 -0.0389 -0.1420  0.2608
 2966SOL    HW120360   0.758   4.480   4.184 -0.7815 -0.3758  1.6532
 2966SOL    HW220361   0.832   4.599   4.145 -1.0764  1.4673  0.9984
 2967SOL     OW20362   3.333   1.126   4.095  0.0747 -0.1770  0.3859
 2967SOL    HW120363   3.289   1.182   4.032 -1.8281 -0.9123  1.0441
 2967SOL    HW220364   3.265   1.121   4.162 -1.5890  1.6891 -1.1677
 2968SOL     OW20365   0.453   3.540   5.810 -0.1567 -0.6479  0.4195
 2968SOL    HW120366   0.393   3.536   5.885 -4.3438 -1.6030 -2.9714
 2968SOL    HW220367   0.404   3.535   5.728  0.4552 -2.5215  0.1689
 2969SOL     OW20368   2.973   2.236   6.139 -0.1691  0.2693 -0.4414
 2969SOL    HW120369   2.952   2.172   6.207  0.0070  2.5806  1.7718
 2969SOL    HW220370   3.063   2.204   6.128  0.1593  0.5503  1.5169
 2970SOL     OW20371   4.179   2.801   0.172 -0.7643  0.6298 -0.0590
 2970SOL    HW120372   4.136   2.886   0.169  0.5763  1.2641 -1.5401
 2970SOL    HW220373   4.122   2.740   0.124 -2.3920  0.0431  2.6228
 2971SOL     OW20374   2.377   3.124   8.835  0.6049  0.3453 -0.2858
 2971SOL    HW120375   2.414   3.078   8.759  2.6952 -1.7796  2.0115
 2971SOL    HW220376   2.435   3.200   8.844 -1.1564  1.7495 -0.9141
 2972SOL     OW20377   3.917   4.516   4.928  0.1793 -0.3573 -0.7688
 2972SOL    HW120378   3.935   4.587   4.866 -0.4839 -0.4228 -1.0304
 2972SOL    HW220379   3.824   4.533   4.941  0.3236 -0.7275  0.7301
 2973SOL     OW20380   2.883   2.024   6.278  0.1543  0.0427  0.0545
 2973SOL    HW120381   2.948   2.011   6.348  1.4287  1.5585 -0.8516
 2973SOL    HW220382   2.810   2.064   6.325 -2.3976 -1.9565 -2.2598
 2974SOL     OW20383   1.428   3.067   8.978  0.2318 -0.1118 -0.4881
 2974SOL    HW120384   1.485   3.142   8.963  0.5684 -0.1822  0.4669
 2974SOL    HW220385   1.345   3.114   8.985  0.5136  0.0493  1.7881
 2975SOL     OW20386   2.337   4.244   5.911 -0.2845  0.1468 -0.1870
 2975SOL    HW120387   2.347   4.323   5.858  1.1588  1.1338  1.5755
 2975SOL    HW220388   2.364   4.283   5.994  1.9416 -1.6908 -0.0413
 2976SOL     OW20389   0.779   2.307  10.698  0.7261 -0.0547  0.3622
 2976SOL    HW120390   0.796   2.385  10.645 -1.9150  0.9905  1.0597
 2976SOL    HW220391   0.700   2.323  10.749  0.5512 -0.7049  0.2962
 2977SOL     OW20392   1.087   3.629  16.072 -0.2864 -0.2824  0.1286
 2977SOL    HW120393   1.035   3.708  16.064  0.8983  0.3378 -1.3727
 2977SOL    HW220394   1.172   3.660  16.041  0.5664 -0.5709  2.1186
 2978SOL     OW20395   2.539   0.106   4.849 -0.5605 -0.2576  0.4053
 2978SOL    HW120396   2.503   0.090   4.762 -1.2435 -0.3847  0.7059
 2978SOL    HW220397   2.625   0.065   4.843  0.8784  2.9473 -0.4702
 2979SOL     OW20398   4.609   2.644   5.789 -0.0566 -0.2186 -0.2579
 2979SOL    HW120399   4.637   2.735   5.785  2.5388 -1.0031 -0.4677
 2979SOL    HW220400   4.543   2.647   5.859  0.2862  2.6538 -0.0696
 2980SOL     OW20401   3.961   1.054  15.771  0.5676 -0.7697  0.3057
 2980SOL    HW120402   3.923   1.035  15.857 -0.2123  1.5465  0.4725
 2980SOL    HW220403   4.015   1.127  15.801  0.3117  0.2454 -1.7737
 2981SOL     OW20404   2.836   1.483   7.681 -0.0192 -0.2903 -0.1860
 2981SOL    HW120405   2.757   1.437   7.653 -0.9150  1.5101 -0.5689
 2981SOL    HW220406   2.876   1.408   7.726  1.3754  0.9081  0.5691
 2982SOL     OW20407   3.268   2.132   4.410 -0.0801 -0.3899  0.7266
 2982SOL    HW120408   3.196   2.089   4.363 -0.1025  1.1143 -0.6200
 2982SOL    HW220409   3.344   2.085   4.373 -0.7300 -0.2197 -0.8305
 2983SOL     OW20410   0.498   1.938   5.146 -0.5370 -0.0555 -0.0219
 2983SOL    HW120411   0.449   1.860   5.119  0.5236  0.0183 -2.1362
 2983SOL    HW220412   0.587   1.910   5.124 -0.3096  0.6242  0.0406
 2984SOL     OW20413   4.080   0.853  14.950  0.3287  0.0496  0.4355
 2984SOL    HW120414   4.028   0.789  14.999  0.8896 -2.8054 -2.7288
 2984SOL    HW220415   4.026   0.932  14.953  0.2520  0.0905 -2.2275
 2985SOL     OW20416   2.303   1.452  11.273 -0.1192 -0.2081 -0.1431
 2985SOL    HW120417   2.227   1.399  11.251 -1.5668  0.7662  2.4384
 2985SOL    HW220418   2.373   1.410  11.224  0.5875 -0.1936  0.8602
 2986SOL     OW20419   2.155   3.128   7.827  0.0840 -0.0923  0.7820
 2986SOL    HW120420   2.082   3.076   7.861  0.4587 -0.3640  1.1732
 2986SOL    HW220421   2.208   3.138   7.906  2.3841  0.8301 -0.8821
 2987SOL     OW20422   2.208   2.339   9.847 -0.3369  0.4738 -0.8030
 2987SOL    HW120423   2.293   2.379   9.865  0.2126 -1.7500  1.5726
 2987SOL    HW220424   2.201   2.263   9.904 -0.8101  1.7704  0.8491
 2988SOL     OW20425   1.584   3.569  12.347 -0.3022  0.3303 -0.0550
 2988SOL    HW120426   1.512   3.514  12.317  0.5454 -0.1985 -1.1061
 2988SOL    HW220427   1.610   3.524  12.427  2.0473  0.8146 -0.5545
 2989SOL     OW20428   1.042   2.383   7.635 -0.1176  0.6457  0.4396
 2989SOL    HW120429   1.056   2.431   7.717  3.3284 -0.2930  0.3980
 2989SOL    HW220430   0.947   2.386   7.628 -0.1726 -1.2509  0.5558
 2990SOL     OW20431   3.070   3.147   6.630  0.3685  0.0313  0.0450
 2990SOL    HW120432   3.067   3.201   6.551 -0.2676  0.1029  0.1177
 2990SOL    HW220433   3.130   3.205   6.677  0.1350  0.5971 -0.3538
 2991SOL     OW20434   2.816   2.622   6.548  0.1329 -0.2033  0.2810
 2991SOL    HW120435   2.896   2.606   6.498  1.6108 -0.4049  2.7388
 2991SOL    HW220436   2.842   2.702   6.593 -1.4083 -0.0007  0.8051
 2992SOL     OW20437   1.005   3.508  10.331 -0.0218 -0.6472 -0.2024
 2992SOL    HW120438   1.064   3.574  10.368 -1.2907  0.4653 -0.1765
 2992SOL    HW220439   1.063   3.437  10.302  0.5934  0.0075 -0.5656
 2993SOL     OW20440   3.416   1.461   9.744 -0.0840 -0.4000  0.1224
 2993SOL    HW120441   3.374   1.436   9.827  0.2585 -1.0116  0.1116
 2993SOL    HW220442   3.475   1.386   9.732 -0.7416 -1.4120  3.1801
 2994SOL     OW20443   2.205   1.217   1.346 -0.1815  0.7971  0.6565
 2994SOL    HW120444   2.240   1.128   1.354 -0.5669  0.5350 -0.4887
 2994SOL    HW220445   2.244   1.257   1.424  2.4546  0.8634 -0.7364
 2995SOL     OW20446   0.778   3.930   4.388 -0.0044 -0.3146 -0.0151
 2995SOL    HW120447   0.777   4.023   4.366  1.0104 -0.5351 -0.9628
 2995SOL    HW220448   0.706   3.928   4.451  1.6134  0.7067  1.8971
 2996SOL     OW20449   0.554   3.358   8.982  0.5060 -0.5091  0.5348
 2996SOL    HW120450   0.460   3.346   8.998  0.8347 -0.1457  2.7462
 2996SOL    HW220451   0.576   3.451   8.987 -0.2165 -0.2919 -0.1683
 2997SOL     OW20452   0.557   1.145  15.067  0.5096 -0.0512 -0.1555
 2997SOL    HW120453   0.618   1.092  15.117 -0.0708 -0.9284 -0.3781
 2997SOL    HW220454   0.598   1.157  14.981 -0.8748  0.1746 -0.7885
 2998SOL     OW20455   0.919   1.057  15.435 -0.2590 -0.3306 -0.4404
 2998SOL    HW120456   0.939   1.132  15.378 -0.4153  1.4033  1.7724
 2998SOL    HW220457   0.833   1.044  15.396 -0.0413 -3.3332  0.0740
 2999SOL     OW20458   3.192   2.656   7.303 -0.4549  0.4236  0.2295
 2999SOL    HW120459   3.212   2.634   7.394 -1.0314 -1.4046 -0.0723
 2999SOL    HW220460   3.114   2.601   7.294 -1.1526  1.3211  0.8375
 3000SOL     OW20461   4.413   0.392   4.857  0.2984 -0.2773 -0.4923
 3000SOL    HW120462   4.388   0.299   4.858 -2.8419  0.5756  0.2912
 3000SOL    HW220463   4.355   0.423   4.927 -1.9398 -2.5005 -1.3653
 3001SOL     OW20464   1.657   0.501   1.284  0.3527 -0.0460 -0.3726
 3001SOL    HW120465   1.617   0.416   1.302  1.7512 -0.5897  0.1956
 3001SOL    HW220466   1.651   0.541   1.370  0.6898 -0.6214 -0.0810
 3002SOL     OW20467   0.097   3.627   4.796 -0.3219 -0.2481  0.2041
 3002SOL    HW120468   0.082   3.590   4.883 -0.0017 -2.2691 -0.5956
 3002SOL    HW220469   0.013   3.664   4.769  0.0605 -0.5234 -1.3705
 3003SOL     OW20470   2.221   3.835   3.487 -0.5391  0.1328  0.4373
 3003SOL    HW120471   2.303   3.878   3.463 -1.1324  0.7810 -0.4140
 3003SOL    HW220472   2.256   3.746   3.493  2.7091  1.4972  1.7417
 3004SOL     OW20473   4.518   4.600   3.734 -0.5178  0.0086 -0.8600
 3004SOL    HW120474   4.473   4.614   3.817 -1.3862  2.4526 -1.7321
 3004SOL    HW220475   4.457   4.559   3.672 -2.0619  3.6575 -1.7512
 3005SOL     OW20476   3.585   4.627  10.289  0.2288 -0.1311 -0.1037
 3005SOL    HW120477   3.561   4.559  10.351  0.0345  1.0689  1.1311
 3005SOL    HW220478   3.679   4.629  10.306  0.2975  0.8738 -0.5582
 3006SOL     OW20479   3.848   1.493   3.199 -0.0684  0.1750 -0.6157
 3006SOL    HW120480   3.770   1.460   3.155 -0.2452  0.4641 -0.5237
 3006SOL    HW220481   3.906   1.423   3.171  0.0079 -0.7176  1.7807
 3007SOL     OW20482   4.449   2.075  10.739  0.1434  0.6836  0.2634
 3007SOL    HW120483   4.398   2.114  10.668  1.0417 -0.9366 -1.2786
 3007SOL    HW220484   4.508   2.019  10.688  0.8776 -0.5326  2.4619
 3008SOL     OW20485   2.741   2.893  13.485  0.6802  0.4548  0.5866
 3008SOL    HW120486   2.728   2.888  13.580 -0.4245 -2.8234  0.2599
 3008SOL    HW220487   2.707   2.811  13.451 -1.2839  1.1979  0.7924
 3009SOL     OW20488   0.166   1.683   7.084  0.0056 -0.3550  1.2667
 3009SOL    HW120489   0.150   1.777   7.070 -1.0290 -0.1306  4.0090
 3009SOL    HW220490   0.099   1.647   7.026  0.8014  1.0715 -0.5485
 3010SOL     OW20491   4.604   0.317   5.474  0.3207 -0.7396 -0.0541
 3010SOL    HW120492   4.624   0.247   5.413  1.7084  0.1850 -0.6708
 3010SOL    HW220493   4.524   0.349   5.433  1.7966 -0.2213 -2.5406
 3011SOL     OW20494   1.175   2.575  14.532  0.0227  0.1182 -0.0748
 3011SOL    HW120495   1.199   2.493  14.489  0.0107  1.3188 -2.3892
 3011SOL    HW220496   1.084   2.557  14.558 -1.1804  1.1628 -3.6395
 3012SOL     OW20497   2.127   3.701  12.946  0.0050 -0.0116  0.3599
 3012SOL    HW120498   2.087   3.736  13.025  0.7199 -1.0166  1.1670
 3012SOL    HW220499   2.220   3.706  12.968  0.2420  1.7214 -0.9835
 3013SOL     OW20500   1.732   1.141   2.947 -0.1066 -0.6169  0.0622
 3013SOL    HW120501   1.816   1.120   2.907  0.2654  1.0734 -0.0439
 3013SOL    HW220502   1.694   1.053   2.951 -0.0257 -0.6988 -1.0960
 3014SOL     OW20503   3.692   3.538  10.835  0.0619  0.2654  0.4239
 3014SOL    HW120504   3.709   3.558  10.927  2.3171  1.7397 -0.3080
 3014SOL    HW220505   3.658   3.451  10.854 -1.7086  1.4977  2.9268
 3015SOL     OW20506   0.955   2.179   5.409  0.2759  0.3099 -0.1298
 3015SOL    HW120507   1.031   2.174   5.352  1.2800  0.8944  1.1660
 3015SOL    HW220508   0.978   2.261   5.453  3.9073 -1.1794  0.6979
 3016SOL     OW20509   2.072   0.988   2.453  0.0991  0.7848 -0.0949
 3016SOL    HW120510   2.160   1.014   2.481 -0.5815 -1.1061  3.8055
 3016SOL    HW220511   2.010   1.024   2.517  0.4445 -0.8238  1.1448
 3017SOL     OW20512   4.065   1.799   6.033  0.5721  0.4792  0.1766
 3017SOL    HW120513   4.134   1.857   6.003  1.6508  0.4782  2.5819
 3017SOL    HW220514   4.062   1.734   5.963 -0.9067  0.1219  0.5709
 3018SOL     OW20515   0.445   4.279   6.002 -0.3211 -0.5517 -0.1646
 3018SOL    HW120516   0.484   4.349   5.949  0.3942 -1.0769 -0.3259
 3018SOL    HW220517   0.488   4.300   6.085 -0.1756 -0.1739 -0.3379
 3019SOL     OW20518   2.712   3.955   2.819 -0.1000  0.1877 -0.4386
 3019SOL    HW120519   2.786   3.981   2.874  0.1229  0.3616 -0.8247
 3019SOL    HW220520   2.667   4.040   2.813 -0.4178 -0.2358 -3.6700
 3020SOL     OW20521   3.106   2.007   3.607 -0.5397 -0.0556 -0.1049
 3020SOL    HW120522   3.197   1.984   3.585 -0.9088 -0.5200 -1.1213
 3020SOL    HW220523   3.097   2.071   3.536  0.5073 -1.2057 -1.2862
 3021SOL     OW20524   3.762   2.349   2.391  1.1298 -0.4954  0.0309
 3021SOL    HW120525   3.693   2.412   2.372  0.0115 -2.0559 -1.1534
 3021SOL    HW220526   3.776   2.379   2.480 -3.1230 -0.5793  0.7208
 3022SOL     OW20527   4.394   2.745   2.074  0.4316  0.0005  0.2400
 3022SOL    HW120528   4.428   2.817   2.128 -1.0728  0.2705  0.8494
 3022SOL    HW220529   4.402   2.787   1.988  0.0743  1.6268  0.9861
 3023SOL     OW20530   2.978   1.121   4.543  0.0149 -0.9895 -0.5093
 3023SOL    HW120531   2.987   1.038   4.496  2.0740 -1.7283  1.1564
 3023SOL    HW220532   2.904   1.169   4.506  0.1620  0.4810  1.0842
 3024SOL     OW20533   4.350   0.632   4.753 -0.0340 -0.7534 -0.0407
 3024SOL    HW120534   4.385   0.549   4.787  0.7546 -0.6065 -0.4953
 3024SOL    HW220535   4.417   0.655   4.690 -0.7263  0.5652 -0.2915
 3025SOL     OW20536   3.337   1.226  10.571  0.0892 -0.4228  0.5553
 3025SOL    HW120537   3.293   1.149  10.534 -0.9751  1.1183 -1.3658
 3025SOL    HW220538   3.276   1.294  10.545  0.0281 -0.5886  0.2717
 3026SOL     OW20539   1.032   0.176   3.382 -0.4591 -1.2153 -0.4295
 3026SOL    HW120540   0.952   0.139   3.419 -0.8080  0.6413  0.6174
 3026SOL    HW220541   1.060   0.223   3.460  0.7987  0.0572 -1.6601
 3027SOL     OW20542   2.779   1.046  16.911  0.1787 -0.2506 -0.2784
 3027SOL    HW120543   2.832   1.073  16.836 -1.8399  2.2728 -0.8024
 3027SOL    HW220544   2.739   0.964  16.883 -1.1969 -0.3868  2.0595
 3028SOL     OW20545   4.613   1.351   6.089  0.3499 -0.0427  0.2803
 3028SOL    HW120546   4.670   1.399   6.030  1.0347 -1.2311 -0.0058
 3028SOL    HW220547   4.541   1.323   6.032 -1.1484 -0.1729  2.2107
 3029SOL     OW20548   1.929   2.278   5.042 -0.0537  0.0088 -0.3098
 3029SOL    HW120549   1.873   2.253   4.969 -0.8529  1.0074 -0.0435
 3029SOL    HW220550   1.915   2.373   5.045 -0.6820 -0.1130  0.6347
 3030SOL     OW20551   2.021   4.699   3.520 -0.2354 -0.7655  0.2018
 3030SOL    HW120552   1.932   4.720   3.491  0.0244 -1.8713 -1.3838
 3030SOL    HW220553   2.041   0.054   3.560  3.4849 -2.6571  2.3005
 3031SOL     OW20554   4.534   0.324   6.386 -0.6742 -0.5832  0.1537
 3031SOL    HW120555   4.504   0.296   6.299 -0.1671  0.5892 -0.4002
 3031SOL    HW220556   4.549   0.418   6.393 -2.4850 -0.4714  2.1278
 3032SOL     OW20557   1.497   2.743   7.956  0.9402 -0.0629  0.7271
 3032SOL    HW120558   1.421   2.699   7.994  1.6330  0.2022  2.4312
 3032SOL    HW220559   1.533   2.670   7.907 -0.1458 -0.7291  0.9340
 3033SOL     OW20560   3.098   2.425   8.543 -0.2769 -0.8429  0.5241
 3033SOL    HW120561   3.031   2.382   8.597 -0.0947 -0.2490  1.2233
 3033SOL    HW220562   3.171   2.364   8.550  1.7611  1.6314  0.8989
 3034SOL     OW20563   1.511   0.904   2.509  0.7125  0.0887  0.3745
 3034SOL    HW120564   1.523   0.971   2.442  0.6378 -0.3650 -0.0903
 3034SOL    HW220565   1.504   0.971   2.577  1.0671  2.2150 -1.6887
 3035SOL     OW20566   2.746   1.800   9.396 -0.2748 -0.0271  0.1827
 3035SOL    HW120567   2.677   1.860   9.368 -0.9065 -0.1981  1.3612
 3035SOL    HW220568   2.827   1.846   9.375 -0.4895  1.4681  2.6768
 3036SOL     OW20569   2.730   0.971   5.619 -0.3536  0.3058  0.5258
 3036SOL    HW120570   2.757   0.922   5.696  0.1514 -1.2981 -0.6683
 3036SOL    HW220571   2.811   0.976   5.569 -1.4633 -0.0327 -1.3052
 3037SOL     OW20572   1.386   3.834   0.557 -0.0846 -0.2877 -0.2177
 3037SOL    HW120573   1.415   3.841   0.466 -1.5540 -0.8993 -0.7238
 3037SOL    HW220574   1.320   3.765   0.560 -0.0214 -0.3769 -0.8584
 3038SOL     OW20575   4.412   4.386   2.279  0.1577  0.2805 -0.2717
 3038SOL    HW120576   4.425   4.438   2.359  0.6520 -3.7985  2.3131
 3038SOL    HW220577   4.353   4.444   2.231 -1.6878 -1.3910 -0.0341
 3039SOL     OW20578   2.342   2.534   6.177  0.1393  0.0427 -0.2557
 3039SOL    HW120579   2.324   2.598   6.246  0.0802 -0.5050  0.2312
 3039SOL    HW220580   2.269   2.474   6.194 -0.4424  1.3146  1.7341
 3040SOL     OW20581   1.715   1.161   9.755 -0.0905 -0.5440  0.1849
 3040SOL    HW120582   1.788   1.136   9.811 -1.5182 -2.6961  1.0755
 3040SOL    HW220583   1.698   1.078   9.711 -2.3350  0.6384 -1.1876
 3041SOL     OW20584   0.102   1.466   4.730 -0.4657  0.3179  0.5540
 3041SOL    HW120585   0.102   1.374   4.702  0.0379 -0.0400  1.7205
 3041SOL    HW220586   0.084   1.518   4.652 -0.1730  0.1162  0.3488
 3042SOL     OW20587   1.607   4.646   1.274  0.4543 -0.0701  0.1424
 3042SOL    HW120588   1.549   4.613   1.343  1.5217 -1.1933  0.4958
 3042SOL    HW220589   1.689   4.600   1.292  0.7787  0.8874  1.1665
 3043SOL     OW20590   4.379   2.187   3.405 -0.1567 -0.1542  0.7469
 3043SOL    HW120591   4.434   2.233   3.341 -1.0525 -0.7078 -0.4110
 3043SOL    HW220592   4.396   2.094   3.389  2.0778 -0.1385  3.0601
 3044SOL     OW20593   3.960   2.928   7.910  0.0812 -0.0057  0.1674
 3044SOL    HW120594   3.883   2.872   7.911  0.9479 -1.1935  0.2325
 3044SOL    HW220595   3.959   2.956   8.001  1.3748  1.0430 -0.1334
 3045SOL     OW20596   4.432   2.636   4.084  0.2563 -0.5489  0.1024
 3045SOL    HW120597   4.352   2.637   4.136  0.4588 -1.9548  0.4452
 3045SOL    HW220598   4.429   2.552   4.038 -1.9364 -0.0234 -0.7208
 3046SOL     OW20599   1.033   2.698   2.055 -0.1592  0.2355  0.1788
 3046SOL    HW120600   1.069   2.779   2.089  3.2846 -1.6010  0.8577
 3046SOL    HW220601   1.109   2.641   2.050 -0.6073 -0.3958  0.6131
 3047SOL     OW20602   1.479   3.381   7.530  0.0411  0.6820  0.0062
 3047SOL    HW120603   1.482   3.286   7.534  0.1468  0.7435  1.3481
 3047SOL    HW220604   1.399   3.389   7.477  1.0342 -2.0579 -1.8757
 3048SOL     OW20605   3.963   0.437   9.444 -0.1809  0.1452  0.2392
 3048SOL    HW120606   3.905   0.513   9.448  0.1585  0.2655  2.7260
 3048SOL    HW220607   4.049   0.478   9.430 -0.3075  0.6636  0.9480
 3049SOL     OW20608   3.240   2.707  10.353  0.3978  0.4052 -0.2024
 3049SOL    HW120609   3.197   2.681  10.434 -2.6080  0.0174 -1.9279
 3049SOL    HW220610   3.332   2.705  10.382  1.0094 -1.8237 -2.3229
 3050SOL     OW20611   3.310   1.361   1.254  0.1676  0.7763 -0.0588
 3050SOL    HW120612   3.383   1.336   1.198  0.6919  0.4807  0.7573
 3050SOL    HW220613   3.360   1.339   1.332  1.5772  1.5445 -0.7434
 3051SOL     OW20614   1.283   1.455   6.265 -1.5648 -0.0589 -0.2332
 3051SOL    HW120615   1.198   1.457   6.310 -1.4964  0.9237 -0.1515
 3051SOL    HW220616   1.285   1.525   6.200  2.2518  1.0197  1.0294
 3052SOL     OW20617   1.701   0.490  10.215 -0.1693  0.7200 -0.1361
 3052SOL    HW120618   1.674   0.463  10.303  1.1756 -0.1803 -0.0056
 3052SOL    HW220619   1.629   0.454  10.162  0.3858  0.5425 -0.7671
 3053SOL     OW20620   3.586   0.449   2.298 -0.4530 -0.2105  0.6381
 3053SOL    HW120621   3.514   0.496   2.339 -1.0394 -0.3593 -0.2223
 3053SOL    HW220622   3.622   0.519   2.244  3.9857 -1.5710  1.8664
 3054SOL     OW20623   0.716   2.832   8.958 -0.0010  0.0740  0.8411
 3054SOL    HW120624   0.769   2.886   8.899 -0.5643  0.2372  0.4828
 3054SOL    HW220625   0.772   2.755   8.957 -0.1917 -0.0311 -2.6742
 3055SOL     OW20626   1.456   4.601   4.293  0.0342  0.3005 -0.2449
 3055SOL    HW120627   1.429   4.547   4.368  0.5043  0.5191  0.0869
 3055SOL    HW220628   1.412   4.557   4.221 -2.9459  2.5518  0.2111
 3056SOL     OW20629   0.642   3.555   6.981  0.1668 -0.0948 -0.0373
 3056SOL    HW120630   0.629   3.494   6.907  0.6686  0.1827 -0.3611
 3056SOL    HW220631   0.609   3.505   7.055 -1.2039  0.2347 -0.4278
 3057SOL     OW20632   0.207   0.294  16.490 -0.0229 -0.3866 -0.7207
 3057SOL    HW120633   0.246   0.322  16.407 -1.8042 -0.6973 -1.6525
 3057SOL    HW220634   0.211   0.375  16.541 -0.5045 -0.6714 -0.2385
 3058SOL     OW20635   2.594   3.322   7.768  0.1456 -0.5420  0.4518
 3058SOL    HW120636   2.640   3.405   7.757  1.5212 -1.2556  0.8206
 3058SOL    HW220637   2.612   3.301   7.859 -1.3130  0.3526  0.9393
 3059SOL     OW20638   4.491   0.468   2.090  0.1667  0.0325 -0.2488
 3059SOL    HW120639   4.460   0.439   2.005  0.5547 -0.4703 -0.2191
 3059SOL    HW220640   4.534   0.552   2.076  1.6103 -0.6330  0.1443
 3060SOL     OW20641   3.758   0.888   2.930 -0.3587 -0.6158 -0.5041
 3060SOL    HW120642   3.771   0.893   2.835 -0.0354  0.7187 -0.3958
 3060SOL    HW220643   3.662   0.892   2.931 -0.3322 -0.2709  0.5036
 3061SOL     OW20644   2.457   0.051  16.996  0.0386  0.5490  0.3608
 3061SOL    HW120645   2.525   4.716  17.015  1.9651  1.4154 -3.6812
 3061SOL    HW220646   2.510   0.130  17.009  1.2447 -0.2763  0.4257
 3062SOL     OW20647   2.247   0.118  12.492 -0.3851  0.0187 -0.3608
 3062SOL    HW120648   2.244   0.057  12.565 -0.8716  0.5092  0.0305
 3062SOL    HW220649   2.300   0.190  12.528 -1.5637 -0.4767  2.3540
 3063SOL     OW20650   2.799   3.192  11.888  0.0046 -0.4841 -0.2757
 3063SOL    HW120651   2.788   3.273  11.937 -0.5271 -1.6419  1.5285
 3063SOL    HW220652   2.817   3.134  11.961  0.9757 -0.1967 -0.2776
 3064SOL     OW20653   0.208   0.687   1.168 -0.2461 -0.0758 -0.5649
 3064SOL    HW120654   0.121   0.650   1.152 -0.2598  0.2473 -1.2240
 3064SOL    HW220655   0.223   0.729   1.084 -1.1159  1.1516 -0.1148
 3065SOL     OW20656   0.556   2.716  14.696  0.4252 -0.3402  0.6393
 3065SOL    HW120657   0.483   2.752  14.645  0.7303  0.3451  0.6808
 3065SOL    HW220658   0.616   2.705  14.622  0.6798  2.7876  0.3772
 3066SOL     OW20659   0.149   2.287   9.666 -0.3117  0.0865 -0.4094
 3066SOL    HW120660   0.143   2.370   9.713 -1.8758  0.1433 -0.7092
 3066SOL    HW220661   0.168   2.322   9.579  0.2636 -1.2644 -0.8198
 3067SOL     OW20662   2.931   3.906   4.303  0.1831 -0.2496 -0.2074
 3067SOL    HW120663   2.968   3.926   4.389  0.5140 -0.3127 -0.3374
 3067SOL    HW220664   2.892   3.820   4.320 -1.3459  0.5604  0.3982
 3068SOL     OW20665   0.613   3.210  16.262  0.6633  0.4912  0.3196
 3068SOL    HW120666   0.589   3.152  16.334 -0.7142  0.6651  0.0020
 3068SOL    HW220667   0.573   3.291  16.291 -0.2580  0.7155 -1.5496
 3069SOL     OW20668   4.214   0.793  14.518 -0.4936  0.5946 -0.3108
 3069SOL    HW120669   4.299   0.819  14.484  0.3511 -0.7049  0.8095
 3069SOL    HW220670   4.161   0.872  14.510  0.7418  1.2204 -2.2040
 3070SOL     OW20671   3.950   1.093  15.038  0.0540  0.0380  0.2430
 3070SOL    HW120672   3.866   1.136  15.023 -0.6647 -1.1568  0.8019
 3070SOL    HW220673   3.929   1.029  15.106  1.6652  0.0094  0.7095
 3071SOL     OW20674   1.661   3.814   8.532 -0.0849  0.3830  0.0318
 3071SOL    HW120675   1.571   3.823   8.499 -0.0409 -1.6890 -0.6036
 3071SOL    HW220676   1.704   3.900   8.524 -2.5451  1.9124  3.3479
 3072SOL     OW20677   1.562   4.319   4.407 -0.3033 -0.2659 -0.2519
 3072SOL    HW120678   1.606   4.375   4.342  0.2583 -0.7646 -0.3008
 3072SOL    HW220679   1.486   4.373   4.428 -0.4615  0.5651 -3.0191
 3073SOL     OW20680   0.031   2.846   1.329  0.5016  0.4243  0.0059
 3073SOL    HW120681   4.682   2.898   1.350 -0.0940 -1.0488  1.4139
 3073SOL    HW220682   0.024   2.780   1.398 -0.2596 -1.8350 -2.2331
 3074SOL     OW20683   3.746   0.875   2.654  0.3457  0.5822 -0.4206
 3074SOL    HW120684   3.718   0.793   2.612 -0.1276  0.9081 -0.7508
 3074SOL    HW220685   3.672   0.933   2.635 -1.2782 -1.0207  0.9585
 3075SOL     OW20686   3.709   1.152   7.231 -0.0150 -0.3665 -0.5641
 3075SOL    HW120687   3.717   1.123   7.322  0.9848  3.5480  0.6392
 3075SOL    HW220688   3.663   1.234   7.249 -1.5095 -1.6339  1.3784
 3076SOL     OW20689   0.385   2.689   3.233 -0.2335 -0.5809 -0.0176
 3076SOL    HW120690   0.401   2.718   3.323  0.2385  0.3256 -0.3876
 3076SOL    HW220691   0.291   2.670   3.230 -0.1696 -1.0865  1.1149
 3077SOL     OW20692   4.526   1.084   7.949 -0.4571 -0.2351 -0.3421
 3077SOL    HW120693   4.442   1.115   7.982 -0.6177 -2.0970  1.0241
 3077SOL    HW220694   4.572   1.051   8.027  0.1541  3.9093  1.0410
 3078SOL     OW20695   2.030   1.305   8.181  0.2639  0.1302  0.0926
 3078SOL    HW120696   2.005   1.304   8.273  1.1461  1.2873  0.3456
 3078SOL    HW220697   2.001   1.219   8.150  1.2102 -0.9261  2.1556
 3079SOL     OW20698   1.409   3.254   1.630  0.2595  0.1440 -0.2967
 3079SOL    HW120699   1.391   3.210   1.713  1.3531  1.2404  0.5349
 3079SOL    HW220700   1.355   3.205   1.568 -2.7189  0.7922  1.8037
 3080SOL     OW20701   2.190   4.571  13.902  0.2466 -0.3586  0.0711
 3080SOL    HW120702   2.111   4.595  13.951  1.3845  3.9044 -0.1409
 3080SOL    HW220703   2.223   4.489  13.939 -0.0732 -0.4956  0.0507
 3081SOL     OW20704   1.762   0.778  12.418 -0.3849  0.2226 -0.0378
 3081SOL    HW120705   1.824   0.835  12.373 -1.4702  0.0516 -1.7826
 3081SOL    HW220706   1.815   0.698  12.420  0.9140  1.0758 -0.4601
 3082SOL     OW20707   3.187   1.710   9.150  0.6210  0.5203 -0.5480
 3082SOL    HW120708   3.215   1.770   9.220  0.2942 -0.1866  0.1970
 3082SOL    HW220709   3.212   1.761   9.073  0.2359  1.5608  0.0087
 3083SOL     OW20710   0.106   1.605   1.285  0.0844 -0.6864 -0.3910
 3083SOL    HW120711   0.178   1.560   1.241 -0.3679 -3.6930  1.9908
 3083SOL    HW220712   0.048   1.529   1.281  0.9192 -1.2798 -1.4569
 3084SOL     OW20713   0.106   1.943   6.991  0.1501  0.2863 -0.3270
 3084SOL    HW120714   0.163   1.924   6.916  1.0642 -1.6441  0.8419
 3084SOL    HW220715   0.143   2.029   7.013  3.2729 -1.1458  0.1118
 3085SOL     OW20716   1.378   0.841   3.051  0.8024  0.1618 -0.2254
 3085SOL    HW120717   1.335   0.921   3.080 -0.1234 -0.3223 -0.2810
 3085SOL    HW220718   1.463   0.840   3.095  0.7033 -0.7376 -0.0525
 3086SOL     OW20719   0.691   1.917   6.968 -0.2373 -0.2600  0.0515
 3086SOL    HW120720   0.662   1.992   7.020  1.1170  0.2413  0.0820
 3086SOL    HW220721   0.628   1.853   6.999  0.9851 -1.7761 -0.5822
 3087SOL     OW20722   3.668   3.657   3.010  0.3272  0.2066  0.3675
 3087SOL    HW120723   3.574   3.639   3.014  0.3584 -0.1329 -0.3516
 3087SOL    HW220724   3.710   3.572   3.023 -1.7691 -1.2322 -2.1725
 3088SOL     OW20725   0.195   1.811   9.333 -0.2167  0.0168 -0.1742
 3088SOL    HW120726   0.266   1.870   9.361 -0.5927 -0.0938  1.0216
 3088SOL    HW220727   0.126   1.836   9.395 -0.5307 -0.2482 -0.4188
 3089SOL     OW20728   2.503   2.637   3.628  0.1264  0.1526 -0.2650
 3089SOL    HW120729   2.491   2.701   3.558  0.6897  3.3904  2.5854
 3089SOL    HW220730   2.419   2.643   3.673  0.0774 -0.3693 -0.2842
 3090SOL     OW20731   1.534   2.862  13.465 -0.5867 -0.1959 -0.1967
 3090SOL    HW120732   1.581   2.942  13.440  2.6154 -1.7275  0.8778
 3090SOL    HW220733   1.449   2.903  13.478  0.3947  1.2252  1.8595
 3091SOL     OW20734   4.360   2.560   3.765 -0.0213 -0.3950  0.7177
 3091SOL    HW120735   4.374   2.507   3.686 -0.2805 -2.2101  1.9088
 3091SOL    HW220736   4.365   2.490   3.829  0.5078 -0.7731  0.2666
 3092SOL     OW20737   3.706   4.292   7.794  0.3476 -0.3224 -0.0791
 3092SOL    HW120738   3.745   4.291   7.706 -0.3189  1.1395 -0.3915
 3092SOL    HW220739   3.626   4.242   7.775  0.1119  0.1104 -0.2315
 3093SOL     OW20740   4.101   3.950  10.641 -0.1518  0.6899  0.0179
 3093SOL    HW120741   4.089   3.871  10.587  0.6875  1.2774 -1.0239
 3093SOL    HW220742   4.036   4.005  10.597  1.6490  1.4101 -1.7202
 3094SOL     OW20743   2.164   3.753   6.185  0.2441 -0.1134  0.1158
 3094SOL    HW120744   2.193   3.696   6.257 -2.2467 -0.6923  0.6595
 3094SOL    HW220745   2.080   3.772   6.227 -0.4669 -0.4766 -1.1431
 3095SOL     OW20746   0.751   3.524  12.124 -0.3771 -0.1904 -0.3474
 3095SOL    HW120747   0.659   3.536  12.148  0.0126  2.3347 -0.0847
 3095SOL    HW220748   0.746   3.549  12.031 -1.4410  2.8175  0.5316
 3096SOL     OW20749   3.412   1.423   9.186 -0.2245 -0.1611 -0.0959
 3096SOL    HW120750   3.318   1.408   9.175 -0.1709  0.6054 -1.7265
 3096SOL    HW220751   3.442   1.386   9.103  0.5465  1.0396 -0.3597
 3097SOL     OW20752   4.655   1.736   6.122  0.4170 -0.8609  0.3662
 3097SOL    HW120753   4.651   1.757   6.028  1.9190 -1.7036  0.1135
 3097SOL    HW220754   4.565   1.753   6.151  0.5181  0.7157 -0.2524
 3098SOL     OW20755   2.414   4.004   3.741  0.3400  0.0519 -0.3293
 3098SOL    HW120756   2.427   3.959   3.824 -1.3293  0.8724  0.3792
 3098SOL    HW220757   2.396   3.933   3.680 -0.6843  1.0985 -1.2428
 3099SOL     OW20758   4.096   3.188  14.102 -0.0491 -0.3696  0.1657
 3099SOL    HW120759   4.024   3.192  14.165 -0.7426 -1.8342 -0.5614
 3099SOL    HW220760   4.164   3.139  14.149  0.3884 -0.4032 -0.4987
 3100SOL     OW20761   3.345   0.131   4.818 -0.1565 -0.2810  0.0709
 3100SOL    HW120762   3.362   0.220   4.785 -0.2300 -0.1462  0.4021
 3100SOL    HW220763   3.403   0.091   4.754 -1.1965 -0.8207 -0.5320
 3101SOL     OW20764   0.095   0.167   4.693  0.1154  0.0304  0.1831
 3101SOL    HW120765   0.045   0.135   4.768 -2.1282  3.5462  0.1655
 3101SOL    HW220766   0.028   0.226   4.660 -1.3056 -0.0903  2.8505
 3102SOL     OW20767   0.145   3.666   0.397 -0.0483  0.3943 -0.0655
 3102SOL    HW120768   0.068   3.656   0.342 -0.1612  0.2735  0.1164
 3102SOL    HW220769   0.156   3.583   0.442 -1.4864  1.3808  2.0971
 3103SOL     OW20770   3.789   0.002   1.227  0.0919  0.0891 -0.0742
 3103SOL    HW120771   3.748   4.664   1.172 -0.4667  1.5727 -1.4508
 3103SOL    HW220772   3.746   4.719   1.312  0.5357  1.4830  0.3411
 3104SOL     OW20773   0.671   1.740   3.179  0.2060 -0.0084 -0.8475
 3104SOL    HW120774   0.669   1.748   3.083 -2.0218  0.9649 -0.7094
 3104SOL    HW220775   0.717   1.658   3.197 -0.4219  0.1007  1.1926
 3105SOL     OW20776   0.985   1.386   4.378 -0.2124 -0.4969  0.2860
 3105SOL    HW120777   0.929   1.328   4.430  1.7953 -1.2370  1.6487
 3105SOL    HW220778   0.925   1.451   4.342  0.0417 -0.6445 -0.4003
 3106SOL     OW20779   3.454   4.181   5.891  0.0828 -0.4359 -0.2883
 3106SOL    HW120780   3.453   4.121   5.816  0.3856 -0.5547 -0.1984
 3106SOL    HW220781   3.359   4.168   5.897  0.3031 -0.9281  2.1414
 3107SOL     OW20782   2.511   0.697  11.879 -0.3844 -0.3826  0.0342
 3107SOL    HW120783   2.468   0.623  11.835  0.9418 -1.1110 -0.0313
 3107SOL    HW220784   2.478   0.767  11.822 -1.4520  0.2139  1.3858
 3108SOL     OW20785   2.354   4.530   4.183 -0.0681  0.8249 -0.3197
 3108SOL    HW120786   2.318   4.481   4.109  2.0685 -2.0727  0.5456
 3108SOL    HW220787   2.438   4.559   4.146 -0.0437  0.8465 -0.2478
 3109SOL     OW20788   1.119   0.183   9.232  0.2582 -0.3058  0.8129
 3109SOL    HW120789   1.054   0.187   9.302 -0.4558 -1.0956  0.1919
 3109SOL    HW220790   1.079   0.139   9.157 -0.6322 -0.3328  1.3161
 3110SOL     OW20791   3.174   2.972  12.006  0.7260 -0.1909 -0.2670
 3110SOL    HW120792   3.188   3.033  11.933  3.7127  1.2953  1.5637
 3110SOL    HW220793   3.247   2.990  12.064  0.0280 -1.8951  1.1199
 3111SOL     OW20794   3.141   4.133  13.990 -0.0605 -0.6841  0.4515
 3111SOL    HW120795   3.093   4.090  14.060 -0.3281 -0.7880  0.2034
 3111SOL    HW220796   3.104   4.221  13.983 -0.3422 -1.0020 -2.2397
 3112SOL     OW20797   2.441   1.413  13.236  0.1662 -0.1747  0.2369
 3112SOL    HW120798   2.513   1.475  13.247  0.1835 -0.5100  2.0316
 3112SOL    HW220799   2.367   1.466  13.207 -0.0694 -1.1728 -0.9709
 3113SOL     OW20800   4.153   4.477   2.569 -0.0502 -0.4458  1.4866
 3113SOL    HW120801   4.215   4.406   2.589  0.9059  0.4175  1.5709
 3113SOL    HW220802   4.209   4.551   2.590  0.9771  0.5219 -4.5825
 3114SOL     OW20803   1.821   2.385   7.066 -0.2393  0.4896  0.9354
 3114SOL    HW120804   1.758   2.314   7.079  0.4506 -0.0655  1.2438
 3114SOL    HW220805   1.848   2.376   6.975  0.4247 -0.7192  1.2565
 3115SOL     OW20806   2.338   3.558   9.174 -0.0769 -0.2721 -0.0775
 3115SOL    HW120807   2.390   3.580   9.097  1.3787  0.7143  1.1984
 3115SOL    HW220808   2.327   3.644   9.214 -2.3628 -1.2504  1.3905
 3116SOL     OW20809   1.717   1.107   5.852  0.3418  0.0927  0.5529
 3116SOL    HW120810   1.791   1.061   5.890 -0.1693  0.3295  1.8141
 3116SOL    HW220811   1.757   1.142   5.772  0.1558  1.0394  0.8854
 3117SOL     OW20812   4.486   2.310   7.302 -0.8719 -0.5192 -0.1321
 3117SOL    HW120813   4.507   2.225   7.341 -0.6347 -0.6048 -0.4509
 3117SOL    HW220814   4.429   2.337   7.375 -0.2040  2.4521 -0.6861
 3118SOL     OW20815   3.739   3.793  16.397  0.3742 -0.2232  0.2207
 3118SOL    HW120816   3.720   3.882  16.428 -2.3787 -0.2062 -1.5322
 3118SOL    HW220817   3.812   3.770  16.454  1.1069 -0.3086 -0.7536
 3119SOL     OW20818   0.630   2.080   2.304  0.2803  0.5126  0.3619
 3119SOL    HW120819   0.692   2.013   2.273  0.7653  0.9094  0.4656
 3119SOL    HW220820   0.668   2.158   2.263 -0.9143  1.0912  0.3746
 3120SOL     OW20821   2.942   4.523  15.106  0.0659 -0.1345 -0.0834
 3120SOL    HW120822   3.026   4.492  15.073 -0.5700  0.7230 -2.5381
 3120SOL    HW220823   2.968   4.520  15.198 -0.9942 -0.8750  0.1950
 3121SOL     OW20824   0.257   1.725   5.105  0.2465  0.0579 -0.0435
 3121SOL    HW120825   0.280   1.642   5.145 -1.6883 -0.1001  0.7475
 3121SOL    HW220826   0.280   1.701   5.015 -1.7054 -1.8152 -0.0368
 3122SOL     OW20827   4.226   2.652  12.624 -0.0158 -0.0074  0.2673
 3122SOL    HW120828   4.287   2.675  12.553 -1.1734  1.1998 -0.3423
 3122SOL    HW220829   4.282   2.585  12.663  0.6747  0.5052  0.1729
 3123SOL     OW20830   2.913   0.564   0.902 -0.2315  0.1104  0.3329
 3123SOL    HW120831   2.947   0.480   0.930 -0.5407  0.3816  1.5288
 3123SOL    HW220832   2.895   0.592   0.992  3.0210  2.1089  0.3539
 3124SOL     OW20833   1.264   2.028   5.526  0.1415 -0.4273 -0.2961
 3124SOL    HW120834   1.197   2.067   5.470 -0.1712  0.5085  0.7359
 3124SOL    HW220835   1.239   2.068   5.609 -0.5734 -1.0975 -0.1824
 3125SOL     OW20836   2.457   2.246   7.111  0.1499 -0.8213  0.5826
 3125SOL    HW120837   2.375   2.296   7.102  1.1786  0.3199 -2.4543
 3125SOL    HW220838   2.496   2.289   7.188 -0.4300 -0.7701  0.8500
 3126SOL     OW20839   4.306   3.576   9.133  0.3946  0.4599 -0.1366
 3126SOL    HW120840   4.347   3.494   9.160 -3.5184 -0.8716  1.7998
 3126SOL    HW220841   4.214   3.550   9.132  0.4516  0.2808 -0.8476
 3127SOL     OW20842   3.883   2.321   5.132  0.0975 -0.2222  0.5745
 3127SOL    HW120843   3.862   2.338   5.040 -1.0311 -1.0211  0.6920
 3127SOL    HW220844   3.793   2.297   5.152  1.0748 -3.0823  1.4477
 3128SOL     OW20845   0.771   4.179  14.087 -0.4313  0.4075 -0.6842
 3128SOL    HW120846   0.819   4.151  14.166 -1.4012  0.9246  0.0933
 3128SOL    HW220847   0.712   4.107  14.064  0.9996 -0.8779 -0.3246
 3129SOL     OW20848   0.622   4.688   3.527 -0.2393  0.0332 -0.3884
 3129SOL    HW120849   0.659   4.637   3.456  1.9270  1.1432 -0.0479
 3129SOL    HW220850   0.602   0.040   3.481  1.3679 -1.1424 -3.0920
 3130SOL     OW20851   4.591   3.335   7.291 -0.4828  0.8774  0.9285
 3130SOL    HW120852   4.597   3.380   7.375 -0.4249  1.7768  0.4478
 3130SOL    HW220853   4.598   3.416   7.239  0.6658  0.8122  0.9910
 3131SOL     OW20854   4.120   1.086   4.256 -0.8960 -0.0346  0.0742
 3131SOL    HW120855   4.127   1.119   4.166 -1.8693  0.0554  0.0305
 3131SOL    HW220856   4.029   1.102   4.282 -1.1241 -0.3670 -0.5177
 3132SOL     OW20857   0.036   0.873  10.265  0.5022  0.1976  0.1529
 3132SOL    HW120858   0.104   0.847  10.204  0.3528  1.0873 -0.3948
 3132SOL    HW220859   0.079   0.935  10.324  0.4457 -0.2307  0.6384
 3133SOL     OW20860   0.885   0.011  11.613  0.7367 -0.5471  0.2140
 3133SOL    HW120861   0.844   4.654  11.619  2.9031 -1.7064 -1.6126
 3133SOL    HW220862   0.879   0.041  11.704  1.7020 -3.5393  1.2539
 3134SOL     OW20863   3.970   1.788   0.681  0.2522  0.3963  0.1820
 3134SOL    HW120864   3.935   1.845   0.751  0.3261  2.4784 -1.4929
 3134SOL    HW220865   4.029   1.730   0.729 -1.5481  0.0755  2.0253
 3135SOL     OW20866   3.145   0.304   5.720 -0.1140  0.2820  0.0199
 3135SOL    HW120867   3.234   0.282   5.692  1.2183  3.3042  1.8570
 3135SOL    HW220868   3.130   0.391   5.681  1.1025  1.6082  2.5131
 3136SOL     OW20869   3.766   1.602   9.836 -0.3473 -0.0102 -0.3054
 3136SOL    HW120870   3.703   1.666   9.868  1.2242  0.5923  1.6133
 3136SOL    HW220871   3.805   1.570   9.918 -0.6109  2.5396  0.7966
 3137SOL     OW20872   2.098   4.036  15.382  0.1999  0.4707 -0.3658
 3137SOL    HW120873   2.075   4.084  15.302 -1.9592 -1.3686 -0.8598
 3137SOL    HW220874   2.019   3.996  15.418  0.6959 -0.6633 -0.5466
 3138SOL     OW20875   3.852   0.661   6.662 -0.6378 -0.7463 -0.2561
 3138SOL    HW120876   3.883   0.698   6.745 -2.4359 -0.8843  0.4694
 3138SOL    HW220877   3.757   0.659   6.663 -0.6700  0.4511 -1.5751
 3139SOL     OW20878   0.350   3.854   3.544  0.3178 -0.1115 -0.0749
 3139SOL    HW120879   0.429   3.907   3.547  0.4615 -0.4524  1.8003
 3139SOL    HW220880   0.305   3.878   3.625  1.2139  1.5286 -0.0721
 3140SOL     OW20881   2.981   0.419   6.099 -0.2249  0.0878 -0.5850
 3140SOL    HW120882   2.955   0.509   6.120  2.7253  0.6260  0.6745
 3140SOL    HW220883   3.074   0.433   6.082  0.1622  0.0398  1.4704
 3141SOL     OW20884   1.580   2.512   4.700  0.2759 -0.2783 -0.1522
 3141SOL    HW120885   1.571   2.571   4.775  0.4516 -1.9553  1.1763
 3141SOL    HW220886   1.507   2.542   4.647  0.2539 -1.8014 -0.9810
 3142SOL     OW20887   2.496   1.800   7.692  0.3552 -0.6793 -0.3240
 3142SOL    HW120888   2.414   1.753   7.676 -0.4466  0.3354  0.8565
 3142SOL    HW220889   2.477   1.847   7.773  0.7010  2.6599 -2.1795
 3143SOL     OW20890   1.019   3.095  10.557 -0.0131  0.9042 -0.4747
 3143SOL    HW120891   0.928   3.082  10.530  0.4435 -0.0284 -1.5547
 3143SOL    HW220892   1.022   3.069  10.649 -0.3070 -2.1943 -1.3073
 3144SOL     OW20893   4.429   4.150   7.121 -0.2226 -0.2461  0.4900
 3144SOL    HW120894   4.406   4.158   7.213  0.6572  4.6019  0.2777
 3144SOL    HW220895   4.498   4.215   7.107 -1.1792  0.7048  0.1810
 3145SOL     OW20896   3.225   4.201  13.445 -0.0712  0.1959  0.1096
 3145SOL    HW120897   3.147   4.179  13.496 -0.7033 -1.8249 -1.7357
 3145SOL    HW220898   3.224   4.294  13.467 -0.8849  0.2428 -0.1347
 3146SOL     OW20899   1.729   2.983  15.789  0.7348 -0.3231 -0.2719
 3146SOL    HW120900   1.693   3.063  15.827 -0.1216  0.0453 -1.8857
 3146SOL    HW220901   1.804   3.028  15.750  0.7782  0.2824  0.4940
 3147SOL     OW20902   1.732   1.235  16.420  0.9638  0.7780 -0.4223
 3147SOL    HW120903   1.646   1.210  16.385 -0.0692 -2.4342  4.5255
 3147SOL    HW220904   1.757   1.156  16.466 -1.3450  0.4753  0.3116
 3148SOL     OW20905   3.862   0.867   6.065 -0.0961 -0.0145  0.4386
 3148SOL    HW120906   3.826   0.938   6.118  1.8109  0.7700  0.6804
 3148SOL    HW220907   3.822   0.794   6.111 -0.7015  0.0605  0.0271
 3149SOL     OW20908   1.545   1.589   6.007  0.1819 -0.0457  0.4119
 3149SOL    HW120909   1.458   1.603   6.044  1.0252  1.1387  1.9704
 3149SOL    HW220910   1.515   1.561   5.921  0.3681 -2.9333  1.2961
 3150SOL     OW20911   4.644   3.446   3.483 -0.6737 -0.0417  0.3073
 3150SOL    HW120912   4.584   3.439   3.557  0.5774  0.6784  1.3998
 3150SOL    HW220913   4.600   3.385   3.425 -0.8945 -0.1657  0.6059
 3151SOL     OW20914   0.087   1.641   8.556 -0.3763 -0.3060  0.5155
 3151SOL    HW120915   0.036   1.560   8.546 -3.7330  1.6952  1.6270
 3151SOL    HW220916   0.078   1.675   8.467  0.1463  0.1345  0.6375
 3152SOL     OW20917   0.498   3.761  11.143 -0.2120  0.8180 -0.4372
 3152SOL    HW120918   0.560   3.694  11.115 -0.5109 -0.4003  1.8005
 3152SOL    HW220919   0.432   3.774  11.075 -1.9037 -2.6723  0.5115
 3153SOL     OW20920   2.958   0.422   2.992 -0.4092  0.7364 -0.0022
 3153SOL    HW120921   3.029   0.374   2.950  2.0103  2.6054  1.9786
 3153SOL    HW220922   2.886   0.397   2.933  0.1233  0.4831 -0.5473
 3154SOL     OW20923   2.730   1.886   8.565 -0.2804 -0.0563 -0.1149
 3154SOL    HW120924   2.793   1.947   8.603  2.3862 -3.4918  1.0363
 3154SOL    HW220925   2.779   1.836   8.500  0.2565  3.0690 -2.1266
 3155SOL     OW20926   4.640   0.783   3.137  0.5908 -0.0152 -0.1955
 3155SOL    HW120927   4.687   0.850   3.087  0.6786  0.1245  0.0756
 3155SOL    HW220928   4.586   0.848   3.182  2.7393  2.3128 -0.9794
 3156SOL     OW20929   3.087   0.728   3.341  0.4329  0.0060 -0.1029
 3156SOL    HW120930   3.037   0.781   3.280  0.7244  2.0275  1.4140
 3156SOL    HW220931   3.063   0.640   3.313 -0.8957  0.4912 -0.4472
 3157SOL     OW20932   4.467   3.589   7.729 -0.7263 -0.1838  0.3985
 3157SOL    HW120933   4.431   3.661   7.781  0.3355  0.9927 -0.5309
 3157SOL    HW220934   4.402   3.522   7.753 -2.3004  1.3455  0.4455
 3158SOL     OW20935   2.158   1.592   9.203  0.8763 -0.6037  0.6697
 3158SOL    HW120936   2.214   1.629   9.134  3.1145 -4.1061  0.5951
 3158SOL    HW220937   2.209   1.514   9.224  1.8334 -0.0564  0.4075
 3159SOL     OW20938   2.662   2.292  13.481 -0.2951  0.1994  0.0881
 3159SOL    HW120939   2.660   2.336  13.566  0.8866 -0.0550  0.2437
 3159SOL    HW220940   2.708   2.210  13.502 -0.4351  0.0599 -0.1525
 3160SOL     OW20941   0.400   2.641   9.787  0.2956 -1.3160 -0.3875
 3160SOL    HW120942   0.494   2.661   9.789  0.5511 -2.7938  2.1515
 3160SOL    HW220943   0.367   2.721   9.745 -0.6143 -1.4523  0.0682
 3161SOL     OW20944   3.067   3.581   2.112 -0.1426  0.2818  0.3057
 3161SOL    HW120945   3.080   3.625   2.028 -0.3228  0.2423  0.2588
 3161SOL    HW220946   2.999   3.518   2.092 -0.9546  1.5443 -0.9101
 3162SOL     OW20947   0.250   1.119   3.465  0.2755  0.6047 -0.0837
 3162SOL    HW120948   0.310   1.084   3.532 -2.1032  0.0361  1.7447
 3162SOL    HW220949   0.188   1.047   3.458  0.2888  0.2979  2.7802
 3163SOL     OW20950   0.238   3.039   5.840  0.6436  0.1540 -0.3670
 3163SOL    HW120951   0.254   2.982   5.764 -0.1750  0.8071 -1.0297
 3163SOL    HW220952   0.314   3.035   5.898 -2.7242 -0.3921  3.9910
 3164SOL     OW20953   0.364   0.282   2.313 -0.1605  0.6929  0.0836
 3164SOL    HW120954   0.430   0.213   2.301 -0.0971  0.8583 -0.5364
 3164SOL    HW220955   0.286   0.257   2.264  0.6066  0.9868 -1.2837
 3165SOL     OW20956   3.109   1.782   4.830  0.3822  0.3426 -0.3928
 3165SOL    HW120957   3.062   1.813   4.907  1.1777  1.0284 -0.1809
 3165SOL    HW220958   3.117   1.857   4.771 -0.2535  0.5270 -0.2399
 3166SOL     OW20959   0.250   0.240  14.295 -0.6066 -0.2998  0.5316
 3166SOL    HW120960   0.217   0.150  14.297  0.7318 -0.8057  0.2796
 3166SOL    HW220961   0.226   0.251  14.203 -3.6984 -0.3859  1.3585
 3167SOL     OW20962   0.591   1.696   6.126  0.0002 -0.7078 -0.1222
 3167SOL    HW120963   0.675   1.716   6.168  0.6154 -4.0151  0.2410
 3167SOL    HW220964   0.620   1.664   6.041 -1.0464 -1.2489 -0.2827
 3168SOL     OW20965   3.842   3.496   6.474  0.3078 -0.0623 -0.3385
 3168SOL    HW120966   3.930   3.528   6.495  0.5449 -1.4130  0.6864
 3168SOL    HW220967   3.827   3.419   6.528 -0.8376  1.0601  0.9475
 3169SOL     OW20968   3.366   0.664  16.199 -0.0656 -0.2591 -0.1037
 3169SOL    HW120969   3.390   0.721  16.273 -0.3577  0.7839 -0.8158
 3169SOL    HW220970   3.299   0.711  16.150  0.8366  1.8241  0.6709
 3170SOL     OW20971   1.167   0.551   5.467  0.7481 -0.3463  0.6462
 3170SOL    HW120972   1.124   0.559   5.382  2.6935  0.2307 -0.2673
 3170SOL    HW220973   1.159   0.644   5.492 -1.7427 -0.1898 -0.6757
 3171SOL     OW20974   2.245   0.251   8.676 -0.2437 -0.2841 -0.2402
 3171SOL    HW120975   2.221   0.161   8.696 -1.1316 -0.0764 -0.3609
 3171SOL    HW220976   2.202   0.269   8.593 -0.7115  3.3122  0.7697
 3172SOL     OW20977   3.420   4.432   3.581  0.6096  0.4760  0.0943
 3172SOL    HW120978   3.365   4.497   3.539 -1.2023  0.6744  2.7587
 3172SOL    HW220979   3.495   4.489   3.596  2.9208 -1.0534 -5.6165
 3173SOL     OW20980   2.967   4.662   7.012 -0.3417 -0.5276  0.0233
 3173SOL    HW120981   3.032   4.632   6.948  1.1934 -2.8128  2.6464
 3173SOL    HW220982   2.943   4.589   7.069  3.5168  0.6164  3.1289
 3174SOL     OW20983   0.656   3.297   9.340 -0.0204 -0.0226  0.2889
 3174SOL    HW120984   0.668   3.273   9.432  0.2594 -0.1956  0.2059
 3174SOL    HW220985   0.599   3.222   9.323 -0.1408  0.2426 -0.4693
 3175SOL     OW20986   3.293   3.367   9.239  0.0210  0.5827 -0.1403
 3175SOL    HW120987   3.215   3.315   9.256  0.4559  0.5231  1.7071
 3175SOL    HW220988   3.355   3.299   9.264 -0.0351 -0.6012 -3.2009
 3176SOL     OW20989   4.223   4.185   2.559  0.8094 -0.9228  0.5159
 3176SOL    HW120990   4.318   4.179   2.565  0.5329 -4.9965  0.4837
 3176SOL    HW220991   4.206   4.208   2.468  0.2308  0.6053  1.0019
 3177SOL     OW20992   3.567   2.883  12.933 -0.2017  0.3686 -0.4771
 3177SOL    HW120993   3.615   2.922  13.006 -0.7252  1.3315 -0.6367
 3177SOL    HW220994   3.522   2.811  12.976  0.9415 -0.2136 -0.2649
 3178SOL     OW20995   4.092   0.177   6.657  0.0679 -0.0728 -0.2292
 3178SOL    HW120996   4.133   0.192   6.571 -3.1524  0.0125 -1.7297
 3178SOL    HW220997   4.158   0.121   6.699  1.0121  0.5667 -0.8455
 3179SOL     OW20998   2.844   4.388   7.203 -0.3916 -0.1501  0.0100
 3179SOL    HW120999   2.844   4.325   7.274 -1.2109  1.6068  1.5672
 3179SOL    HW221000   2.863   4.471   7.246 -0.2496 -0.4538  0.5305
 3180SOL     OW21001   3.591   3.162   7.065  0.0709 -0.2264 -0.5291
 3180SOL    HW121002   3.526   3.128   7.003  1.2612  1.8225 -2.9157
 3180SOL    HW221003   3.665   3.178   7.006 -0.1929 -0.8913 -1.0441
 3181SOL     OW21004   0.062   1.669   6.699  0.1087  0.2952  0.0906
 3181SOL    HW121005   0.146   1.693   6.739  0.9909 -0.9947 -0.9748
 3181SOL    HW221006   0.070   1.708   6.612 -1.4016  0.8514  0.2093
 3182SOL     OW21007   1.528   1.173   7.796  0.1096 -0.0489 -0.3547
 3182SOL    HW121008   1.448   1.204   7.753  1.0251  2.3903 -0.3183
 3182SOL    HW221009   1.487   1.122   7.865  1.6081 -1.7912 -0.7742
 3183SOL     OW21010   1.068   3.415  15.430  0.0915  0.2054 -0.3962
 3183SOL    HW121011   1.163   3.422  15.435  0.0258  1.4449 -1.0002
 3183SOL    HW221012   1.057   3.320  15.421 -0.8162  0.1085  1.6210
 3184SOL     OW21013   2.841   3.694  11.630  0.6040 -0.5070 -0.3506
 3184SOL    HW121014   2.835   3.619  11.689 -2.5379 -1.2313 -1.6051
 3184SOL    HW221015   2.766   3.746  11.659  0.0004 -0.5618 -1.8191
 3185SOL     OW21016   2.110   1.746   7.219 -0.2626  0.5053 -0.3402
 3185SOL    HW121017   2.167   1.792   7.281 -1.3540  2.2003 -0.6032
 3185SOL    HW221018   2.182   1.712   7.166 -0.8586  1.0536 -1.5003
 3186SOL     OW21019   0.814   4.102   8.508 -0.5167 -0.4904  0.0686
 3186SOL    HW121020   0.733   4.144   8.537 -2.2315 -2.0091 -2.5350
 3186SOL    HW221021   0.789   4.071   8.420  0.5641  3.6108 -1.6952
 3187SOL     OW21022   3.542   1.189   1.089 -0.0478 -0.1517 -0.2087
 3187SOL    HW121023   3.494   1.213   1.010  1.1786  3.4226  0.1326
 3187SOL    HW221024   3.626   1.230   1.067 -0.0751 -1.5526 -2.9702
 3188SOL     OW21025   0.725   1.943   7.696 -0.1453 -0.8211  0.2190
 3188SOL    HW121026   0.710   2.035   7.719  0.2440 -1.0450  1.4055
 3188SOL    HW221027   0.733   1.890   7.776 -0.1108  1.5055  1.7660
 3189SOL     OW21028   2.055   1.409   5.690 -0.0497 -0.4351  0.0015
 3189SOL    HW121029   1.998   1.332   5.685  1.0048 -1.1790 -0.3519
 3189SOL    HW221030   2.015   1.438   5.773 -3.5993 -2.9615 -0.8247
 3190SOL     OW21031   2.773   2.531   3.402  0.3992 -0.1374  0.4874
 3190SOL    HW121032   2.750   2.565   3.489 -1.6416  1.1897 -0.5778
 3190SOL    HW221033   2.686   2.528   3.362 -0.2210  0.4673  1.7972
 3191SOL     OW21034   0.706   2.664   4.087  0.1640 -0.0123  0.2576
 3191SOL    HW121035   0.780   2.725   4.095  1.0966 -0.9599 -1.1157
 3191SOL    HW221036   0.748   2.583   4.116  1.4031  0.6205  0.2455
 3192SOL     OW21037   0.055   0.826   4.639  0.4520  0.2099  0.1303
 3192SOL    HW121038   0.054   0.901   4.578 -1.1154  0.3575  0.3433
 3192SOL    HW221039   0.139   0.789   4.612 -0.4092 -0.9863 -0.8442
 3193SOL     OW21040   3.008   1.933   3.846  0.6041  0.4260 -0.3543
 3193SOL    HW121041   2.915   1.955   3.844  0.8048  1.2251 -0.8876
 3193SOL    HW221042   3.035   1.972   3.763 -0.8223  0.0544 -1.0066
 3194SOL     OW21043   2.058   1.992   8.440  0.0294 -0.3682 -0.2012
 3194SOL    HW121044   2.034   2.085   8.441 -2.4048 -1.0108  1.0491
 3194SOL    HW221045   1.988   1.958   8.385  0.0468  0.2139 -0.5917
 3195SOL     OW21046   4.429   0.319   5.769  0.4018 -0.2362 -0.4507
 3195SOL    HW121047   4.364   0.386   5.751  0.0216 -0.5366 -0.2031
 3195SOL    HW221048   4.430   0.271   5.686 -0.9686 -0.6261 -0.2443
 3196SOL     OW21049   2.167   3.215   9.272  0.3779 -0.4016 -0.1206
 3196SOL    HW121050   2.179   3.122   9.254  1.4057 -0.3535  0.3735
 3196SOL    HW221051   2.120   3.217   9.356  1.5664  1.8648  0.4878
 3197SOL     OW21052   4.257   4.312   4.783 -0.5004 -0.0894  0.2097
 3197SOL    HW121053   4.183   4.277   4.733 -0.4267 -1.5579  1.1485
 3197SOL    HW221054   4.331   4.287   4.728  1.9496  3.3244  1.8887
 3198SOL     OW21055   3.969   0.588  12.103 -0.0955 -0.0504 -0.0811
 3198SOL    HW121056   4.007   0.630  12.026 -1.1504 -0.4943 -0.8414
 3198SOL    HW221057   3.883   0.560  12.071 -0.4822  2.2387 -1.0683
 3199SOL     OW21058   1.571   2.013   3.779 -0.2727  0.1775  0.0364
 3199SOL    HW121059   1.550   1.957   3.854  0.0482  1.2932  0.9674
 3199SOL    HW221060   1.631   1.958   3.728  0.4007  1.1684 -0.2296
 3200SOL     OW21061   4.012   1.139   7.109  0.2817  0.1222  0.0068
 3200SOL    HW121062   3.924   1.148   7.072 -0.2213 -0.0960  1.1281
 3200SOL    HW221063   4.049   1.085   7.039 -1.2536 -1.6174  0.5389
 3201SOL     OW21064   3.477   4.459   8.695 -0.1731 -1.0989  0.2820
 3201SOL    HW121065   3.503   4.394   8.631 -2.1187 -1.3736 -0.2289
 3201SOL    HW221066   3.381   4.453   8.695 -0.1960 -0.8319  1.7486
 3202SOL     OW21067   2.132   2.900   2.240  0.3595 -0.1322 -0.2602
 3202SOL    HW121068   2.106   2.957   2.167 -0.9248 -2.4203 -1.6099
 3202SOL    HW221069   2.126   2.949   2.321  0.4366  1.9647 -1.5383
 3203SOL     OW21070   4.092   2.995   5.880 -0.5029  0.1854  0.1511
 3203SOL    HW121071   4.016   3.035   5.838 -0.2413 -0.3832 -0.8710
 3203SOL    HW221072   4.038   2.975   5.956  0.5007 -0.1440  0.7643
 3204SOL     OW21073   1.188   2.106   7.219 -0.5115 -0.5634 -0.2311
 3204SOL    HW121074   1.192   2.153   7.303 -0.5313  1.9963 -1.6486
 3204SOL    HW221075   1.103   2.131   7.182 -0.3796 -0.7833 -0.6706
 3205SOL     OW21076   0.012   0.644  10.457 -0.0495 -0.3423 -0.1277
 3205SOL    HW121077   0.061   0.720  10.424  1.7453 -2.2759 -1.8992
 3205SOL    HW221078   4.654   0.679  10.439  0.4248  1.1963  0.4935
 3206SOL     OW21079   4.575   4.080   8.679 -0.1853 -0.8637  0.4496
 3206SOL    HW121080   4.539   4.006   8.630 -2.3221 -0.9569  2.1253
 3206SOL    HW221081   4.500   4.139   8.688 -0.4578 -1.2459  0.7151
 3207SOL     OW21082   0.578   4.439   8.945 -0.3267 -0.0661 -0.8076
 3207SOL    HW121083   0.551   4.528   8.922 -2.6661 -0.8681 -1.2312
 3207SOL    HW221084   0.607   4.404   8.861  0.4761 -2.2159  0.3837
 3208SOL     OW21085   3.363   0.352   9.230  0.0612  0.7907  0.0971
 3208SOL    HW121086   3.456   0.339   9.246  0.3510  3.0990  0.2591
 3208SOL    HW221087   3.358   0.435   9.183 -1.4438 -0.7494 -2.4516
 3209SOL     OW21088   0.813   0.779   2.895  0.3068 -0.2707  0.1553
 3209SOL    HW121089   0.796   0.687   2.913 -0.4878 -0.0859  0.3599
 3209SOL    HW221090   0.905   0.777   2.921  0.4997 -0.5987 -0.5809
 3210SOL     OW21091   0.065   2.323   7.027 -0.1821 -0.0408 -0.7575
 3210SOL    HW121092   0.016   2.393   7.070  0.7667  0.4154 -0.4054
 3210SOL    HW221093   0.145   2.366   6.998  1.7277 -1.6802  2.0483
 3211SOL     OW21094   1.772   1.912   8.955 -0.2969 -0.0247  0.1257
 3211SOL    HW121095   1.838   1.844   8.947  0.3225  0.8220 -1.9634
 3211SOL    HW221096   1.812   1.981   8.902  0.1896  0.0883  0.6365
 3212SOL     OW21097   1.668   4.430   4.170  0.9411  0.0612 -0.0905
 3212SOL    HW121098   1.633   4.511   4.207  2.9960  0.4827  0.9170
 3212SOL    HW221099   1.753   4.469   4.152  0.6257  1.4104  1.3578
 3213SOL     OW21100   1.523   1.363   0.921  0.0683  0.2676  0.4125
 3213SOL    HW121101   1.521   1.290   0.859  0.0191 -0.0815  0.8295
 3213SOL    HW221102   1.429   1.373   0.932  0.1162  0.8712  0.2904
 3214SOL     OW21103   2.916   0.275   2.052 -0.3663  0.7222 -0.3821
 3214SOL    HW121104   2.932   0.324   1.971  1.0846 -0.2024 -0.6529
 3214SOL    HW221105   2.822   0.258   2.050 -0.3288  0.5403 -0.5876
 3215SOL     OW21106   0.414   4.318   9.105  0.8018 -0.2015  0.1921
 3215SOL    HW121107   0.492   4.350   9.060  1.0128 -0.3550  0.4431
 3215SOL    HW221108   0.370   4.288   9.026  0.6574  1.4322 -0.3341
 3216SOL     OW21109   3.684   2.718   6.426  0.0877  0.1202 -0.4184
 3216SOL    HW121110   3.616   2.784   6.444  1.0915  0.8791  0.6365
 3216SOL    HW221111   3.630   2.646   6.396  0.7979  0.4101 -2.3514
 3217SOL     OW21112   3.560   3.797   7.055  0.2438 -0.1496 -0.0877
 3217SOL    HW121113   3.536   3.714   7.015  0.0040  0.2516 -0.7833
 3217SOL    HW221114   3.545   3.775   7.147  0.3438 -0.6500 -0.1943
 3218SOL     OW21115   2.591   2.093   1.838  0.2142  0.3069 -0.6783
 3218SOL    HW121116   2.562   2.150   1.910 -0.5742  1.9396 -2.2957
 3218SOL    HW221117   2.538   2.015   1.855 -0.3474  0.8852  0.2003
 3219SOL     OW21118   0.401   4.532   5.478 -0.3587 -0.2059  0.0736
 3219SOL    HW121119   0.426   4.608   5.426 -0.5497 -1.3912 -1.7204
 3219SOL    HW221120   0.440   4.469   5.417 -0.6379 -0.8076  0.5186
 3220SOL     OW21121   0.462   0.586   6.960  0.3077  0.5754  0.0037
 3220SOL    HW121122   0.441   0.543   6.877  1.0782  1.7278 -0.7840
 3220SOL    HW221123   0.551   0.620   6.944  0.6150 -0.3249 -0.2142
 3221SOL     OW21124   1.800   3.046   2.295  0.1250  0.4012 -0.2030
 3221SOL    HW121125   1.787   3.118   2.357 -0.0256 -0.2777  0.5425
 3221SOL    HW221126   1.846   2.981   2.348  0.9326  0.0826 -1.3023
 3222SOL     OW21127   2.926   3.427   4.602  0.3641 -0.1815  0.7801
 3222SOL    HW121128   2.895   3.443   4.513  1.1356  1.3125  0.7860
 3222SOL    HW221129   2.852   3.456   4.655  1.2103  0.0071  1.8639
 3223SOL     OW21130   1.137   2.290  13.417  0.4032 -0.3269 -0.3055
 3223SOL    HW121131   1.171   2.349  13.350 -0.0794  1.9504  1.4577
 3223SOL    HW221132   1.092   2.356  13.471 -0.1987 -2.0206  1.2685
 3224SOL     OW21133   3.609   3.573   1.089  0.2122  0.1477  0.1107
 3224SOL    HW121134   3.597   3.510   1.018 -0.0332  1.6907 -1.1977
 3224SOL    HW221135   3.516   3.592   1.100 -0.0906 -0.8612 -0.7012
 3225SOL     OW21136   0.724   2.440   2.739  0.3421 -0.5926 -0.1732
 3225SOL    HW121137   0.674   2.487   2.672  0.1029 -1.2843 -0.4831
 3225SOL    HW221138   0.785   2.504   2.775  1.2859 -1.7067  0.1944
 3226SOL     OW21139   0.083   3.184  11.951  0.0988 -0.7354 -0.0070
 3226SOL    HW121140   0.127   3.100  11.939 -0.9385 -0.8034 -3.2004
 3226SOL    HW221141   0.138   3.254  11.916 -2.6560  1.7457  0.6178
 3227SOL     OW21142   2.340   0.053   6.091  0.4047 -0.0063 -0.1901
 3227SOL    HW121143   2.358   4.708   6.034 -1.0218 -1.1544  0.8702
 3227SOL    HW221144   2.391   0.110   6.033  0.3043 -0.5092 -0.7777
 3228SOL     OW21145   0.871   0.939   4.609 -0.0542  0.2799  0.2925
 3228SOL    HW121146   0.954   0.919   4.653 -1.1742 -1.6900  1.4916
 3228SOL    HW221147   0.841   1.006   4.671  1.5428  1.1969  0.0789
 3229SOL     OW21148   1.851   1.553   8.235  0.2378 -0.2215  0.5705
 3229SOL    HW121149   1.770   1.505   8.217 -0.3256  1.2214 -0.6894
 3229SOL    HW221150   1.844   1.631   8.179  0.5366  0.0383  0.8903
 3230SOL     OW21151   2.702   1.872   5.816  0.2141 -0.0131 -0.6504
 3230SOL    HW121152   2.719   1.887   5.909 -1.6449  0.3048 -0.3558
 3230SOL    HW221153   2.621   1.820   5.823 -0.5858  1.4239  0.8002
 3231SOL     OW21154   1.661   0.328   3.350  0.0605  0.2278 -0.1466
 3231SOL    HW121155   1.657   0.423   3.364  1.6692  0.5370 -1.8392
 3231SOL    HW221156   1.611   0.302   3.428 -0.5346 -1.7153 -1.1705
 3232SOL     OW21157   2.991   0.961   3.773  0.1482  0.0705 -0.5598
 3232SOL    HW121158   3.084   0.959   3.751  0.8270  0.9263  2.1942
 3232SOL    HW221159   2.955   1.022   3.709  0.3222  0.5586 -0.1949
 3233SOL     OW21160   1.262   3.523   2.006 -0.1371 -0.4214 -0.5423
 3233SOL    HW121161   1.292   3.511   1.915  0.0158  2.3376 -0.8542
 3233SOL    HW221162   1.280   3.439   2.047  2.1434  0.4634  0.2908
 3234SOL     OW21163   1.333   3.762  16.073 -0.8908  0.2107 -0.0618
 3234SOL    HW121164   1.339   3.789  15.982  1.4555 -0.2668 -0.0477
 3234SOL    HW221165   1.412   3.804  16.108 -0.3212  0.0243 -1.1469
 3235SOL     OW21166   4.313   4.159   1.399  0.1311  0.4767 -0.3051
 3235SOL    HW121167   4.219   4.175   1.393  0.6430  2.0915 -4.1744
 3235SOL    HW221168   4.336   4.231   1.459  0.8873 -0.5073  0.5787
 3236SOL     OW21169   3.675   3.912   5.906 -0.1713 -0.2792 -0.6802
 3236SOL    HW121170   3.617   3.968   5.855  1.3885  2.9162  1.0522
 3236SOL    HW221171   3.627   3.830   5.892 -0.6526  0.2439 -2.0908
 3237SOL     OW21172   4.361   2.127   3.678 -0.6127  0.0498  0.8092
 3237SOL    HW121173   4.284   2.183   3.672 -0.0008  0.9206  1.0137
 3237SOL    HW221174   4.422   2.156   3.610 -1.3043 -0.5545 -0.0575
 3238SOL     OW21175   3.665   2.545   9.194  0.2829 -0.0592  0.3654
 3238SOL    HW121176   3.678   2.612   9.261 -1.0667 -0.5155  1.0874
 3238SOL    HW221177   3.644   2.470   9.250  1.8650 -1.4147 -0.8407
 3239SOL     OW21178   4.304   4.637   7.654  0.1665  0.5358 -0.1147
 3239SOL    HW121179   4.266   4.588   7.582  0.3635  1.1515 -0.6439
 3239SOL    HW221180   4.232   4.684   7.698  0.5872 -1.3922  2.6355
 3240SOL     OW21181   3.270   3.735  15.439  0.1929 -0.0583 -0.0482
 3240SOL    HW121182   3.277   3.675  15.513  0.2160 -0.2156 -0.1782
 3240SOL    HW221183   3.237   3.814  15.483 -1.3248  1.1448 -3.3473
 3241SOL     OW21184   2.468   4.255  16.646  0.6313 -0.2156  0.3843
 3241SOL    HW121185   2.426   4.315  16.707  1.1147  1.3201 -0.8007
 3241SOL    HW221186   2.418   4.259  16.564 -1.6989 -1.7575  1.7149
 3242SOL     OW21187   3.385   3.062   7.660  0.1826  0.0457  0.6087
 3242SOL    HW121188   3.306   3.054   7.713 -0.8458 -2.3956 -1.2751
 3242SOL    HW221189   3.359   3.000   7.592 -0.1986 -0.8161  1.5286
 3243SOL     OW21190   1.119   3.059   2.394 -0.6930  0.1899  0.5413
 3243SOL    HW121191   1.137   3.149   2.420 -1.6216 -0.3413  3.0690
 3243SOL    HW221192   1.116   3.012   2.478  0.5303  0.0366  0.4968
 3244SOL     OW21193   2.397   4.381   6.143 -0.1593 -0.0235  0.9100
 3244SOL    HW121194   2.394   4.308   6.205  1.6803  0.0910  1.1534
 3244SOL    HW221195   2.328   4.438   6.177  0.5656  1.3827 -0.0112
 3245SOL     OW21196   4.100   3.533   6.567  0.2408 -0.6038 -0.1565
 3245SOL    HW121197   4.157   3.557   6.640  1.2857 -2.0094 -0.5277
 3245SOL    HW221198   4.128   3.443   6.557 -2.1193 -1.3624  0.0608
 3246SOL     OW21199   3.129   1.227   4.949 -0.0163 -0.3935  0.0265
 3246SOL    HW121200   3.157   1.282   4.876  0.3146  0.2576  0.6323
 3246SOL    HW221201   3.213   1.189   4.972  0.0483 -0.6833 -0.7003
 3247SOL     OW21202   2.059   2.935   6.943 -0.0137  0.3118 -0.1484
 3247SOL    HW121203   2.098   2.967   7.025 -1.3542 -0.0769  0.6447
 3247SOL    HW221204   2.137   2.905   6.898 -1.0988 -1.0105 -1.1526
 3248SOL     OW21205   2.637   1.895   6.689  0.2761 -0.8894  0.0596
 3248SOL    HW121206   2.674   1.854   6.767  0.8179  1.3179  0.9596
 3248SOL    HW221207   2.676   1.982   6.697 -0.6388 -0.4257 -0.6092
 3249SOL     OW21208   0.086   0.878   5.446 -0.5342  0.5318 -0.1804
 3249SOL    HW121209   0.137   0.889   5.366 -0.6355  1.2077 -0.1537
 3249SOL    HW221210   0.086   0.966   5.484  1.1021  1.2465 -1.8434
 3250SOL     OW21211   4.572   3.989   3.795 -0.3456  0.1054  0.3295
 3250SOL    HW121212   4.646   4.047   3.777  0.4439 -0.4140  1.8793
 3250SOL    HW221213   4.511   4.031   3.734 -1.4695 -1.1058  0.6171
 3251SOL     OW21214   0.326   4.275  15.441  0.3513  0.0520 -0.0200
 3251SOL    HW121215   0.308   4.368  15.428 -0.9277 -0.3005 -0.8173
 3251SOL    HW221216   0.361   4.290  15.529  1.2280  0.4868 -0.4452
 3252SOL     OW21217   4.699   3.187   1.306  0.4443  0.0435  0.3584
 3252SOL    HW121218   0.048   3.135   1.327  1.4660  0.8477 -1.3843
 3252SOL    HW221219   4.715   3.266   1.357  0.9131  0.6479 -0.7117
 3253SOL     OW21220   2.233   4.490  11.849  0.1236 -0.0638  0.9070
 3253SOL    HW121221   2.326   4.493  11.826 -0.1784 -1.0349 -0.4429
 3253SOL    HW221222   2.219   4.583  11.865  0.3041  0.2191 -0.6641
 3254SOL     OW21223   0.298   1.070   3.065  0.3178 -0.3419 -0.7263
 3254SOL    HW121224   0.381   1.101   3.102 -1.0858 -0.8210  2.7692
 3254SOL    HW221225   0.249   1.141   3.107  1.9112  0.9540 -1.0436
 3255SOL     OW21226   4.389   1.023  10.902 -0.2061 -0.3169  0.0273
 3255SOL    HW121227   4.336   1.015  10.823 -0.0847  0.9284 -0.1870
 3255SOL    HW221228   4.447   1.094  10.875  0.6297 -0.6018  1.0779
 3256SOL     OW21229   3.805   2.353   4.349  0.0153  0.1236 -0.6817
 3256SOL    HW121230   3.795   2.277   4.292  0.3650  0.2294 -0.8837
 3256SOL    HW221231   3.754   2.424   4.312  0.1114  1.7740  2.3044
 3257SOL     OW21232   3.830   4.349   5.726  0.2675  0.2802  1.1264
 3257SOL    HW121233   3.762   4.393   5.675  0.0051 -0.6377  0.6709
 3257SOL    HW221234   3.901   4.319   5.669 -0.1156  2.1530 -0.3073
 3258SOL     OW21235   3.851   1.673  17.535  0.1906  0.0878 -0.0239
 3258SOL    HW121236   3.801   1.734  17.589  1.1639 -2.0970  3.3608
 3258SOL    HW221237   3.817   1.589  17.565 -4.0919  2.4310  1.7536
 3259SOL     OW21238   4.489   2.424   6.622  0.9751 -0.0400  0.5247
 3259SOL    HW121239   4.444   2.485   6.564 -1.0832 -0.7260  1.3972
 3259SOL    HW221240   4.539   2.366   6.565  0.8979 -1.2747  1.7217
 3260SOL     OW21241   2.245   2.527  13.226  0.3702 -0.1590  0.1154
 3260SOL    HW121242   2.267   2.478  13.147 -1.8399 -0.3907 -0.3490
 3260SOL    HW221243   2.321   2.495  13.275  1.0281  1.4787  0.1665
 3261SOL     OW21244   0.628   2.283   8.007  0.5945 -0.6402  0.0756
 3261SOL    HW121245   0.558   2.238   7.959 -0.4401 -0.3440  1.3023
 3261SOL    HW221246   0.674   2.208   8.044  1.5027  1.0723  2.4120
 3262SOL     OW21247   2.460   0.756   9.252  0.2055  0.2247 -0.4629
 3262SOL    HW121248   2.367   0.759   9.229  0.5133 -2.2569 -2.0881
 3262SOL    HW221249   2.457   0.665   9.282  1.6590  0.3885  0.2130
 3263SOL     OW21250   4.476   4.401   5.812  0.5045 -0.2837 -0.5214
 3263SOL    HW121251   4.524   4.431   5.735  0.9654 -2.9290 -1.2830
 3263SOL    HW221252   4.388   4.436   5.799  1.9697  4.1660  1.5819
 3264SOL     OW21253   2.692   0.640   6.417  0.1822 -0.5114 -0.0862
 3264SOL    HW121254   2.742   0.558   6.421 -0.8127 -1.2073 -1.7842
 3264SOL    HW221255   2.606   0.600   6.426  0.6023 -1.5752 -0.7481
 3265SOL     OW21256   1.014   0.336  13.042 -0.6527 -0.3050 -0.3630
 3265SOL    HW121257   0.933   0.372  13.078 -0.6124 -0.0967 -0.4780
 3265SOL    HW221258   0.978   0.313  12.956 -0.0899 -1.2693 -0.3336
 3266SOL     OW21259   0.643   4.077   2.382 -0.3036 -0.0858  0.5022
 3266SOL    HW121260   0.685   4.151   2.338  3.0764 -0.4398  3.1977
 3266SOL    HW221261   0.718   4.045   2.432  1.5334 -0.5282 -2.5431
 3267SOL     OW21262   0.004   3.001   7.710 -0.2053  0.0247 -0.2263
 3267SOL    HW121263   0.026   3.050   7.631  1.9053  1.2776  1.1107
 3267SOL    HW221264   4.639   3.015   7.712 -0.0178  0.9201  2.5118
 3268SOL     OW21265   2.057   0.585  10.644 -0.1071 -0.6799  0.0539
 3268SOL    HW121266   2.030   0.547  10.561  0.2640  1.1633 -0.9159
 3268SOL    HW221267   2.055   0.680  10.635  1.2206 -0.3849  2.6859
 3269SOL     OW21268   0.901   4.499   6.775 -0.2345  0.3694 -0.0659
 3269SOL    HW121269   0.971   4.485   6.838  0.2702 -0.0751 -0.7321
 3269SOL    HW221270   0.946   4.524   6.695  0.4331  1.1435  0.5510
 3270SOL     OW21271   2.066   2.161   9.404  0.1466  0.6422 -0.5003
 3270SOL    HW121272   1.973   2.145   9.389 -0.1806  2.2998 -0.2832
 3270SOL    HW221273   2.102   2.141   9.318  0.2345  0.8840 -0.5207
 3271SOL     OW21274   1.030   0.768  14.744 -0.2264  0.8199  0.0886
 3271SOL    HW121275   1.030   0.673  14.759 -0.9169  0.6740 -0.8452
 3271SOL    HW221276   1.114   0.777  14.698 -0.9210  1.4944 -1.0408
 3272SOL     OW21277   1.500   4.672   7.370  0.2762 -0.4665 -0.1638
 3272SOL    HW121278   1.587   4.683   7.408  0.0714  1.4450 -0.2427
 3272SOL    HW221279   1.472   0.034   7.362 -0.7858 -0.7326  0.5594
 3273SOL     OW21280   0.602   1.801   8.729 -0.1752 -0.1644  0.3595
 3273SOL    HW121281   0.542   1.825   8.799 -0.0771  1.7079 -0.1892
 3273SOL    HW221282   0.619   1.890   8.698 -1.4629 -0.0863 -0.1144
 3274SOL     OW21283   4.550   3.312   2.679 -0.6170 -0.3993 -0.2630
 3274SOL    HW121284   4.604   3.363   2.617  1.0345 -2.1998 -0.3135
 3274SOL    HW221285   4.573   3.353   2.762  0.4370 -1.4338 -0.0429
 3275SOL     OW21286   2.033   1.048   2.184  0.1053  0.6736 -0.2212
 3275SOL    HW121287   2.089   0.976   2.157 -0.7841  0.0272 -0.3278
 3275SOL    HW221288   2.029   1.038   2.279 -0.4556  1.8406 -0.1123
 3276SOL     OW21289   2.304   2.122  10.240  0.0913  0.0328  0.6136
 3276SOL    HW121290   2.245   2.171  10.182  1.3814 -1.4507 -1.9655
 3276SOL    HW221291   2.389   2.151  10.207 -0.0904 -0.9142 -0.7088
 3277SOL     OW21292   2.936   0.987   2.123  0.1202  0.4493 -0.8279
 3277SOL    HW121293   2.931   0.913   2.184 -1.7251  1.0864 -0.2157
 3277SOL    HW221294   3.029   1.010   2.132  0.5548 -0.7346 -2.4431
 3278SOL     OW21295   4.503   0.498   5.163  0.3888  0.1045 -0.9424
 3278SOL    HW121296   4.568   0.452   5.110  0.2491  0.8372 -1.7444
 3278SOL    HW221297   4.416   0.471   5.131 -0.0234  0.2957  0.0261
 3279SOL     OW21298   2.014   0.232   2.462  0.6055 -1.1898  0.0455
 3279SOL    HW121299   1.996   0.154   2.410  0.3360 -0.1603 -1.3954
 3279SOL    HW221300   2.009   0.187   2.547  0.4685  1.0117  1.1900
 3280SOL     OW21301   2.010   2.733  15.816 -0.7137 -0.1566 -0.4156
 3280SOL    HW121302   1.994   2.812  15.764  1.0428  1.2196  1.1442
 3280SOL    HW221303   2.006   2.673  15.741  0.4028  0.7172 -1.1899
 3281SOL     OW21304   3.621   3.002   2.616 -0.1908 -0.4428  0.1693
 3281SOL    HW121305   3.612   3.009   2.521  0.7518  2.6642  0.3012
 3281SOL    HW221306   3.701   2.949   2.617  0.0097 -0.1206  1.9742
 3282SOL     OW21307   4.384   2.874   6.235 -0.2641  0.2424  0.0933
 3282SOL    HW121308   4.360   2.949   6.180 -0.3391 -0.9097 -1.4600
 3282SOL    HW221309   4.382   2.797   6.178  0.2609 -0.4652  1.0245
 3283SOL     OW21310   2.782   3.646  16.193  0.8189  0.2228 -0.1114
 3283SOL    HW121311   2.743   3.705  16.257 -1.3223  0.8309 -1.9669
 3283SOL    HW221312   2.782   3.699  16.113 -1.5696  1.0967  0.4970
 3284SOL     OW21313   0.017   4.139   7.793  0.4155 -0.3580 -0.5765
 3284SOL    HW121314   0.046   4.229   7.801  0.3532 -0.2588 -1.4038
 3284SOL    HW221315   0.075   4.105   7.724 -0.1596 -0.8372 -0.8284
 3285SOL     OW21316   3.043   2.485   9.322 -0.0461 -0.2778 -0.0302
 3285SOL    HW121317   3.083   2.399   9.314 -1.0320 -0.6368 -0.9389
 3285SOL    HW221318   3.121   2.540   9.311  0.8504 -1.5932 -0.2230
 3286SOL     OW21319   1.735   1.988   1.947  0.9205  0.0127  0.2522
 3286SOL    HW121320   1.811   2.040   1.974  0.4341  1.3203 -0.8546
 3286SOL    HW221321   1.751   1.970   1.854 -0.2996  0.3531 -0.0244
 3287SOL     OW21322   2.586   4.445   7.128  0.6637 -0.3321 -0.8358
 3287SOL    HW121323   2.668   4.399   7.144  0.7318  0.4505  1.1522
 3287SOL    HW221324   2.531   4.385   7.078  0.4007 -0.1242 -0.7995
 3288SOL     OW21325   2.279   1.833   8.509  0.6019 -0.2971  0.4051
 3288SOL    HW121326   2.326   1.903   8.463  0.0180 -1.9068 -2.6541
 3288SOL    HW221327   2.191   1.870   8.511  1.4134  1.5373  1.7888
 3289SOL     OW21328   1.843   0.167   6.239  0.0456 -0.2011  0.7012
 3289SOL    HW121329   1.828   0.101   6.172 -0.0334  0.0032  0.5189
 3289SOL    HW221330   1.757   0.207   6.230  0.8032  0.6821 -2.7213
 3290SOL     OW21331   4.568   0.227   4.423  0.1831  0.1080 -0.3774
 3290SOL    HW121332   4.613   0.290   4.480  1.2531 -0.5762 -0.4627
 3290SOL    HW221333   4.491   0.205   4.476 -0.0431 -2.9252 -1.9724
 3291SOL     OW21334   3.735   0.163   6.359 -0.6811 -0.3218  0.0799
 3291SOL    HW121335   3.656   0.203   6.324 -0.1442  2.6847  2.2400
 3291SOL    HW221336   3.797   0.183   6.289 -0.1912 -1.2045  0.2569
 3292SOL     OW21337   0.077   3.372   2.236 -0.0115  0.3780  0.0444
 3292SOL    HW121338   0.032   3.445   2.279 -1.1799  1.1568 -2.4677
 3292SOL    HW221339   0.132   3.421   2.175  0.6819 -0.7904 -0.2592
 3293SOL     OW21340   4.169   2.161   1.930  0.2646 -0.2828  0.2353
 3293SOL    HW121341   4.118   2.104   1.872  1.6285  2.4338 -3.6650
 3293SOL    HW221342   4.212   2.090   1.977  0.3787  1.4052  2.7094
 3294SOL     OW21343   4.016   1.635   4.285 -0.0068 -0.2811  0.2224
 3294SOL    HW121344   4.059   1.701   4.340 -0.5799 -1.3216  1.8908
 3294SOL    HW221345   3.978   1.573   4.347  0.8447 -1.7817 -0.7516
 3295SOL     OW21346   1.453   2.293   4.194 -0.2241  0.5740 -0.3007
 3295SOL    HW121347   1.530   2.347   4.209  1.5557 -0.9207 -3.9491
 3295SOL    HW221348   1.478   2.259   4.108 -1.6161  3.1176 -1.7167
 3296SOL     OW21349   3.047   3.590   2.875  0.4613 -0.3253  0.2673
 3296SOL    HW121350   3.007   3.574   2.960  1.8661 -0.1296  0.9721
 3296SOL    HW221351   3.119   3.527   2.875  0.0111 -0.8185  1.4412
 3297SOL     OW21352   4.335   4.151   8.842  0.2544 -0.0588  0.0870
 3297SOL    HW121353   4.394   4.087   8.883  0.0999 -0.5307 -0.4272
 3297SOL    HW221354   4.259   4.138   8.898  1.7658  0.4900  2.2440
 3298SOL     OW21355   3.357   3.690   1.872 -0.0756 -0.2720  0.2611
 3298SOL    HW121356   3.266   3.719   1.875 -0.0862 -0.2032 -0.9056
 3298SOL    HW221357   3.343   3.610   1.924  0.8030 -0.3322  0.4071
 3299SOL     OW21358   0.456   3.527   3.509  0.7194  0.0214 -0.2171
 3299SOL    HW121359   0.475   3.448   3.561 -0.5443 -0.1165  0.0306
 3299SOL    HW221360   0.361   3.519   3.509  0.8884 -1.9717  0.2471
 3300SOL     OW21361   2.466   1.303  16.289  0.1623  0.2107  0.3307
 3300SOL    HW121362   2.461   1.223  16.342 -0.4016 -0.0000 -0.0458
 3300SOL    HW221363   2.521   1.364  16.338 -0.2926  1.4890 -0.7445
 3301SOL     OW21364   1.057   1.183   3.128 -0.1024 -0.4824 -0.4780
 3301SOL    HW121365   0.961   1.177   3.137 -0.1007 -0.2104 -0.2764
 3301SOL    HW221366   1.057   1.209   3.036  2.1314  3.4028  0.6462
 3302SOL     OW21367   2.953   0.936   7.882 -0.3187 -0.0734  0.2400
 3302SOL    HW121368   3.015   0.926   7.811 -0.4765  0.0088  0.0899
 3302SOL    HW221369   3.003   0.992   7.941 -0.9131  0.2713  0.4240
 3303SOL     OW21370   1.799   3.740  11.431 -0.3854 -1.0761  0.2919
 3303SOL    HW121371   1.795   3.653  11.391 -0.4504 -1.4468  1.1011
 3303SOL    HW221372   1.868   3.779  11.378  2.1369 -3.7147  1.6625
 3304SOL     OW21373   2.425   3.673   8.425 -0.0542  0.3505  0.1745
 3304SOL    HW121374   2.343   3.721   8.422 -1.0744 -1.2595  2.2140
 3304SOL    HW221375   2.394   3.590   8.461  0.8027  0.6260  1.5601
 3305SOL     OW21376   0.848   4.221  17.503  0.2601  0.0853  0.2192
 3305SOL    HW121377   0.902   4.162  17.556  1.9478 -0.8677 -2.5220
 3305SOL    HW221378   0.823   4.283  17.571  1.0476 -0.1635  0.7336
 3306SOL     OW21379   0.007   3.162   7.034 -0.2289 -0.0161  0.0365
 3306SOL    HW121380   4.656   3.211   7.051  0.8668  1.6681  0.3646
 3306SOL    HW221381   0.069   3.232   7.055  0.9527 -0.6059 -1.5188
 3307SOL     OW21382   3.251   0.938   6.049 -0.3903 -0.1313 -0.2175
 3307SOL    HW121383   3.237   0.928   6.143  1.3897 -0.2648  0.0259
 3307SOL    HW221384   3.166   0.977   6.028  0.3467  0.9636 -1.1759
 3308SOL     OW21385   0.748   2.867   6.346  0.0598  0.1782 -0.0053
 3308SOL    HW121386   0.785   2.954   6.333  1.1473 -0.9427 -4.5868
 3308SOL    HW221387   0.659   2.887   6.320  0.3507  0.3073 -0.9011
 3309SOL     OW21388   0.027   2.119   0.014 -0.2848 -0.2734 -0.5099
 3309SOL    HW121389   0.103   2.166   0.048 -0.6830 -1.1264  1.6227
 3309SOL    HW221390   0.019   2.040   0.068 -0.5136  0.2369  0.2050
 3310SOL     OW21391   1.076   4.541  16.083 -0.9513  0.6623  0.0809
 3310SOL    HW121392   1.114   4.475  16.141  0.0926  1.3676  0.2035
 3310SOL    HW221393   1.031   4.494  16.013 -4.5621  3.0130  0.8531
 3311SOL     OW21394   3.219   0.905   1.028 -0.0235  0.4567  0.1185
 3311SOL    HW121395   3.230   0.968   0.956 -1.6183  0.7431  0.1182
 3311SOL    HW221396   3.133   0.871   1.002  0.9786 -1.2526 -0.9803
 3312SOL     OW21397   0.317   2.485   4.311 -0.0593 -0.7991  0.6775
 3312SOL    HW121398   0.404   2.522   4.329  0.4280 -2.1016  1.0202
 3312SOL    HW221399   0.267   2.520   4.385 -2.6676 -0.7568 -1.1003
 3313SOL     OW21400   3.602   1.306   6.166  0.7188  0.1153  0.0135
 3313SOL    HW121401   3.638   1.393   6.154  0.3097  0.0878 -1.4330
 3313SOL    HW221402   3.624   1.267   6.082  1.2047 -2.2750  1.2333
 3314SOL     OW21403   2.688   0.674   6.000  0.4498 -0.0415  0.5034
 3314SOL    HW121404   2.695   0.614   6.075  1.0215  0.6603  1.0093
 3314SOL    HW221405   2.679   0.761   6.038 -0.2411 -0.6097  1.6406
 3315SOL     OW21406   0.584   1.049   6.472 -0.5581  0.0177 -0.1085
 3315SOL    HW121407   0.677   1.024   6.467 -0.9726 -1.2304 -1.7703
 3315SOL    HW221408   0.579   1.126   6.416  1.5825 -0.1011 -0.4807
 3316SOL     OW21409   4.693   3.776   2.019 -0.1499 -0.0560 -0.5300
 3316SOL    HW121410   4.628   3.845   2.006  0.2976  0.3372 -0.6635
 3316SOL    HW221411   0.036   3.831   2.049 -0.0695  0.2111 -1.2172
 3317SOL     OW21412   0.097   4.578   2.136  0.2440 -0.3745 -0.0243
 3317SOL    HW121413   0.094   4.545   2.046  0.6437 -1.2933  0.2907
 3317SOL    HW221414   0.092   4.498   2.189 -0.5312  0.6853  1.5013
 3318SOL     OW21415   1.745   2.198   3.584 -0.5975 -0.0226 -0.0597
 3318SOL    HW121416   1.817   2.134   3.589 -0.1796  0.5299  1.1227
 3318SOL    HW221417   1.673   2.144   3.615 -0.2067  0.2857  1.4075
 3319SOL     OW21418   2.548   2.930   8.673 -0.3157 -0.6200 -0.1268
 3319SOL    HW121419   2.571   2.859   8.614 -0.1321 -2.1705  1.7977
 3319SOL    HW221420   2.617   2.916   8.738 -0.8621 -0.6153  0.4586
 3320SOL     OW21421   2.991   0.453   8.341  0.0981  0.0299 -0.4015
 3320SOL    HW121422   2.994   0.372   8.391 -2.9728  1.1564  1.5804
 3320SOL    HW221423   2.986   0.517   8.413 -0.9807  0.1469 -0.5838
 3321SOL     OW21424   1.277   2.514  15.451  0.0422  0.3534 -0.5258
 3321SOL    HW121425   1.267   2.479  15.362  1.0541  0.9943 -0.8853
 3321SOL    HW221426   1.313   2.445  15.507 -0.2705  0.3303 -0.3556
 3322SOL     OW21427   2.997   0.452  14.209 -0.2811 -0.1292 -0.4713
 3322SOL    HW121428   3.070   0.495  14.164 -0.6965 -1.3464 -2.3411
 3322SOL    HW221429   2.932   0.458  14.139  0.8118 -0.7782 -1.5456
 3323SOL     OW21430   0.952   1.397  13.395 -0.1873 -0.2498 -0.1200
 3323SOL    HW121431   0.974   1.467  13.457 -0.4863  0.0027 -0.2993
 3323SOL    HW221432   1.028   1.402  13.337 -0.3264  0.2167 -0.2681
 3324SOL     OW21433   3.329   4.462   7.764 -0.1868  0.4521 -0.9124
 3324SOL    HW121434   3.403   4.450   7.703 -0.3121  1.9251 -1.3444
 3324SOL    HW221435   3.342   4.546   7.806 -2.7124  1.0993 -1.4315
 3325SOL     OW21436   0.894   0.681  11.319 -0.5043  0.1350 -0.0459
 3325SOL    HW121437   0.961   0.701  11.384 -0.5295  1.2545 -0.3625
 3325SOL    HW221438   0.829   0.751  11.324  1.0039  1.3665  1.9673
 3326SOL     OW21439   3.587   3.026   5.955 -0.5342  0.2134 -0.2015
 3326SOL    HW121440   3.568   2.992   6.042 -0.1424 -0.6893 -0.4705
 3326SOL    HW221441   3.532   2.968   5.902 -1.5817  0.1823  0.9027
 3327SOL     OW21442   3.541   1.439   8.521  0.0709 -0.1928 -0.2533
 3327SOL    HW121443   3.545   1.424   8.427  1.5203 -0.9845 -0.0783
 3327SOL    HW221444   3.452   1.411   8.540  0.4011 -1.9122 -1.1993
 3328SOL     OW21445   4.386   3.345   0.545 -0.4488  0.2895  0.1133
 3328SOL    HW121446   4.415   3.340   0.636  0.8136  0.0227 -0.3073
 3328SOL    HW221447   4.439   3.417   0.512 -2.1144  1.8212  0.8042
 3329SOL     OW21448   0.435   1.956   6.375 -0.4769 -0.2674 -0.1933
 3329SOL    HW121449   0.473   2.043   6.366  0.7741 -0.7041  0.9535
 3329SOL    HW221450   0.505   1.894   6.397  0.8134  1.6845  1.2132
 3330SOL     OW21451   2.907   1.078  14.811 -0.0338 -0.2126 -0.3181
 3330SOL    HW121452   2.910   1.128  14.893  1.2341  0.4350 -0.7617
 3330SOL    HW221453   2.852   1.136  14.758  0.4298 -1.5700 -2.3066
 3331SOL     OW21454   1.256   3.330   3.642 -0.3997  0.1940 -0.2349
 3331SOL    HW121455   1.183   3.392   3.640 -1.3438 -0.9085 -0.2256
 3331SOL    HW221456   1.264   3.300   3.551  0.2275  1.2683 -0.5332
 3332SOL     OW21457   4.182   4.690   8.504  0.4071  0.8875 -0.3283
 3332SOL    HW121458   4.134   4.688   8.421 -1.2225 -2.3818  0.6836
 3332SOL    HW221459   4.116   4.691   8.573 -0.6061 -0.5841 -1.2760
 3333SOL     OW21460   1.508   3.218   3.804  0.4002 -0.0295  0.1171
 3333SOL    HW121461   1.472   3.144   3.853  1.3921 -0.9398 -0.5532
 3333SOL    HW221462   1.440   3.222   3.736  0.4474 -0.6341  0.0325
 3334SOL     OW21463   0.119   1.679   8.074  0.1318  0.2525 -0.5726
 3334SOL    HW121464   0.083   1.695   8.161  2.4924  1.1747  0.2407
 3334SOL    HW221465   0.197   1.735   8.083  1.2324 -1.5488  1.2101
 3335SOL     OW21466   0.114   1.989   9.555 -0.5146 -0.3364 -0.4097
 3335SOL    HW121467   0.101   2.084   9.554 -0.7320 -0.3749 -0.9528
 3335SOL    HW221468   0.176   1.987   9.629 -0.9553 -1.4597 -0.0843
 3336SOL     OW21469   1.256   2.597   3.434  0.3364 -0.8987  0.4692
 3336SOL    HW121470   1.307   2.517   3.428 -0.5580 -1.5863  2.1412
 3336SOL    HW221471   1.171   2.566   3.404  0.2902 -0.1336 -0.1913
 3337SOL     OW21472   0.260   1.800   5.606 -0.7837 -0.1893  0.0285
 3337SOL    HW121473   0.245   1.838   5.692 -0.1901  0.8603 -0.3330
 3337SOL    HW221474   0.349   1.829   5.586 -0.9050  1.2383  1.5782
 3338SOL     OW21475   1.594   3.934   4.849  0.6935  0.5323  0.4117
 3338SOL    HW121476   1.592   3.881   4.929  2.7828 -0.0403  0.0983
 3338SOL    HW221477   1.669   3.887   4.814 -0.3319 -0.1900 -0.7791
 3339SOL     OW21478   0.378   0.560   2.975  0.2205 -0.5769 -0.5100
 3339SOL    HW121479   0.329   0.641   2.959 -1.6035 -1.2020  1.9238
 3339SOL    HW221480   0.428   0.592   3.050  0.8237  2.2027 -2.1102
 3340SOL     OW21481   3.746   1.927   8.557 -0.2799  0.4070  0.3582
 3340SOL    HW121482   3.717   1.836   8.552 -1.6142  0.7104  2.6562
 3340SOL    HW221483   3.762   1.936   8.651  1.4657  1.1701 -0.0158
 3341SOL     OW21484   2.817   2.796   5.486  0.3318  0.2688  0.2241
 3341SOL    HW121485   2.799   2.851   5.410  0.1772  0.4012  0.3564
 3341SOL    HW221486   2.814   2.707   5.451  1.1275  1.1225 -2.0295
 3342SOL     OW21487   3.087   2.311   6.521 -0.3972 -0.4547 -0.1777
 3342SOL    HW121488   3.041   2.387   6.485  1.0654  1.0451  1.1290
 3342SOL    HW221489   3.177   2.324   6.491  0.4469  0.9853  2.9882
 3343SOL     OW21490   2.206   4.087   1.396  0.5180  0.0094  0.5259
 3343SOL    HW121491   2.284   4.031   1.396  0.4748 -0.0371 -0.4512
 3343SOL    HW221492   2.156   4.046   1.326  0.4500 -2.8213  2.2124
 3344SOL     OW21493   3.886   2.145  16.017 -0.3228  0.3121  0.1682
 3344SOL    HW121494   3.877   2.204  16.092  1.6715 -2.9051  2.9130
 3344SOL    HW221495   3.981   2.135  16.013 -0.1751  0.5449  3.4314
 3345SOL     OW21496   3.142   2.541   2.129 -0.1847  0.0427 -0.0059
 3345SOL    HW121497   3.093   2.494   2.062 -0.5093 -0.4193  0.5574
 3345SOL    HW221498   3.074   2.576   2.187 -0.3420  2.2866 -1.5519
 3346SOL     OW21499   4.545   3.878   3.531 -0.0639 -0.1976  0.0086
 3346SOL    HW121500   4.566   3.971   3.534 -0.4989 -0.1137  0.4881
 3346SOL    HW221501   4.539   3.857   3.624  0.3351 -0.9666 -0.1379
 3347SOL     OW21502   1.173   1.084   3.462  0.3259 -0.2577  0.3511
 3347SOL    HW121503   1.095   1.139   3.474  1.1455  0.9824 -0.0480
 3347SOL    HW221504   1.178   1.046   3.549 -2.3828  0.3730  0.7987
 3348SOL     OW21505   2.840   1.281   2.888 -0.1867  0.0860  0.6797
 3348SOL    HW121506   2.812   1.213   2.948 -1.7370 -1.6831 -2.0582
 3348SOL    HW221507   2.784   1.270   2.811 -0.3096  2.4144  0.4185
 3349SOL     OW21508   4.456   1.070   9.583 -0.0627  0.1116  0.6356
 3349SOL    HW121509   4.462   1.140   9.519  2.1976 -1.1030 -0.4675
 3349SOL    HW221510   4.534   1.017   9.564  0.3919  1.2513 -0.6473
 3350SOL     OW21511   4.377   3.968   6.276  0.3725  0.2376 -0.1801
 3350SOL    HW121512   4.460   3.942   6.234 -0.8989 -2.0460 -1.2762
 3350SOL    HW221513   4.330   4.026   6.216  1.0719  1.3679  0.3620
 3351SOL     OW21514   1.812   2.039   5.306 -0.2659 -0.5262  0.4538
 3351SOL    HW121515   1.851   2.055   5.391 -0.1878 -0.9699  0.5013
 3351SOL    HW221516   1.778   2.125   5.278  0.3278 -0.2386  0.6217
 3352SOL     OW21517   1.051   4.593   2.122 -0.1413 -0.3712 -0.4017
 3352SOL    HW121518   1.020   4.678   2.155 -1.1147 -0.8921  0.0180
 3352SOL    HW221519   0.980   4.592   2.057  0.3484 -2.5522 -0.9047
 3353SOL     OW21520   4.514   3.342   4.521  0.6384  0.5847 -0.2130
 3353SOL    HW121521   4.429   3.326   4.561 -0.0007  1.9310 -1.0664
 3353SOL    HW221522   4.492   3.338   4.428  0.3101 -2.8351  0.0252
 3354SOL     OW21523   1.002   1.534   7.605 -0.5530  0.2713  0.0023
 3354SOL    HW121524   0.949   1.577   7.537 -1.6647  1.1455  1.4126
 3354SOL    HW221525   0.974   1.598   7.671  0.0164  0.9962 -0.4623
 3355SOL     OW21526   4.200   0.441  17.267 -0.7120  0.1725  0.2079
 3355SOL    HW121527   4.166   0.521  17.307 -0.3450  0.1089  0.6526
 3355SOL    HW221528   4.220   0.480  17.182 -2.5091  0.6648  0.0195
 3356SOL     OW21529   1.599   1.544   3.260  0.5181  0.1342 -0.1971
 3356SOL    HW121530   1.605   1.504   3.347 -0.5873 -1.1055 -0.6902
 3356SOL    HW221531   1.641   1.481   3.203  3.2376 -1.4136  3.4786
 3357SOL     OW21532   0.665   3.377   8.108 -0.3722 -0.0356 -0.3179
 3357SOL    HW121533   0.614   3.358   8.187 -0.5226 -2.1356 -0.9307
 3357SOL    HW221534   0.750   3.341   8.134 -1.1688 -0.6885  1.3611
 3358SOL     OW21535   0.197   0.189   9.568  0.2841  0.0108  0.0246
 3358SOL    HW121536   0.204   0.187   9.663  1.4417  0.2808 -0.0527
 3358SOL    HW221537   0.252   0.265   9.553 -2.0824  1.6479 -0.2987
 3359SOL     OW21538   3.221   2.567   0.928 -0.4193 -0.1655  0.2391
 3359SOL    HW121539   3.265   2.652   0.927 -1.5676  0.4575  1.3087
 3359SOL    HW221540   3.165   2.571   1.006  1.4623 -0.9998  1.6314
 3360SOL     OW21541   3.712   1.711   0.679  0.4394 -0.5141  0.2762
 3360SOL    HW121542   3.800   1.746   0.667  0.5555 -1.1073 -0.5720
 3360SOL    HW221543   3.675   1.741   0.596 -2.0553 -1.9694  0.8421
 3361SOL     OW21544   3.190   2.738   8.092  0.2813 -0.2102 -0.3256
 3361SOL    HW121545   3.148   2.727   8.177 -1.9819  2.4977 -1.0942
 3361SOL    HW221546   3.268   2.783   8.125  0.6069 -1.1446  0.1776
 3362SOL     OW21547   4.440   3.293   4.268 -0.0813 -0.1565  0.1953
 3362SOL    HW121548   4.478   3.281   4.181  0.9076  2.8412  0.2182
 3362SOL    HW221549   4.372   3.226   4.267  0.7254 -0.9612 -0.8149
 3363SOL     OW21550   0.663   4.655  14.927  0.3212  0.1792  0.1707
 3363SOL    HW121551   0.729   4.587  14.916 -1.3691 -1.7525  1.8730
 3363SOL    HW221552   0.619   4.634  14.845 -0.9976 -1.0087  1.1718
 3364SOL     OW21553   0.763   0.201   5.437  0.3188  0.2415  0.1574
 3364SOL    HW121554   0.849   0.238   5.454  0.8927 -0.9110 -0.2785
 3364SOL    HW221555   0.737   0.230   5.350 -0.4710  0.4871  0.4699
 3365SOL     OW21556   4.517   1.585   1.427  0.4432 -0.4919  0.0289
 3365SOL    HW121557   4.446   1.612   1.369 -1.9149 -2.3072  2.0896
 3365SOL    HW221558   4.584   1.633   1.378 -1.6234  1.7728 -0.5940
 3366SOL     OW21559   4.063   2.503   8.110  0.1411 -0.4020  0.0740
 3366SOL    HW121560   4.066   2.586   8.157  0.2950 -0.0956 -0.4755
 3366SOL    HW221561   4.123   2.448   8.161 -0.6659 -2.6500 -1.3858
 3367SOL     OW21562   0.412   3.882  10.523 -0.1869 -0.0233 -0.0975
 3367SOL    HW121563   0.353   3.958  10.529 -0.8568 -0.5454 -0.0909
 3367SOL    HW221564   0.400   3.850  10.434  0.2097 -1.2778  0.3069
 3368SOL     OW21565   4.410   1.140  14.584 -0.0571  0.3740  0.1975
 3368SOL    HW121566   4.422   1.222  14.537  3.5044 -0.4732 -0.3539
 3368SOL    HW221567   4.498   1.113  14.609  0.8779  0.8484 -2.6656
 3369SOL     OW21568   1.691   2.088   0.523 -0.2115  0.2653 -0.1800
 3369SOL    HW121569   1.754   2.068   0.453  0.3240 -0.1807  0.4279
 3369SOL    HW221570   1.741   2.077   0.604 -0.3412 -0.8919 -0.2480
 3370SOL     OW21571   3.456   4.308   7.171  0.0001  0.0850  0.5344
 3370SOL    HW121572   3.423   4.229   7.214 -0.1177  0.4119  1.0446
 3370SOL    HW221573   3.374   4.354   7.152  0.7582  1.9477  1.8882
 3371SOL     OW21574   3.999   3.382   2.225 -0.1523  0.1561  0.1714
 3371SOL    HW121575   4.049   3.458   2.253 -1.0025  0.3537  1.1712
 3371SOL    HW221576   3.991   3.384   2.130 -1.4373 -0.6878  0.2598
 3372SOL     OW21577   4.609   2.280  15.951  0.4070  0.7072  0.1915
 3372SOL    HW121578   4.569   2.223  16.017  0.3545 -0.4206 -0.8286
 3372SOL    HW221579   4.585   2.365  15.989 -1.6392  0.0989  0.2750
 3373SOL     OW21580   3.356   4.369   6.311  0.4966 -0.4366 -0.2821
 3373SOL    HW121581   3.393   4.286   6.342 -1.8598 -1.6729 -0.7679
 3373SOL    HW221582   3.391   4.430   6.376 -2.5041 -0.1357  1.0418
 3374SOL     OW21583   1.623   1.881   0.181  0.0404  0.3429 -0.0835
 3374SOL    HW121584   1.537   1.875   0.223 -0.1121 -1.7053 -0.6504
 3374SOL    HW221585   1.636   1.975   0.186 -0.8260  0.2395  4.2736
 3375SOL     OW21586   1.078   0.108  12.557 -0.6463 -0.0942  0.1560
 3375SOL    HW121587   1.086   0.055  12.636  0.2344 -0.3487 -0.1075
 3375SOL    HW221588   1.104   0.041  12.494  1.1114 -1.5723  2.4481
 3376SOL     OW21589   0.627   2.555  11.668  0.2145  0.4410 -0.4408
 3376SOL    HW121590   0.583   2.569  11.752  1.1217  1.8528 -0.1965
 3376SOL    HW221591   0.602   2.633  11.618  1.7467  2.1627  1.4845
 3377SOL     OW21592   0.368   0.368   7.552 -0.2815 -0.0848 -0.1060
 3377SOL    HW121593   0.372   0.274   7.570  0.1139  0.5440  3.0909
 3377SOL    HW221594   0.458   0.388   7.525 -0.5901  1.3835  0.0115
 3378SOL     OW21595   3.853   0.892   8.890 -0.4505 -0.0469  0.2558
 3378SOL    HW121596   3.947   0.899   8.901 -0.4047 -3.5694  2.0164
 3378SOL    HW221597   3.818   0.948   8.959 -0.3625  0.7567 -0.3384
 3379SOL     OW21598   0.701   1.934  16.047  0.2154  0.1422 -0.1099
 3379SOL    HW121599   0.660   2.019  16.029 -2.3272 -1.1974 -0.6988
 3379SOL    HW221600   0.746   1.956  16.128 -0.1916 -0.4423  0.2707
 3380SOL     OW21601   4.295   2.375   7.105  0.4904  0.1439  0.2667
 3380SOL    HW121602   4.329   2.389   7.016 -0.0744  2.4338  0.4190
 3380SOL    HW221603   4.372   2.338   7.148  1.1869 -1.4507 -2.3255
 3381SOL     OW21604   1.870   0.273   4.822 -0.7238 -0.4518  0.1068
 3381SOL    HW121605   1.912   0.334   4.882  1.4449  0.1178 -1.9938
 3381SOL    HW221606   1.777   0.293   4.832 -0.3154  1.5498 -0.2950
 3382SOL     OW21607   4.181   4.421   5.248  0.3564  0.6706 -0.5057
 3382SOL    HW121608   4.191   4.426   5.153  0.2916  0.5966 -0.5160
 3382SOL    HW221609   4.184   4.326   5.257 -0.2413  0.6608 -0.4072
 3383SOL     OW21610   1.241   3.773   3.437 -0.2054 -0.0450  0.9821
 3383SOL    HW121611   1.317   3.730   3.398  1.4743  0.8736  3.2576
 3383SOL    HW221612   1.165   3.715   3.430  2.3517 -3.0541 -2.0256
 3384SOL     OW21613   1.277   2.457   6.675  0.7141 -0.6253  0.0053
 3384SOL    HW121614   1.327   2.462   6.757 -1.9941 -1.8690  1.7212
 3384SOL    HW221615   1.269   2.363   6.659 -2.5163 -0.2710 -0.4469
 3385SOL     OW21616   3.197   0.664   2.313 -0.1926  0.1469  0.0706
 3385SOL    HW121617   3.161   0.597   2.255 -0.3986  0.6775 -0.4118
 3385SOL    HW221618   3.115   0.690   2.355  0.0539  2.7164 -1.0866
 3386SOL     OW21619   1.389   1.203   6.235 -0.2109 -0.0712  0.2834
 3386SOL    HW121620   1.335   1.281   6.243 -0.1025  0.0163  0.1606
 3386SOL    HW221621   1.442   1.214   6.156 -2.7801 -0.1305 -1.4634
 3387SOL     OW21622   0.253   2.254   8.851 -0.4885  0.0910 -0.4615
 3387SOL    HW121623   0.167   2.215   8.866 -0.8995  1.3506  0.4218
 3387SOL    HW221624   0.311   2.182   8.878  0.4491  0.2698 -1.9931
 3388SOL     OW21625   0.618   2.840  12.338  0.0814 -0.2433 -0.2493
 3388SOL    HW121626   0.699   2.853  12.289 -1.1763  0.1680 -2.1807
 3388SOL    HW221627   0.577   2.925  12.324  0.1750 -0.5092 -2.0426
 3389SOL     OW21628   3.891   4.485   8.968 -0.0590 -0.1760  0.2215
 3389SOL    HW121629   3.840   4.404   8.965 -0.7842  0.2617  0.7060
 3389SOL    HW221630   3.840   4.529   8.900 -0.8502  2.2087  2.3695
 3390SOL     OW21631   0.639   3.869   9.222  0.5711  0.4677 -0.2643
 3390SOL    HW121632   0.549   3.868   9.255  0.6350 -0.5612 -0.1228
 3390SOL    HW221633   0.673   3.929   9.288 -0.0596  0.8872 -0.3193
 3391SOL     OW21634   1.510   4.057   5.567  0.3285 -0.0758  0.4606
 3391SOL    HW121635   1.573   4.117   5.607 -1.5784  2.1171  0.1708
 3391SOL    HW221636   1.469   4.110   5.498  1.6568  0.6855  0.2507
 3392SOL     OW21637   3.396   3.029   9.899 -0.3887 -0.3222  0.0622
 3392SOL    HW121638   3.477   2.978   9.896 -0.8274 -0.9673 -0.8561
 3392SOL    HW221639   3.334   2.966   9.863 -0.7040 -0.8822  1.5749
 3393SOL     OW21640   1.373   2.651   9.811  0.5015  0.0658 -0.8903
 3393SOL    HW121641   1.323   2.665   9.891  0.2219  1.8067 -1.3464
 3393SOL    HW221642   1.386   2.557   9.823 -0.1969  0.0804 -0.0527
 3394SOL     OW21643   4.623   4.012  12.372 -0.0274  0.1606  0.5079
 3394SOL    HW121644   4.690   4.023  12.305 -2.0674 -1.6303 -1.8298
 3394SOL    HW221645   4.567   4.085  12.345 -2.8013 -1.8289  0.8204
 3395SOL     OW21646   0.700   3.666   1.129  0.1126 -0.1518 -0.0483
 3395SOL    HW121647   0.792   3.657   1.104 -0.3763 -0.3705 -1.7707
 3395SOL    HW221648   0.662   3.671   1.041  1.8589 -1.4231 -0.8635
 3396SOL     OW21649   4.006   0.046  17.191  0.2446 -0.2424  0.7834
 3396SOL    HW121650   3.925   0.053  17.140  0.9157  0.6617 -0.1426
 3396SOL    HW221651   4.063   0.103  17.140  0.3212  0.1950  1.3670
 3397SOL     OW21652   0.785   0.757   0.405  0.0031  0.0216 -0.7322
 3397SOL    HW121653   0.756   0.741   0.495 -2.4967 -0.0807 -1.5403
 3397SOL    HW221654   0.860   0.817   0.411 -1.2293  1.6330 -1.2489
 3398SOL     OW21655   0.277   3.681   4.168 -0.0309  0.5560 -0.5651
 3398SOL    HW121656   0.216   3.678   4.242  0.4693  0.0459 -0.1778
 3398SOL    HW221657   0.285   3.589   4.142  2.0868  0.2968  1.0569
 3399SOL     OW21658   2.144   3.867  13.178 -0.0771  0.0471  0.1230
 3399SOL    HW121659   2.158   3.955  13.211  1.0829 -0.0710 -0.0407
 3399SOL    HW221660   2.215   3.820  13.222 -0.4461  0.9719  1.6834
 3400SOL     OW21661   1.816   1.685   3.515 -0.8157 -0.0241 -0.1752
 3400SOL    HW121662   1.781   1.599   3.539 -1.3392  0.5134  1.0409
 3400SOL    HW221663   1.903   1.678   3.554 -0.7302  1.1014 -0.1403
 3401SOL     OW21664   0.125   3.769   5.096  0.6780 -0.3561 -0.1797
 3401SOL    HW121665   0.090   3.689   5.057  2.1298 -0.5275 -1.1434
 3401SOL    HW221666   0.048   3.825   5.106 -0.3114 -1.2924 -2.6524
 3402SOL     OW21667   0.460   4.724   4.725  0.4781 -0.0922 -0.1261
 3402SOL    HW121668   0.429   4.637   4.751 -2.5820  1.1025  0.2068
 3402SOL    HW221669   0.450   4.706   4.632 -0.3871  2.6002 -0.5489
 3403SOL     OW21670   4.430   3.998   6.724  0.3278 -0.0848  0.0558
 3403SOL    HW121671   4.341   3.995   6.689 -0.1749 -1.3372  1.4345
 3403SOL    HW221672   4.492   3.953   6.667  0.9471 -0.9485  1.4090
 3404SOL     OW21673   1.052   4.435   3.931 -0.8546 -0.0824 -0.4633
 3404SOL    HW121674   0.975   4.378   3.938 -1.0252  0.6791  3.8941
 3404SOL    HW221675   1.114   4.393   3.991 -1.9237 -0.7115  0.2032
 3405SOL     OW21676   0.869   0.724   1.697  0.2132  0.0123  0.0801
 3405SOL    HW121677   0.851   0.639   1.656  2.1745 -0.5244  0.3246
 3405SOL    HW221678   0.850   0.781   1.622 -0.2463  0.1830  0.3243
 3406SOL     OW21679   1.915   0.231   6.688 -0.6252  0.3563  0.6140
 3406SOL    HW121680   1.972   0.185   6.750  1.0619  1.9135  0.2249
 3406SOL    HW221681   1.973   0.245   6.613 -2.0892  0.6076 -0.4645
 3407SOL     OW21682   1.313   2.018  11.363 -0.5386  0.4007 -0.1149
 3407SOL    HW121683   1.324   2.081  11.434 -3.0109  1.3417 -0.5671
 3407SOL    HW221684   1.224   1.986  11.380 -0.6857  1.3579  0.9505
 3408SOL     OW21685   4.303   2.739   6.772 -0.0168  0.2729  0.3020
 3408SOL    HW121686   4.236   2.691   6.821  0.6013 -0.6991  0.2097
 3408SOL    HW221687   4.281   2.823   6.812  0.4205 -0.4327  2.0500
 3409SOL     OW21688   3.277   2.712   6.419 -0.1238  0.5266  0.4993
 3409SOL    HW121689   3.330   2.780   6.462 -0.1836 -0.5415  2.2590
 3409SOL    HW221690   3.223   2.758   6.355 -3.0548  0.2443  2.7651
 3410SOL     OW21691   2.001   1.637   2.841  0.4027  0.3209  0.3502
 3410SOL    HW121692   2.020   1.579   2.915 -2.9115 -1.5741 -0.3013
 3410SOL    HW221693   1.907   1.656   2.844  0.0619 -1.5942  2.0633
 3411SOL     OW21694   2.256   2.647   5.556  0.3142 -0.4086 -0.0903
 3411SOL    HW121695   2.219   2.564   5.528  0.4867 -0.3756 -0.4161
 3411SOL    HW221696   2.332   2.657   5.498  2.0166 -0.5167  2.1085
 3412SOL     OW21697   4.326   2.038  13.223 -0.9507 -0.5615  0.0996
 3412SOL    HW121698   4.241   2.015  13.260 -0.0696 -1.3952  1.5952
 3412SOL    HW221699   4.380   1.992  13.286  2.2005 -2.1624 -3.7655
 3413SOL     OW21700   0.282   3.756  13.763  0.8824  0.7250  0.0224
 3413SOL    HW121701   0.333   3.688  13.717 -1.2581 -0.8153 -0.0693
 3413SOL    HW221702   0.345   3.827  13.767  1.1066  0.5240  0.0987
 3414SOL     OW21703   4.228   1.973  10.844  0.6092  0.1543 -0.1221
 3414SOL    HW121704   4.309   1.984  10.794  1.9671  2.5318  2.6550
 3414SOL    HW221705   4.261   1.997  10.930  1.6228 -0.1808 -0.4224
 3415SOL     OW21706   1.621   3.816   3.964 -0.3130  0.3009 -0.2166
 3415SOL    HW121707   1.604   3.907   3.941  1.5415  0.1690 -2.1079
 3415SOL    HW221708   1.550   3.773   3.915  0.6762  0.5980 -1.9158
 3416SOL     OW21709   3.219   1.858   5.528 -0.4087  0.0823 -0.8959
 3416SOL    HW121710   3.298   1.894   5.567 -0.2647 -1.9122  0.6483
 3416SOL    HW221711   3.262   1.776   5.506  0.9805  0.1929  1.4076
 3417SOL     OW21712   1.238   1.547   2.191  0.0901 -0.0135  0.1801
 3417SOL    HW121713   1.229   1.504   2.105  1.4691  1.5913 -0.7622
 3417SOL    HW221714   1.169   1.505   2.243 -0.0290  0.9324  0.7772
 3418SOL     OW21715   3.874   1.161   4.296  0.8249 -0.2714  0.1612
 3418SOL    HW121716   3.796   1.211   4.272  0.1536 -0.7429  1.3648
 3418SOL    HW221717   3.840   1.072   4.290  1.3879 -0.5216  0.7249
 3419SOL     OW21718   2.088   2.811   1.911  0.5938  0.4233 -0.4513
 3419SOL    HW121719   2.124   2.829   1.824  2.0985  0.5932  0.2143
 3419SOL    HW221720   2.003   2.855   1.905 -0.3777 -1.2168  1.2865
 3420SOL     OW21721   3.998   2.806   2.238  0.3986  0.2746 -0.2703
 3420SOL    HW121722   3.989   2.793   2.143 -0.2988 -1.6274  0.0622
 3420SOL    HW221723   4.071   2.867   2.243  0.6159  0.0554 -0.7009
 3421SOL     OW21724   1.308   2.389   4.870  0.2141 -0.0427  0.1230
 3421SOL    HW121725   1.383   2.402   4.812  1.4214  0.5696  1.8196
 3421SOL    HW221726   1.296   2.470   4.919 -0.3096  0.1305 -0.2898
 3422SOL     OW21727   4.528   0.332   7.309 -0.3867 -0.0598 -0.4738
 3422SOL    HW121728   4.621   0.309   7.307 -0.1904  0.6859  0.2554
 3422SOL    HW221729   4.531   0.412   7.256 -0.4764  1.5760  2.0090
 3423SOL     OW21730   4.013   0.008  15.475  0.0263 -0.0232  0.0368
 3423SOL    HW121731   3.948   4.675  15.440  1.2055 -0.6581 -1.0386
 3423SOL    HW221732   3.958   0.053  15.539 -2.1183 -0.3283 -1.5779
 3424SOL     OW21733   3.672   1.842  15.233 -0.2621  0.0402 -0.2750
 3424SOL    HW121734   3.604   1.857  15.298 -0.3685  0.0555 -0.3887
 3424SOL    HW221735   3.631   1.864  15.149  1.2258  2.5121 -0.3671
 3425SOL     OW21736   0.645   1.463   5.714  0.0497 -0.1824 -0.0963
 3425SOL    HW121737   0.598   1.394   5.667  2.9278 -2.2700  0.0856
 3425SOL    HW221738   0.714   1.410   5.755  0.2137  1.9826  2.3969
 3426SOL     OW21739   0.051   4.701  12.504 -0.2045  0.3677  0.1525
 3426SOL    HW121740   0.118   0.040  12.518  1.1683 -1.2849  1.6281
 3426SOL    HW221741   0.075   4.667  12.418  0.2189  0.9780  0.0243
 3427SOL     OW21742   3.866   2.592  17.524 -0.0042 -0.0795  0.7006
 3427SOL    HW121743   3.930   2.584  17.595  0.2142  0.1282  0.5284
 3427SOL    HW221744   3.838   2.682  17.544 -1.1515 -1.0346  3.3730
 3428SOL     OW21745   0.874   4.600   8.876  0.0559  0.0111 -0.0830
 3428SOL    HW121746   0.845   4.684   8.841  2.7668 -0.6449 -3.8408
 3428SOL    HW221747   0.911   4.559   8.798 -1.6565 -0.1852 -0.7923
 3429SOL     OW21748   3.236   4.415  15.778  0.9648  0.4848 -0.2823
 3429SOL    HW121749   3.277   4.389  15.861  1.3625 -1.7916 -1.2082
 3429SOL    HW221750   3.182   4.487  15.812  2.5843  0.7199  1.8089
 3430SOL     OW21751   4.440   0.687  10.497 -0.1174 -0.3937 -0.1682
 3430SOL    HW121752   4.423   0.600  10.463 -3.0479 -0.3641  1.2608
 3430SOL    HW221753   4.386   0.691  10.576  0.8278 -1.1526  0.5233
 3431SOL     OW21754   4.243   0.933   4.716 -0.5875 -0.1736  0.3001
 3431SOL    HW121755   4.307   0.871   4.682  0.7478  0.9463  0.7608
 3431SOL    HW221756   4.291   0.984   4.781 -1.0904  0.0852  0.4710
 3432SOL     OW21757   2.641   0.177   9.795 -0.5241 -0.0389 -0.0909
 3432SOL    HW121758   2.711   0.220   9.845 -0.4166  0.6125 -0.7975
 3432SOL    HW221759   2.696   0.106   9.761  1.3993  1.1121  0.6005
 3433SOL     OW21760   3.906   0.904   9.782 -0.0526  0.3315  0.1805
 3433SOL    HW121761   3.923   0.994   9.754 -0.2473  0.0597 -0.8245
 3433SOL    HW221762   3.844   0.920   9.853 -0.3692  2.0980 -0.4844
 3434SOL     OW21763   0.375   4.670  14.971 -0.0338 -0.2990 -0.5729
 3434SOL    HW121764   0.289   4.711  14.970 -0.0422 -0.3596 -1.7093
 3434SOL    HW221765   0.407   4.658  14.882  0.8791 -2.5400  0.0503
 3435SOL     OW21766   1.771   0.318  11.295  0.1490 -0.6218  0.5368
 3435SOL    HW121767   1.735   0.231  11.310 -1.7689  0.0699 -0.1784
 3435SOL    HW221768   1.831   0.299  11.223 -0.7078 -2.5619  0.3548
 3436SOL     OW21769   0.934   1.255   7.620 -0.1958 -0.4481  0.8237
 3436SOL    HW121770   0.976   1.337   7.594  0.5972 -0.9997  0.3905
 3436SOL    HW221771   0.840   1.275   7.623 -0.3663 -0.8412 -2.0861
 3437SOL     OW21772   1.634   1.019   1.903  0.4854  0.2676  0.7244
 3437SOL    HW121773   1.655   1.110   1.882  2.0630 -0.6546 -1.7196
 3437SOL    HW221774   1.685   1.003   1.982  0.7429  2.0234  0.8926
 3438SOL     OW21775   4.467   1.838  15.637  0.3423  0.0028 -0.5551
 3438SOL    HW121776   4.404   1.770  15.661 -1.2191  1.8782  0.6629
 3438SOL    HW221777   4.457   1.840  15.542 -2.2208 -0.0914 -0.2755
 3439SOL     OW21778   3.600   2.706   4.847 -0.2282 -0.0469 -0.7500
 3439SOL    HW121779   3.628   2.780   4.795  0.7788  0.0711 -0.0436
 3439SOL    HW221780   3.541   2.657   4.789 -1.7292 -0.2664  0.9526
 3440SOL     OW21781   3.405   2.193   5.124 -0.3147 -0.0127 -0.5257
 3440SOL    HW121782   3.312   2.197   5.147 -0.4165  2.7998 -1.3194
 3440SOL    HW221783   3.401   2.117   5.066 -0.0724  1.2547 -2.1981
 3441SOL     OW21784   2.161   3.041   7.182  0.0200  0.5824  0.4600
 3441SOL    HW121785   2.254   3.064   7.178  0.0293  0.4928  0.1884
 3441SOL    HW221786   2.165   3.017   7.275 -2.6590  1.0324  0.6829
 3442SOL     OW21787   4.494   0.188  17.562 -0.4399 -0.0788  0.5946
 3442SOL    HW121788   4.431   0.117  17.565  0.8268 -1.4234 -4.5617
 3442SOL    HW221789   4.473   0.230  17.478 -1.2769  0.6933  1.1904
 3443SOL     OW21790   1.355   1.314   2.872  0.2237 -0.0375 -0.0994
 3443SOL    HW121791   1.329   1.245   2.812  1.7536 -0.7748  0.0897
 3443SOL    HW221792   1.336   1.401   2.837  1.7994  0.1797 -0.4067
 3444SOL     OW21793   3.655   0.053  15.800 -0.6621  0.1747 -0.5927
 3444SOL    HW121794   3.564   0.066  15.827 -0.9477 -3.0171  0.0321
 3444SOL    HW221795   3.645   4.718  15.729 -0.4359  0.2826 -0.7223
 3445SOL     OW21796   1.915   1.808  10.289 -0.1095 -0.5284 -0.0941
 3445SOL    HW121797   1.973   1.870  10.333 -1.1321  0.0620  0.4256
 3445SOL    HW221798   1.972   1.731  10.284  0.1502 -0.4719  1.9404
 3446SOL     OW21799   3.449   1.380   6.614  0.4474  0.2877 -0.1050
 3446SOL    HW121800   3.379   1.355   6.553  2.1870 -1.2233 -1.5022
 3446SOL    HW221801   3.438   1.475   6.616 -1.2372  0.0583  0.8418
 3447SOL     OW21802   2.053   0.952  12.565 -0.2266 -0.0144  0.1984
 3447SOL    HW121803   2.000   0.959  12.645 -0.3870 -3.9931  0.4427
 3447SOL    HW221804   2.089   0.864  12.571  0.2517  0.1431 -0.3463
 3448SOL     OW21805   1.837   2.425  14.853  0.1481  0.2675 -0.0879
 3448SOL    HW121806   1.783   2.404  14.777 -0.4470  0.8731  0.1642
 3448SOL    HW221807   1.797   2.366  14.917  3.4703 -0.3297  1.4374
 3449SOL     OW21808   4.604   3.761   7.159  0.3471  0.5076 -0.1022
 3449SOL    HW121809   4.539   3.767   7.229  2.0674  1.2651  1.4012
 3449SOL    HW221810   4.554   3.772   7.077 -0.6568  1.7487  0.6898
 3450SOL     OW21811   0.567   3.044   6.225 -0.3926  0.0580  0.5342
 3450SOL    HW121812   0.593   3.123   6.178 -1.8430  0.0360 -0.3278
 3450SOL    HW221813   0.543   2.989   6.150  0.0225 -0.5140  0.8165
 3451SOL     OW21814   1.688   4.250   1.202 -1.1890  0.1211  0.1910
 3451SOL    HW121815   1.628   4.231   1.131 -0.4902  0.3196 -0.4510
 3451SOL    HW221816   1.771   4.256   1.154 -1.5050  0.7150 -0.2749
 3452SOL     OW21817   4.103   0.059  14.648 -0.1671 -0.2696 -0.1129
 3452SOL    HW121818   4.185   0.021  14.616 -0.3690 -0.7142 -0.0950
 3452SOL    HW221819   4.121   0.150  14.672 -0.3101 -0.4273  0.5946
 3453SOL     OW21820   0.585   0.068   7.026 -0.5614  0.7184  0.2674
 3453SOL    HW121821   0.589   0.101   7.115  0.3046  2.3182 -0.3547
 3453SOL    HW221822   0.511   0.010   7.037 -0.9291  1.2264  0.4813
 3454SOL     OW21823   4.087   1.329  12.303  0.5460  0.2268  0.6979
 3454SOL    HW121824   4.088   1.340  12.398 -1.7585  1.0350  0.6333
 3454SOL    HW221825   4.068   1.420  12.282 -0.6338  0.1512  1.4478
 3455SOL     OW21826   0.140   2.691   4.169  0.3006  0.1027  0.4785
 3455SOL    HW121827   0.151   2.757   4.100 -2.1424  0.1936  0.1894
 3455SOL    HW221828   0.222   2.646   4.188  0.0963 -0.8329 -0.8572
 3456SOL     OW21829   4.566   4.591  17.659 -0.0293 -0.3361 -0.0195
 3456SOL    HW121830   4.488   4.640  17.635  0.1714  0.0016  0.0233
 3456SOL    HW221831   4.634   4.657  17.649  0.3901 -0.6576  0.6845
 3457SOL     OW21832   0.083   0.778   7.187  0.4663 -0.0818 -0.0491
 3457SOL    HW121833   0.128   0.721   7.124 -0.3519 -0.7657 -0.0232
 3457SOL    HW221834   0.015   0.721   7.224  0.9026  0.8166  2.1401
 3458SOL     OW21835   4.532   3.504  11.643 -0.0229  0.3480 -0.4224
 3458SOL    HW121836   4.522   3.588  11.599 -0.5865  0.7082  0.4016
 3458SOL    HW221837   4.443   3.468  11.635 -0.9804  3.1528 -2.3983
 3459SOL     OW21838   3.867   1.266   0.644  0.4326 -0.2274  0.4728
 3459SOL    HW121839   3.859   1.172   0.664 -2.1418 -0.1748 -0.2617
 3459SOL    HW221840   3.788   1.308   0.678 -0.4484 -0.7689 -0.9259
 3460SOL     OW21841   2.990   0.277   1.016  0.3087 -0.6738  0.4410
 3460SOL    HW121842   2.908   0.251   0.975  0.0229  0.0497  0.5585
 3460SOL    HW221843   2.969   0.296   1.107 -0.5532  0.6518 -0.0446
 3461SOL     OW21844   0.962   3.427  16.206 -0.0540 -0.5037  0.1835
 3461SOL    HW121845   1.000   3.502  16.160  1.7706 -1.7632 -0.3537
 3461SOL    HW221846   1.040   3.372  16.212  0.6580  0.3642 -1.0330
 3462SOL     OW21847   0.716   4.646   4.877  0.2337  0.0869  0.0896
 3462SOL    HW121848   0.668   4.708   4.822  1.0710 -0.7675 -1.6108
 3462SOL    HW221849   0.759   4.712   4.932  0.5533 -0.2511  0.2520
 3463SOL     OW21850   4.502   0.658   7.487  0.5760 -0.0521  0.6749
 3463SOL    HW121851   4.508   0.728   7.553 -2.0444  0.2514  0.5929
 3463SOL    HW221852   4.408   0.642   7.477  0.4539  0.2612  1.3246
 3464SOL     OW21853   3.765   2.756   7.944  0.2523  0.6801  0.2849
 3464SOL    HW121854   3.706   2.735   8.017  0.5785 -2.1808 -0.2440
 3464SOL    HW221855   3.812   2.673   7.954 -0.2457  0.1193 -2.0699
 3465SOL     OW21856   3.423   0.341   6.319  0.0126  0.5591 -0.1519
 3465SOL    HW121857   3.418   0.326   6.414 -3.3831  1.6380 -0.1478
 3465SOL    HW221858   3.374   0.260   6.303 -2.7033  1.9466  1.0700
 3466SOL     OW21859   3.947   4.681   2.244 -0.2433  0.1653  0.2085
 3466SOL    HW121860   3.941   4.669   2.149 -1.5882 -1.1359  0.4617
 3466SOL    HW221861   3.886   4.613   2.272 -0.6730  0.5464  0.1913
 3467SOL     OW21862   0.623   1.668   5.494 -0.3393  0.3209  0.0494
 3467SOL    HW121863   0.707   1.708   5.515 -0.1479  0.7195 -1.4676
 3467SOL    HW221864   0.635   1.588   5.546 -0.6620  0.0174 -0.3457
 3468SOL     OW21865   1.650   4.307   3.266  0.0516 -0.3570 -0.2815
 3468SOL    HW121866   1.571   4.324   3.317 -0.5784  0.1868 -1.4254
 3468SOL    HW221867   1.706   4.384   3.278 -0.2880  0.2255 -2.3199
 3469SOL     OW21868   4.610   4.431  12.964 -0.4576 -0.1134 -0.5587
 3469SOL    HW121869   4.565   4.347  12.975  0.3756 -0.4302  0.4576
 3469SOL    HW221870   4.669   4.411  13.037 -1.9457  0.3087  0.7687
 3470SOL     OW21871   2.072   3.080   6.500 -0.5421 -0.1320  0.7182
 3470SOL    HW121872   2.034   3.001   6.462  2.1963 -2.1319  2.1241
 3470SOL    HW221873   2.110   3.032   6.574  1.2409 -0.5439 -0.4421
 3471SOL     OW21874   2.816   3.804   3.869  0.3915 -0.0213 -0.3075
 3471SOL    HW121875   2.758   3.747   3.818  0.4381 -0.5890  0.2663
 3471SOL    HW221876   2.762   3.810   3.948  1.2899  1.9906  0.1280
 3472SOL     OW21877   1.224   3.079   7.418 -0.6658  0.1881  0.5046
 3472SOL    HW121878   1.204   3.123   7.501  0.0330  0.3746  0.5799
 3472SOL    HW221879   1.226   2.988   7.449 -4.3642 -0.2922 -0.7601
 3473SOL     OW21880   3.700   1.920   8.189  0.2644  0.2483 -0.4257
 3473SOL    HW121881   3.755   1.914   8.267 -0.5727 -0.0560  0.1454
 3473SOL    HW221882   3.702   2.015   8.178  2.1937 -0.0058 -2.1468
 3474SOL     OW21883   1.798   4.030  15.037  0.1619 -0.2716 -0.9394
 3474SOL    HW121884   1.876   4.058  15.085  0.8831  0.8476 -2.7826
 3474SOL    HW221885   1.731   4.095  15.056 -0.1665 -0.6290 -0.8749
 3475SOL     OW21886   2.146   0.614  17.448 -0.1559  0.4655 -0.4653
 3475SOL    HW121887   2.191   0.679  17.394 -1.4439  0.1341 -1.9321
 3475SOL    HW221888   2.211   0.607  17.518 -0.7930  1.1024  0.1935
 3476SOL     OW21889   3.253   4.527   7.145  0.3976  0.1397 -0.1086
 3476SOL    HW121890   3.163   4.556   7.164  0.6874 -0.1446  1.6966
 3476SOL    HW221891   3.307   4.549   7.221  4.1382 -2.0449 -2.1448
 3477SOL     OW21892   4.639   2.598   5.114  0.4483  0.2809 -0.3021
 3477SOL    HW121893   4.704   2.639   5.171  0.1980  1.9585 -1.2310
 3477SOL    HW221894   4.605   2.527   5.168 -0.1424  2.2016  1.8532
 3478SOL     OW21895   0.899   1.005   0.132 -0.4776  0.1567 -0.1989
 3478SOL    HW121896   0.807   0.983   0.141 -0.4105 -0.5883 -1.2740
 3478SOL    HW221897   0.919   1.041   0.218  1.9235 -2.7958  0.4886
 3479SOL     OW21898   2.299   3.641   6.966 -0.1613 -0.1176  0.2391
 3479SOL    HW121899   2.286   3.703   7.038  0.4854 -1.4157  1.4813
 3479SOL    HW221900   2.265   3.561   7.007 -0.3998 -0.3004 -0.3080
 3480SOL     OW21901   0.350   2.678   8.733  0.2725 -0.1573  0.4229
 3480SOL    HW121902   0.355   2.737   8.808  0.6026  1.2369 -0.7077
 3480SOL    HW221903   0.388   2.595   8.763 -0.1949 -0.0979  1.1995
 3481SOL     OW21904   0.964   2.993   3.480 -0.4509 -0.4077  0.4285
 3481SOL    HW121905   1.044   3.044   3.477 -1.5292  1.2375 -0.3260
 3481SOL    HW221906   0.916   3.031   3.554  1.5260  4.4786 -0.8317
 3482SOL     OW21907   3.382   2.944   5.778  0.1108 -0.9052  0.5134
 3482SOL    HW121908   3.295   2.908   5.761 -0.6462  1.0024  0.2468
 3482SOL    HW221909   3.393   3.013   5.712  1.7630 -0.2357  1.4989
 3483SOL     OW21910   0.833   2.588   4.906  0.3435 -0.2212  0.1890
 3483SOL    HW121911   0.852   2.512   4.851 -0.7293 -0.7159  0.4961
 3483SOL    HW221912   0.800   2.545   4.985  3.6082  2.2599  2.8738
 3484SOL     OW21913   2.409   3.911  16.500 -0.7963 -0.5229  0.2287
 3484SOL    HW121914   2.401   3.994  16.454 -0.1111  0.7238  2.3359
 3484SOL    HW221915   2.402   3.849  16.427 -0.2496 -3.2964  2.5066
 3485SOL     OW21916   0.990   0.357  12.333  0.6000 -0.3554  0.5499
 3485SOL    HW121917   1.064   0.307  12.366  3.2834  3.7386  0.7329
 3485SOL    HW221918   0.993   0.428  12.397  0.3811 -0.1785  0.3661
 3486SOL     OW21919   3.301   0.267   5.321 -0.1986 -0.2316 -0.1705
 3486SOL    HW121920   3.336   0.211   5.252 -2.9032 -1.1516 -0.7724
 3486SOL    HW221921   3.307   0.353   5.279 -1.2230  0.7341  1.6671
 3487SOL     OW21922   0.937   3.139   3.835  0.4866  0.3850 -0.0061
 3487SOL    HW121923   0.969   3.090   3.911  0.5283 -0.7693 -0.7630
 3487SOL    HW221924   0.947   3.228   3.867  0.0705  0.9745 -1.5163
 3488SOL     OW21925   4.455   4.224   4.627 -0.0297  0.3366  0.6030
 3488SOL    HW121926   4.470   4.266   4.543  2.7723  0.5134  1.2054
 3488SOL    HW221927   4.419   4.139   4.601 -0.7386  0.6839  0.4546
 3489SOL     OW21928   3.452   1.590   3.770  0.3143 -0.0781 -1.0345
 3489SOL    HW121929   3.510   1.641   3.713  0.2669 -0.7738 -1.7039
 3489SOL    HW221930   3.515   1.552   3.831  0.0118  1.0645 -0.0312
 3490SOL     OW21931   4.249   3.026   1.077 -0.2402  0.7490  0.0049
 3490SOL    HW121932   4.326   3.051   1.126 -1.2975  2.0086  1.0187
 3490SOL    HW221933   4.241   2.935   1.107  1.7113  0.6760  0.2688
 3491SOL     OW21934   1.967   0.624   7.021  0.1618 -0.4645 -0.7619
 3491SOL    HW121935   1.935   0.556   6.961  2.2000 -2.4501  0.3863
 3491SOL    HW221936   1.894   0.685   7.025 -0.0931 -1.0113  2.2701
 3492SOL     OW21937   1.392   1.359   9.540  0.1838  0.2842  0.3476
 3492SOL    HW121938   1.417   1.445   9.571  1.5620  0.3399 -0.9391
 3492SOL    HW221939   1.353   1.373   9.453  1.9753  1.1226 -0.3092
 3493SOL     OW21940   1.371   0.244   9.101  0.2399 -0.7111  0.1659
 3493SOL    HW121941   1.282   0.226   9.129 -0.6467  0.5146 -1.8125
 3493SOL    HW221942   1.387   0.314   9.165  1.2007 -2.6100  2.0052
 3494SOL     OW21943   3.400   3.333   4.092  0.2885  0.2776 -0.2946
 3494SOL    HW121944   3.377   3.419   4.057  0.8615 -0.5524 -2.7422
 3494SOL    HW221945   3.340   3.313   4.163  0.6218  1.4942  0.3258
 3495SOL     OW21946   2.930   0.207   3.643 -0.3595  0.0827  0.6169
 3495SOL    HW121947   2.898   0.180   3.728 -1.7609 -0.1332  0.0173
 3495SOL    HW221948   2.994   0.270   3.676  1.5172 -0.0686 -2.6919
 3496SOL     OW21949   1.945   4.394   5.839  0.1006 -0.1639 -0.1107
 3496SOL    HW121950   2.028   4.385   5.887  1.9479  1.1220 -3.1035
 3496SOL    HW221951   1.916   4.303   5.843 -3.1041  0.9176  0.8368
 3497SOL     OW21952   1.217   0.228   5.058 -0.3791  0.8852 -0.4710
 3497SOL    HW121953   1.181   0.161   5.000 -1.6020  1.2767 -0.1544
 3497SOL    HW221954   1.231   0.297   4.994  0.6855  0.9876 -0.1402
 3498SOL     OW21955   3.673   4.205  14.877 -0.0781 -0.3327  0.0843
 3498SOL    HW121956   3.702   4.195  14.786 -1.0337 -0.6963 -0.1878
 3498SOL    HW221957   3.753   4.226  14.925 -0.2772 -0.8059  0.6174
 3499SOL     OW21958   2.831   0.348   4.460 -0.3937 -0.3003 -0.3546
 3499SOL    HW121959   2.756   0.381   4.411 -0.3508  1.3889  0.7266
 3499SOL    HW221960   2.818   0.253   4.460  1.1056 -0.5067  0.1901
 3500SOL     OW21961   2.517   0.603   5.827 -0.4220  0.3084  0.0091
 3500SOL    HW121962   2.562   0.629   5.908 -0.4978  0.7477 -0.0880
 3500SOL    HW221963   2.468   0.525   5.853 -0.2761  0.0467 -0.5076
 3501SOL     OW21964   4.635   2.937   3.687  0.3660 -0.2089  0.3198
 3501SOL    HW121965   4.554   2.972   3.724 -0.4919  1.3800 -2.9904
 3501SOL    HW221966   4.652   2.864   3.746  2.1482  1.0030  1.3215
 3502SOL     OW21967   3.786   3.338   2.903 -0.2773  0.3560  0.1621
 3502SOL    HW121968   3.694   3.320   2.882 -0.3526  0.0409  0.7693
 3502SOL    HW221969   3.796   3.263   2.962  0.7617  0.4824  0.1400
 3503SOL     OW21970   0.759   0.738   7.966  0.1789 -0.1674  0.0517
 3503SOL    HW121971   0.722   0.703   7.885  0.1866 -3.0296  1.2660
 3503SOL    HW221972   0.742   0.663   8.024 -0.1020  1.1724  1.7315
 3504SOL     OW21973   4.077   4.403   9.460 -0.1242  0.3176 -0.9537
 3504SOL    HW121974   4.055   4.327   9.407 -0.3988 -0.7941  0.7500
 3504SOL    HW221975   4.016   4.388   9.532  3.5288 -1.6781  1.7513
 3505SOL     OW21976   1.299   3.497   8.079 -0.7129 -0.0295 -0.1011
 3505SOL    HW121977   1.235   3.565   8.061 -0.1777  0.4009 -0.3906
 3505SOL    HW221978   1.372   3.554   8.106 -1.7034  0.9157  0.5738
 3506SOL     OW21979   0.628   2.781   5.759 -0.0957 -0.0878 -0.1876
 3506SOL    HW121980   0.634   2.868   5.719 -0.7968 -0.6983 -1.5962
 3506SOL    HW221981   0.682   2.792   5.837  1.1510 -0.0297 -1.0653
 3507SOL     OW21982   3.139   0.475   7.274 -0.7299 -0.3414  0.2893
 3507SOL    HW121983   3.171   0.386   7.284  2.1216  1.0587  3.4702
 3507SOL    HW221984   3.084   0.483   7.196 -1.6727 -3.0184  0.7041
 3508SOL     OW21985   3.908   0.355   5.652  0.0507  0.1167  0.4548
 3508SOL    HW121986   3.946   0.281   5.699  0.8965 -0.3679 -0.9739
 3508SOL    HW221987   3.919   0.328   5.560 -1.2697  0.5078  0.1788
 3509SOL     OW21988   1.033   0.517   5.244 -0.0553 -0.1126 -0.7038
 3509SOL    HW121989   0.962   0.572   5.278  0.7039  0.2011  0.3823
 3509SOL    HW221990   1.003   0.476   5.164 -1.8912  1.8611 -1.0326
 3510SOL     OW21991   0.638   3.536   5.356  0.3621  0.0375  0.0313
 3510SOL    HW121992   0.686   3.513   5.436  0.4431  1.0835  0.2802
 3510SOL    HW221993   0.665   3.627   5.343  1.9993 -0.2650  1.3175
 3511SOL     OW21994   1.781   0.960  13.034 -0.5596  0.4303  0.2761
 3511SOL    HW121995   1.758   1.009  13.113 -0.3613  2.3216 -0.8377
 3511SOL    HW221996   1.794   0.871  13.065 -1.7159  0.0881 -0.2377
 3512SOL     OW21997   1.317   4.508  14.348 -0.0678  0.3724 -0.4542
 3512SOL    HW121998   1.324   4.573  14.279  1.4526  1.5644  0.8180
 3512SOL    HW221999   1.228   4.479  14.329 -0.3720  0.0047  1.5525
 3513SOL     OW22000   3.307   4.244   4.289 -0.6341 -0.5735 -0.1647
 3513SOL    HW122001   3.260   4.249   4.372 -0.6316  1.5483 -0.2868
 3513SOL    HW222002   3.246   4.286   4.229 -0.3979  1.2932  0.9003
 3514SOL     OW22003   3.607   4.716   8.968  0.2331  0.0629 -0.3765
 3514SOL    HW122004   3.538   4.654   8.994 -1.0507  1.7673  0.2481
 3514SOL    HW222005   3.640   4.666   8.893 -0.0678  0.1489 -0.5653
 3515SOL     OW22006   2.739   0.595   8.612 -0.0863  0.6992  0.0164
 3515SOL    HW122007   2.781   0.538   8.678 -2.1515  0.1328  0.8491
 3515SOL    HW222008   2.660   0.542   8.606  1.0854 -1.3290  2.2911
 3516SOL     OW22009   1.448   0.651   8.021 -0.4031 -0.0609  0.6783
 3516SOL    HW122010   1.375   0.713   8.031  0.0518  0.6033 -0.0695
 3516SOL    HW222011   1.480   0.676   7.934  1.8050  0.5706  1.6923
 3517SOL     OW22012   1.444   0.785  12.966 -0.4362  0.3871 -0.0537
 3517SOL    HW122013   1.458   0.876  12.940 -2.0956  0.8983  0.8299
 3517SOL    HW222014   1.360   0.766  12.924 -0.1006 -0.3068 -0.3933
 3518SOL     OW22015   1.298   3.133   6.066 -0.2207 -0.4998 -0.5049
 3518SOL    HW122016   1.261   3.133   5.978 -0.7171  0.6717 -0.2902
 3518SOL    HW222017   1.287   3.221   6.101 -0.5851 -0.4664 -0.7049
 3519SOL     OW22018   4.010   3.894  15.942  0.7074  0.0490  0.3795
 3519SOL    HW122019   3.937   3.894  16.004 -0.8695  2.5602 -1.4656
 3519SOL    HW222020   4.012   3.802  15.914  2.8442 -0.2943  1.6963
 3520SOL     OW22021   2.084   0.631   4.733 -0.2105 -0.0814 -0.6937
 3520SOL    HW122022   2.046   0.702   4.681  2.2273  1.2551 -0.6777
 3520SOL    HW222023   2.095   0.671   4.819 -0.3616  0.5624 -0.9725
 3521SOL     OW22024   0.185   0.490   8.652  0.0763 -0.0520 -0.4939
 3521SOL    HW122025   0.270   0.448   8.636  0.7652  0.0100  2.9349
 3521SOL    HW222026   0.140   0.499   8.568 -1.7646 -0.3058  0.4639
 3522SOL     OW22027   1.382   3.457   6.506  0.6173 -0.0194  0.5413
 3522SOL    HW122028   1.464   3.501   6.482  1.0209 -1.9997 -1.7897
 3522SOL    HW222029   1.416   3.399   6.574  0.3217 -0.2281  0.5116
 3523SOL     OW22030   2.426   0.560   6.335 -0.0496 -0.0746 -0.2881
 3523SOL    HW122031   2.409   0.637   6.281  1.8188  0.7008  0.2220
 3523SOL    HW222032   2.338   0.523   6.337 -0.6450  1.3889  1.3932
 3524SOL     OW22033   3.612   2.271   2.719  0.5184 -0.4354  0.9840
 3524SOL    HW122034   3.546   2.251   2.786  0.1260  0.7868  0.9648
 3524SOL    HW222035   3.568   2.334   2.661  1.0560  0.1477  1.2008
 3525SOL     OW22036   2.534   3.220  11.772 -0.4332  0.3724  0.3126
 3525SOL    HW122037   2.624   3.189  11.768 -1.8153 -3.4311 -1.5655
 3525SOL    HW222038   2.510   3.178  11.689 -1.8555 -1.6699  1.7549
 3526SOL     OW22039   2.737   2.845   1.583 -0.2113  0.1308 -0.1289
 3526SOL    HW122040   2.714   2.895   1.505 -0.5309 -0.1852 -0.2381
 3526SOL    HW222041   2.650   2.820   1.615 -0.2500 -0.8431 -0.9963
 3527SOL     OW22042   1.455   1.802   9.775 -0.1894 -0.1694 -0.2068
 3527SOL    HW122043   1.378   1.851   9.804 -0.9049  0.5693 -3.3326
 3527SOL    HW222044   1.421   1.740   9.710  1.3666  1.7866 -2.9157
 3528SOL     OW22045   0.794   2.807   3.334 -0.1547 -0.1317  0.3587
 3528SOL    HW122046   0.863   2.861   3.372 -0.5137  0.6464 -0.1053
 3528SOL    HW222047   0.729   2.821   3.402 -1.1980 -3.1760  0.0234
 3529SOL     OW22048   2.414   0.770  15.556 -0.1222  0.1304  0.2907
 3529SOL    HW122049   2.429   0.700  15.620  1.9054 -0.3972 -0.7553
 3529SOL    HW222050   2.431   0.846  15.612 -0.9775  0.5205  0.0216
 3530SOL     OW22051   2.780   4.372  15.318 -0.1349  0.8748 -0.6960
 3530SOL    HW122052   2.790   4.277  15.318  0.6193  0.9437  1.5872
 3530SOL    HW222053   2.869   4.401  15.298  0.9029 -0.3257  2.1191
 3531SOL     OW22054   1.349   1.143   4.110 -0.2365 -0.5048 -0.2403
 3531SOL    HW122055   1.289   1.185   4.171  1.2588 -0.6762  1.3867
 3531SOL    HW222056   1.338   1.048   4.114  0.4008 -0.6738 -2.7122
 3532SOL     OW22057   3.446   2.625   7.576 -0.3694  0.1227  0.6007
 3532SOL    HW122058   3.533   2.599   7.605  0.0345  1.0776  0.2677
 3532SOL    HW222059   3.466   2.715   7.548  1.1110 -0.1548  0.7749
 3533SOL     OW22060   1.691   1.856   9.907  0.0602  0.0811  0.6794
 3533SOL    HW122061   1.621   1.825   9.850  2.9300 -3.1509 -1.1302
 3533SOL    HW222062   1.641   1.897   9.978  0.2468  2.2071 -0.4408
 3534SOL     OW22063   3.688   2.462   7.152  0.2190  0.2510 -0.0886
 3534SOL    HW122064   3.693   2.531   7.219 -2.2751 -1.2023  1.5509
 3534SOL    HW222065   3.594   2.468   7.133  0.2283  0.5910 -0.0439
 3535SOL     OW22066   4.077   2.620   6.870  0.2897  0.4359 -0.3431
 3535SOL    HW122067   4.082   2.559   6.795 -1.1849 -0.2780  0.1233
 3535SOL    HW222068   4.031   2.559   6.928 -0.1320  1.2424  0.1677
 3536SOL     OW22069   4.322   3.447   5.207  0.3144  0.6842 -0.0519
 3536SOL    HW122070   4.318   3.373   5.268  2.4957  1.0168  0.4810
 3536SOL    HW222071   4.412   3.439   5.177  0.3876 -0.4841  0.4781
 3537SOL     OW22072   3.796   4.398   1.994 -0.5682  0.6525 -0.7736
 3537SOL    HW122073   3.744   4.374   2.071  0.3988 -1.1322 -0.6957
 3537SOL    HW222074   3.765   4.336   1.928 -1.2159  0.6314 -0.4531
 3538SOL     OW22075   2.545   1.327   3.702  0.1328  0.5941 -0.2078
 3538SOL    HW122076   2.572   1.326   3.610 -0.9489 -0.7159 -0.5270
 3538SOL    HW222077   2.487   1.250   3.708  1.6499 -0.6334 -1.3004
 3539SOL     OW22078   4.701   3.627   4.042  0.0657 -0.1486  0.0827
 3539SOL    HW122079   0.039   3.667   3.987  2.2188 -0.1938  2.6872
 3539SOL    HW222080   4.719   3.533   4.033  0.7928 -0.2056  2.0830
 3540SOL     OW22081   4.132   2.742   7.809 -0.2160  0.0244 -0.0175
 3540SOL    HW122082   4.175   2.712   7.889  1.1763 -0.1929 -0.8426
 3540SOL    HW222083   4.067   2.805   7.839  0.2308  0.5544 -0.1538
 3541SOL     OW22084   3.405   4.237  14.815 -0.1113 -0.1134 -0.7915
 3541SOL    HW122085   3.480   4.217  14.870  1.2191  1.1486 -2.1648
 3541SOL    HW222086   3.429   4.326  14.789 -0.9124  1.0780  2.6031
 3542SOL     OW22087   3.356   2.719   1.230 -0.1375 -0.4835  0.7993
 3542SOL    HW122088   3.267   2.684   1.223  0.8067 -1.9947 -3.3200
 3542SOL    HW222089   3.354   2.801   1.180  2.0570 -0.1225  1.3313
 3543SOL     OW22090   3.573   0.852   5.675  0.1445 -0.2711  0.5117
 3543SOL    HW122091   3.609   0.926   5.723 -1.3853 -1.0214  2.8292
 3543SOL    HW222092   3.527   0.809   5.747  0.0560 -2.2638 -0.7220
 3544SOL     OW22093   2.921   1.170   8.493 -0.6751  0.2729  0.0637
 3544SOL    HW122094   2.890   1.092   8.447  1.8362  1.2951 -3.4052
 3544SOL    HW222095   2.968   1.130   8.566 -1.8541  1.0150  1.2219
 3545SOL     OW22096   0.058   4.250   6.862 -0.1462  0.0515  0.6891
 3545SOL    HW122097   4.708   4.201   6.885 -1.1666  1.2375 -0.3152
 3545SOL    HW222098   0.038   4.330   6.910  1.2319  0.7160  0.1508
 3546SOL     OW22099   4.133   4.560  17.013  0.3333 -0.1833  0.1570
 3546SOL    HW122100   4.079   4.628  17.053 -0.1281  0.4241 -1.4992
 3546SOL    HW222101   4.204   4.610  16.973  0.3143  0.1950  0.5955
 3547SOL     OW22102   3.397   1.757   3.334  0.6011  0.0138 -0.2138
 3547SOL    HW122103   3.490   1.779   3.326 -0.2667  4.4102  1.7835
 3547SOL    HW222104   3.362   1.799   3.255 -1.2045 -1.3775 -0.1495
 3548SOL     OW22105   1.712   3.528  15.652 -0.3132 -0.1158 -0.3230
 3548SOL    HW122106   1.772   3.453  15.651  0.6074  0.6200  0.4194
 3548SOL    HW222107   1.693   3.534  15.745  0.0832 -1.1788 -0.1749
 3549SOL     OW22108   0.552   2.091  10.702  0.2949 -0.0117 -0.5033
 3549SOL    HW122109   0.517   2.045  10.626  2.7242 -2.6748  0.0176
 3549SOL    HW222110   0.564   2.020  10.765 -0.4826 -1.1190 -1.6110
 3550SOL     OW22111   0.235   4.422   9.315 -0.5869 -0.0557 -0.1949
 3550SOL    HW122112   0.296   4.383   9.252 -0.7756 -0.9811  0.2066
 3550SOL    HW222113   0.233   4.511   9.279 -0.4732  0.5524  1.2898
 3551SOL     OW22114   2.563   3.565   7.341  0.6061 -0.0772  0.2425
 3551SOL    HW122115   2.642   3.579   7.393  1.0397  0.9482 -0.6976
 3551SOL    HW222116   2.505   3.634   7.373 -0.2153 -1.5996  2.0866
 3552SOL     OW22117   2.395   1.937   0.992 -0.6795  0.1145  0.3691
 3552SOL    HW122118   2.385   1.848   0.961  0.3092  0.0641  0.1735
 3552SOL    HW222119   2.348   1.979   0.921 -0.4193 -0.9691 -0.4273
 3553SOL     OW22120   3.979   0.221   3.633  0.1905 -0.3377  0.3932
 3553SOL    HW122121   4.040   0.294   3.646 -0.7109  0.5397 -0.3541
 3553SOL    HW222122   3.955   0.196   3.723  1.8596 -0.9125  0.6686
 3554SOL     OW22123   0.795   0.641   7.149 -0.4083 -0.2884 -0.3809
 3554SOL    HW122124   0.860   0.635   7.219 -1.8288 -0.0506  0.9515
 3554SOL    HW222125   0.772   0.734   7.146  0.1585 -0.1347 -0.0820
 3555SOL     OW22126   2.652   1.644   3.013 -0.0276  0.3736  0.6538
 3555SOL    HW122127   2.726   1.582   3.013 -1.3496 -1.2119  0.0089
 3555SOL    HW222128   2.689   1.702   2.947  0.6153  0.8778  1.4628
 3556SOL     OW22129   1.325   2.320   7.988 -0.1629 -0.0581 -0.4476
 3556SOL    HW122130   1.253   2.368   8.029  0.7933  2.1607 -1.3862
 3556SOL    HW222131   1.366   2.284   8.067 -0.7295 -0.3387 -0.2824
 3557SOL     OW22132   0.784   2.659  16.228  0.1312  0.8687  0.1331
 3557SOL    HW122133   0.689   2.659  16.211  0.0227  2.6611  0.6660
 3557SOL    HW222134   0.789   2.751  16.201  0.4354  1.1512  1.1429
 3558SOL     OW22135   1.728   4.421   8.910  0.0806 -0.2566 -0.5122
 3558SOL    HW122136   1.789   4.494   8.910 -2.0883  1.5654 -0.6304
 3558SOL    HW222137   1.678   4.440   8.831 -0.3679 -1.0598 -0.4261
 3559SOL     OW22138   2.116   2.475   4.859 -0.1503 -0.7515 -0.4516
 3559SOL    HW122139   2.063   2.462   4.938 -0.4080 -1.5731 -0.7652
 3559SOL    HW222140   2.062   2.424   4.799 -0.9407 -0.2641 -0.1535
 3560SOL     OW22141   1.673   1.604   8.711 -1.0530  0.0876 -0.1218
 3560SOL    HW122142   1.611   1.534   8.690 -0.7496  0.2932 -1.7156
 3560SOL    HW222143   1.746   1.578   8.655  0.2235  1.0798  1.0882
 3561SOL     OW22144   3.257   4.510   5.178 -0.0791  0.4542 -0.0119
 3561SOL    HW122145   3.255   4.535   5.086  1.8354  1.9084  0.3407
 3561SOL    HW222146   3.277   4.416   5.180  1.3884  0.7586 -0.3915
 3562SOL     OW22147   4.544   4.017   4.275  0.5807 -0.3370 -0.3797
 3562SOL    HW122148   4.564   3.934   4.231  3.1903  1.2920 -2.2849
 3562SOL    HW222149   4.631   4.057   4.286 -0.2263  1.5096 -0.8277
 3563SOL     OW22150   3.780   4.629   9.976  0.2924 -0.4392  0.1517
 3563SOL    HW122151   3.732   4.551  10.004 -0.1353  0.1315  0.9950
 3563SOL    HW222152   3.806   4.584   9.895 -4.4244 -0.2661 -1.4360
 3564SOL     OW22153   2.059   1.387   8.525  0.3441  0.0053 -0.4235
 3564SOL    HW122154   2.138   1.435   8.548  0.6333  0.4643 -2.3640
 3564SOL    HW222155   2.060   1.307   8.577 -0.1819 -1.5264 -2.7584
 3565SOL     OW22156   4.392   1.154   4.882 -0.0399 -0.1643  0.3596
 3565SOL    HW122157   4.430   1.168   4.969  2.2769 -2.1312 -0.3448
 3565SOL    HW222158   4.306   1.186   4.907 -0.3759  0.0796 -1.1446
 3566SOL     OW22159   2.055   4.008   1.118  0.0593 -0.5198  0.3502
 3566SOL    HW122160   1.998   3.974   1.048 -0.0453 -0.1037  0.2317
 3566SOL    HW222161   2.130   4.046   1.072 -0.4600 -1.0039 -0.9017
 3567SOL     OW22162   1.442   1.668   3.064  0.2778 -0.3756  0.2079
 3567SOL    HW122163   1.391   1.588   3.061 -0.6022  0.1942  0.1135
 3567SOL    HW222164   1.513   1.649   3.125  1.6190  0.7344 -0.9735
 3568SOL     OW22165   3.960   3.932   5.823  0.0380 -0.3730 -0.3041
 3568SOL    HW122166   3.957   3.907   5.730 -1.2775  1.7197 -0.8403
 3568SOL    HW222167   3.867   3.941   5.843 -0.1679 -0.5171 -1.1915
 3569SOL     OW22168   3.224   2.729  15.954 -0.5497 -0.3004 -0.3958
 3569SOL    HW122169   3.201   2.781  16.031  0.8393  0.1680 -0.2889
 3569SOL    HW222170   3.303   2.775  15.925  1.5571 -2.3271  2.0608
 3570SOL     OW22171   3.206   0.971   7.152 -1.1147 -0.3481  0.5691
 3570SOL    HW122172   3.225   1.043   7.092 -1.5461 -0.1314  0.6899
 3570SOL    HW222173   3.267   0.905   7.119  0.8201  1.5973  0.2808
 3571SOL     OW22174   4.647   2.638   6.178 -0.5401  0.3483 -0.0110
 3571SOL    HW122175   4.624   2.688   6.256  0.5079  0.6462  0.0924
 3571SOL    HW222176   4.572   2.666   6.125 -0.0993  0.5722 -0.5054
 3572SOL     OW22177   1.158   1.708  15.294 -0.3338 -0.1806  0.4480
 3572SOL    HW122178   1.222   1.732  15.226 -0.1428 -2.0613 -0.0513
 3572SOL    HW222179   1.151   1.613  15.290  0.6873 -0.3221  2.1636
 3573SOL     OW22180   2.231   4.446   8.235  0.1299 -0.0477  0.0870
 3573SOL    HW122181   2.204   4.458   8.326  0.4529 -0.5035  0.2394
 3573SOL    HW222182   2.321   4.421   8.254  0.6492  1.9479  0.3231
 3574SOL     OW22183   2.056   1.852   0.646 -0.2934 -0.2210  0.3942
 3574SOL    HW122184   2.025   1.763   0.665 -0.2505 -0.1534  0.7683
 3574SOL    HW222185   1.980   1.908   0.662 -2.2702 -3.1935  1.4485
 3575SOL     OW22186   3.166   3.448  10.085  0.1246 -0.0714  0.0061
 3575SOL    HW122187   3.230   3.387  10.047  1.2229  1.3426 -0.4102
 3575SOL    HW222188   3.084   3.408  10.056  0.6187  0.0394 -1.5638
 3576SOL     OW22189   0.526   1.183   1.695 -0.3863  0.4717  0.5290
 3576SOL    HW122190   0.441   1.169   1.654 -0.3748  2.5697 -0.1898
 3576SOL    HW222191   0.501   1.158   1.784  2.1652 -1.7077  0.6363
 3577SOL     OW22192   0.797   4.492   5.451 -0.2221 -0.1518  0.0096
 3577SOL    HW122193   0.733   4.563   5.462 -0.8993 -0.7965  0.2311
 3577SOL    HW222194   0.790   4.445   5.534 -3.3969 -2.5964 -1.6374
 3578SOL     OW22195   3.730   4.640   6.502 -1.0035 -0.0373  0.3557
 3578SOL    HW122196   3.786   4.613   6.429 -1.0639 -2.1822  1.1037
 3578SOL    HW222197   3.720   0.003   6.476 -0.6020  0.1473  0.8502
 3579SOL     OW22198   4.556   1.650   4.040  0.2644  0.2704 -0.5053
 3579SOL    HW122199   4.567   1.557   4.059 -4.1872 -0.2994 -0.6942
 3579SOL    HW222200   4.620   1.669   3.971  1.8160 -1.2656  0.5139
 3580SOL     OW22201   2.335   1.665   4.561  0.0403  0.4227 -0.0719
 3580SOL    HW122202   2.357   1.598   4.496 -0.0521  2.0039 -1.7559
 3580SOL    HW222203   2.240   1.657   4.560 -0.0523  1.6772 -2.0179
 3581SOL     OW22204   0.590   0.497   4.184  0.0016  0.2219  0.2673
 3581SOL    HW122205   0.656   0.459   4.126  0.2128  0.0496  0.6204
 3581SOL    HW222206   0.633   0.571   4.227 -1.4208  0.7501  0.8088
 3582SOL     OW22207   0.130   2.436   4.548 -0.3705 -0.2668 -0.1434
 3582SOL    HW122208   0.143   2.529   4.565  1.2885 -1.1602  3.4289
 3582SOL    HW222209   0.194   2.412   4.615 -1.3977 -0.3400  0.8168
 3583SOL     OW22210   1.422   2.164   3.597 -0.6191  0.0536  0.1719
 3583SOL    HW122211   1.340   2.119   3.574 -1.8794  1.4462  1.8860
 3583SOL    HW222212   1.475   2.096   3.637  0.5503  0.2793 -1.0054
 3584SOL     OW22213   0.555   0.824   3.579  0.2714 -0.1052 -0.6588
 3584SOL    HW122214   0.554   0.846   3.486 -0.1101  1.0466 -0.3763
 3584SOL    HW222215   0.469   0.845   3.616 -0.2289 -0.2833 -1.7159
 3585SOL     OW22216   1.498   3.841   6.694  0.1861 -0.6236 -0.4856
 3585SOL    HW122217   1.475   3.869   6.782 -1.8625  0.0676 -1.2331
 3585SOL    HW222218   1.545   3.920   6.667 -1.5242  0.1088 -1.3231
 3586SOL     OW22219   3.137   4.166   3.258  0.5449 -0.2126 -0.1066
 3586SOL    HW122220   3.057   4.120   3.284  1.6736 -0.8710  2.2289
 3586SOL    HW222221   3.088   4.231   3.208 -1.3099 -1.2084  0.4325
 3587SOL     OW22222   3.062   0.276  10.594  0.1054 -0.2212  0.1505
 3587SOL    HW122223   3.072   0.347  10.532 -1.0353  0.7728  1.1057
 3587SOL    HW222224   3.150   0.239  10.604  0.1735 -0.0625  0.1346
 3588SOL     OW22225   1.015   2.073   0.213  0.3337  0.2088 -0.0737
 3588SOL    HW122226   1.103   2.039   0.228  0.7848  0.0979 -2.9465
 3588SOL    HW222227   0.987   2.025   0.135  1.2154  0.4923 -0.5573
 3589SOL     OW22228   2.247   1.850   4.256 -0.0227 -0.3073 -0.2741
 3589SOL    HW122229   2.244   1.944   4.239 -1.7512 -0.8298 -2.8757
 3589SOL    HW222230   2.338   1.827   4.277  0.5833  1.9219 -0.4864
 3590SOL     OW22231   2.195   4.222  11.744 -0.0980  0.0276  0.1831
 3590SOL    HW122232   2.191   4.317  11.753 -1.1817 -0.3075  3.0269
 3590SOL    HW222233   2.289   4.209  11.758  0.3734  1.4735 -1.4920
 3591SOL     OW22234   2.798   4.222  12.719  0.0143 -0.0909 -0.5215
 3591SOL    HW122235   2.815   4.315  12.736 -1.4555  0.1977 -0.6352
 3591SOL    HW222236   2.890   4.202  12.737  0.4913  2.7649  0.1856
 3592SOL     OW22237   3.888   0.202   2.595  0.4628  0.1164  0.1721
 3592SOL    HW122238   3.818   0.188   2.532 -0.4121 -2.1202  1.6537
 3592SOL    HW222239   3.964   0.174   2.544 -0.1045 -1.0417 -0.0429
 3593SOL     OW22240   2.112   2.340  10.966 -0.1547 -0.4877  0.2649
 3593SOL    HW122241   2.043   2.290  11.011  0.6483 -0.2312  1.7832
 3593SOL    HW222242   2.091   2.325  10.874  0.7962  1.9664 -0.3438
 3594SOL     OW22243   3.306   0.219  15.218 -0.5934 -0.0343  0.3612
 3594SOL    HW122244   3.338   0.183  15.135 -1.5959  0.5659 -0.2871
 3594SOL    HW222245   3.375   0.283  15.234  0.5430 -0.5907 -2.2404
 3595SOL     OW22246   3.507   4.426  16.667 -0.3958 -0.3138 -0.2204
 3595SOL    HW122247   3.419   4.391  16.684 -0.0973 -1.1386 -0.3933
 3595SOL    HW222248   3.531   4.477  16.744 -0.5268 -0.0572 -0.3491
 3596SOL     OW22249   1.132   2.203   5.699  0.4332  0.1565 -0.0318
 3596SOL    HW122250   1.161   2.291   5.674  0.0035  0.4172  0.3911
 3596SOL    HW222251   1.182   2.179   5.778  0.4143  0.0245 -0.0607
 3597SOL     OW22252   3.814   0.406   4.147 -0.4359 -0.5978  0.4757
 3597SOL    HW122253   3.817   0.488   4.097  1.0637 -1.1299 -0.3081
 3597SOL    HW222254   3.734   0.429   4.195 -0.8253  2.3252 -1.5232
 3598SOL     OW22255   3.553   2.353  11.648  0.6167  0.4954 -0.1056
 3598SOL    HW122256   3.484   2.401  11.694 -0.7388  0.0010 -1.6247
 3598SOL    HW222257   3.561   2.403  11.566  0.8088  1.3360  0.4250
 3599SOL     OW22258   1.083   3.938  16.934  0.7060  0.1694 -0.1439
 3599SOL    HW122259   1.066   3.844  16.928 -2.6037  0.7729 -0.2130
 3599SOL    HW222260   1.007   3.968  16.985 -0.9285 -1.1102 -1.8300
 3600SOL     OW22261   0.213   1.128   5.514  0.1303  0.2763  0.3685
 3600SOL    HW122262   0.159   1.197   5.553 -1.1682 -1.0353  0.8888
 3600SOL    HW222263   0.267   1.108   5.590  0.7103  2.3884  0.5144
 3601SOL     OW22264   1.483   4.276   6.441 -0.1770  0.0802  0.3701
 3601SOL    HW122265   1.435   4.250   6.363 -0.5451  1.2842  0.1839
 3601SOL    HW222266   1.415   4.321   6.492 -2.7066 -1.5846 -1.5221
 3602SOL     OW22267   3.354   2.408  11.822 -0.0306  0.3552  0.3562
 3602SOL    HW122268   3.287   2.464  11.861 -0.8050 -1.7049  1.9978
 3602SOL    HW222269   3.366   2.333  11.880  3.0304 -0.9159 -1.9300
 3603SOL     OW22270   2.482   4.490   3.460  0.0490  0.1996  0.2827
 3603SOL    HW122271   2.447   4.439   3.387 -2.5642  1.0578  0.9603
 3603SOL    HW222272   2.401   4.514   3.504 -0.4705 -0.2438 -0.4462
 3604SOL     OW22273   2.071   0.210  16.342  0.5497  0.3538 -0.6783
 3604SOL    HW122274   2.100   0.229  16.431 -1.4830 -2.6326  0.6187
 3604SOL    HW222275   2.019   0.289  16.329  2.7227  1.5033 -2.2670
 3605SOL     OW22276   1.749   2.842   6.263  0.5291 -0.3851 -0.2296
 3605SOL    HW122277   1.667   2.794   6.272  0.8074 -0.6835  0.7041
 3605SOL    HW222278   1.812   2.807   6.326 -2.0110 -1.3351  1.7341
 3606SOL     OW22279   3.461   3.219   6.806 -0.3239 -0.2924 -0.1386
 3606SOL    HW122280   3.481   3.309   6.778 -3.5293 -0.3891 -2.7348
 3606SOL    HW222281   3.430   3.190   6.720  0.2674 -0.4047 -0.3132
 3607SOL     OW22282   1.473   1.690   4.649 -0.6736 -0.7049 -0.2670
 3607SOL    HW122283   1.407   1.638   4.694 -1.0437 -0.8939 -1.0179
 3607SOL    HW222284   1.421   1.770   4.661  1.9002  1.0063 -0.5957
 3608SOL     OW22285   0.515   4.546   1.314  0.2968  0.2626  0.9845
 3608SOL    HW122286   0.522   4.609   1.243 -0.6292  0.4771  1.0904
 3608SOL    HW222287   0.432   4.577   1.350  0.5086  0.7368  1.0605
 3609SOL     OW22288   3.952   0.397  10.358 -0.5266  0.9590  0.5347
 3609SOL    HW122289   4.035   0.434  10.329 -0.0159  0.5917  1.5295
 3609SOL    HW222290   3.926   0.346  10.282 -1.2559  1.5015  0.4195
 3610SOL     OW22291   1.094   4.028   3.573 -0.2843 -0.2907 -0.8647
 3610SOL    HW122292   1.156   4.070   3.633  0.0331 -1.2294 -0.5335
 3610SOL    HW222293   1.160   3.978   3.524  1.3378  2.7384 -1.7708
 3611SOL     OW22294   0.947   1.155  10.482  0.1772  0.0656  0.1000
 3611SOL    HW122295   0.978   1.235  10.525 -0.5213 -0.2540  1.2052
 3611SOL    HW222296   0.944   1.089  10.551  1.0746  0.0849  0.1512
 3612SOL     OW22297   0.868   4.399   3.540  0.1270  0.1047 -0.1687
 3612SOL    HW122298   0.895   4.307   3.543  0.8745  0.3897  1.7251
 3612SOL    HW222299   0.855   4.413   3.446  0.8333 -0.3747 -0.3450
 3613SOL     OW22300   4.099   2.747   8.262  0.2464 -0.4781 -0.0894
 3613SOL    HW122301   4.033   2.816   8.263  1.6676  0.8046  2.3709
 3613SOL    HW222302   4.179   2.800   8.265  0.7342 -1.2299  0.3389
 3614SOL     OW22303   4.063   2.650   0.381 -0.1004 -0.3337  0.0312
 3614SOL    HW122304   4.100   2.562   0.378  1.4571  0.2777  1.5475
 3614SOL    HW222305   4.115   2.698   0.317 -1.9157  2.2005  0.4606
 3615SOL     OW22306   1.281   1.799   7.173  0.1955 -0.7092  0.2508
 3615SOL    HW122307   1.349   1.855   7.135  2.5351 -2.8098  1.3379
 3615SOL    HW222308   1.288   1.818   7.266  1.0339  1.7778 -0.3083
 3616SOL     OW22309   1.361   2.288   9.590  0.7120 -0.2412  0.0512
 3616SOL    HW122310   1.448   2.249   9.580  0.4924 -1.0022  1.0864
 3616SOL    HW222311   1.382   2.373   9.552  1.1000  0.5858  2.1232
 3617SOL     OW22312   4.628   2.073   8.817 -0.5743 -0.0949 -0.6473
 3617SOL    HW122313   4.672   2.031   8.890 -2.1916  1.3583  1.1628
 3617SOL    HW222314   4.656   2.019   8.744 -1.7947 -0.0980 -1.1215
 3618SOL     OW22315   1.544   4.716  10.488 -0.1223  0.2159  0.4734
 3618SOL    HW122316   1.636   4.693  10.499  0.5951  2.0565 -1.6543
 3618SOL    HW222317   1.543   0.062  10.547 -1.2176 -0.1482  0.9276
 3619SOL     OW22318   4.010   2.845  10.356 -0.2653  0.4280  0.2999
 3619SOL    HW122319   4.083   2.907  10.358 -0.3373  0.4991  0.9569
 3619SOL    HW222320   3.993   2.838  10.262  1.1312  1.6135 -0.0385
 3620SOL     OW22321   2.458   2.804   3.396  0.6557  0.0184 -0.1613
 3620SOL    HW122322   2.370   2.839   3.407  0.5525 -0.2337 -0.1626
 3620SOL    HW222323   2.463   2.786   3.302 -1.3190 -1.0228 -0.0815
 3621SOL     OW22324   0.628   1.100   5.880  0.0643  0.2700 -0.2050
 3621SOL    HW122325   0.663   1.017   5.913  0.3944  0.8754  0.9554
 3621SOL    HW222326   0.692   1.112   5.810 -0.6695 -3.3450 -1.5145
 3622SOL     OW22327   4.270   1.575   1.655 -0.6451  0.1548 -0.2242
 3622SOL    HW122328   4.366   1.573   1.658 -0.5975 -1.6635 -2.8704
 3622SOL    HW222329   4.230   1.649   1.611 -0.8705  0.1542 -0.0192
 3623SOL     OW22330   2.305   2.403   5.254 -0.3603  0.0362  0.5768
 3623SOL    HW122331   2.393   2.389   5.220 -1.0893 -1.6026 -0.6562
 3623SOL    HW222332   2.288   2.492   5.222 -0.8529 -0.0468  0.5989
 3624SOL     OW22333   0.016   2.541   3.458  0.1929 -0.0579  0.0966
 3624SOL    HW122334   0.037   2.550   3.551  1.9843 -1.7692 -0.1252
 3624SOL    HW222335   0.071   2.616   3.436 -1.6791  1.3756  0.2998
 3625SOL     OW22336   0.633   1.986   8.122  0.0327  0.3244 -0.3437
 3625SOL    HW122337   0.544   1.985   8.155  0.0032 -1.0194 -0.4660
 3625SOL    HW222338   0.692   2.016   8.192  0.4462 -0.3466 -0.4012
 3626SOL     OW22339   3.560   3.908   5.430  0.1040  0.2395  0.5116
 3626SOL    HW122340   3.530   3.831   5.479 -0.7906 -0.2738 -0.8451
 3626SOL    HW222341   3.633   3.871   5.380  0.0463 -0.6379  1.0811
 3627SOL     OW22342   2.654   4.527   6.156  0.1164  0.0135  0.0367
 3627SOL    HW122343   2.654   4.529   6.252 -0.8431  1.9513 -0.0002
 3627SOL    HW222344   2.562   4.506   6.138 -0.6505  1.5106  2.1960
 3628SOL     OW22345   2.547   0.607  10.340  0.0557 -1.2270  0.0640
 3628SOL    HW122346   2.587   0.691  10.317 -0.5178 -0.5037  1.7337
 3628SOL    HW222347   2.580   0.594  10.429  1.7668 -0.8755 -0.5215
 3629SOL     OW22348   0.948   3.770   4.507 -0.2457 -0.4879 -0.0690
 3629SOL    HW122349   0.920   3.759   4.598  1.4576  0.0213  0.5076
 3629SOL    HW222350   0.874   3.811   4.463  0.7429 -0.2198 -1.4793
 3630SOL     OW22351   0.386   3.350  17.101  0.2130  0.6071 -0.1894
 3630SOL    HW122352   0.357   3.280  17.159  0.0826 -0.7809 -1.9182
 3630SOL    HW222353   0.317   3.339  17.035  0.6292 -2.5964 -0.1109
 3631SOL     OW22354   0.478   2.697  13.485 -0.3630 -0.0372  0.2127
 3631SOL    HW122355   0.564   2.740  13.489 -0.7250  0.4670  2.3329
 3631SOL    HW222356   0.439   2.719  13.400 -0.1731 -1.1995 -0.1889
 3632SOL     OW22357   2.853   2.817   3.157 -1.4365 -0.4953  0.0496
 3632SOL    HW122358   2.860   2.781   3.069  1.7463  0.5124 -0.1370
 3632SOL    HW222359   2.933   2.870   3.158 -1.4280 -0.4669 -2.0856
 3633SOL     OW22360   1.962   1.145   3.233  0.4503  0.0667 -0.0766
 3633SOL    HW122361   2.031   1.211   3.223 -0.0710  0.8155  1.3450
 3633SOL    HW222362   1.884   1.191   3.199 -0.0545 -4.1233 -4.6902
 3634SOL     OW22363   3.441   2.978   3.294 -0.1766  0.3529 -0.2367
 3634SOL    HW122364   3.495   2.907   3.329  0.9306  0.7884 -1.0374
 3634SOL    HW222365   3.508   3.042   3.270  0.6989  0.0269  1.3329
 3635SOL     OW22366   2.461   0.118   3.549  0.4543  0.4905 -0.2519
 3635SOL    HW122367   2.554   0.109   3.571 -0.2777 -0.1385  2.5428
 3635SOL    HW222368   2.425   0.064   3.619  1.4533 -0.7320 -0.6713
 3636SOL     OW22369   3.057   4.158  12.797  0.2964 -0.0736 -0.0951
 3636SOL    HW122370   3.120   4.227  12.819  1.1954 -0.9460  0.0378
 3636SOL    HW222371   3.091   4.088  12.853 -0.5208 -0.3628  0.0339
 3637SOL     OW22372   1.955   3.331   5.174  0.4418  0.2474 -0.4641
 3637SOL    HW122373   1.891   3.264   5.195 -0.0638  0.7409 -0.4280
 3637SOL    HW222374   1.900   3.405   5.146  0.4163  0.2826 -0.3207
 3638SOL     OW22375   1.332   3.910  16.841 -0.7223 -0.1618 -0.0010
 3638SOL    HW122376   1.242   3.933  16.864 -0.2414 -0.6206  2.3608
 3638SOL    HW222377   1.373   3.988  16.878 -0.2132  0.0599 -1.0364
 3639SOL     OW22378   4.138   3.039   3.670 -0.5660  0.0593 -0.1071
 3639SOL    HW122379   4.109   2.960   3.715  1.8922 -1.6657 -1.5753
 3639SOL    HW222380   4.058   3.091   3.657  0.7334  2.1075  0.0944
 3640SOL     OW22381   3.228   1.433   5.284 -0.1381 -0.1578  0.1256
 3640SOL    HW122382   3.168   1.507   5.272 -0.0123 -0.1943 -0.7201
 3640SOL    HW222383   3.163   1.366   5.305  0.0026 -0.1092  0.6921
 3641SOL     OW22384   1.298   2.324   5.909 -0.1406 -0.2049  0.8204
 3641SOL    HW122385   1.223   2.315   5.968 -1.4740  0.5662 -0.7536
 3641SOL    HW222386   1.306   2.419   5.901  1.2681 -0.3254  0.8554
 3642SOL     OW22387   4.420   1.479   6.243 -0.2626  0.1028  0.3497
 3642SOL    HW122388   4.427   1.414   6.313 -0.3573  0.8234  1.0284
 3642SOL    HW222389   4.493   1.451   6.188 -0.8554 -1.3363  0.2658
 3643SOL     OW22390   2.654   2.583   5.795  0.2143  0.4719  0.3846
 3643SOL    HW122391   2.620   2.520   5.858 -2.2042  1.1154 -0.2997
 3643SOL    HW222392   2.745   2.586   5.825 -0.2830 -0.2465  1.9565
 3644SOL     OW22393   2.162   2.783   2.596  0.0986  0.8870  0.7327
 3644SOL    HW122394   2.225   2.746   2.535 -1.0008 -1.7117  1.1896
 3644SOL    HW222395   2.184   2.724   2.669 -1.5460 -1.7733 -0.9390
 3645SOL     OW22396   0.608   3.581  13.948 -0.2485 -0.0206  0.1944
 3645SOL    HW122397   0.648   3.550  14.029 -0.1309  1.4330  0.6839
 3645SOL    HW222398   0.666   3.650  13.918  0.4937  0.2344  2.2344
 3646SOL     OW22399   1.966   2.557  15.059 -0.2865 -0.0501 -0.1426
 3646SOL    HW122400   1.980   2.481  15.115  1.0517  0.8839  0.7905
 3646SOL    HW222401   1.943   2.515  14.976 -1.0571 -3.5488  1.8555
 3647SOL     OW22402   2.029   2.341   6.388 -0.3432 -0.0918 -0.6013
 3647SOL    HW122403   2.118   2.309   6.403  0.4514  2.3792 -0.1290
 3647SOL    HW222404   2.023   2.420   6.442 -0.9487  0.9817 -2.2380
 3648SOL     OW22405   2.176   0.312   5.256  0.1906 -0.0078  0.2719
 3648SOL    HW122406   2.131   0.389   5.222  0.7072 -0.8568 -2.2953
 3648SOL    HW222407   2.265   0.335   5.231 -0.1963 -0.2472 -1.2743
 3649SOL     OW22408   1.713   3.411   8.223 -0.0589 -0.2533 -0.2029
 3649SOL    HW122409   1.627   3.378   8.196 -0.1041  0.7096 -1.2532
 3649SOL    HW222410   1.748   3.418   8.134  0.1399  1.0065 -0.0286
 3650SOL     OW22411   1.436   2.477  10.223  0.4367  0.5364 -0.8911
 3650SOL    HW122412   1.431   2.398  10.170  0.2240 -1.1746  1.6846
 3650SOL    HW222413   1.488   2.530  10.162  0.6386 -0.6802 -1.7715
 3651SOL     OW22414   1.008   2.630   5.167 -0.2647  0.1313 -0.4564
 3651SOL    HW122415   0.953   2.605   5.093 -1.3012 -0.9502  0.6901
 3651SOL    HW222416   0.952   2.689   5.217  1.0133  0.0880  0.9960
 3652SOL     OW22417   4.453   0.127  10.684  0.0889  0.5192  0.1885
 3652SOL    HW122418   4.429   0.100  10.772  2.3533 -2.4189 -0.1125
 3652SOL    HW222419   4.534   0.078  10.667 -1.6013 -1.7902 -1.1761
 3653SOL     OW22420   0.302   4.289   3.571 -0.2332 -0.3970 -0.9315
 3653SOL    HW122421   0.299   4.224   3.500  0.1413  0.7243 -1.9861
 3653SOL    HW222422   0.333   4.364   3.520 -0.7334  0.7991  0.5537
 3654SOL     OW22423   4.299   1.692  17.519  0.0336  0.0224 -0.1413
 3654SOL    HW122424   4.221   1.670  17.468 -0.6686  0.9847  0.5183
 3654SOL    HW222425   4.297   1.622  17.586 -1.0409 -2.4808 -2.7755
 3655SOL     OW22426   2.051   3.729   0.503  0.3496 -0.0167 -0.3303
 3655SOL    HW122427   2.067   3.675   0.580 -1.7452  0.5693  0.5340
 3655SOL    HW222428   1.956   3.741   0.502  0.3733  0.2360  0.2310
 3656SOL     OW22429   1.254   0.629   4.042  0.0157  0.3795 -0.7796
 3656SOL    HW122430   1.325   0.623   4.105 -0.8185 -0.0094  0.1059
 3656SOL    HW222431   1.251   0.543   4.001  0.1990  0.7340 -1.5515
 3657SOL     OW22432   1.549   0.575   3.509 -0.3779 -0.3813 -0.5349
 3657SOL    HW122433   1.516   0.548   3.595  0.8345  0.1973  0.1079
 3657SOL    HW222434   1.475   0.545   3.456 -1.4787  0.7402  0.3760
 3658SOL     OW22435   4.091   0.902   8.981  0.0313  0.0488 -0.1597
 3658SOL    HW122436   4.184   0.888   9.000 -0.1882  0.9992  1.6239
 3658SOL    HW222437   4.062   0.923   9.070  1.1535  0.3307  0.1432
 3659SOL     OW22438   1.657   0.191   1.610  0.0758  0.0571 -0.8748
 3659SOL    HW122439   1.615   0.174   1.694  1.9981  1.2529  0.3225
 3659SOL    HW222440   1.742   0.231   1.630  0.1186  0.9689 -2.9101
 3660SOL     OW22441   3.220   2.219   1.203 -0.4660 -0.2471  0.0231
 3660SOL    HW122442   3.162   2.152   1.238 -1.3379  1.2833  1.4638
 3660SOL    HW222443   3.153   2.287   1.200  0.9329  1.0436 -2.5723
 3661SOL     OW22444   2.534   0.280   7.853 -0.3721 -0.6821 -0.2930
 3661SOL    HW122445   2.574   0.284   7.766  0.7966  1.3674  0.3386
 3661SOL    HW222446   2.552   0.370   7.878 -0.0467 -0.7702 -0.2103
 3662SOL     OW22447   1.798   2.681   4.545  0.1663 -0.0080  0.1673
 3662SOL    HW122448   1.779   2.593   4.578  1.1109 -0.8791 -1.6497
 3662SOL    HW222449   1.836   2.728   4.619 -2.0247  1.6520  0.2396
 3663SOL     OW22450   2.775   1.337  14.422  0.0232  0.4468 -0.1271
 3663SOL    HW122451   2.870   1.337  14.409 -0.4325  0.0002 -3.6267
 3663SOL    HW222452   2.742   1.282  14.350 -1.9723  1.0113  0.3697
 3664SOL     OW22453   2.197   3.803   3.054  0.8275  0.0025 -0.5030
 3664SOL    HW122454   2.179   3.749   3.131  1.7515 -0.3956 -0.5642
 3664SOL    HW222455   2.288   3.781   3.036  0.7787  0.0642 -0.8196
 3665SOL     OW22456   3.689   1.825  12.550 -0.1383 -0.0477  0.0044
 3665SOL    HW122457   3.779   1.858  12.539  0.1899 -0.6667  0.9114
 3665SOL    HW222458   3.699   1.736  12.516  1.0378  0.2749 -0.5236
 3666SOL     OW22459   3.416   4.160  13.228 -0.0921  0.3871 -0.2160
 3666SOL    HW122460   3.348   4.197  13.284  0.0482 -0.9205  0.8170
 3666SOL    HW222461   3.391   4.068  13.234  0.0889  0.3811  0.4150
 3667SOL     OW22462   3.156   1.310   8.515 -0.7888 -1.0823  0.3156
 3667SOL    HW122463   3.181   1.336   8.426  1.7375  0.5155  1.4966
 3667SOL    HW222464   3.064   1.298   8.493 -0.3672  0.0162 -2.0633
 3668SOL     OW22465   1.425   1.292  14.131 -0.2889 -0.2234  0.3263
 3668SOL    HW122466   1.340   1.323  14.162 -0.1186 -0.7526  1.3151
 3668SOL    HW222467   1.419   1.315  14.038 -0.9178  0.5497  0.5660
 3669SOL     OW22468   3.249   1.474  12.893 -0.2269 -0.2207  0.4622
 3669SOL    HW122469   3.179   1.410  12.903  0.1658 -0.7137  0.0785
 3669SOL    HW222470   3.191   1.538  12.850 -0.5030 -0.6845  0.1465
 3670SOL     OW22471   1.310   1.113   1.090  0.1678 -0.3094 -0.2141
 3670SOL    HW122472   1.297   1.196   1.044 -3.1922 -0.1246  1.1041
 3670SOL    HW222473   1.401   1.100   1.062 -0.2073 -0.6117 -1.3089
 3671SOL     OW22474   0.843   0.355  13.780  0.0178  0.4932  0.1768
 3671SOL    HW122475   0.917   0.408  13.811 -0.1769 -0.1548  1.7330
 3671SOL    HW222476   0.890   0.292  13.725 -2.0276 -0.7237 -0.1894
 3672SOL     OW22477   4.432   3.474   1.818 -0.1569 -0.1455  0.2501
 3672SOL    HW122478   4.433   3.446   1.726  2.3666  0.6868  0.0129
 3672SOL    HW222479   4.461   3.565   1.809  0.2539 -0.1067  1.9968
 3673SOL     OW22480   1.978   2.370   3.467  0.1817 -0.1494 -0.0097
 3673SOL    HW122481   1.897   2.342   3.509 -0.0577  1.9035  0.9097
 3673SOL    HW222482   1.995   2.452   3.514  2.2968 -0.6868  0.1869
 3674SOL     OW22483   3.361   0.688   9.538  0.4900  0.4186  0.2154
 3674SOL    HW122484   3.355   0.619   9.604  0.3186 -2.0553 -2.3364
 3674SOL    HW222485   3.396   0.761   9.588 -2.7206  1.9864  0.2076
 3675SOL     OW22486   0.533   2.826  16.993 -0.1344  0.2264  0.1248
 3675SOL    HW122487   0.563   2.878  17.067  0.7917  2.4759 -1.8248
 3675SOL    HW222488   0.438   2.815  17.002 -0.4303  0.9592 -1.9521
 3676SOL     OW22489   0.056   3.162   7.483 -0.0442  0.0345 -0.6093
 3676SOL    HW122490   0.014   3.241   7.450 -2.4649 -0.6491  0.8455
 3676SOL    HW222491   0.127   3.152   7.420 -0.1368  0.9011 -0.8436
 3677SOL     OW22492   3.898   3.606   3.405  0.5803  0.1826  0.1643
 3677SOL    HW122493   3.936   3.589   3.491  1.9981  2.2879 -0.0261
 3677SOL    HW222494   3.869   3.698   3.401 -0.5369 -0.3019 -3.0311
 3678SOL     OW22495   1.988   3.528   3.088  0.5959 -0.0365  0.1037
 3678SOL    HW122496   2.076   3.541   3.123 -0.4729  0.9457  2.4576
 3678SOL    HW222497   1.981   3.609   3.037  1.2107  1.6240  2.6875
 3679SOL     OW22498   4.259   1.028   6.242  0.0017 -0.5623  0.1954
 3679SOL    HW122499   4.192   1.037   6.173 -0.8764 -0.3696  1.0743
 3679SOL    HW222500   4.235   0.943   6.278 -0.0964 -0.6578 -0.0926
 3680SOL     OW22501   1.972   1.386  16.634  0.0250  0.0890  0.0723
 3680SOL    HW122502   1.891   1.428  16.607 -0.3854  0.3897  1.7671
 3680SOL    HW222503   1.939   1.299  16.656 -0.5535  0.0324 -1.0049
 3681SOL     OW22504   4.394   3.082   9.267  0.1671 -0.0414  0.2551
 3681SOL    HW122505   4.419   2.994   9.294  1.9632  0.4003 -0.0158
 3681SOL    HW222506   4.323   3.054   9.208  1.2882  0.6852 -1.4401
 3682SOL     OW22507   2.605   2.935   5.798 -0.1062  0.3268 -0.0157
 3682SOL    HW122508   2.570   2.854   5.836  1.0501  0.1171  0.5850
 3682SOL    HW222509   2.532   2.988   5.830 -1.0758 -1.1581  0.2484
 3683SOL     OW22510   2.917   4.044   5.749  0.3518  0.3632  0.1469
 3683SOL    HW122511   2.829   4.022   5.719  0.2055 -0.1027  0.9275
 3683SOL    HW222512   2.948   3.984   5.817  1.7776  0.2957 -0.5681
 3684SOL     OW22513   1.180   3.537   3.160 -0.2071 -0.7292  0.2308
 3684SOL    HW122514   1.095   3.562   3.198 -0.7754 -0.4277 -1.2377
 3684SOL    HW222515   1.167   3.442   3.158 -0.0318 -0.6838 -2.7212
 3685SOL     OW22516   3.718   3.021   6.669 -0.1013 -0.3051 -0.5777
 3685SOL    HW122517   3.779   3.053   6.735  0.6519 -2.1343 -0.4016
 3685SOL    HW222518   3.759   2.935   6.661  0.6742  0.1201 -1.1457
 3686SOL     OW22519   1.655   2.553   7.842  0.1487  0.3199  0.0605
 3686SOL    HW122520   1.735   2.538   7.892  0.2501 -1.0859 -0.5319
 3686SOL    HW222521   1.692   2.584   7.759  0.0813 -0.9497 -0.4487
 3687SOL     OW22522   1.535   1.467   2.106 -0.4610  1.0332  0.1750
 3687SOL    HW122523   1.461   1.519   2.138 -0.6621  2.4638 -2.7115
 3687SOL    HW222524   1.498   1.414   2.035  0.7787  1.4198 -0.7564
 3688SOL     OW22525   1.073   3.127  11.885  0.3015  0.5288 -0.1182
 3688SOL    HW122526   0.993   3.134  11.833 -0.2218 -0.0075  0.6233
 3688SOL    HW222527   1.108   3.214  11.865  0.1619  0.7176  0.4501
 3689SOL     OW22528   4.105   3.898   8.700 -0.9487  0.9962  0.3482
 3689SOL    HW122529   4.126   3.984   8.736  0.8001 -0.8000  3.5952
 3689SOL    HW222530   4.020   3.888   8.743 -1.2947  2.7519  0.0994
 3690SOL     OW22531   1.688   1.004   4.057 -0.7008  0.5782 -0.0451
 3690SOL    HW122532   1.671   0.991   3.964  0.6294  0.9477 -0.3395
 3690SOL    HW222533   1.698   0.916   4.093  0.5270  1.3622  1.5492
 3691SOL     OW22534   0.518   4.237   7.341  0.1636 -0.4153 -0.0807
 3691SOL    HW122535   0.550   4.326   7.328 -0.9405  0.1100  0.7487
 3691SOL    HW222536   0.589   4.182   7.309  1.1091  2.1717 -2.4922
 3692SOL     OW22537   4.240   0.727   2.069  0.1244  0.0683 -0.6882
 3692SOL    HW122538   4.330   0.708   2.094 -0.7710 -0.0614  2.3183
 3692SOL    HW222539   4.255   0.770   1.984  3.7085  4.1567  2.0157
 3693SOL     OW22540   4.536   0.748   1.973  0.3175  0.2219  0.0104
 3693SOL    HW122541   4.510   0.715   1.887  1.5293 -0.5205 -0.0701
 3693SOL    HW222542   4.568   0.837   1.957  2.2676 -0.3712  0.5458
 3694SOL     OW22543   0.503   1.642   4.000 -0.3997 -0.4420 -0.0581
 3694SOL    HW122544   0.550   1.566   4.032  1.0156  0.4204 -0.1121
 3694SOL    HW222545   0.554   1.711   4.041 -1.0445  1.1270 -1.8694
 3695SOL     OW22546   1.797   4.372   3.525  0.5166  0.5357 -0.3478
 3695SOL    HW122547   1.886   4.342   3.547  0.5377  0.2774 -0.7880
 3695SOL    HW222548   1.748   4.290   3.525  2.0137 -0.3645  0.9570
 3696SOL     OW22549   1.202   3.394  15.933  0.0136  0.2197 -0.3516
 3696SOL    HW122550   1.269   3.461  15.919 -0.8636  1.2934  0.5266
 3696SOL    HW222551   1.156   3.430  16.009 -1.6665 -2.4524 -0.0946
 3697SOL     OW22552   2.554   2.337   4.749  0.0189 -0.0146  0.3484
 3697SOL    HW122553   2.550   2.278   4.674  0.9643  1.9006 -1.2259
 3697SOL    HW222554   2.635   2.386   4.732  0.3368 -0.0984  1.6654
 3698SOL     OW22555   1.621   4.359   3.783 -0.1544  0.6821 -0.3575
 3698SOL    HW122556   1.638   4.347   3.690 -0.2052 -1.6723 -0.0787
 3698SOL    HW222557   1.706   4.375   3.825  0.9823 -2.4514 -1.4486
 3699SOL     OW22558   4.010   4.568   1.995 -0.2635  0.4129  0.1799
 3699SOL    HW122559   3.948   4.495   2.004 -1.1725  1.1074 -0.4493
 3699SOL    HW222560   4.013   4.567   1.899 -1.7606  0.2106  0.1354
 3700SOL     OW22561   4.712   3.427   1.469  0.2364  0.2816 -0.1294
 3700SOL    HW122562   0.029   3.463   1.545  2.0710  1.3620 -1.7598
 3700SOL    HW222563   4.624   3.406   1.501 -0.2525 -0.2660 -1.8525
 3701SOL     OW22564   1.732   3.990  11.135  0.2587  0.5105  0.3293
 3701SOL    HW122565   1.677   3.977  11.212 -2.9479 -0.0768 -2.0592
 3701SOL    HW222566   1.818   3.962  11.167 -0.1414  0.3528  1.2688
 3702SOL     OW22567   0.135   4.491  12.090 -0.5286  0.5706 -0.3209
 3702SOL    HW122568   0.054   4.440  12.091 -0.0703 -0.2189 -1.5906
 3702SOL    HW222569   0.190   4.417  12.064 -0.6482 -0.3443  2.0201
 3703SOL     OW22570   0.412   1.832  16.124  0.1665 -0.7171  0.0572
 3703SOL    HW122571   0.332   1.876  16.096  0.5656  1.3522  2.2079
 3703SOL    HW222572   0.446   1.887  16.195  1.2123  0.4416 -1.3441
 3704SOL     OW22573   1.827   3.740   5.992  0.0877  1.1743 -0.2996
 3704SOL    HW122574   1.784   3.657   6.011  0.7518  0.6349 -1.1405
 3704SOL    HW222575   1.863   3.712   5.908 -0.8995  0.0402 -0.3350
 3705SOL     OW22576   4.542   0.509   1.701  0.1870  0.7774 -0.0380
 3705SOL    HW122577   4.468   0.570   1.711  0.6288  1.5402 -1.4472
 3705SOL    HW222578   4.500   0.436   1.656  2.0109  0.5879 -1.3819
 3706SOL     OW22579   3.622   3.224  17.333  0.0161 -0.0508  0.2031
 3706SOL    HW122580   3.535   3.243  17.299  1.7541 -1.0478 -4.6904
 3706SOL    HW222581   3.610   3.266  17.418 -1.4714  2.2768 -1.1692
 3707SOL     OW22582   4.106   4.280   2.346  0.0324 -0.1124  0.0470
 3707SOL    HW122583   4.125   4.311   2.257 -0.3898 -0.7903 -0.2779
 3707SOL    HW222584   4.078   4.357   2.395 -0.5511  0.9063 -1.9028
 3708SOL     OW22585   4.565   3.920   6.046 -0.5393 -0.1817 -0.5954
 3708SOL    HW122586   4.646   3.876   6.022  0.3727  0.2367  1.8156
 3708SOL    HW222587   4.564   3.993   5.984  0.2196 -1.0669 -1.6555
 3709SOL     OW22588   2.401   1.893   5.820 -0.2573  0.1159  0.1812
 3709SOL    HW122589   2.396   1.797   5.819  1.2164  0.0456 -0.9595
 3709SOL    HW222590   2.404   1.893   5.724 -0.7435  0.2747  0.1692
 3710SOL     OW22591   2.957   2.480  12.668  0.0555  0.2477 -0.3128
 3710SOL    HW122592   2.929   2.389  12.651 -4.0035  1.3193  0.6100
 3710SOL    HW222593   2.987   2.476  12.758 -2.0703  1.5385  0.4564
 3711SOL     OW22594   3.330   4.049   7.241 -0.5624 -0.3663  0.5380
 3711SOL    HW122595   3.385   3.985   7.287  0.1514  0.0766  0.3137
 3711SOL    HW222596   3.243   4.011   7.250 -0.9134  0.1186 -0.7808
 3712SOL     OW22597   2.310   4.466   0.813  0.1369 -0.4848 -0.3201
 3712SOL    HW122598   2.337   4.376   0.834 -2.0756 -0.9369  0.5390
 3712SOL    HW222599   2.253   4.457   0.736  0.6447 -0.1579 -0.7328
 3713SOL     OW22600   4.680   0.698  13.173 -0.3788 -0.4217 -0.0220
 3713SOL    HW122601   4.633   0.701  13.256  1.1032  0.4156  0.8030
 3713SOL    HW222602   4.607   0.698  13.111  0.7306 -2.1301 -1.3480
 3714SOL     OW22603   4.049   3.590  17.022  0.5415 -0.0640  0.6385
 3714SOL    HW122604   4.051   3.530  16.948  0.3750  0.4442  0.2262
 3714SOL    HW222605   3.995   3.652  16.974 -1.3649 -1.0600  1.4919
 3715SOL     OW22606   4.658   4.050  14.804 -0.0755 -0.1856  0.4673
 3715SOL    HW122607   4.704   4.042  14.888  1.9306  0.3088 -0.6123
 3715SOL    HW222608   4.617   3.965  14.787 -2.3980  0.8931  0.5840
 3716SOL     OW22609   4.199   3.434   8.805  0.0913  0.5303  0.3189
 3716SOL    HW122610   4.210   3.342   8.831  3.0547  0.5707 -0.7354
 3716SOL    HW222611   4.137   3.419   8.734 -0.3953 -0.6656  1.0000
 3717SOL     OW22612   4.579   1.094   8.449 -0.4151 -0.3436 -0.5476
 3717SOL    HW122613   4.653   1.056   8.402  0.2296 -1.9155  1.7321
 3717SOL    HW222614   4.501   1.056   8.408 -1.4382 -0.0436  1.1099
 3718SOL     OW22615   4.041   1.601  15.907 -0.3580 -0.4542 -0.1430
 3718SOL    HW122616   4.109   1.539  15.883 -0.4082 -1.0699  1.2661
 3718SOL    HW222617   3.985   1.591  15.830 -1.9666  2.3894  0.6458
 3719SOL     OW22618   4.076   4.008   0.901  0.3804  0.1206  0.1951
 3719SOL    HW122619   4.035   3.921   0.896 -0.8891  0.8265 -1.4617
 3719SOL    HW222620   4.101   4.000   0.993  0.7796  1.0343  0.1598
 3720SOL     OW22621   3.446   3.284   8.095  0.1378  0.5342  0.5213
 3720SOL    HW122622   3.354   3.280   8.067 -0.5414 -0.2254  2.8690
 3720SOL    HW222623   3.466   3.191   8.092  1.0494  0.7847 -1.2841
 3721SOL     OW22624   2.143   4.609   8.025  0.9388  0.0112 -0.0779
 3721SOL    HW122625   2.100   4.542   7.971  0.0218  2.2446 -2.1352
 3721SOL    HW222626   2.172   4.550   8.094  2.3642 -0.4458 -1.0802
 3722SOL     OW22627   0.464   2.269   7.560  0.1049  0.1993  0.0178
 3722SOL    HW122628   0.373   2.260   7.531  0.0517  1.4191 -0.1864
 3722SOL    HW222629   0.450   2.310   7.645  1.0858  1.4887 -0.4446
 3723SOL     OW22630   2.289   4.126  14.213 -0.0581 -0.6697 -0.4780
 3723SOL    HW122631   2.353   4.058  14.237  1.6592  0.7198 -1.1049
 3723SOL    HW222632   2.236   4.107  14.290 -0.4617 -2.4694 -1.2104
 3724SOL     OW22633   1.347   0.990  10.141  0.3928  0.6346  0.0330
 3724SOL    HW122634   1.263   0.986  10.186  0.5535  0.5431  0.3301
 3724SOL    HW222635   1.318   1.017  10.054 -1.9348 -1.1255  0.2728
 3725SOL     OW22636   0.154   3.453   0.140  0.0700  0.4704 -0.7857
 3725SOL    HW122637   0.104   3.387   0.092  0.0216 -0.2530  0.2600
 3725SOL    HW222638   0.090   3.502   0.191 -1.0440 -0.2835 -1.4629
 3726SOL     OW22639   1.978   0.922   5.367  0.6201  0.1694 -0.9407
 3726SOL    HW122640   1.991   0.962   5.281  0.9463  1.7087 -0.1775
 3726SOL    HW222641   2.047   0.857   5.377  0.3842 -0.1315 -1.2435
 3727SOL     OW22642   0.869   4.341   7.871  0.1641  0.3044  0.0434
 3727SOL    HW122643   0.808   4.301   7.808  1.4225  1.3121 -1.8073
 3727SOL    HW222644   0.951   4.298   7.846  0.3164 -0.3288  1.6227
 3728SOL     OW22645   2.392   1.704   7.340 -0.6124 -0.0440  0.6166
 3728SOL    HW122646   2.359   1.769   7.402 -0.3860  2.0673 -1.4467
 3728SOL    HW222647   2.480   1.682   7.370  0.4793  1.8908 -1.1496
 3729SOL     OW22648   3.803   2.215  12.776  0.3273 -0.5855  0.0678
 3729SOL    HW122649   3.868   2.266  12.824  0.2853 -1.2993  0.8694
 3729SOL    HW222650   3.745   2.169  12.837 -0.0677  0.7370  0.7063
 3730SOL     OW22651   1.432   3.835  13.259 -0.3022  0.0048 -0.1044
 3730SOL    HW122652   1.496   3.768  13.234  1.6913  1.5260  0.9606
 3730SOL    HW222653   1.480   3.915  13.276  0.7759 -0.8341  0.8044
 3731SOL     OW22654   3.164   3.892   6.144 -0.0744 -0.7005  0.6751
 3731SOL    HW122655   3.249   3.878   6.185 -0.4774  1.9172  2.4289
 3731SOL    HW222656   3.150   3.983   6.169  2.6305  0.1579 -0.9524
 3732SOL     OW22657   0.577   3.607   3.072 -0.7959  0.0850  0.7598
 3732SOL    HW122658   0.510   3.639   3.132  0.0904 -0.0630  1.8231
 3732SOL    HW222659   0.540   3.625   2.985  1.2855 -0.0386 -0.1491
 3733SOL     OW22660   3.834   0.461   0.671 -0.1915 -0.3336  0.0670
 3733SOL    HW122661   3.879   0.399   0.614 -0.1041 -2.2188  2.1674
 3733SOL    HW222662   3.894   0.473   0.744 -0.1100 -2.9222  0.4168
 3734SOL     OW22663   3.567   2.059   4.640  0.9555  0.4652  0.2926
 3734SOL    HW122664   3.485   2.066   4.689  0.5834 -0.6391 -0.1824
 3734SOL    HW222665   3.586   2.151   4.622  1.3677  0.1048 -1.1092
 3735SOL     OW22666   0.767   2.357  16.148 -0.4611 -0.2928  0.0586
 3735SOL    HW122667   0.807   2.416  16.084 -0.8790  1.9935  1.9195
 3735SOL    HW222668   0.768   2.413  16.225  2.1656  2.0702 -1.7018
 3736SOL     OW22669   4.543   2.384   4.917  0.1915 -0.2679 -0.1372
 3736SOL    HW122670   4.469   2.391   4.977  0.1775 -0.0193 -0.1796
 3736SOL    HW222671   4.548   2.467   4.868 -0.6476  0.3689  0.8593
 3737SOL     OW22672   3.402   3.707   3.349 -0.3934  0.0030 -0.5287
 3737SOL    HW122673   3.481   3.663   3.318  0.3294  0.0513  1.2332
 3737SOL    HW222674   3.395   3.772   3.279  0.7304 -0.1546 -0.7827
 3738SOL     OW22675   0.849   2.849  10.496  0.4673 -0.3492 -0.4485
 3738SOL    HW122676   0.781   2.870  10.561  2.0855  1.7206  0.5673
 3738SOL    HW222677   0.787   2.796  10.445  0.2526 -0.4391 -0.0950
 3739SOL     OW22678   1.808   1.341   4.335 -0.6399 -0.3654  0.8518
 3739SOL    HW122679   1.748   1.287   4.283  0.7258 -0.8216 -0.2336
 3739SOL    HW222680   1.807   1.422   4.284  2.4288 -1.7564 -1.4117
 3740SOL     OW22681   2.782   1.744   5.005  0.4080 -0.2808 -0.3137
 3740SOL    HW122682   2.875   1.766   5.014  0.3421  0.2611 -0.9779
 3740SOL    HW222683   2.786   1.649   4.998 -3.2998 -0.7033  3.7152
 3741SOL     OW22684   1.889   1.833  15.239  0.6807  0.4028  0.0229
 3741SOL    HW122685   1.944   1.909  15.220  3.1440 -2.0759 -2.5825
 3741SOL    HW222686   1.946   1.775  15.189 -0.9178  0.2453 -1.6090
 3742SOL     OW22687   1.649   0.905   7.905 -0.6099  0.3439 -0.2350
 3742SOL    HW122688   1.735   0.933   7.874 -0.9197  0.4781 -0.9688
 3742SOL    HW222689   1.666   0.878   7.995  1.3022  0.6253 -0.5051
 3743SOL     OW22690   0.640   4.110   5.223  0.2306 -0.2959 -0.4763
 3743SOL    HW122691   0.728   4.075   5.233  0.0205 -0.7185 -0.0767
 3743SOL    HW222692   0.653   4.185   5.166 -1.1698  1.0492  0.9661
 3744SOL     OW22693   0.254   3.476  11.269  0.1934 -0.2800  0.1221
 3744SOL    HW122694   0.270   3.524  11.188  1.0179  0.0841  0.4971
 3744SOL    HW222695   0.244   3.388  11.233 -2.1306 -0.4711  1.2656
 3745SOL     OW22696   1.708   0.949  14.851  0.6239 -0.2507 -0.3502
 3745SOL    HW122697   1.658   1.014  14.899 -0.1972 -0.1270 -1.3697
 3745SOL    HW222698   1.797   0.973  14.878  1.3344 -0.4106 -2.5428
 3746SOL     OW22699   1.473   3.086   7.949 -0.3942  0.3431  0.0682
 3746SOL    HW122700   1.399   3.095   8.010  0.2372 -1.2691  1.0676
 3746SOL    HW222701   1.546   3.094   8.010 -0.8348 -0.5251  0.7182
 3747SOL     OW22702   3.015   4.400   2.923  0.0235  0.4810 -0.0346
 3747SOL    HW122703   3.011   4.344   2.845  2.5803  2.1861 -1.3945
 3747SOL    HW222704   3.095   4.453   2.924 -0.0382  0.6170 -1.9051
 3748SOL     OW22705   4.186   3.262   0.412  0.7596  0.6556 -0.3086
 3748SOL    HW122706   4.260   3.281   0.469  0.8066  0.1116 -0.1838
 3748SOL    HW222707   4.136   3.343   0.416  1.6969  1.1714  0.8480
 3749SOL     OW22708   0.716   3.838   6.138 -0.1171  0.1611 -0.5979
 3749SOL    HW122709   0.654   3.766   6.146 -1.0975  1.0780  0.0001
 3749SOL    HW222710   0.662   3.916   6.152  1.0086  0.7854  0.3204
 3750SOL     OW22711   3.584   2.869  12.643 -0.0195  0.0408 -0.8163
 3750SOL    HW122712   3.570   2.879  12.737 -0.4083  2.3359 -1.1335
 3750SOL    HW222713   3.625   2.782  12.641 -2.7090 -1.3273  3.0730
 3751SOL     OW22714   3.962   4.483  11.886  0.1566  0.2049  0.2656
 3751SOL    HW122715   3.942   4.394  11.857  0.9103  0.5010 -1.1378
 3751SOL    HW222716   3.966   4.459  11.979 -1.7675  1.1118  0.5860
 3752SOL     OW22717   3.591   1.175   2.708 -0.3157  0.3016  0.7352
 3752SOL    HW122718   3.581   1.118   2.631  0.6893 -0.6971  1.3412
 3752SOL    HW222719   3.498   1.190   2.725 -0.9630 -0.8990 -1.8179
 3753SOL     OW22720   0.656   3.308   5.209  0.4083  0.2684  0.3135
 3753SOL    HW122721   0.562   3.306   5.231  0.4810 -0.8909  0.5512
 3753SOL    HW222722   0.675   3.400   5.226 -2.4113  0.9046  0.0842
 3754SOL     OW22723   4.633   0.550   8.483 -0.0165 -0.6086  0.2214
 3754SOL    HW122724   4.599   0.632   8.446  0.6513 -0.8190 -0.8556
 3754SOL    HW222725   4.571   0.492   8.439  0.0886  0.4190 -1.2968
 3755SOL     OW22726   1.381   0.447   6.882 -0.1820 -0.3658  0.3307
 3755SOL    HW122727   1.295   0.430   6.918 -1.8584  1.6360 -2.7207
 3755SOL    HW222728   1.428   0.483   6.957 -0.8041  0.1919  0.4554
 3756SOL     OW22729   1.621   3.227   1.466 -0.8715  0.3624 -0.6611
 3756SOL    HW122730   1.583   3.240   1.379  3.3482 -0.2949 -2.5804
 3756SOL    HW222731   1.548   3.230   1.528  0.1480 -0.7805  0.6121
 3757SOL     OW22732   2.035   4.049   0.499 -0.1377 -0.3348  0.2340
 3757SOL    HW122733   2.056   4.116   0.563 -1.2820 -1.0060  1.3315
 3757SOL    HW222734   2.028   3.962   0.539  2.2849 -0.1588  1.0370
 3758SOL     OW22735   1.765   0.591   3.212  0.2684 -0.4670 -0.2103
 3758SOL    HW122736   1.713   0.667   3.238 -0.8869 -1.5829  0.7708
 3758SOL    HW222737   1.831   0.607   3.279 -0.2787  1.2002 -0.0607
 3759SOL     OW22738   2.589   3.265  16.897  0.2337 -0.2648 -0.5438
 3759SOL    HW122739   2.498   3.248  16.921 -0.3493 -0.4549 -2.8752
 3759SOL    HW222740   2.637   3.238  16.975 -0.9903  1.7871  0.9392
 3760SOL     OW22741   2.778   0.586  13.236  0.0282 -0.3200  0.2820
 3760SOL    HW122742   2.753   0.636  13.158 -0.7846  0.8624  1.2993
 3760SOL    HW222743   2.696   0.547  13.265 -1.1393  1.0740 -1.1039
 3761SOL     OW22744   2.607   3.767  11.769 -1.0152  0.9303  0.2702
 3761SOL    HW122745   2.537   3.832  11.780 -0.3643  1.9451 -1.6661
 3761SOL    HW222746   2.568   3.689  11.808 -1.5750  1.3009  0.4536
 3762SOL     OW22747   0.878   1.189   0.752 -0.3126 -0.0166 -0.0779
 3762SOL    HW122748   0.914   1.108   0.788  2.4369  1.8022  1.2065
 3762SOL    HW222749   0.922   1.253   0.808 -0.0395 -1.4522  1.3684
 3763SOL     OW22750   4.040   0.377   2.319 -0.3164 -0.7290  0.5128
 3763SOL    HW122751   3.998   0.392   2.403 -0.9537 -1.5177  0.3327
 3763SOL    HW222752   4.094   0.455   2.313  2.1482 -2.6042 -1.9655
 3764SOL     OW22753   2.863   1.818  14.136  0.4940  0.1064  0.2769
 3764SOL    HW122754   2.868   1.723  14.142 -0.3496  0.0445  0.0831
 3764SOL    HW222755   2.928   1.815  14.066  1.2603  1.9477  0.9236
 3765SOL     OW22756   3.384   0.517  12.532  0.3397  0.0925 -0.1550
 3765SOL    HW122757   3.396   0.507  12.626  3.5113 -2.5533 -0.8226
 3765SOL    HW222758   3.338   0.433  12.521  0.3384 -0.0445  0.9025
 3766SOL     OW22759   4.183   2.517   9.602  0.3705 -0.4353 -0.2342
 3766SOL    HW122760   4.228   2.465   9.669 -0.8891 -3.7742 -1.9677
 3766SOL    HW222761   4.146   2.593   9.646  1.6825 -1.0196  1.8993
 3767SOL     OW22762   1.916   3.814  14.898 -0.0622 -0.1069 -0.2274
 3767SOL    HW122763   1.861   3.873  14.949  1.3223 -0.0802  1.2085
 3767SOL    HW222764   1.855   3.743  14.877 -1.3356  0.5841  1.1571
 3768SOL     OW22765   1.124   3.310   8.307 -0.2382 -0.1832 -0.0722
 3768SOL    HW122766   1.149   3.274   8.392  1.4161 -2.2507 -1.4365
 3768SOL    HW222767   1.109   3.403   8.325 -1.4915 -0.2613 -0.7121
 3769SOL     OW22768   2.441   4.175   6.368 -0.1593 -0.2917  0.0428
 3769SOL    HW122769   2.444   4.265   6.400 -2.0459 -0.1554 -0.1080
 3769SOL    HW222770   2.533   4.154   6.382 -0.5332 -0.5212  2.0925
 3770SOL     OW22771   2.498   1.963   2.969  0.1763  0.0120 -0.6470
 3770SOL    HW122772   2.549   1.898   2.922 -0.1496 -0.4289 -0.3977
 3770SOL    HW222773   2.562   1.983   3.037 -0.3415  1.5436 -0.5982
 3771SOL     OW22774   3.553   4.243   2.896  0.2008  0.1802  0.1891
 3771SOL    HW122775   3.623   4.291   2.939 -1.3606  1.4310  1.3349
 3771SOL    HW222776   3.492   4.240   2.970 -0.6359 -0.5176 -0.5286
 3772SOL     OW22777   0.214   4.578   6.821 -0.0342  0.2267 -0.0370
 3772SOL    HW122778   0.252   4.658   6.858 -1.0924  1.1408 -0.9294
 3772SOL    HW222779   0.173   4.544   6.900  0.1566 -1.9421 -0.8726
 3773SOL     OW22780   2.235   4.631   2.630 -0.0660 -0.7277  0.3329
 3773SOL    HW122781   2.215   4.547   2.589 -1.2289  0.3630 -1.3485
 3773SOL    HW222782   2.292   4.614   2.705  1.6518  0.2119 -0.7610
 3774SOL     OW22783   1.367   1.839   7.446  0.1068 -0.4740  0.7394
 3774SOL    HW122784   1.454   1.804   7.430  0.9907  2.5953 -1.1497
 3774SOL    HW222785   1.383   1.884   7.530 -0.8413 -1.3932  1.4139
 3775SOL     OW22786   2.170   3.788  14.914 -0.6597  0.2784  0.1707
 3775SOL    HW122787   2.163   3.709  14.967 -0.3011 -0.2909 -0.6346
 3775SOL    HW222788   2.077   3.798  14.895 -0.3920 -0.7518 -1.6535
 3776SOL     OW22789   0.040   3.283   4.594 -0.3436 -0.3218  0.0566
 3776SOL    HW122790   0.028   3.208   4.654  1.8800  1.7389  3.0820
 3776SOL    HW222791   4.682   3.323   4.587  0.6858  1.6019 -1.4542
 3777SOL     OW22792   3.096   2.436   5.144 -0.4801  0.6124  0.0224
 3777SOL    HW122793   3.097   2.513   5.202  0.6324 -0.0822  0.9348
 3777SOL    HW222794   3.139   2.370   5.197 -1.3728  0.4252  0.5166
 3778SOL     OW22795   2.943   4.334   3.160  0.0783  0.5091 -0.0044
 3778SOL    HW122796   2.951   4.373   3.073  1.9651  0.5821  0.2024
 3778SOL    HW222797   2.973   4.411   3.208  0.7289  0.8256 -0.9223
 3779SOL     OW22798   1.215   1.405  14.509 -0.6436  0.1107 -0.0727
 3779SOL    HW122799   1.125   1.424  14.535 -1.6198 -1.8288 -2.0761
 3779SOL    HW222800   1.202   1.369  14.421 -0.4662  3.9487 -1.7105
 3780SOL     OW22801   0.111   4.324   7.383 -0.0152  0.4924  0.0698
 3780SOL    HW122802   0.168   4.289   7.314  1.5761  0.6015  1.3363
 3780SOL    HW222803   0.111   4.255   7.449  2.3246 -0.4001 -0.8557
 3781SOL     OW22804   2.647   1.282   9.931 -0.2725  0.4923  0.0864
 3781SOL    HW122805   2.613   1.319   9.850  2.6350  0.4764 -1.1494
 3781SOL    HW222806   2.689   1.205   9.890  0.3310  1.1428 -0.5175
 3782SOL     OW22807   2.276   4.401  16.789 -0.4796  0.2835  0.3095
 3782SOL    HW122808   2.193   4.353  16.794  0.5823 -1.5751  0.1858
 3782SOL    HW222809   2.257   4.467  16.723 -1.3640 -0.8180 -0.5268
 3783SOL     OW22810   1.042   2.182   3.748  0.1549  0.0990  0.2837
 3783SOL    HW122811   1.095   2.218   3.677  1.1257  0.4442  1.1887
 3783SOL    HW222812   0.969   2.158   3.691  0.6544  1.5713 -0.9728
 3784SOL     OW22813   3.866   1.916   7.011 -0.1354 -0.1654  0.1971
 3784SOL    HW122814   3.810   1.994   7.011  0.0677 -0.0150  0.7078
 3784SOL    HW222815   3.897   1.933   7.100 -0.9263  1.5106  0.1542
 3785SOL     OW22816   3.284   4.543  12.496  0.3015  0.3784 -0.0457
 3785SOL    HW122817   3.310   4.490  12.571 -0.3993  0.5432  0.3125
 3785SOL    HW222818   3.196   4.565  12.524  0.9129  0.7232  1.6102
 3786SOL     OW22819   1.585   2.871   3.123 -0.4856 -0.4965  0.1984
 3786SOL    HW122820   1.666   2.824   3.143 -0.1237  0.1855  0.2977
 3786SOL    HW222821   1.557   2.822   3.046 -1.0800 -0.3225  0.3034
 3787SOL     OW22822   1.004   1.638   7.323  0.1548  0.8756  0.0069
 3787SOL    HW122823   0.909   1.638   7.308  0.1507 -2.9152  0.1943
 3787SOL    HW222824   1.025   1.717   7.374  1.0477  1.3956 -1.1596
 3788SOL     OW22825   3.668   0.893   3.464  0.3286 -0.9372  0.5722
 3788SOL    HW122826   3.713   0.914   3.382 -2.9407  0.5215 -0.8561
 3788SOL    HW222827   3.586   0.932   3.434  1.3207 -0.5545 -1.6693
 3789SOL     OW22828   1.413   1.486   6.519  0.0163 -0.3654 -0.0668
 3789SOL    HW122829   1.349   1.476   6.450  0.4444 -0.0827 -0.5062
 3789SOL    HW222830   1.480   1.538   6.475 -0.8820  0.0404 -0.9443
 3790SOL     OW22831   1.736   0.716  12.777 -0.7306  0.0082  0.4693
 3790SOL    HW122832   1.650   0.733  12.739 -1.0501 -0.1020  1.1370
 3790SOL    HW222833   1.772   0.653  12.715  0.6332  1.1881  0.0579
 3791SOL     OW22834   2.953   0.928  13.230 -0.1788  0.0134  1.2394
 3791SOL    HW122835   2.938   0.835  13.247  1.2800 -0.1461  1.6322
 3791SOL    HW222836   2.948   0.965  13.318 -1.0338  1.3176  0.6449
 3792SOL     OW22837   3.176   0.507   1.860  0.7029 -0.0338  0.3006
 3792SOL    HW122838   3.175   0.502   1.765  1.4930  0.4152  0.2729
 3792SOL    HW222839   3.199   0.598   1.877 -1.6321  0.3139  1.7411
 3793SOL     OW22840   4.640   1.648   7.675 -0.8908  0.3551  0.1188
 3793SOL    HW122841   4.697   1.600   7.734 -1.2630  0.4066  0.5143
 3793SOL    HW222842   4.684   1.638   7.590 -0.4582 -2.2930  0.6617
 3794SOL     OW22843   0.943   4.509   4.938  0.2312 -0.2655 -0.0051
 3794SOL    HW122844   0.941   4.533   5.031  2.0563 -1.3738  0.3107
 3794SOL    HW222845   0.856   4.544   4.918  0.8833  1.4959  0.2335
 3795SOL     OW22846   0.562   0.227   6.048 -0.4029 -0.2276  0.2726
 3795SOL    HW122847   0.555   0.292   6.118 -0.0903 -1.0521  1.0701
 3795SOL    HW222848   0.656   0.214   6.060 -0.3792  1.5543  1.9649
 3796SOL     OW22849   1.948   2.537  10.525 -0.0586 -0.7010 -0.8828
 3796SOL    HW122850   1.904   2.535  10.610  1.1490  1.1175 -0.1942
 3796SOL    HW222851   1.874   2.544  10.465 -0.3347  0.5489 -0.4052
 3797SOL     OW22852   1.085   1.996   3.984  0.1050  0.3384  0.1118
 3797SOL    HW122853   1.140   1.924   3.954 -2.5508 -1.1133 -1.2974
 3797SOL    HW222854   1.074   2.050   3.905  0.2414  1.6181  0.9627
 3798SOL     OW22855   3.756   0.518   7.285 -0.1478  0.5481 -0.6138
 3798SOL    HW122856   3.802   0.513   7.201 -0.1017 -2.7423 -0.4165
 3798SOL    HW222857   3.816   0.476   7.348 -0.5386  1.2697  0.2294
 3799SOL     OW22858   0.029   1.357   6.443  0.1489  0.6320  0.6813
 3799SOL    HW122859   0.043   1.305   6.364 -0.4463 -0.3249  1.2041
 3799SOL    HW222860   0.017   1.285   6.505 -0.4843  1.4622  1.5353
 3800SOL     OW22861   4.192   1.865   7.687 -0.6372 -0.1069  0.5085
 3800SOL    HW122862   4.245   1.937   7.653  1.0850 -2.4124 -1.6895
 3800SOL    HW222863   4.215   1.801   7.619 -2.3406  0.1907 -0.3338
 3801SOL     OW22864   3.544   0.631   6.683  0.1752  0.0642 -0.4228
 3801SOL    HW122865   3.561   0.620   6.589  0.2429 -0.1806 -0.3828
 3801SOL    HW222866   3.492   0.711   6.678  2.1868  1.4442  0.6864
 3802SOL     OW22867   2.820   0.384   0.161 -0.3025 -0.0871 -0.0713
 3802SOL    HW122868   2.875   0.350   0.231 -1.0661 -0.3202  0.4120
 3802SOL    HW222869   2.732   0.398   0.198 -0.0930 -3.6821  1.7616
 3803SOL     OW22870   0.395   2.879   8.382  0.0330 -0.3479  0.3856
 3803SOL    HW122871   0.326   2.819   8.409 -0.9758  1.1179  1.0835
 3803SOL    HW222872   0.388   2.932   8.462  2.0684 -0.5435  0.6844
 3804SOL     OW22873   4.108   2.093  12.901 -0.0475  0.2542 -0.4632
 3804SOL    HW122874   4.039   2.146  12.942 -0.7617 -0.4669 -0.7385
 3804SOL    HW222875   4.066   2.010  12.878 -0.5637  0.1960  0.6595
 3805SOL     OW22876   1.833   0.479   5.437 -0.1464 -0.3555 -0.8639
 3805SOL    HW122877   1.774   0.425   5.384  0.7606 -1.6152 -0.6047
 3805SOL    HW222878   1.774   0.504   5.508  0.9817 -1.4072  0.4487
 3806SOL     OW22879   4.088   3.679   4.926 -0.3947 -0.7811 -0.3590
 3806SOL    HW122880   4.062   3.695   4.836  1.4858  0.6553 -0.6362
 3806SOL    HW222881   4.145   3.603   4.916 -2.6777 -2.1799 -2.6564
 3807SOL     OW22882   3.333   1.670   5.364  0.2803 -0.4899 -0.4436
 3807SOL    HW122883   3.301   1.580   5.360  0.8688 -0.6547 -1.3557
 3807SOL    HW222884   3.427   1.656   5.371  0.2731  0.2939  1.3023
 3808SOL     OW22885   1.494   3.935  17.242 -0.2811  0.2364  0.2182
 3808SOL    HW122886   1.580   3.944  17.200 -0.3435  1.5944  0.3938
 3808SOL    HW222887   1.438   3.983  17.182 -0.5007 -0.0927  0.1586
 3809SOL     OW22888   0.332   0.028   6.086 -0.0627  0.4809  0.0326
 3809SOL    HW122889   0.406   0.089   6.079  0.3551 -0.0099  0.1037
 3809SOL    HW222890   0.306   0.050   6.175  1.3018  1.2085  0.2583
 3810SOL     OW22891   1.568   3.855  14.920  0.5874  0.8642  0.1486
 3810SOL    HW122892   1.631   3.924  14.902 -0.8417  2.6195  1.8884
 3810SOL    HW222893   1.483   3.899  14.914  0.2278  0.4075  2.0289
 3811SOL     OW22894   0.188   2.704   4.440  0.8929  0.4113 -0.8560
 3811SOL    HW122895   0.157   2.711   4.349 -5.4406  0.9894  1.3331
 3811SOL    HW222896   0.213   2.793   4.463  0.2962 -0.0426  1.5931
 3812SOL     OW22897   1.461   1.911   4.006  0.6271  0.6227 -0.1191
 3812SOL    HW122898   1.370   1.884   3.991  0.8266  0.4238 -0.9578
 3812SOL    HW222899   1.456   1.908   4.102  1.1711  0.9596 -0.0829
 3813SOL     OW22900   0.569   4.193   8.583 -0.2475 -0.0034  0.6712
 3813SOL    HW122901   0.528   4.224   8.502 -0.1623  0.8047  0.9327
 3813SOL    HW222902   0.518   4.115   8.605 -1.0669  1.1658  2.9349
 3814SOL     OW22903   4.104   2.822   7.269  0.1672  0.5831  0.2686
 3814SOL    HW122904   4.164   2.834   7.343  0.1662 -0.6505  0.4649
 3814SOL    HW222905   4.123   2.732   7.243  0.8913  0.4265  1.3153
 3815SOL     OW22906   2.735   1.222  14.688 -0.1996  0.4017  0.4642
 3815SOL    HW122907   2.750   1.274  14.610  1.0542 -0.8720 -0.1365
 3815SOL    HW222908   2.639   1.226  14.698 -0.1552  0.9298  0.7208
 3816SOL     OW22909   1.092   0.532   1.702  0.3385  0.1058 -0.3206
 3816SOL    HW122910   1.039   0.611   1.711 -0.8658 -0.6175 -1.0264
 3816SOL    HW222911   1.044   0.465   1.654  0.1717  0.4664 -0.6654
 3817SOL     OW22912   1.263   1.565  16.345 -0.6524  0.0970 -0.5956
 3817SOL    HW122913   1.320   1.614  16.286  0.8630 -0.0508  0.7496
 3817SOL    HW222914   1.227   1.636  16.397  1.1792  0.6757 -0.1084
 3818SOL     OW22915   0.481   3.285   3.633 -0.5365  0.0647  0.2823
 3818SOL    HW122916   0.448   3.310   3.720  0.8500 -0.6977  1.0264
 3818SOL    HW222917   0.499   3.193   3.652 -2.1474 -0.0530  1.2274
 3819SOL     OW22918   3.532   3.879  13.215  0.7491  0.3631 -0.1088
 3819SOL    HW122919   3.547   3.822  13.291  2.3199  1.9904  0.8140
 3819SOL    HW222920   3.479   3.821  13.160  0.2127  0.3982  0.3736
 3820SOL     OW22921   2.692   2.097  14.648 -0.0398 -0.0012  0.2648
 3820SOL    HW122922   2.688   2.029  14.581  0.7435  0.9072 -0.7112
 3820SOL    HW222923   2.647   2.055  14.720  0.4914  0.5269  0.9034
 3821SOL     OW22924   3.094   1.321  11.128  0.6274  0.0355  0.0977
 3821SOL    HW122925   3.098   1.394  11.189 -2.2460 -0.5937  1.0208
 3821SOL    HW222926   3.188   1.299  11.129  0.9383  1.3874 -0.1323
 3822SOL     OW22927   3.845   1.709  13.899 -0.4284  0.1616 -0.1567
 3822SOL    HW122928   3.778   1.646  13.871  2.0058 -2.0088 -1.0762
 3822SOL    HW222929   3.833   1.778  13.834 -0.2934 -0.8611 -1.2820
 3823SOL     OW22930   1.537   0.127   2.487  0.1457  0.3915 -0.7546
 3823SOL    HW122931   1.570   0.211   2.520  0.1405  0.2727 -0.4460
 3823SOL    HW222932   1.588   0.111   2.408  0.2415  1.5196 -0.9191
 3824SOL     OW22933   3.618   0.094   2.725 -0.2812 -0.3142 -0.1758
 3824SOL    HW122934   3.705   0.091   2.686  0.2410 -2.0711  1.1177
 3824SOL    HW222935   3.625   0.040   2.804  0.0731  0.3632  0.2656
 3825SOL     OW22936   0.280   3.634  13.497  0.3032  0.3188 -0.0293
 3825SOL    HW122937   0.237   3.573  13.558  2.0182 -2.0965 -1.2393
 3825SOL    HW222938   0.372   3.610  13.504  0.5118  1.7079  2.1112
 3826SOL     OW22939   0.900   3.432   9.523  0.5572  0.0372  0.0502
 3826SOL    HW122940   0.829   3.389   9.476 -0.4519  3.4413 -1.5135
 3826SOL    HW222941   0.898   3.393   9.610  0.2005  2.1821  0.9884
 3827SOL     OW22942   1.904   4.216   7.211 -0.1281  0.3863 -0.1085
 3827SOL    HW122943   1.972   4.149   7.196  1.7152  1.7894  1.9341
 3827SOL    HW222944   1.870   4.208   7.300 -1.0873 -1.4936 -0.6485
 3828SOL     OW22945   1.081   2.376   4.610  0.1873 -0.4429 -0.9643
 3828SOL    HW122946   1.003   2.379   4.666  0.2870 -0.4605 -0.8221
 3828SOL    HW222947   1.038   2.400   4.528 -1.6795  0.6747  0.3385
 3829SOL     OW22948   2.967   0.912  11.903  0.1856 -0.1293  0.1909
 3829SOL    HW122949   3.027   0.876  11.838  2.0244  1.9303  0.7369
 3829SOL    HW222950   2.999   1.003  11.905  3.3946 -1.2285 -1.3839
 3830SOL     OW22951   1.975   2.385  12.291  0.1144 -0.2676 -0.0097
 3830SOL    HW122952   1.973   2.464  12.237  1.8784  0.1831  0.6047
 3830SOL    HW222953   2.050   2.331  12.266  1.2647 -0.0008  2.8456
 3831SOL     OW22954   4.159   0.584   5.915  0.2000  0.2988  0.2143
 3831SOL    HW122955   4.237   0.584   5.860  1.1250  3.3328  1.5848
 3831SOL    HW222956   4.163   0.489   5.926  1.4073  0.1698 -1.3922
 3832SOL     OW22957   3.264   3.985  10.645  0.4581  0.2879 -0.1811
 3832SOL    HW122958   3.208   3.987  10.722 -0.7572  2.1696 -1.1088
 3832SOL    HW222959   3.342   3.938  10.675  0.6328  1.0741  0.5927
 3833SOL     OW22960   3.032   0.019   2.087  0.2929 -0.0221  0.0314
 3833SOL    HW122961   2.996   0.030   2.175  0.8434  2.7260 -0.0702
 3833SOL    HW222962   3.057   0.110   2.068 -1.0202 -0.0401 -1.7497
 3834SOL     OW22963   1.086   4.220   7.799 -0.5549  0.1309 -0.1480
 3834SOL    HW122964   1.078   4.124   7.805  0.3991  0.0115 -0.7386
 3834SOL    HW222965   1.171   4.231   7.755 -0.2454 -4.1338 -0.6454
 3835SOL     OW22966   2.568   4.295  10.253  0.3947  0.3533  0.0188
 3835SOL    HW122967   2.559   4.390  10.245  0.5739  0.3086 -0.7710
 3835SOL    HW222968   2.478   4.268  10.231  1.0454 -1.4278 -0.5000
 3836SOL     OW22969   3.344   2.929   6.993 -0.2446 -0.2302  0.0791
 3836SOL    HW122970   3.381   2.893   7.074 -2.2315 -1.5627  0.3754
 3836SOL    HW222971   3.252   2.948   7.012  0.3960  1.9001  1.0282
 3837SOL     OW22972   3.284   1.334  14.971 -0.1384 -0.6486 -0.0818
 3837SOL    HW122973   3.256   1.404  15.030  0.4652  1.4540 -2.3269
 3837SOL    HW222974   3.204   1.337  14.918  0.8530  0.9883 -1.4844
 3838SOL     OW22975   0.163   1.552  15.380  0.3957  0.4297 -0.1736
 3838SOL    HW122976   0.116   1.517  15.304 -0.1917  2.8136 -0.8943
 3838SOL    HW222977   0.099   1.592  15.439  1.4285  2.1914 -0.2607
 3839SOL     OW22978   2.423   2.487   4.471  0.5025 -0.0868  0.0394
 3839SOL    HW122979   2.401   2.529   4.554 -1.6243  3.0886 -2.0844
 3839SOL    HW222980   2.332   2.475   4.443  0.8594 -2.2413 -0.2172
 3840SOL     OW22981   0.471   2.117   2.035 -0.1267 -0.0545  0.0691
 3840SOL    HW122982   0.479   2.030   2.074  2.0902  0.7285  1.3760
 3840SOL    HW222983   0.377   2.128   2.042 -0.1144 -1.0203  1.8190
 3841SOL     OW22984   2.555   1.307  13.696  0.5058  0.2701  0.5078
 3841SOL    HW122985   2.576   1.241  13.763 -2.4744 -0.5285  0.6679
 3841SOL    HW222986   2.501   1.371  13.743 -0.1438 -0.6076  0.9758
 3842SOL     OW22987   0.124   0.542   2.805  0.7058 -0.0524 -0.5507
 3842SOL    HW122988   0.102   0.461   2.852 -0.0910 -0.5135 -1.7132
 3842SOL    HW222989   0.218   0.550   2.820  0.4420  0.3423  0.8877
 3843SOL     OW22990   4.554   2.043   3.167 -0.3607 -0.0459  0.5038
 3843SOL    HW122991   4.555   1.984   3.092 -1.0803 -1.7879  1.8659
 3843SOL    HW222992   4.544   2.123   3.115 -3.5872 -0.3936  0.5877
 3844SOL     OW22993   2.425   3.756   7.497 -0.4580 -0.4020  0.1266
 3844SOL    HW122994   2.393   3.842   7.467 -0.5164 -0.4521  0.0462
 3844SOL    HW222995   2.388   3.749   7.585 -3.6731  0.6206 -1.1742
 3845SOL     OW22996   2.197   4.156   5.224 -0.4952 -0.3459 -0.2024
 3845SOL    HW122997   2.264   4.218   5.196 -0.0794 -0.2975  0.9087
 3845SOL    HW222998   2.131   4.216   5.257  0.0934 -0.6270  1.4809
 3846SOL     OW22999   2.939   0.527   7.105  0.2169 -1.0108  0.6536
 3846SOL    HW123000   2.944   0.609   7.055  0.0157 -1.0657  0.5402
 3846SOL    HW223001   2.844   0.520   7.118  0.0340 -0.0279 -0.1661
 3847SOL     OW23002   4.033   4.373  10.261  0.1298 -0.4430 -0.2744
 3847SOL    HW123003   4.068   4.372  10.172  0.5296 -3.7877 -0.0799
 3847SOL    HW223004   4.119   4.361  10.301 -0.8966  0.8134  2.2677
 3848SOL     OW23005   2.470   0.319   5.998 -0.2582 -0.2260 -0.2240
 3848SOL    HW123006   2.454   0.372   6.076 -0.4063 -0.1689 -0.2937
 3848SOL    HW223007   2.565   0.333   5.996 -0.3139  0.1450 -0.1287
 3849SOL     OW23008   3.336   0.140   7.019 -0.2751  0.0363 -0.4733
 3849SOL    HW123009   3.319   0.075   6.951 -1.0884 -1.4930  1.2051
 3849SOL    HW223010   3.413   0.189   6.990 -0.2343  0.6998  0.7665
 3850SOL     OW23011   3.573   3.478   3.698  0.1421 -0.2742  0.0463
 3850SOL    HW123012   3.589   3.423   3.621 -0.3273  1.8206 -1.5525
 3850SOL    HW223013   3.554   3.560   3.653 -0.5553 -0.3443  0.2221
 3851SOL     OW23014   0.580   0.343  13.790  0.7763 -0.6575 -0.3586
 3851SOL    HW123015   0.557   0.405  13.721 -0.0592 -0.0500  0.4717
 3851SOL    HW223016   0.675   0.348  13.777  1.4771 -1.4048  4.5977
 3852SOL     OW23017   1.800   0.737  10.244  0.5006 -0.0784  0.0107
 3852SOL    HW123018   1.792   0.774  10.156  1.7741  2.1374  0.8449
 3852SOL    HW223019   1.770   0.646  10.235 -0.3808  0.0184  2.0635
 3853SOL     OW23020   1.847   1.901   8.273 -0.0184  0.7329 -0.7490
 3853SOL    HW123021   1.864   1.877   8.182  1.2455 -1.0706 -0.0231
 3853SOL    HW223022   1.777   1.837   8.286  0.7875 -0.1755 -0.9463
 3854SOL     OW23023   3.009   2.692  11.709 -0.5639  0.5795  0.0332
 3854SOL    HW123024   2.971   2.778  11.728  2.0547  1.7679 -0.1400
 3854SOL    HW223025   3.028   2.706  11.616  0.3574  2.5578  0.5172
 3855SOL     OW23026   4.386   0.551  11.846  0.6334  0.1937  0.7616
 3855SOL    HW123027   4.337   0.471  11.862  3.1826 -1.1655  1.6376
 3855SOL    HW223028   4.317   0.617  11.856  0.8597  0.3341  1.3589
 3856SOL     OW23029   0.955   3.051   1.978  0.0768  0.4622 -0.3721
 3856SOL    HW123030   0.968   3.034   2.071 -0.9262  0.6764 -0.1865
 3856SOL    HW223031   0.903   3.131   1.965  1.2879  1.2155 -0.6833
 3857SOL     OW23032   3.484   0.233   8.861 -0.0491 -1.2238 -0.3008
 3857SOL    HW123033   3.548   0.163   8.868 -0.6367 -1.8136 -0.8308
 3857SOL    HW223034   3.490   0.262   8.770 -2.6501 -1.3050 -0.5156
 3858SOL     OW23035   1.279   1.790   2.289 -0.6497  0.2699  0.1191
 3858SOL    HW123036   1.341   1.799   2.218 -1.4516  2.2892 -0.3293
 3858SOL    HW223037   1.265   1.695   2.286 -1.3894  0.4002 -0.5790
 3859SOL     OW23038   0.270   2.185   5.403 -0.8038 -0.5675  0.3855
 3859SOL    HW123039   0.353   2.232   5.400 -0.3034 -1.2587  3.1465
 3859SOL    HW223040   0.292   2.118   5.468  2.5690  0.1008 -0.0251
 3860SOL     OW23041   1.946   0.579  12.415 -0.4892 -0.1186 -0.1050
 3860SOL    HW123042   1.992   0.600  12.496  1.6811 -0.0482 -1.3550
 3860SOL    HW223043   1.925   0.487  12.432 -1.3992 -0.0835 -1.0401
 3861SOL     OW23044   4.622   1.850   9.635 -0.0697  0.0998 -0.4216
 3861SOL    HW123045   4.684   1.893   9.575 -0.5997 -3.2880 -3.4196
 3861SOL    HW223046   4.678   1.859   9.712 -0.9663  1.6018  0.0410
 3862SOL     OW23047   4.044   3.757   0.958 -0.5101 -0.2316 -0.1700
 3862SOL    HW123048   3.951   3.758   0.980 -0.2903 -2.1256  0.8544
 3862SOL    HW223049   4.084   3.735   1.042  2.7608  1.2754 -1.3106
 3863SOL     OW23050   0.851   3.671  11.685  0.1639  0.0299  0.0327
 3863SOL    HW123051   0.815   3.670  11.774 -0.7978 -0.6775 -0.3651
 3863SOL    HW223052   0.765   3.667  11.644  1.4547 -0.5214 -2.6517
 3864SOL     OW23053   1.499   1.855   5.105  0.1912 -0.0329  0.6735
 3864SOL    HW123054   1.576   1.818   5.150  1.2079  3.6064  1.9094
 3864SOL    HW223055   1.510   1.808   5.022  0.0752 -3.1148  2.3799
 3865SOL     OW23056   0.070   1.748   2.931 -0.3733  0.2872 -0.0365
 3865SOL    HW123057   0.084   1.653   2.938 -2.2307  0.0276  0.3850
 3865SOL    HW223058   0.081   1.752   2.836  0.3928  0.2644  0.0534
 3866SOL     OW23059   2.439   1.046   5.597  0.6703 -0.6817  0.0207
 3866SOL    HW123060   2.475   1.127   5.631  0.7574 -0.5388 -0.4023
 3866SOL    HW223061   2.519   0.993   5.592  0.3775 -0.8630 -3.4000
 3867SOL     OW23062   4.474   1.408   6.911  0.2060  0.3315 -0.1738
 3867SOL    HW123063   4.490   1.443   6.824  0.7282 -0.4672 -0.3983
 3867SOL    HW223064   4.392   1.359   6.906 -1.1702  2.2913  2.9848
 3868SOL     OW23065   0.903   3.245   2.976  0.3892  0.6812  0.0373
 3868SOL    HW123066   0.838   3.252   2.905  0.0583  1.7589  0.4401
 3868SOL    HW223067   0.838   3.234   3.045 -1.1180  1.2894 -1.2685
 3869SOL     OW23068   4.355   4.457   8.829  0.2283 -0.0623 -0.1843
 3869SOL    HW123069   4.441   4.421   8.848 -0.6140 -2.1540 -0.3754
 3869SOL    HW223070   4.324   4.390   8.769 -1.0958  0.2142  0.1937
 3870SOL     OW23071   2.426   0.939   9.865  0.5188  0.0538 -0.0129
 3870SOL    HW123072   2.476   1.021   9.857 -1.5616  1.3654  0.4118
 3870SOL    HW223073   2.380   0.960   9.946  0.3495 -0.4374  0.0143
 3871SOL     OW23074   4.439   4.252   6.661 -0.0414  0.4250 -0.1310
 3871SOL    HW123075   4.515   4.265   6.604  0.8452 -0.7292  0.7912
 3871SOL    HW223076   4.437   4.161   6.690 -0.4473  0.5111  0.1098
 3872SOL     OW23077   4.364   1.357   7.706 -0.1759  0.1412 -0.2450
 3872SOL    HW123078   4.446   1.352   7.756  0.3872 -1.7332 -1.3504
 3872SOL    HW223079   4.387   1.395   7.621 -0.5513  0.4034 -0.2280
 3873SOL     OW23080   4.164   4.427   6.318 -0.5775  0.6910 -0.5271
 3873SOL    HW123081   4.110   4.425   6.239 -2.9943  1.3064  1.1000
 3873SOL    HW223082   4.249   4.444   6.279 -0.6655 -0.0159 -1.0293
 3874SOL     OW23083   0.991   4.390  15.885 -0.4584 -0.6034 -0.2136
 3874SOL    HW123084   0.989   4.294  15.884 -1.0572 -0.5934 -0.3579
 3874SOL    HW223085   1.039   4.406  15.804  0.3521 -0.5907  0.2689
 3875SOL     OW23086   2.988   1.563  14.101  0.6097 -0.4472 -0.3935
 3875SOL    HW123087   3.022   1.576  14.012 -1.1537  0.5218 -0.9266
 3875SOL    HW223088   2.927   1.493  14.076  0.1896 -0.5855  1.0306
 3876SOL     OW23089   2.489   1.556   9.277  0.6831  0.1219 -0.0565
 3876SOL    HW123090   2.550   1.616   9.235  0.5695 -0.0222 -0.4301
 3876SOL    HW223091   2.467   1.501   9.201  1.5690 -1.1524  0.6083
 3877SOL     OW23092   0.561   1.903  10.898  0.8536  0.4795  0.0899
 3877SOL    HW123093   0.540   1.898  10.991 -0.8717  1.6435 -0.2520
 3877SOL    HW223094   0.502   1.839  10.860  0.2198  0.9900  0.2163
 3878SOL     OW23095   2.638   4.471   4.791  0.1945  0.1033  0.5494
 3878SOL    HW123096   2.700   4.494   4.859  1.3015  0.1583 -0.4771
 3878SOL    HW223097   2.666   4.382   4.771 -0.8754 -0.0466 -0.3190
 3879SOL     OW23098   1.370   0.607   2.205 -0.1820 -0.5712 -0.6107
 3879SOL    HW123099   1.336   0.679   2.151  0.3742 -0.0491 -0.2577
 3879SOL    HW223100   1.396   0.549   2.134  2.7730 -1.3083  1.0710
 3880SOL     OW23101   1.695   3.987   2.437 -0.2735  0.4774 -0.0345
 3880SOL    HW123102   1.764   4.046   2.406 -2.1814  2.7499  0.0457
 3880SOL    HW223103   1.677   4.022   2.525  0.6349 -2.5450  1.3507
 3881SOL     OW23104   3.257   0.973   9.394 -0.0373 -0.2477  0.5350
 3881SOL    HW123105   3.309   0.921   9.456 -0.0985 -0.6386  0.2528
 3881SOL    HW223106   3.294   1.059   9.413 -1.2641  0.6556 -1.1636
 3882SOL     OW23107   1.019   3.814  10.152 -0.1432  0.5597  0.8166
 3882SOL    HW123108   1.100   3.788  10.194  2.1272  2.3019 -2.4898
 3882SOL    HW223109   0.999   3.727  10.116  1.8407  1.1057 -1.6193
 3883SOL     OW23110   1.932   3.656   9.730 -0.3567  0.2078  0.6544
 3883SOL    HW123111   1.892   3.643   9.816  1.6862 -4.7334  0.8417
 3883SOL    HW223112   1.914   3.749   9.723 -0.0053  0.1789 -0.6252
 3884SOL     OW23113   1.115   3.704   8.053  0.2164  0.3541  0.3334
 3884SOL    HW123114   1.040   3.684   8.109  1.5744 -0.8571  1.6969
 3884SOL    HW223115   1.071   3.726   7.971 -0.4898 -0.2204  0.5561
 3885SOL     OW23116   3.931   3.635   7.817  0.1562  0.5235  0.2556
 3885SOL    HW123117   3.991   3.585   7.762 -1.2857 -0.7632 -0.1243
 3885SOL    HW223118   3.969   3.723   7.818  3.4513 -0.9055  1.6645
 3886SOL     OW23119   4.314   1.860   3.690 -0.7682  0.3445 -0.2425
 3886SOL    HW123120   4.336   1.952   3.677 -1.3258  0.1373 -2.7158
 3886SOL    HW223121   4.366   1.826   3.617  1.2359 -0.3772  1.5323
 3887SOL     OW23122   0.226   0.366   6.280  0.0048 -0.0619 -0.3722
 3887SOL    HW123123   0.208   0.362   6.186  0.8489  2.4264 -0.6330
 3887SOL    HW223124   0.158   0.426   6.311 -1.1158 -1.7638  0.4717
 3888SOL     OW23125   0.550   4.370   2.642  0.2914 -0.2597 -0.4653
 3888SOL    HW123126   0.512   4.301   2.587 -2.5123 -1.1868  2.6189
 3888SOL    HW223127   0.634   4.376   2.597  1.7534  0.0552  2.2732
 3889SOL     OW23128   3.162   1.349   4.046  0.0175 -0.7004  0.2645
 3889SOL    HW123129   3.174   1.432   4.094 -0.4148  0.7401 -2.0992
 3889SOL    HW223130   3.070   1.358   4.021 -0.0064  0.5669  0.7722
 3890SOL     OW23131   4.200   1.022   2.444 -0.4674 -0.2226 -0.2952
 3890SOL    HW123132   4.105   1.028   2.453 -0.6573 -1.2702 -1.6665
 3890SOL    HW223133   4.221   0.942   2.492 -1.4005 -0.1267  0.2840
 3891SOL     OW23134   3.973   4.429   2.766 -0.0513  0.8418 -0.3879
 3891SOL    HW123135   4.047   4.456   2.711 -0.1243  0.8175 -0.4978
 3891SOL    HW223136   3.918   4.375   2.710  0.5614  0.3783 -0.5418
 3892SOL     OW23137   3.789   2.000  11.342 -0.1801 -0.3293  0.2527
 3892SOL    HW123138   3.761   2.089  11.320 -0.1502 -0.1201  1.0655
 3892SOL    HW223139   3.824   1.981  11.255  4.4531 -1.0712  2.3108
 3893SOL     OW23140   0.952   0.349   4.446  0.1883 -0.2072  0.1088
 3893SOL    HW123141   0.904   0.289   4.388  0.4518  0.3656 -0.7056
 3893SOL    HW223142   0.986   0.411   4.382  1.2468 -0.1131  0.7608
 3894SOL     OW23143   0.731   2.533   1.850  0.0823  0.4068  0.0177
 3894SOL    HW123144   0.672   2.532   1.775  1.3198  1.1049 -0.9571
 3894SOL    HW223145   0.668   2.496   1.912  3.4168 -2.6666  1.5611
 3895SOL     OW23146   1.797   1.623   4.265 -0.7093  0.2744  0.4474
 3895SOL    HW123147   1.798   1.696   4.203 -0.2141  0.0538  0.2021
 3895SOL    HW223148   1.814   1.663   4.351  1.5412 -2.1699  1.1356
 3896SOL     OW23149   1.113   1.961  10.261 -0.7042  0.5017  0.5569
 3896SOL    HW123150   1.056   1.918  10.324 -0.5804 -1.1006 -0.4326
 3896SOL    HW223151   1.151   2.034  10.310 -0.1216  0.2153  0.5374
 3897SOL     OW23152   0.702   1.704   3.564  0.3911  0.2713 -0.5336
 3897SOL    HW123153   0.657   1.786   3.581 -0.4641 -0.1233 -0.9012
 3897SOL    HW223154   0.758   1.729   3.490 -0.0711 -0.3635 -1.1030
 3898SOL     OW23155   1.355   2.090  12.510  0.7826 -0.2622  0.9922
 3898SOL    HW123156   1.285   2.155  12.505  0.4052 -0.6701  0.9869
 3898SOL    HW223157   1.435   2.138  12.489  0.9363 -0.5707  0.8642
 3899SOL     OW23158   2.423   1.195   4.601 -0.4075  0.5713  0.0665
 3899SOL    HW123159   2.451   1.123   4.543  1.2227  0.2922  1.1942
 3899SOL    HW223160   2.469   1.273   4.568 -0.0971  0.5082  0.3511
 3900SOL     OW23161   2.187   3.343   9.044  0.3544  0.0938  0.0121
 3900SOL    HW123162   2.258   3.402   9.070  0.9784 -1.1400  1.0983
 3900SOL    HW223163   2.170   3.300   9.128  0.4855  0.4531  0.2280
 3901SOL     OW23164   1.301   2.844   4.106  0.3339  0.3827  0.0602
 3901SOL    HW123165   1.260   2.763   4.074 -1.3612  1.0280  0.6189
 3901SOL    HW223166   1.226   2.888   4.145  1.0945  1.9669 -0.2889
 3902SOL     OW23167   4.213   2.336   8.309  0.2809 -0.2295 -0.1410
 3902SOL    HW123168   4.271   2.361   8.382 -1.7042 -0.9826  1.7075
 3902SOL    HW223169   4.206   2.243   8.330 -0.9942 -0.4477 -1.5588
 3903SOL     OW23170   3.591   2.688   8.177 -0.0123  0.2532 -0.2732
 3903SOL    HW123171   3.517   2.634   8.152 -0.1223  1.1948 -1.9869
 3903SOL    HW223172   3.541   2.753   8.225 -0.4688 -0.0968 -0.2782
 3904SOL     OW23173   1.613   1.899   3.077 -0.1345 -0.0080  0.1661
 3904SOL    HW123174   1.677   1.887   3.147  2.2330  3.6871 -1.3566
 3904SOL    HW223175   1.529   1.913   3.121  0.2526 -1.0370  1.2380
 3905SOL     OW23176   3.923   0.972   2.471 -0.0031 -0.9571  0.1424
 3905SOL    HW123177   3.843   0.938   2.512  0.0793 -0.1168  1.0027
 3905SOL    HW223178   3.943   0.909   2.402 -0.6229 -0.3678 -0.5834
 3906SOL     OW23179   1.764   3.502   0.292 -0.3501  0.0435  0.2543
 3906SOL    HW123180   1.669   3.496   0.303 -0.4596  0.0832 -0.6380
 3906SOL    HW223181   1.794   3.545   0.372  0.5123 -0.2536  0.0846
 3907SOL     OW23182   4.137   0.524   6.641  0.7597  0.2539 -0.2335
 3907SOL    HW123183   4.045   0.533   6.616 -0.0567 -3.1821  1.6538
 3907SOL    HW223184   4.159   0.435   6.615  2.9178  0.7164 -0.0155
 3908SOL     OW23185   4.110   0.747   5.432  0.0783 -0.3153  0.0833
 3908SOL    HW123186   4.166   0.799   5.374 -3.9397  3.1885 -0.6444
 3908SOL    HW223187   4.090   0.816   5.495  0.4907  0.3068 -0.4564
 3909SOL     OW23188   2.636   3.448   7.117  0.0781 -0.5858 -0.5688
 3909SOL    HW123189   2.613   3.494   7.198 -0.6701  1.5253 -1.9859
 3909SOL    HW223190   2.625   3.521   7.056 -1.2349 -2.5904 -2.7001
 3910SOL     OW23191   1.985   4.103   4.974  0.1029  0.0842  0.0983
 3910SOL    HW123192   2.026   4.151   5.045 -0.7825  0.5490  0.2938
 3910SOL    HW223193   1.959   4.170   4.910 -0.5466 -0.5094 -0.2692
 3911SOL     OW23194   1.856   2.326   2.105  0.0403 -0.1696 -0.0161
 3911SOL    HW123195   1.923   2.360   2.045  0.7042 -0.3876  0.6049
 3911SOL    HW223196   1.795   2.398   2.114 -0.5038 -0.4172 -1.6656
 3912SOL     OW23197   0.293   1.439  12.948 -0.1170 -0.2755  0.3400
 3912SOL    HW123198   0.343   1.503  12.998  0.3084 -0.6433  0.3887
 3912SOL    HW223199   0.352   1.420  12.875  1.5282 -0.9043  1.8465
 3913SOL     OW23200   2.604   3.863   4.350 -0.3034  0.3724 -0.3063
 3913SOL    HW123201   2.607   3.839   4.443 -0.5707  0.6417 -0.2312
 3913SOL    HW223202   2.584   3.775   4.317  0.6672  0.1368 -0.2818
 3914SOL     OW23203   1.031   0.513   4.242  0.2846 -0.5079 -0.3722
 3914SOL    HW123204   1.043   0.513   4.147  1.2573 -2.9836 -0.2552
 3914SOL    HW223205   1.011   0.606   4.252  1.1850 -0.4154  0.5738
 3915SOL     OW23206   3.489   1.434   4.670 -0.7014 -0.2637 -0.6843
 3915SOL    HW123207   3.437   1.399   4.743  1.3018 -0.8583  0.4652
 3915SOL    HW223208   3.552   1.492   4.713 -1.6289 -0.2008  0.5945
 3916SOL     OW23209   1.505   3.189   9.449 -0.0844 -0.0545 -0.6306
 3916SOL    HW123210   1.507   3.257   9.516  0.1723 -1.0796  0.4136
 3916SOL    HW223211   1.555   3.116   9.486  2.1603  0.8532 -1.9144
 3917SOL     OW23212   1.023   3.541  13.558 -0.3775 -0.2638 -0.3677
 3917SOL    HW123213   1.060   3.591  13.485 -0.4047 -1.1078 -0.9661
 3917SOL    HW223214   1.096   3.479  13.557  1.6900  2.2006 -2.7040
 3918SOL     OW23215   2.184   3.063   2.528 -0.7090 -0.3650 -0.1409
 3918SOL    HW123216   2.143   3.114   2.597 -0.7882  1.3581 -1.4595
 3918SOL    HW223217   2.167   2.970   2.544 -1.6884  0.1315  1.6907
 3919SOL     OW23218   2.389   0.113  17.547 -0.0828  0.2138 -0.4664
 3919SOL    HW123219   2.348   0.199  17.558 -1.5495 -0.3725 -1.2859
 3919SOL    HW223220   2.311   0.059  17.561  1.3705 -1.5615  0.6020
 3920SOL     OW23221   3.317   0.810   5.271  0.4458 -0.0682  0.1011
 3920SOL    HW123222   3.226   0.837   5.261  0.6981  0.2303 -1.3779
 3920SOL    HW223223   3.356   0.874   5.331  3.8348 -1.7401 -0.3244
 3921SOL     OW23224   1.012   0.617  17.618 -0.1033  0.2087  0.6075
 3921SOL    HW123225   1.088   0.558  17.618  0.3960  0.8791 -2.8908
 3921SOL    HW223226   1.007   0.635  17.712 -3.5154  0.7045  0.3126
 3922SOL     OW23227   2.373   0.851  11.435 -0.2924  0.8981  0.5381
 3922SOL    HW123228   2.442   0.862  11.369  0.1526  0.4223  0.9162
 3922SOL    HW223229   2.313   0.916  11.400  0.0026  0.7184 -0.2938
 3923SOL     OW23230   3.206   0.444  12.210  0.2256  0.0384 -0.4456
 3923SOL    HW123231   3.267   0.406  12.147  1.6532  0.0515  0.9416
 3923SOL    HW223232   3.129   0.387  12.199 -0.2959  1.1724 -2.5376
 3924SOL     OW23233   1.931   1.278   6.076 -0.2944  0.0518 -0.0910
 3924SOL    HW123234   1.848   1.324   6.061 -0.1107 -0.0001 -1.2231
 3924SOL    HW223235   1.922   1.263   6.170  1.3536 -0.9071 -0.0963
 3925SOL     OW23236   4.506   3.154   9.931  0.5461 -0.3135 -0.2628
 3925SOL    HW123237   4.522   3.150  10.025  0.2349  0.5877 -0.1741
 3925SOL    HW223238   4.417   3.119   9.929 -0.0603  1.2642 -0.4073
 3926SOL     OW23239   3.094   2.955   2.108  0.2380  0.8367 -0.5344
 3926SOL    HW123240   3.158   2.896   2.067 -2.2425 -1.5980 -0.9185
 3926SOL    HW223241   3.040   2.903   2.167 -0.7046  2.4448  0.0196
 3927SOL     OW23242   0.850   2.201   5.146 -0.2461 -0.3443 -0.4935
 3927SOL    HW123243   0.849   2.213   5.241  1.9172 -0.2477 -0.4802
 3927SOL    HW223244   0.912   2.129   5.137 -0.8049 -0.7616 -1.0108
 3928SOL     OW23245   0.449   2.431   8.803  0.0217  0.2336 -0.2608
 3928SOL    HW123246   0.485   2.405   8.888  0.5724  0.5564 -0.3937
 3928SOL    HW223247   0.375   2.371   8.793 -1.1100  1.5511  0.2603
 3929SOL     OW23248   0.487   1.318   5.558  0.7076  0.4115  0.3051
 3929SOL    HW123249   0.494   1.274   5.473  1.9508  0.8525  0.1727
 3929SOL    HW223250   0.446   1.399   5.529  0.1848  0.1942  0.4455
 3930SOL     OW23251   2.446   3.140  15.397 -0.0707 -0.4028 -0.1673
 3930SOL    HW123252   2.494   3.222  15.387 -0.0018 -0.6159 -1.4878
 3930SOL    HW223253   2.354   3.162  15.379  0.4666  2.0690  0.0652
 3931SOL     OW23254   1.237   1.819  12.803 -0.2200 -0.2840  0.2946
 3931SOL    HW123255   1.264   1.895  12.750  1.3726 -1.6930 -0.9249
 3931SOL    HW223256   1.142   1.827  12.803 -0.0858  1.4466  1.7729
 3932SOL     OW23257   1.650   2.995   1.657 -0.1999  0.0025  0.5705
 3932SOL    HW123258   1.566   2.974   1.696 -0.4037  0.2585  0.2654
 3932SOL    HW223259   1.675   3.077   1.701 -0.1457  1.7594 -2.7216
 3933SOL     OW23260   1.787   1.239   1.882 -0.0518  0.0176 -0.2230
 3933SOL    HW123261   1.741   1.321   1.867 -1.3162 -1.0651 -2.3520
 3933SOL    HW223262   1.851   1.271   1.945 -0.2141  1.9546 -1.0443
 3934SOL     OW23263   2.984   0.700   9.104  0.0019  0.1431 -0.4328
 3934SOL    HW123264   3.029   0.662   9.180  0.1060  0.4073 -0.3659
 3934SOL    HW223265   2.927   0.623   9.092  0.7049 -0.4833  0.2458
 3935SOL     OW23266   3.578   3.654   4.816 -0.1593  0.4371  0.2985
 3935SOL    HW123267   3.606   3.566   4.840 -1.8901 -0.3237 -0.4410
 3935SOL    HW223268   3.518   3.627   4.746 -0.6940  0.0973  0.8827
 3936SOL     OW23269   3.053   1.666   8.080 -0.1956 -0.3068  0.3969
 3936SOL    HW123270   2.973   1.710   8.051  1.6774  0.9611 -2.7993
 3936SOL    HW223271   3.064   1.586   8.028  1.2928  0.6362 -0.7477
 3937SOL     OW23272   2.851   3.935   4.708  0.4311  0.3707  0.2450
 3937SOL    HW123273   2.909   3.866   4.678 -1.9901 -2.5812  2.2604
 3937SOL    HW223274   2.884   3.955   4.795  0.8681  0.0361  0.1559
 3938SOL     OW23275   0.975   4.526   9.901 -0.2229  0.1910 -0.3585
 3938SOL    HW123276   1.041   4.465   9.867  0.4111  0.7014 -0.0363
 3938SOL    HW223277   0.896   4.486   9.865  0.5939  0.3822 -2.3936
 3939SOL     OW23278   2.323   1.443  10.315 -0.1495 -0.3423 -0.3749
 3939SOL    HW123279   2.399   1.417  10.263 -0.4166  2.0194 -1.9477
 3939SOL    HW223280   2.270   1.364  10.303 -2.1572  1.0211 -0.3969
 3940SOL     OW23281   2.107   4.104   5.822 -0.1449  0.5812  0.2913
 3940SOL    HW123282   2.131   4.012   5.806  0.4414  0.9181 -0.7350
 3940SOL    HW223283   2.181   4.136   5.873  2.0468 -0.4488 -2.2371
 3941SOL     OW23284   2.939   4.038   5.353 -0.2802 -0.0872  0.0403
 3941SOL    HW123285   3.022   4.072   5.319  0.5051 -3.5714 -1.4840
 3941SOL    HW223286   2.953   4.033   5.448 -2.7450  2.0478  0.5118
 3942SOL     OW23287   4.186   2.727   4.303 -0.6195  0.1420  1.0681
 3942SOL    HW123288   4.142   2.801   4.344 -0.7589  1.6704 -1.8417
 3942SOL    HW223289   4.132   2.730   4.224  1.0289  1.5466 -0.0159
 3943SOL     OW23290   0.584   2.184   6.402 -0.1084  0.2834  0.2759
 3943SOL    HW123291   0.588   2.144   6.489 -2.2785  0.1965  0.3360
 3943SOL    HW223292   0.635   2.265   6.404  0.1271  0.1151  1.1538
 3944SOL     OW23293   2.019   3.874   7.399 -0.6796 -0.5110 -0.9525
 3944SOL    HW123294   2.016   3.880   7.495  1.8534 -1.8419 -0.7704
 3944SOL    HW223295   1.928   3.878   7.370 -1.3756 -0.6288  1.1954
 3945SOL     OW23296   1.846   3.096   6.296  0.4941 -0.0374  0.4231
 3945SOL    HW123297   1.878   3.095   6.387  2.5208  1.7592 -0.2705
 3945SOL    HW223298   1.818   3.004   6.291  0.4881  0.0887 -1.7241
 3946SOL     OW23299   1.859   3.118   4.564  0.0713  0.1003 -0.6487
 3946SOL    HW123300   1.882   3.205   4.597  0.3528 -0.0777 -0.3817
 3946SOL    HW223301   1.769   3.140   4.539 -0.9290 -0.3238  2.6887
 3947SOL     OW23302   2.878   0.077   6.434  0.0252 -0.1775 -0.0057
 3947SOL    HW123303   2.886   0.104   6.526 -1.0654  1.8711 -0.5279
 3947SOL    HW223304   2.820   0.001   6.440 -1.0773  0.5754 -1.4541
 3948SOL     OW23305   0.828   4.376   2.178  0.4584  0.0048 -0.4169
 3948SOL    HW123306   0.923   4.372   2.165  0.7117  2.0123  0.6403
 3948SOL    HW223307   0.783   4.362   2.095 -1.5987 -0.4382  0.7821
 3949SOL     OW23308   0.579   2.948   6.659 -0.0207 -0.5063  0.1032
 3949SOL    HW123309   0.496   2.901   6.665  1.1329 -2.5473 -0.0928
 3949SOL    HW223310   0.630   2.906   6.728 -0.1018  1.3514  1.3074
 3950SOL     OW23311   2.433   3.168   7.571  0.1084  0.0445 -0.4996
 3950SOL    HW123312   2.497   3.211   7.628  0.2813  1.6365 -1.8971
 3950SOL    HW223313   2.411   3.235   7.506  1.9963  0.4745 -0.7064
 3951SOL     OW23314   1.888   4.556  17.548 -0.3026  0.0355 -0.0362
 3951SOL    HW123315   1.841   4.472  17.552  0.6817 -0.5509 -0.7336
 3951SOL    HW223316   1.973   4.519  17.527  1.3994  3.2562  1.2261
 3952SOL     OW23317   2.157   0.833   0.489 -0.2806 -0.1344  0.2171
 3952SOL    HW123318   2.123   0.762   0.434  0.6312 -2.5911  2.8617
 3952SOL    HW223319   2.097   0.825   0.563 -2.0955  0.8566 -1.1296
 3953SOL     OW23320   2.500   2.490  13.801  0.5074 -0.0761 -0.2492
 3953SOL    HW123321   2.424   2.466  13.749 -0.1916 -0.8099  1.1289
 3953SOL    HW223322   2.521   2.566  13.745 -2.5053  1.2978  0.4805
 3954SOL     OW23323   4.152   2.279   6.010 -0.2241  0.5826  0.4671
 3954SOL    HW123324   4.101   2.274   6.091 -2.6654  1.2411 -1.0176
 3954SOL    HW223325   4.123   2.202   5.961  2.0704  0.0431 -0.0448
 3955SOL     OW23326   3.471   4.007   6.214  0.6088  0.0369 -0.3428
 3955SOL    HW123327   3.494   4.051   6.132  2.7010 -0.5814 -0.0779
 3955SOL    HW223328   3.506   4.064   6.283 -0.9073  1.2541 -0.5765
 3956SOL     OW23329   3.364   2.336  15.804  0.5554 -0.6866 -0.9227
 3956SOL    HW123330   3.441   2.353  15.749  0.5453 -1.0417 -1.0488
 3956SOL    HW223331   3.308   2.402  15.764 -0.2553 -1.4366 -1.0229
 3957SOL     OW23332   1.685   2.711   2.860 -0.3726 -0.4849  0.2286
 3957SOL    HW123333   1.641   2.709   2.776  0.3212  0.5283 -0.1581
 3957SOL    HW223334   1.777   2.725   2.838 -0.0120  0.2904  2.1476
 3958SOL     OW23335   3.018   1.201  13.720  0.2516 -0.0431  0.3753
 3958SOL    HW123336   2.975   1.119  13.745  0.6130  0.3923  2.4288
 3958SOL    HW223337   3.066   1.212  13.802  0.0009  2.6186  0.1424
 3959SOL     OW23338   4.022   3.127   6.144  0.3939  0.5578 -0.9904
 3959SOL    HW123339   4.003   3.215   6.178 -1.7229 -0.4754  0.5049
 3959SOL    HW223340   3.965   3.066   6.190 -0.8174  1.7125 -0.9457
 3960SOL     OW23341   3.043   3.185   1.845  0.0468  0.3263 -0.3524
 3960SOL    HW123342   3.015   3.145   1.762 -0.7233 -1.3215  0.7075
 3960SOL    HW223343   3.049   3.116   1.910  0.1838  0.1938 -0.5038
 3961SOL     OW23344   3.140   1.149   8.994 -0.3168 -0.6030  0.2103
 3961SOL    HW123345   3.093   1.072   8.963 -0.4127  0.3096 -1.9054
 3961SOL    HW223346   3.214   1.097   9.025 -0.1440 -0.6301 -0.2530
 3962SOL     OW23347   1.535   3.520  14.420  0.2796 -0.0168  0.4156
 3962SOL    HW123348   1.617   3.531  14.372 -1.3603  4.0181 -1.4462
 3962SOL    HW223349   1.536   3.597  14.476 -2.0717  0.8502 -0.7413
 3963SOL     OW23350   1.005   4.325  14.063  0.3531 -0.5520  0.5722
 3963SOL    HW123351   0.943   4.262  14.026 -0.0840  2.1715 -3.3028
 3963SOL    HW223352   0.966   4.410  14.044  0.2072 -0.9295 -0.7892
 3964SOL     OW23353   0.092   2.166   6.110  0.3524 -0.7204  0.8830
 3964SOL    HW123354   0.023   2.231   6.098  2.6295  1.4794 -0.3447
 3964SOL    HW223355   0.130   2.186   6.195  1.1746 -0.8572  0.5540
 3965SOL     OW23356   2.572   1.232   5.364  0.5140 -0.5249  0.1016
 3965SOL    HW123357   2.583   1.137   5.370  2.6826 -0.3521 -0.9920
 3965SOL    HW223358   2.504   1.240   5.298 -0.4203 -1.3193  0.9752
 3966SOL     OW23359   1.855   1.323  10.441  0.0196 -0.5143 -0.0152
 3966SOL    HW123360   1.852   1.262  10.367  0.4215  1.5925 -1.7727
 3966SOL    HW223361   1.802   1.275  10.504  1.0322 -2.5710 -0.7455
 3967SOL     OW23362   1.070   1.188   6.318 -0.2077 -0.4557 -0.0163
 3967SOL    HW123363   1.147   1.145   6.357 -0.1548 -0.0188  0.3697
 3967SOL    HW223364   1.058   1.266   6.373 -2.2926  0.0554 -1.2326
 3968SOL     OW23365   0.956   3.487  11.525  0.1767 -0.3283 -0.2908
 3968SOL    HW123366   0.991   3.440  11.601  1.6056  0.1703 -0.6430
 3968SOL    HW223367   0.903   3.556  11.564  0.6323  0.4084 -0.9911
 3969SOL     OW23368   1.677   4.233   5.688 -0.4793  0.6781  0.1411
 3969SOL    HW123369   1.728   4.184   5.753 -1.7252  0.9247  1.3317
 3969SOL    HW223370   1.737   4.255   5.617 -0.9557 -1.8023 -1.0048
 3970SOL     OW23371   3.874   0.979  15.280 -0.3735 -0.1582  0.6063
 3970SOL    HW123372   3.862   0.992  15.374  1.2425  0.1326  0.7723
 3970SOL    HW223373   3.958   0.933  15.277  0.2280  1.0282 -0.4112
 3971SOL     OW23374   1.831   1.008   9.105  0.2740  0.3312 -0.0964
 3971SOL    HW123375   1.807   1.100   9.100  0.4713  0.3547 -0.6299
 3971SOL    HW223376   1.786   0.966   9.032  3.2262 -0.8098 -1.2921
 3972SOL     OW23377   2.696   3.588   7.750 -0.0410 -0.1393 -0.1361
 3972SOL    HW123378   2.789   3.570   7.737 -0.8178 -3.3336 -1.2155
 3972SOL    HW223379   2.677   3.622   7.663  2.4405 -0.2242 -0.7023
 3973SOL     OW23380   3.209   3.844   5.627 -0.4724 -0.0023  0.2691
 3973SOL    HW123381   3.114   3.843   5.636 -0.4924  0.0534  0.0543
 3973SOL    HW223382   3.217   3.921   5.571  0.3933  1.1478  1.9831
 3974SOL     OW23383   1.817   3.884   6.462  0.0670  0.4820  0.1939
 3974SOL    HW123384   1.841   3.839   6.381  2.5504 -0.7083  1.5747
 3974SOL    HW223385   1.734   3.844   6.485 -0.0116  0.7276  0.3339
 3975SOL     OW23386   3.024   2.028   1.207 -0.3455  0.5235 -0.2553
 3975SOL    HW123387   2.957   2.064   1.265 -1.1797 -0.8481 -0.3484
 3975SOL    HW223388   2.973   1.951   1.180  2.3137 -0.8755 -1.3716
 3976SOL     OW23389   3.637   4.228  13.869 -0.4192  0.5878  0.4628
 3976SOL    HW123390   3.729   4.241  13.888 -0.3462 -1.5776  1.6784
 3976SOL    HW223391   3.613   4.291  13.802 -0.5332  0.6737  0.5835
 3977SOL     OW23392   3.258   3.572   7.863 -0.3054  0.3387  0.2283
 3977SOL    HW123393   3.261   3.512   7.788 -0.0899 -0.6744  1.0498
 3977SOL    HW223394   3.308   3.645   7.826  2.8469 -0.9679  1.8558
 3978SOL     OW23395   2.263   2.910   4.810  0.2944  0.8181 -0.0258
 3978SOL    HW123396   2.306   2.868   4.885 -2.2849  0.5097  1.2920
 3978SOL    HW223397   2.279   3.002   4.832  3.8273 -0.0386  0.9055
 3979SOL     OW23398   0.685   3.901   5.008 -0.2074  0.1047  0.5415
 3979SOL    HW123399   0.639   3.905   5.092 -0.2581 -0.9562  0.5578
 3979SOL    HW223400   0.777   3.922   5.026 -0.2248 -1.8524  2.8514
 3980SOL     OW23401   3.163   4.444  14.960  0.0087  0.4140  0.0567
 3980SOL    HW123402   3.257   4.451  14.969  0.2487  0.2628 -2.2976
 3980SOL    HW223403   3.150   4.490  14.877 -0.1022  0.1964 -0.0493
 3981SOL     OW23404   3.361   2.655  12.702  0.2291 -0.1123  0.0658
 3981SOL    HW123405   3.351   2.742  12.663  0.2763  0.2927  0.9679
 3981SOL    HW223406   3.274   2.631  12.734  1.9195 -1.4330  3.6594
 3982SOL     OW23407   3.403   2.988   2.177  1.0588  0.2362  0.3212
 3982SOL    HW123408   3.353   2.936   2.115  2.5362 -0.3749 -0.3598
 3982SOL    HW223409   3.461   3.029   2.113  0.0478  2.7873  1.0532
 3983SOL     OW23410   2.761   0.719   3.737 -0.2206 -0.5499 -0.2540
 3983SOL    HW123411   2.855   0.724   3.716  0.1525  0.1403  1.5680
 3983SOL    HW223412   2.732   0.798   3.692 -0.5554  0.0742  1.0933
 3984SOL     OW23413   0.289   0.433   9.160 -0.3593  0.7005  0.0022
 3984SOL    HW123414   0.195   0.423   9.175 -0.5263  2.1098 -0.1691
 3984SOL    HW223415   0.312   0.476   9.242  1.2082 -3.0495  1.5131
 3985SOL     OW23416   2.666   2.361   8.323 -0.3501  0.1273 -0.1307
 3985SOL    HW123417   2.715   2.326   8.397  0.8736  0.8148 -0.6049
 3985SOL    HW223418   2.698   2.305   8.252  2.1372 -0.7874  1.7182
 3986SOL     OW23419   2.341   1.155   8.006 -0.1556  0.4177  0.0121
 3986SOL    HW123420   2.326   1.224   7.942  2.9405  0.6459 -0.4722
 3986SOL    HW223421   2.281   1.176   8.077  0.0860  1.1942 -0.0189
 3987SOL     OW23422   2.017   3.376   4.308  0.3178  0.5026 -0.1416
 3987SOL    HW123423   1.960   3.418   4.372 -1.5993 -2.1909 -0.0705
 3987SOL    HW223424   1.955   3.355   4.238 -0.9820  2.4608  0.4452
 3988SOL     OW23425   0.722   2.459  13.191 -0.3379 -0.1369  0.5311
 3988SOL    HW123426   0.737   2.550  13.215  1.0277  0.3000 -2.0547
 3988SOL    HW223427   0.788   2.450  13.122 -1.2839  1.4716 -0.5731
 3989SOL     OW23428   1.116   3.560   0.099  0.1917 -0.1248 -0.2733
 3989SOL    HW123429   1.084   3.473   0.077  1.0018 -0.7559  1.0273
 3989SOL    HW223430   1.205   3.537   0.124  0.5205  0.4601 -0.9085
 3990SOL     OW23431   3.599   1.834   6.269 -0.6926  0.1687 -0.5810
 3990SOL    HW123432   3.673   1.850   6.211 -1.9815  1.9931 -1.7338
 3990SOL    HW223433   3.591   1.914   6.321  0.1484  0.9535 -1.6827
 3991SOL     OW23434   0.774   0.586   7.417 -0.0608  0.3536 -0.2268
 3991SOL    HW123435   0.734   0.672   7.411 -0.8434  0.1797  2.5579
 3991SOL    HW223436   0.847   0.605   7.475  0.1227  0.9672 -0.6634
 3992SOL     OW23437   0.144   0.847  11.622  0.2614 -0.0377 -0.1644
 3992SOL    HW123438   0.096   0.929  11.624  0.7913  0.2401  1.2592
 3992SOL    HW223439   0.128   0.829  11.530 -0.5915  0.5394 -0.1296
 3993SOL     OW23440   0.067   2.933   2.117 -0.0574 -0.2285  0.6212
 3993SOL    HW123441   0.101   3.005   2.170  3.2115 -1.2191 -0.1245
 3993SOL    HW223442   4.707   2.964   2.103  0.3058 -0.6357 -2.5176
 3994SOL     OW23443   4.629   3.925   5.034  0.1504 -0.0289 -0.1982
 3994SOL    HW123444   4.533   3.915   5.031  0.0859  0.4731  0.2990
 3994SOL    HW223445   4.636   3.971   4.951  1.9333 -0.3416 -0.2229
 3995SOL     OW23446   0.096   4.528   1.862  0.2131  0.6365  0.0883
 3995SOL    HW123447   0.156   4.557   1.792  0.6893 -1.1830 -0.2690
 3995SOL    HW223448   0.034   4.477   1.810  0.0094 -0.3797  1.3546
 3996SOL     OW23449   3.807   1.111   9.430 -0.1040  0.2712 -0.6780
 3996SOL    HW123450   3.733   1.052   9.445  0.3455  0.7833  3.4828
 3996SOL    HW223451   3.767   1.198   9.421 -0.1455  0.1885 -1.2586
 3997SOL     OW23452   3.578   4.587  15.600  0.1769  0.0760 -0.9264
 3997SOL    HW123453   3.634   4.562  15.526  0.1508 -0.7998 -0.6520
 3997SOL    HW223454   3.503   4.528  15.587 -0.1805  0.7804 -2.0625
 3998SOL     OW23455   2.152   2.439   7.998 -0.2169 -0.2229 -0.4739
 3998SOL    HW123456   2.208   2.463   8.071  1.0147 -1.4077 -1.0437
 3998SOL    HW223457   2.224   2.408   7.943 -1.4912 -2.2748 -0.9695
 3999SOL     OW23458   1.386   4.190   8.817 -0.4932 -0.0178 -0.0306
 3999SOL    HW123459   1.296   4.169   8.842 -1.2429  1.7465 -1.2776
 3999SOL    HW223460   1.408   4.282   8.829 -0.3767 -0.0941  0.3379
 4000SOL     OW23461   1.191   2.459   5.608 -0.1284 -0.1335 -0.2100
 4000SOL    HW123462   1.286   2.443   5.606  0.4067  3.1715 -1.5381
 4000SOL    HW223463   1.175   2.539   5.659  1.4986 -1.4232  2.3583
 4001SOL     OW23464   4.619   4.428   8.896 -0.1721 -0.5176 -0.0360
 4001SOL    HW123465   4.619   4.368   8.971  1.0807 -1.2576 -0.6173
 4001SOL    HW223466   4.667   4.506   8.922  0.7944 -0.4088 -2.1258
 4002SOL     OW23467   0.542   1.793   1.677  0.0442  0.4005 -0.2578
 4002SOL    HW123468   0.531   1.888   1.684 -2.7294  0.0001  1.0971
 4002SOL    HW223469   0.581   1.789   1.590 -0.9776  1.5520 -0.7706
 4003SOL     OW23470   2.384   1.475   3.118  0.6008  0.4164 -0.0414
 4003SOL    HW123471   2.347   1.563   3.108  0.0900  0.1735 -0.3145
 4003SOL    HW223472   2.417   1.458   3.030  0.5539 -0.3377  0.0837
 4004SOL     OW23473   0.839   0.011   2.018  0.5196  0.0450  0.2708
 4004SOL    HW123474   0.747   0.040   2.024 -0.1091 -1.6013 -1.3990
 4004SOL    HW223475   0.889   0.091   2.001  0.2523  0.0783 -0.3503
 4005SOL     OW23476   0.819   2.219   2.139 -0.2932 -0.1918 -0.5191
 4005SOL    HW123477   0.782   2.295   2.094 -0.3722 -0.6863 -1.2923
 4005SOL    HW223478   0.835   2.163   2.063  3.8659 -0.7400  0.7456
 4006SOL     OW23479   2.477   3.668   9.900 -0.1120 -0.1162 -0.3990
 4006SOL    HW123480   2.563   3.631   9.919 -0.4050 -0.4792  0.2481
 4006SOL    HW223481   2.421   3.603   9.944 -0.9239  1.3011  0.6755
 4007SOL     OW23482   0.742   3.463   3.268  0.2342 -0.3414 -0.5745
 4007SOL    HW123483   0.735   3.380   3.221 -2.0136 -0.8940  0.7340
 4007SOL    HW223484   0.662   3.495   3.226 -0.7023 -2.1203 -0.1516
 4008SOL     OW23485   4.037   2.343   1.095  0.4224  0.0717  0.5169
 4008SOL    HW123486   4.028   2.309   1.006  1.0041 -0.4478  0.6561
 4008SOL    HW223487   4.100   2.282   1.133 -0.5369 -1.9761 -1.1791
 4009SOL     OW23488   3.415   3.160   9.338  0.2563  0.0969  0.6908
 4009SOL    HW123489   3.323   3.138   9.328  0.3541  0.6218 -1.2577
 4009SOL    HW223490   3.424   3.169   9.433 -1.4162  0.0799  0.8565
 4010SOL     OW23491   1.529   0.113   4.176  0.0353  0.3634 -0.2221
 4010SOL    HW123492   1.485   0.037   4.213  0.5515 -0.8726 -2.1478
 4010SOL    HW223493   1.537   0.162   4.258 -2.2005 -0.4477  0.4667
 4011SOL     OW23494   1.401   3.378   6.193  0.0149 -0.1545  0.2507
 4011SOL    HW123495   1.362   3.439   6.255  0.5184  1.0331 -0.6153
 4011SOL    HW223496   1.488   3.354   6.225  1.3110  2.7055 -1.1552
 4012SOL     OW23497   4.032   1.496  10.743  0.2363 -0.1807  0.0268
 4012SOL    HW123498   3.995   1.408  10.736  0.5069 -0.0505 -3.0385
 4012SOL    HW223499   4.022   1.513  10.837  3.1184  0.6942  0.1642
 4013SOL     OW23500   4.594   2.597   8.428  0.6634 -0.1909  0.1891
 4013SOL    HW123501   4.644   2.603   8.346  1.7863 -2.1457  0.7321
 4013SOL    HW223502   4.621   2.681   8.465  0.6959  0.7742 -2.0058
 4014SOL     OW23503   1.523   4.669  15.728  0.5479  0.5269 -0.1513
 4014SOL    HW123504   1.581   4.622  15.668  0.4604 -0.7267  0.7388
 4014SOL    HW223505   1.574   4.680  15.809 -0.1277 -0.5755  0.4246
 4015SOL     OW23506   2.257   0.334   7.148  0.0658  0.4375 -0.1831
 4015SOL    HW123507   2.338   0.344   7.199  2.3344  1.2860 -3.9948
 4015SOL    HW223508   2.286   0.346   7.058 -0.1423  0.1657 -0.2855
 4016SOL     OW23509   3.532   0.554  17.010 -0.2948  0.3339 -0.2028
 4016SOL    HW123510   3.614   0.516  17.042 -0.7646 -0.2117  0.3403
 4016SOL    HW223511   3.517   0.625  17.072  2.5092  1.8911 -1.2877
 4017SOL     OW23512   1.016   0.221   6.796 -0.2158  0.5935 -0.5910
 4017SOL    HW123513   0.960   0.187   6.726  0.9894 -0.2378 -1.1707
 4017SOL    HW223514   0.998   0.152   6.860  0.7087  0.5287 -0.3912
 4018SOL     OW23515   1.658   1.357   5.331 -0.1926  0.8036  0.3644
 4018SOL    HW123516   1.713   1.280   5.344 -0.4247  0.4819 -0.5659
 4018SOL    HW223517   1.573   1.319   5.357  0.1638  0.7199  1.4056
 4019SOL     OW23518   0.889   3.123   6.381 -0.3525 -0.1843 -0.0865
 4019SOL    HW123519   0.962   3.131   6.442 -1.3885 -0.9898  1.2590
 4019SOL    HW223520   0.816   3.184   6.400 -0.9504 -1.1471  0.6873
 4020SOL     OW23521   1.913   4.611  12.504 -0.0277  0.1359 -0.1227
 4020SOL    HW123522   1.953   4.558  12.573  0.9316 -0.2476 -0.9878
 4020SOL    HW223523   1.962   4.576  12.430  0.4912  0.4211  0.0859
 4021SOL     OW23524   1.208   2.877  13.348 -0.3316 -0.1497 -0.2028
 4021SOL    HW123525   1.255   2.840  13.273  1.2341 -0.7901  1.0976
 4021SOL    HW223526   1.205   2.968  13.322  1.2106 -0.7483 -2.4721
 4022SOL     OW23527   1.900   2.000  16.069 -0.1480 -0.2547  0.3334
 4022SOL    HW123528   1.951   1.933  16.025 -3.2471 -0.7069 -2.5291
 4022SOL    HW223529   1.917   1.971  16.159  0.1636 -1.6741 -0.1958
 4023SOL     OW23530   3.694   3.968   3.924  0.0401 -0.4237 -0.0802
 4023SOL    HW123531   3.722   3.954   3.833 -3.9148 -0.0645 -1.3604
 4023SOL    HW223532   3.609   4.003   3.895  0.7059  1.4843  0.2575
 4024SOL     OW23533   0.567   3.544   4.741 -0.1368  0.5248  0.1564
 4024SOL    HW123534   0.488   3.502   4.772  0.9008 -0.4855  1.4123
 4024SOL    HW223535   0.541   3.555   4.650 -0.8767 -1.7472  0.0959
 4025SOL     OW23536   4.053   1.191   5.191 -0.1050  0.6187 -0.6909
 4025SOL    HW123537   4.124   1.251   5.212 -0.6758  0.8159  0.6748
 4025SOL    HW223538   4.098   1.136   5.126 -0.6356 -0.7219  0.0931
 4026SOL     OW23539   1.452   3.190   3.247 -1.2112 -0.2265  0.7196
 4026SOL    HW123540   1.516   3.207   3.178 -1.5876  1.4155  0.7754
 4026SOL    HW223541   1.504   3.151   3.317  2.2542  1.4630 -0.9536
 4027SOL     OW23542   2.136   4.457   2.989  0.4187  0.3503  0.0013
 4027SOL    HW123543   2.224   4.496   2.992 -0.0819  1.4057  0.9661
 4027SOL    HW223544   2.139   4.410   2.906 -1.3137 -0.5355  0.4425
 4028SOL     OW23545   2.218   3.574   5.493 -0.5473 -0.3407 -0.3068
 4028SOL    HW123546   2.232   3.495   5.440  3.0724  0.3558 -0.3645
 4028SOL    HW223547   2.309   3.591   5.517 -1.0053 -0.5391  1.5217
 4029SOL     OW23548   2.844   1.077   7.613 -0.2150  0.1689  0.1760
 4029SOL    HW123549   2.829   1.126   7.694  0.9507  2.2335 -0.8382
 4029SOL    HW223550   2.773   1.014   7.619 -1.8429  1.8922 -1.2903
 4030SOL     OW23551   3.481   2.180   6.634 -0.6154 -0.6714 -0.3250
 4030SOL    HW123552   3.489   2.159   6.728  0.0627  2.5800  0.3561
 4030SOL    HW223553   3.449   2.270   6.639 -2.0505 -1.1895 -0.3227
 4031SOL     OW23554   1.045   4.391   0.141  0.6143  0.2819 -0.1723
 4031SOL    HW123555   1.049   4.295   0.142  1.0938  0.3121  0.4395
 4031SOL    HW223556   0.953   4.399   0.115  0.0139 -1.6064  1.3774
 4032SOL     OW23557   4.254   0.233   7.924 -0.5774 -0.6936 -0.3838
 4032SOL    HW123558   4.345   0.221   7.896  0.0098 -0.2969  1.3722
 4032SOL    HW223559   4.258   0.195   8.012 -1.1376  0.0179 -0.0578
 4033SOL     OW23560   1.247   0.814   2.415  0.2418 -0.1209 -0.1074
 4033SOL    HW123561   1.267   0.757   2.341 -1.4279  0.7031 -1.1950
 4033SOL    HW223562   1.335   0.847   2.433 -0.0161  0.2335  0.5173
 4034SOL     OW23563   4.003   0.977   3.382  0.1032 -0.0400  0.3272
 4034SOL    HW123564   4.081   0.953   3.332  0.8835  1.2941  0.9063
 4034SOL    HW223565   3.943   0.999   3.310  1.1585 -0.4490 -0.6855
 4035SOL     OW23566   0.780   3.873   5.812  0.5251  0.4663 -0.0895
 4035SOL    HW123567   0.731   3.859   5.894  0.3476  0.1249 -0.2549
 4035SOL    HW223568   0.713   3.860   5.745 -1.9404 -0.9435  2.6318
 4036SOL     OW23569   4.529   3.990   1.981 -0.4344 -0.1100  0.3726
 4036SOL    HW123570   4.438   4.004   2.008  0.1098  3.1102  0.5045
 4036SOL    HW223571   4.531   4.040   1.899 -1.3390 -0.2868  0.2323
 4037SOL     OW23572   0.817   2.402   4.165 -0.4388 -0.1116  0.1467
 4037SOL    HW123573   0.826   2.306   4.169  1.2177  0.0701  0.6871
 4037SOL    HW223574   0.722   2.402   4.158 -0.4724 -2.5603  0.2971
 4038SOL     OW23575   2.197   2.137   6.617 -0.3056  0.6467  0.7918
 4038SOL    HW123576   2.243   2.103   6.694 -0.6726 -0.3798  0.5507
 4038SOL    HW223577   2.268   2.112   6.556  0.4298  0.6634  1.6441
 4039SOL     OW23578   3.546   2.419   2.228  0.2415  0.5864 -0.2726
 4039SOL    HW123579   3.556   2.470   2.148 -0.1785 -1.7224 -1.7954
 4039SOL    HW223580   3.506   2.491   2.277 -0.1265 -0.8858  1.5858
 4040SOL     OW23581   2.168   4.317   0.253  0.6463  0.1496  0.4880
 4040SOL    HW123582   2.089   4.303   0.304  0.6407 -0.7206  0.2260
 4040SOL    HW223583   2.223   4.348   0.326 -1.1850  1.9529  1.1179
 4041SOL     OW23584   3.163   3.209   5.628  0.3159  0.1209 -0.2774
 4041SOL    HW123585   3.130   3.254   5.550  1.3908  1.2074 -0.1125
 4041SOL    HW223586   3.077   3.225   5.669  1.0713 -0.8247  1.6766
 4042SOL     OW23587   3.859   4.574  10.306  0.0377  0.1974 -0.2027
 4042SOL    HW123588   3.916   4.637  10.351  3.1784 -1.4852 -1.8301
 4042SOL    HW223589   3.923   4.505  10.290 -1.5008 -0.3687 -3.7987
 4043SOL     OW23590   2.133   0.374  14.484  0.1665  0.1175 -0.0512
 4043SOL    HW123591   2.049   0.381  14.530 -0.1300 -0.1656 -0.5445
 4043SOL    HW223592   2.121   0.308  14.415  1.7192  0.2877 -0.4718
 4044SOL     OW23593   2.774   2.924   8.257 -0.9093 -0.1865 -0.0915
 4044SOL    HW123594   2.726   3.007   8.263 -2.6295 -1.1649 -0.3843
 4044SOL    HW223595   2.732   2.877   8.185 -0.1112 -0.7943 -0.1567
 4045SOL     OW23596   4.152   4.470   1.434 -0.2090  0.6144 -0.1598
 4045SOL    HW123597   4.097   4.391   1.431  0.9499 -0.1263 -1.9710
 4045SOL    HW223598   4.090   4.539   1.410 -0.2571  0.8259  0.5708
 4046SOL     OW23599   1.289   4.727   3.707 -0.1725 -0.0775  0.0443
 4046SOL    HW123600   1.358   4.705   3.644  2.0203  3.0527  1.3490
 4046SOL    HW223601   1.226   4.655   3.700  0.5009 -0.6722  0.1078
 4047SOL     OW23602   3.280   0.029  16.766  0.0373  0.1243  0.1050
 4047SOL    HW123603   3.352   4.694  16.763  0.4082  0.5640 -0.3311
 4047SOL    HW223604   3.291   0.070  16.680 -0.3356 -1.5933 -0.7524
 4048SOL     OW23605   0.405   2.001   7.112 -0.7105 -0.4169 -0.3406
 4048SOL    HW123606   0.331   2.048   7.151  1.0976  1.2484  1.0900
 4048SOL    HW223607   0.481   2.042   7.154  0.4018 -2.8682  0.0420
 4049SOL     OW23608   1.388   2.969   3.870 -0.1730  0.0522  0.1817
 4049SOL    HW123609   1.307   2.983   3.822  1.7776  4.0235 -1.9996
 4049SOL    HW223610   1.349   2.929   3.948 -0.3771  0.2021  0.1572
 4050SOL     OW23611   3.347   1.705   8.528 -0.3623  0.0799  0.3935
 4050SOL    HW123612   3.427   1.738   8.487 -1.1957  1.1442 -0.3992
 4050SOL    HW223613   3.298   1.695   8.446 -0.5459 -2.1692  0.7933
 4051SOL     OW23614   1.985   0.907  17.415  0.4764  0.2356  0.6269
 4051SOL    HW123615   2.071   0.937  17.443  0.6611  0.0783  0.2296
 4051SOL    HW223616   2.020   0.832  17.366  2.3850  0.7771  1.1808
 4052SOL     OW23617   3.831   0.780   4.737 -0.0162 -0.1153  0.1461
 4052SOL    HW123618   3.826   0.780   4.641  3.5396  0.5416 -0.0317
 4052SOL    HW223619   3.918   0.742   4.753 -0.7893 -1.5176  0.9997
 4053SOL     OW23620   2.262   4.522   4.891 -0.1709  0.1101  0.0506
 4053SOL    HW123621   2.279   4.431   4.866 -0.5267 -0.0716  0.4652
 4053SOL    HW223622   2.319   4.568   4.829 -0.0956  0.2434  0.2196
 4054SOL     OW23623   4.108   4.098   8.418 -0.5552  0.2536 -0.0451
 4054SOL    HW123624   4.047   4.120   8.347 -0.6885 -1.6562 -0.5245
 4054SOL    HW223625   4.050   4.125   8.490 -0.4006  0.1708  0.1098
 4055SOL     OW23626   2.975   4.321   4.338  0.0884 -0.3674 -0.4924
 4055SOL    HW123627   2.980   4.273   4.255  4.0673 -2.2669  0.8195
 4055SOL    HW223628   2.891   4.366   4.335 -0.6968 -1.7970  0.0148
 4056SOL     OW23629   1.147   3.143  13.357 -0.4567  0.3855  0.1088
 4056SOL    HW123630   1.171   3.216  13.414  0.7621 -0.7959  1.0897
 4056SOL    HW223631   1.057   3.138  13.389 -0.1426 -1.5830  0.6797
 4057SOL     OW23632   3.706   3.534  16.721  0.6796 -0.0330 -0.0245
 4057SOL    HW123633   3.688   3.512  16.812  3.3999 -1.2977  0.2320
 4057SOL    HW223634   3.746   3.450  16.696 -0.9018 -0.3573 -1.4868
 4058SOL     OW23635   0.088   4.460   7.067 -0.9727 -0.7213 -0.6396
 4058SOL    HW123636   0.110   4.542   7.112 -0.0832 -1.1411 -0.3064
 4058SOL    HW223637   0.143   4.398   7.114 -1.3991  0.3149  1.2546
 4059SOL     OW23638   4.148   1.444   6.082  0.3893 -0.0884  0.5311
 4059SOL    HW123639   4.243   1.441   6.087  0.3907 -1.8356 -0.6052
 4059SOL    HW223640   4.126   1.451   6.175 -0.0546  0.8424  0.3538
 4060SOL     OW23641   3.528   1.667   6.710  0.4868  0.6918 -0.3464
 4060SOL    HW123642   3.588   1.610   6.661 -0.5951 -1.0909  0.3678
 4060SOL    HW223643   3.563   1.699   6.792  2.9594 -0.4413 -0.9576
 4061SOL     OW23644   1.688   2.344   4.515 -0.6640 -0.3628  0.1159
 4061SOL    HW123645   1.608   2.292   4.515 -0.5712 -0.5028 -0.3232
 4061SOL    HW223646   1.656   2.414   4.572 -2.2152 -1.0547  0.0696
 4062SOL     OW23647   1.378   2.409   1.749  0.2408  0.0371 -0.2246
 4062SOL    HW123648   1.422   2.344   1.695  2.2886 -0.3284  1.9039
 4062SOL    HW223649   1.293   2.401   1.706 -0.2623  0.4563  0.6991
 4063SOL     OW23650   0.723   1.526  13.574  0.0311 -0.2439 -0.2786
 4063SOL    HW123651   0.704   1.562  13.661  1.1670 -0.3460  0.0200
 4063SOL    HW223652   0.816   1.546  13.564  0.3602 -1.6768  0.0447
 4064SOL     OW23653   3.008   2.374   1.921  0.4302 -0.5612  0.2518
 4064SOL    HW123654   3.001   2.400   1.829 -0.3647  0.9683  0.7420
 4064SOL    HW223655   3.059   2.294   1.904 -0.0775 -0.4212 -1.8853
 4065SOL     OW23656   3.992   1.489  17.095 -0.1334 -0.3118  0.0289
 4065SOL    HW123657   4.027   1.400  17.089  1.3467  0.4653 -2.8611
 4065SOL    HW223658   4.034   1.545  17.030  2.2568 -1.9056  0.2041
 4066SOL     OW23659   1.393   4.477   1.415  0.5327  0.2476  0.3251
 4066SOL    HW123660   1.355   4.507   1.498  1.0862 -1.4509  1.1859
 4066SOL    HW223661   1.410   4.385   1.433  0.2465  0.1724  0.1992
 4067SOL     OW23662   1.260   4.064  10.853 -0.0756 -0.1153 -0.1268
 4067SOL    HW123663   1.170   4.094  10.839 -0.1492 -0.4855 -0.4536
 4067SOL    HW223664   1.284   4.028  10.767  1.7863  3.1523 -0.9998
 4068SOL     OW23665   3.219   4.664   8.763  0.1796  0.4965  0.2730
 4068SOL    HW123666   3.206   0.029   8.775  0.8677  0.2097  3.4527
 4068SOL    HW223667   3.128   4.636   8.755 -0.2779  1.9349  0.4726
 4069SOL     OW23668   0.458   4.617   4.130  0.0691  0.3451 -0.2719
 4069SOL    HW123669   0.481   4.709   4.144  0.9601  0.1133 -0.1750
 4069SOL    HW223670   0.413   4.626   4.047 -0.2656 -3.9813 -0.5638
 4070SOL     OW23671   0.413   1.992   3.436  0.5195  0.1307  0.3580
 4070SOL    HW123672   0.356   2.055   3.481 -1.6639 -0.0543 -2.1263
 4070SOL    HW223673   0.389   2.017   3.347  0.8644  1.0730  0.5259
 4071SOL     OW23674   0.088   1.625   4.503  0.2184  1.2076 -0.1767
 4071SOL    HW123675   0.168   1.649   4.455 -0.3318 -0.7783 -2.1111
 4071SOL    HW223676   0.050   1.712   4.501 -0.5057  0.9107  0.7180
 4072SOL     OW23677   4.260   2.906  15.058 -0.0126  0.4894  0.6112
 4072SOL    HW123678   4.321   2.866  14.996 -0.1237 -0.4185  1.0940
 4072SOL    HW223679   4.288   2.860  15.137 -2.2457 -0.9778  0.5225
 4073SOL     OW23680   1.304   2.129   6.730 -0.4210  0.3378 -0.7132
 4073SOL    HW123681   1.344   2.043   6.716  0.4898  0.5209  0.7878
 4073SOL    HW223682   1.355   2.151   6.807 -2.3219  3.4014 -0.3489
 4074SOL     OW23683   3.257   3.294  17.598 -0.3246 -0.2411 -0.0841
 4074SOL    HW123684   3.177   3.266  17.642 -0.5031 -0.1024 -0.3167
 4074SOL    HW223685   3.214   3.356  17.540  0.3411 -0.1703 -0.5076
 4075SOL     OW23686   2.167   2.542   9.536  0.5437  0.4867  0.4980
 4075SOL    HW123687   2.125   2.574   9.457  2.2438  2.6543  0.4826
 4075SOL    HW223688   2.216   2.463   9.513 -0.1820 -0.2202  1.3833
 4076SOL     OW23689   1.342   4.714   2.169  0.2412  0.3397 -0.5161
 4076SOL    HW123690   1.255   4.696   2.204  0.1452  1.0827 -0.3602
 4076SOL    HW223691   1.334   4.661   2.090 -0.5559  0.3745 -0.4580
 4077SOL     OW23692   0.485   4.014   4.263  0.3700  0.0680  0.6821
 4077SOL    HW123693   0.574   4.028   4.230  0.7696  4.2361  3.5129
 4077SOL    HW223694   0.486   4.086   4.327 -1.0996  0.4142  0.3058
 4078SOL     OW23695   1.783   3.246  15.183 -0.4444 -0.5919  0.0395
 4078SOL    HW123696   1.839   3.168  15.181  1.2188  0.6325 -0.5764
 4078SOL    HW223697   1.815   3.302  15.113 -0.5497 -1.3276 -0.6014
 4079SOL     OW23698   4.569   2.703  12.772  0.5243 -0.3878 -0.2423
 4079SOL    HW123699   4.593   2.763  12.701  0.1783 -1.1873 -1.0352
 4079SOL    HW223700   4.515   2.642  12.722 -2.3185  0.9719  1.1918
 4080SOL     OW23701   4.481   1.288   5.380  0.4082  0.4197  0.2823
 4080SOL    HW123702   4.556   1.271   5.323  0.9441  3.4397  0.0737
 4080SOL    HW223703   4.516   1.349   5.444  3.1761  0.5304 -1.3419
 4081SOL     OW23704   2.872   0.854   8.451  0.9094 -0.1654 -0.2045
 4081SOL    HW123705   2.956   0.863   8.495  0.9559  0.2463 -0.3784
 4081SOL    HW223706   2.844   0.783   8.508 -0.5128 -0.3344 -1.1079
 4082SOL     OW23707   3.378   3.330   3.118  0.1299 -0.3550 -0.6007
 4082SOL    HW123708   3.469   3.310   3.140  0.8509  2.5374 -0.9695
 4082SOL    HW223709   3.342   3.241   3.116  1.5957 -0.9575  0.0436
 4083SOL     OW23710   3.832   4.123   8.877 -0.1922  0.2603 -0.7456
 4083SOL    HW123711   3.766   4.129   8.946 -1.2894 -0.8229 -1.6994
 4083SOL    HW223712   3.780   4.060   8.827 -3.0844 -0.5369  3.3017
 4084SOL     OW23713   1.758   4.010   5.265  0.1030  0.2479  0.1916
 4084SOL    HW123714   1.704   4.075   5.310 -1.4539 -0.6633 -0.3278
 4084SOL    HW223715   1.726   4.023   5.176 -0.3129 -1.5961  0.0714
 4085SOL     OW23716   1.302   4.273  11.738 -0.5371 -0.4386  0.5852
 4085SOL    HW123717   1.315   4.237  11.650  2.3598  0.3505  0.6960
 4085SOL    HW223718   1.291   4.365  11.714  0.3634 -0.6548 -0.6598
 4086SOL     OW23719   1.749   4.426   1.861  0.4367 -0.1103 -0.4828
 4086SOL    HW123720   1.701   4.362   1.808  2.1430 -2.0000  0.2771
 4086SOL    HW223721   1.811   4.460   1.797  2.5145 -2.8076  0.0663
 4087SOL     OW23722   0.524   2.636   8.393  0.3672 -0.1666  0.1148
 4087SOL    HW123723   0.493   2.726   8.403 -0.6350 -0.1992 -2.7598
 4087SOL    HW223724   0.510   2.624   8.299 -2.0268 -0.8045  0.5635
 4088SOL     OW23725   0.510   0.897   3.320  0.0067 -0.0266  0.1197
 4088SOL    HW123726   0.446   0.968   3.330 -1.0763 -1.1163  0.8941
 4088SOL    HW223727   0.541   0.913   3.230  0.7056  1.0289  0.5451
 4089SOL     OW23728   0.839   0.262   6.009 -0.3490 -0.3322  0.0763
 4089SOL    HW123729   0.885   0.215   5.940  0.8718  0.2554  0.4862
 4089SOL    HW223730   0.868   0.352   5.993 -0.5221 -0.0718  1.1814
 4090SOL     OW23731   0.766   2.734  13.256 -0.1123  0.1916 -0.6211
 4090SOL    HW123732   0.776   2.761  13.348 -0.8416 -1.2734 -0.1181
 4090SOL    HW223733   0.846   2.771  13.219 -0.5932  1.3434 -0.5181
 4091SOL     OW23734   1.634   4.174   7.331  0.0218  0.3619 -0.0654
 4091SOL    HW123735   1.544   4.192   7.360 -0.4227 -0.9842 -0.6084
 4091SOL    HW223736   1.677   4.181   7.416  0.1486 -1.1005 -0.0212
 4092SOL     OW23737   3.119   3.253  11.532  0.1742 -0.5730  0.9804
 4092SOL    HW123738   3.186   3.222  11.593  1.5404 -0.3997 -0.4365
 4092SOL    HW223739   3.161   3.235  11.448  0.9193  0.1732  1.1889
 4093SOL     OW23740   4.637   0.375   4.668 -0.2028 -0.2158  0.0716
 4093SOL    HW123741   4.629   0.450   4.608 -1.8344 -0.6771 -0.2932
 4093SOL    HW223742   4.589   0.393   4.749 -1.0632  2.7602 -1.0747
 4094SOL     OW23743   2.431   3.584   8.920  0.2750  0.0395 -0.6003
 4094SOL    HW123744   2.403   3.501   8.881  0.1047 -0.3977  0.4288
 4094SOL    HW223745   2.382   3.642   8.862 -0.3271  0.1917  0.0610
 4095SOL     OW23746   1.033   2.549   7.073  0.0730  0.1948 -0.0189
 4095SOL    HW123747   1.099   2.499   7.026 -0.1127 -1.1113  1.1389
 4095SOL    HW223748   0.959   2.488   7.075  0.6953 -0.5542 -0.0382
 4096SOL     OW23749   2.129   0.021   4.131  0.0508  0.8395  0.1986
 4096SOL    HW123750   2.102   0.113   4.141 -1.2354  0.5361 -0.4977
 4096SOL    HW223751   2.107   4.712   4.216  0.7320 -0.8522 -0.3851
 4097SOL     OW23752   3.280   0.120   1.769  0.0327 -0.0288  0.0135
 4097SOL    HW123753   3.344   0.090   1.833 -0.8253 -0.1484  0.8177
 4097SOL    HW223754   3.333   0.189   1.730 -1.0856  0.0166 -1.4429
 4098SOL     OW23755   1.331   4.194  11.457  0.0371 -0.5952  0.9438
 4098SOL    HW123756   1.302   4.104  11.476 -1.1235 -0.1626  1.2682
 4098SOL    HW223757   1.256   4.209  11.399  0.9222 -2.0450 -0.5722
 4099SOL     OW23758   3.489   3.389   1.348 -0.0221 -0.1664  0.3888
 4099SOL    HW123759   3.434   3.327   1.300  0.8438  0.3482 -1.2692
 4099SOL    HW223760   3.418   3.427   1.401 -1.8102 -3.3386  0.2749
 4100SOL     OW23761   0.572   2.176  11.720  0.0996  0.3504  0.3614
 4100SOL    HW123762   0.534   2.092  11.743 -1.7094  0.4405 -2.2329
 4100SOL    HW223763   0.492   2.228  11.736  0.5491  0.8980  0.8213
 4101SOL     OW23764   3.207   2.375   2.385  0.1432 -0.0116  0.2189
 4101SOL    HW123765   3.147   2.301   2.378 -1.2160  1.1909 -0.9671
 4101SOL    HW223766   3.194   2.405   2.295  0.4841 -0.0323  0.1621
 4102SOL     OW23767   2.221   2.510   6.822 -0.5304  0.7699  0.1833
 4102SOL    HW123768   2.223   2.538   6.914  1.8415  0.4256  0.2265
 4102SOL    HW223769   2.180   2.424   6.827  0.5437  0.1733 -1.6973
 4103SOL     OW23770   4.117   2.386  14.546 -0.2670  0.5843 -0.5732
 4103SOL    HW123771   4.084   2.475  14.530  0.9777  1.4677  1.7905
 4103SOL    HW223772   4.127   2.357  14.456 -0.3881 -0.6138 -0.1965
 4104SOL     OW23773   3.018   4.261   2.680  0.1499  0.2657  0.1203
 4104SOL    HW123774   2.948   4.197   2.662  0.1352 -0.2993  2.2218
 4104SOL    HW223775   3.084   4.236   2.615 -0.1355 -3.4956  1.2422
 4105SOL     OW23776   2.491   3.605   7.974 -0.3696 -0.1777  0.2350
 4105SOL    HW123777   2.551   3.599   7.900  1.7912 -1.3227  2.0868
 4105SOL    HW223778   2.432   3.675   7.948 -1.0985 -0.7046  0.4480
 4106SOL     OW23779   1.205   0.706   6.510  0.3376 -0.2562 -0.4726
 4106SOL    HW123780   1.162   0.674   6.590  0.8159  1.8943  0.6506
 4106SOL    HW223781   1.179   0.632   6.456  0.7427 -0.0798 -0.9114
 4107SOL     OW23782   4.208   2.589   1.186 -0.3641  0.2269  0.1791
 4107SOL    HW123783   4.284   2.532   1.200 -0.9189  0.1682  2.7816
 4107SOL    HW223784   4.153   2.530   1.135 -0.8706  0.8735 -0.0198
 4108SOL     OW23785   1.702   3.819   3.297  0.1322 -0.1644 -0.2922
 4108SOL    HW123786   1.771   3.839   3.361  0.6603  0.0404 -0.9195
 4108SOL    HW223787   1.721   3.873   3.220 -1.1115  0.4007 -0.1969
 4109SOL     OW23788   3.677   0.704   8.753  0.1614 -0.2800  0.0617
 4109SOL    HW123789   3.734   0.736   8.822  0.3961  0.1018 -0.3137
 4109SOL    HW223790   3.595   0.709   8.803  0.5238 -0.7360  0.6995
 4110SOL     OW23791   3.172   0.033   7.679 -0.0234  0.6053  0.4249
 4110SOL    HW123792   3.246   4.726   7.727 -0.8042 -2.0134 -0.2971
 4110SOL    HW223793   3.152   0.106   7.738  0.6362  0.6745  0.5588
 4111SOL     OW23794   1.297   0.519   0.399 -0.0472  0.0824 -0.0663
 4111SOL    HW123795   1.290   0.475   0.484  1.9536 -1.5390 -0.7474
 4111SOL    HW223796   1.235   0.592   0.410 -0.0068  0.2352 -0.8751
 4112SOL     OW23797   4.083   0.370   8.182 -0.0441  0.7249 -0.3329
 4112SOL    HW123798   4.087   0.409   8.095  1.1199 -1.3455 -1.1964
 4112SOL    HW223799   3.989   0.354   8.188  0.3070 -1.9714 -2.1954
 4113SOL     OW23800   4.085   4.707   5.084  0.3905 -0.0430 -0.3016
 4113SOL    HW123801   4.142   4.636   5.055  2.1028 -0.5275  4.3127
 4113SOL    HW223802   3.996   4.673   5.078  0.5244 -0.2160 -1.3437
 4114SOL     OW23803   3.109   4.021   4.574 -0.5961 -0.4972  0.3664
 4114SOL    HW123804   3.083   4.012   4.666  2.6438  1.4470  1.4808
 4114SOL    HW223805   3.090   4.113   4.553 -2.7986 -1.0001  0.1968
 4115SOL     OW23806   1.879   4.287  15.380  0.0393 -0.8632 -0.1075
 4115SOL    HW123807   1.944   4.313  15.446  1.2707 -0.7748 -1.3665
 4115SOL    HW223808   1.916   4.323  15.300 -3.2148 -1.1704 -1.7391
 4116SOL     OW23809   4.551   1.457   6.637  0.4291  0.4807  0.3434
 4116SOL    HW123810   4.598   1.478   6.556  1.7621  0.1062  1.0241
 4116SOL    HW223811   4.563   1.362   6.642 -0.5442  0.3305 -0.1618
 4117SOL     OW23812   3.441   2.856   5.002 -1.2312 -0.3562 -0.7856
 4117SOL    HW123813   3.352   2.843   4.967 -1.5625  2.4169 -0.9754
 4117SOL    HW223814   3.494   2.799   4.948 -1.8385 -0.2075 -1.5442
 4118SOL     OW23815   3.968   3.352   6.271  0.2272  0.2931  0.4979
 4118SOL    HW123816   3.922   3.338   6.354 -0.1738  3.4545  0.7887
 4118SOL    HW223817   3.892   3.386   6.223  1.8103 -1.8955 -3.5979
 4119SOL     OW23818   1.433   4.152  16.931 -0.5161  0.2735 -0.0545
 4119SOL    HW123819   1.411   4.194  16.848  1.1732 -2.5544 -1.9671
 4119SOL    HW223820   1.434   4.223  16.994  2.3798 -1.0774  1.3967
 4120SOL     OW23821   3.919   3.698   2.419 -0.6650 -0.4268  0.5649
 4120SOL    HW123822   3.969   3.779   2.421  0.8292 -1.3064 -1.4833
 4120SOL    HW223823   3.981   3.638   2.378  0.4722 -0.7847  2.7778
 4121SOL     OW23824   0.531   2.405   8.541  0.0139  0.3010  0.3432
 4121SOL    HW123825   0.510   2.414   8.634 -0.7339  1.7646  0.0367
 4121SOL    HW223826   0.507   2.489   8.500  3.2303  1.9632  1.9312
 4122SOL     OW23827   0.982   0.361   5.510 -0.4111 -0.3828  0.0021
 4122SOL    HW123828   1.073   0.390   5.522 -1.4581  2.0343  2.2150
 4122SOL    HW223829   0.943   0.440   5.472  1.2161  0.4712  0.1015
 4123SOL     OW23830   3.237   3.336   8.871 -0.1861  0.0464 -0.3944
 4123SOL    HW123831   3.231   3.355   8.777 -2.0668  0.8681 -0.1187
 4123SOL    HW223832   3.144   3.340   8.894 -0.2846 -3.6073 -0.2068
 4124SOL     OW23833   3.097   3.920  12.964  0.2133  0.2037 -0.2173
 4124SOL    HW123834   3.034   3.940  13.034 -0.2472 -0.8194 -0.3356
 4124SOL    HW223835   3.105   3.825  12.975  1.3317  0.3156 -0.1045
 4125SOL     OW23836   2.313   3.278   6.375 -0.3403 -0.1536 -0.1343
 4125SOL    HW123837   2.220   3.284   6.353  0.3970  0.2578 -3.0670
 4125SOL    HW223838   2.314   3.192   6.417  0.1454  0.1246  0.4210
 4126SOL     OW23839   3.565   4.075   2.459  0.3609 -0.6425 -0.0624
 4126SOL    HW123840   3.586   4.036   2.544  0.0041  0.5134  0.5670
 4126SOL    HW223841   3.640   4.129   2.433 -0.2653 -0.0315 -0.5941
 4127SOL     OW23842   4.644   2.437   4.143  0.6786 -0.7900 -0.0802
 4127SOL    HW123843   4.671   2.521   4.107  1.8579 -0.2223  2.1513
 4127SOL    HW223844   4.559   2.433   4.099  1.8783  1.2563 -2.5762
 4128SOL     OW23845   3.322   1.318   6.176 -0.3116 -0.1982 -0.1609
 4128SOL    HW123846   3.416   1.305   6.168 -0.5334 -1.8175 -0.0899
 4128SOL    HW223847   3.309   1.413   6.166  2.0235  0.0156 -1.1790
 4129SOL     OW23848   3.202   2.716   4.911  0.6547  0.3906 -0.1349
 4129SOL    HW123849   3.147   2.719   4.990  2.3879  2.7254  0.9722
 4129SOL    HW223850   3.232   2.625   4.914 -0.7625 -0.0069  2.4114
 4130SOL     OW23851   4.694   0.053   5.725 -0.3046  0.0257 -0.2506
 4130SOL    HW123852   0.056   0.046   5.698 -0.2855 -0.1814 -0.1331
 4130SOL    HW223853   4.686   0.148   5.725 -0.9358 -0.0136  3.1753
 4131SOL     OW23854   0.047   2.443   5.862 -0.2669 -0.5279 -0.0296
 4131SOL    HW123855   0.004   2.510   5.809 -0.1281 -1.1585 -0.9473
 4131SOL    HW223856   4.716   2.439   5.936  1.4116 -0.0185  1.3378
 4132SOL     OW23857   1.982   1.826   4.421 -0.0301  0.5216 -0.2985
 4132SOL    HW123858   2.026   1.748   4.454 -1.6684 -0.3686 -0.2302
 4132SOL    HW223859   2.039   1.852   4.349  0.5746  2.2810  0.7945
 4133SOL     OW23860   1.243   3.194   2.733  0.2581 -0.2014  0.4189
 4133SOL    HW123861   1.335   3.207   2.756 -0.5655  1.8072  2.5880
 4133SOL    HW223862   1.233   3.263   2.668  2.0254  1.2308  1.6534
 4134SOL     OW23863   0.676   2.765  10.761 -0.8181  0.3215  0.0071
 4134SOL    HW123864   0.622   2.813  10.697  0.0033 -1.3832 -1.9801
 4134SOL    HW223865   0.646   2.677  10.739  0.3990 -0.1175  0.1117
 4135SOL     OW23866   0.668   2.247  13.349 -0.0224 -0.0666 -1.0288
 4135SOL    HW123867   0.658   2.314  13.416  2.1310 -1.8052  1.0166
 4135SOL    HW223868   0.703   2.308  13.283 -0.3011  1.6809  0.4613
 4136SOL     OW23869   0.575   3.889   2.166  0.2546 -0.3969 -0.5900
 4136SOL    HW123870   0.626   3.951   2.114 -1.0698  0.3236 -1.0283
 4136SOL    HW223871   0.545   3.949   2.234 -0.0660 -1.2813  0.0515
 4137SOL     OW23872   0.783   0.257   2.873 -0.4942 -0.3325  0.1461
 4137SOL    HW123873   0.721   0.255   2.799  0.0558  2.9220 -0.4107
 4137SOL    HW223874   0.821   0.170   2.878 -1.3168 -0.5501  2.5343
 4138SOL     OW23875   4.218   1.699   3.170 -0.1397 -0.1007 -0.6798
 4138SOL    HW123876   4.272   1.655   3.236 -0.0534  3.7214  1.7445
 4138SOL    HW223877   4.156   1.636   3.134  1.1010 -2.9427  2.0813
 4139SOL     OW23878   1.650   2.835   9.927  0.2172 -0.1145  0.0356
 4139SOL    HW123879   1.711   2.904   9.952  1.2850 -0.9686 -0.2053
 4139SOL    HW223880   1.700   2.777   9.869 -1.1429 -1.4610  0.1945
 4140SOL     OW23881   2.445   4.174   9.348 -0.1065 -0.6178  0.4044
 4140SOL    HW123882   2.468   4.183   9.441  0.1937 -0.9174  0.3600
 4140SOL    HW223883   2.359   4.131   9.351  0.3135 -1.6040 -2.0082
 4141SOL     OW23884   3.356   3.353  13.211 -0.3486  0.1875 -0.6945
 4141SOL    HW123885   3.344   3.369  13.305  1.0562  1.0415 -0.6578
 4141SOL    HW223886   3.276   3.305  13.192 -1.7542  1.6003  1.5997
 4142SOL     OW23887   2.954   3.705  15.536 -0.7892  0.7081  0.5294
 4142SOL    HW123888   2.859   3.708  15.530 -0.8233 -0.5006  0.3995
 4142SOL    HW223889   2.967   3.620  15.578  0.2892  1.5210  1.8582
 4143SOL     OW23890   2.227   1.945   5.258  0.7366 -0.0120  0.5119
 4143SOL    HW123891   2.285   1.908   5.191 -1.1512 -3.3421  0.7134
 4143SOL    HW223892   2.213   2.030   5.216  2.1526 -0.7446 -1.4638
 4144SOL     OW23893   4.520   3.243   8.403 -0.6599 -0.5930  0.3113
 4144SOL    HW123894   4.475   3.223   8.485 -0.4160  1.8919  1.0394
 4144SOL    HW223895   4.584   3.308   8.432  0.5240 -2.8518  2.7143
 4145SOL     OW23896   4.233   4.388   3.791 -0.0987  0.2380 -0.3795
 4145SOL    HW123897   4.168   4.458   3.792 -1.5902 -1.1453 -1.1487
 4145SOL    HW223898   4.183   4.311   3.817  1.5171 -0.8209 -0.4370
 4146SOL     OW23899   0.360   2.384   8.224  0.5137 -0.7765 -0.4623
 4146SOL    HW123900   0.406   2.301   8.236 -1.0894 -1.8061 -1.5184
 4146SOL    HW223901   0.438   2.439   8.211 -2.4328  2.9433 -2.1554
 4147SOL     OW23902   1.002   3.816  14.123 -0.1725  0.3140 -0.5893
 4147SOL    HW123903   0.966   3.839  14.209  2.9564  2.1455  0.2219
 4147SOL    HW223904   1.042   3.733  14.149  0.5929  0.2477 -2.0290
 4148SOL     OW23905   4.421   4.436  16.579  0.4336 -0.0056 -0.1004
 4148SOL    HW123906   4.471   4.373  16.526  0.9321  0.9930 -0.8356
 4148SOL    HW223907   4.405   4.496  16.506 -0.4621 -1.1338 -0.8234
 4149SOL     OW23908   4.466   4.697  15.690 -0.3292  0.0623  0.6417
 4149SOL    HW123909   4.413   0.046  15.674  0.3403  0.1283 -1.2535
 4149SOL    HW223910   4.508   4.726  15.771 -0.6457  0.4671  0.6610
 4150SOL     OW23911   2.350   3.151  16.983 -0.4766 -0.6114  0.1678
 4150SOL    HW123912   2.338   3.077  17.043 -2.2487  1.5811  2.5576
 4150SOL    HW223913   2.288   3.124  16.916  0.8615 -0.1472 -1.2687
 4151SOL     OW23914   3.443   2.614   0.149  0.3836  0.8951 -0.1162
 4151SOL    HW123915   3.483   2.549   0.092  1.2531  1.6560 -0.3922
 4151SOL    HW223916   3.520   2.637   0.202 -0.4719  1.9517  0.6859
 4152SOL     OW23917   2.157   0.673   8.432  0.6889 -0.2195 -0.0718
 4152SOL    HW123918   2.246   0.695   8.458  0.2405 -0.3686  1.6222
 4152SOL    HW223919   2.182   0.623   8.355 -0.5257  0.4835 -0.9126
 4153SOL     OW23920   0.347   0.882   9.235  0.4947 -0.3282 -0.7192
 4153SOL    HW123921   0.266   0.924   9.206 -1.1262 -2.2434  1.0072
 4153SOL    HW223922   0.413   0.920   9.176  2.0586 -0.4888  0.9386
 4154SOL     OW23923   1.215   0.790  12.821 -0.0164  0.0209 -0.0038
 4154SOL    HW123924   1.159   0.713  12.828  1.9154 -1.3393  0.5125
 4154SOL    HW223925   1.160   0.868  12.822  2.2664  1.5927  2.2647
 4155SOL     OW23926   4.728   1.587  17.509 -0.8686 -0.1284 -0.2634
 4155SOL    HW123927   0.045   1.506  17.527 -1.3273 -0.1163  0.9978
 4155SOL    HW223928   0.064   1.649  17.543 -0.6828  0.6587 -2.0328
 4156SOL     OW23929   2.186   3.160  15.328  0.4729  0.2413  0.2884
 4156SOL    HW123930   2.117   3.225  15.314  1.6102  1.8941  2.4579
 4156SOL    HW223931   2.132   3.085  15.304  1.6071 -0.5907  0.3184
 4157SOL     OW23932   2.927   3.310  10.312 -0.4876 -0.1856 -0.2933
 4157SOL    HW123933   2.841   3.314  10.269 -0.4634  2.4932 -0.1342
 4157SOL    HW223934   2.890   3.281  10.395 -0.8369  2.4895  0.4954
 4158SOL     OW23935   2.840   4.086   3.015 -0.4090  0.0957  0.5544
 4158SOL    HW123936   2.756   4.115   3.052 -0.7751 -0.9486  0.5603
 4158SOL    HW223937   2.900   4.155   3.043 -2.4632  1.6034  1.2763
 4159SOL     OW23938   1.727   3.896   8.189 -0.0096 -0.5853 -0.3073
 4159SOL    HW123939   1.798   3.896   8.253  0.0298 -1.0758 -0.3451
 4159SOL    HW223940   1.683   3.979   8.205  2.0085  0.4577 -0.2412
 4160SOL     OW23941   4.401   3.743   7.947  0.1270  0.5931 -0.4881
 4160SOL    HW123942   4.339   3.806   7.983 -1.0587 -0.0962 -1.3232
 4160SOL    HW223943   4.381   3.658   7.987  1.1350  2.0890  3.1801
 4161SOL     OW23944   0.135   3.690   1.630 -0.3563 -0.6646 -0.4147
 4161SOL    HW123945   0.168   3.677   1.541  0.4331 -1.9413  0.0674
 4161SOL    HW223946   0.147   3.784   1.638  3.1540 -1.2169  0.5128
 4162SOL     OW23947   0.153   0.761   6.335  0.2082 -0.1890  0.6875
 4162SOL    HW123948   0.235   0.809   6.328 -0.9508  1.7887  0.7549
 4162SOL    HW223949   0.141   0.748   6.429 -1.7692  0.1814  0.4965
 4163SOL     OW23950   0.536   1.552   6.858 -0.2475 -0.1437  0.2801
 4163SOL    HW123951   0.480   1.476   6.874 -0.0884  0.0316  1.6108
 4163SOL    HW223952   0.543   1.590   6.945  2.0794  2.0431 -0.8469
 4164SOL     OW23953   1.287   3.328  12.792 -0.2733 -0.8928  0.3297
 4164SOL    HW123954   1.376   3.327  12.757 -1.1373  0.8793 -1.8966
 4164SOL    HW223955   1.265   3.235  12.793 -0.6475 -0.7927  1.2810
 4165SOL     OW23956   0.199   2.151   6.506 -0.2758 -0.1732  0.0623
 4165SOL    HW123957   0.203   2.056   6.491  0.7867 -0.2523  0.8469
 4165SOL    HW223958   0.255   2.178   6.433 -0.1450 -3.3527 -1.0505
 4166SOL     OW23959   0.949   2.690   8.123  0.2562 -0.0580  0.5583
 4166SOL    HW123960   0.914   2.658   8.206  0.0222  0.1169  0.5279
 4166SOL    HW223961   1.000   2.768   8.145  0.1627  0.1605  0.0105
 4167SOL     OW23962   0.070   2.840   6.755  0.2361  1.0010  0.8541
 4167SOL    HW123963   0.123   2.880   6.823  1.8190  0.9382 -0.3442
 4167SOL    HW223964   4.727   2.903   6.753 -1.0767 -0.4859  0.6876
 4168SOL     OW23965   2.021   2.765  16.347 -0.0439 -0.1588 -0.3376
 4168SOL    HW123966   2.038   2.827  16.418 -0.0397  2.6155 -2.7762
 4168SOL    HW223967   2.101   2.715  16.331  1.6686  1.9217  1.7275
 4169SOL     OW23968   4.622   3.974   4.736 -0.0503 -0.1631 -0.0327
 4169SOL    HW123969   4.699   4.026   4.714 -1.0412  1.4226  0.2610
 4169SOL    HW223970   4.555   3.979   4.668 -0.8038 -1.3175  0.6361
 4170SOL     OW23971   4.474   4.144   4.947 -0.2166  0.1109  0.1684
 4170SOL    HW123972   4.479   4.159   4.853 -1.3398  1.8155  0.3896
 4170SOL    HW223973   4.383   4.121   4.962 -0.3037 -0.8822 -1.8536
 4171SOL     OW23974   4.426   2.619  14.100 -0.1687 -0.0970  0.3563
 4171SOL    HW123975   4.451   2.541  14.051  3.0307  1.0168  0.2073
 4171SOL    HW223976   4.384   2.673  14.033 -2.7141  0.4680  2.3776
 4172SOL     OW23977   3.629   2.494   3.329 -0.1375 -0.1852 -0.2597
 4172SOL    HW123978   3.665   2.451   3.406 -2.0341 -0.7695  0.3026
 4172SOL    HW223979   3.551   2.440   3.317 -0.8833  1.1145 -1.2810
 4173SOL     OW23980   0.840   1.689   6.810  0.4063  0.1789 -0.2104
 4173SOL    HW123981   0.887   1.663   6.889 -0.4069  0.5861  0.4035
 4173SOL    HW223982   0.750   1.668   6.833 -0.8238 -0.6629 -5.6836
 4174SOL     OW23983   3.689   1.398  12.575  0.6583  0.4016  0.2884
 4174SOL    HW123984   3.603   1.362  12.596  0.6984 -0.5615 -1.1654
 4174SOL    HW223985   3.738   1.353  12.644 -0.6216 -1.1732  0.1930
 4175SOL     OW23986   4.445   0.856   7.671  0.0605 -0.4977 -0.4424
 4175SOL    HW123987   4.489   0.849   7.756  0.7965  0.2662 -0.7572
 4175SOL    HW223988   4.360   0.820   7.695  0.4771  0.1882  2.1279
 4176SOL     OW23989   4.709   1.482  13.956 -0.1491 -0.3089 -0.0553
 4176SOL    HW123990   4.651   1.438  13.894 -0.0358 -1.2392  0.4986
 4176SOL    HW223991   0.043   1.419  13.990 -0.8935 -0.7418  0.5294
 4177SOL     OW23992   3.767   2.314   6.507 -0.0770 -0.1868  0.0509
 4177SOL    HW123993   3.693   2.371   6.482 -2.0928 -2.1789  1.4775
 4177SOL    HW223994   3.840   2.364   6.470 -2.0588  2.0867 -0.8144
 4178SOL     OW23995   1.395   1.082   8.064 -0.0546  0.2597  0.2081
 4178SOL    HW123996   1.457   1.026   8.112  0.0171  0.3301  0.1984
 4178SOL    HW223997   1.379   1.160   8.118  1.7090 -0.2311  1.4691
 4179SOL     OW23998   2.125   0.985  13.295  0.2434  0.6062  0.1392
 4179SOL    HW123999   2.215   1.013  13.313 -0.0218  1.3846  0.2696
 4179SOL    HW224000   2.104   0.925  13.366 -0.3892 -0.2628 -0.7824
 4180SOL     OW24001   0.781   3.701   4.790 -0.5735  0.1915  0.3371
 4180SOL    HW124002   0.754   3.751   4.867 -0.2864 -0.5861  0.9476
 4180SOL    HW224003   0.710   3.637   4.798 -1.6145  1.4506  1.2771
 4181SOL     OW24004   3.740   1.550   6.046 -0.5725 -0.2012 -0.1983
 4181SOL    HW124005   3.700   1.615   5.989  0.6410  0.7968  0.0929
 4181SOL    HW224006   3.732   1.600   6.127  1.0137 -0.3350  0.0453
 4182SOL     OW24007   0.994   0.337  13.369  0.6950  0.6061 -0.2865
 4182SOL    HW124008   0.960   0.304  13.453 -1.1529 -1.1771 -1.7372
 4182SOL    HW224009   0.966   0.427  13.383 -2.1515  0.0203 -2.2624
 4183SOL     OW24010   0.967   0.080   9.037  0.1503 -0.0406 -0.2478
 4183SOL    HW124011   0.971   4.714   9.027 -0.2746 -0.2579  1.6314
 4183SOL    HW224012   0.908   0.109   8.968 -0.8598 -0.4550  0.4463
 4184SOL     OW24013   2.552   0.472   8.824 -0.3270  0.3291 -0.0571
 4184SOL    HW124014   2.478   0.492   8.881  0.3579  0.3981  0.7940
 4184SOL    HW224015   2.509   0.428   8.750 -0.8706  2.9709 -1.3179
 4185SOL     OW24016   0.865   0.619   4.871  0.3913  0.3001  0.4078
 4185SOL    HW124017   0.870   0.614   4.775  0.5325 -0.5095  0.4578
 4185SOL    HW224018   0.928   0.687   4.895  1.5977  0.1613 -2.2587
 4186SOL     OW24019   3.854   3.009   6.323 -0.0506 -0.1191  0.2146
 4186SOL    HW124020   3.875   3.041   6.410  1.4159 -2.1146  0.5958
 4186SOL    HW224021   3.829   2.917   6.335 -0.4202 -0.2881 -1.8622
 4187SOL     OW24022   2.090   1.581   4.063  0.4782 -0.2703 -0.1522
 4187SOL    HW124023   2.108   1.654   4.122  1.7891  0.5925 -1.6064
 4187SOL    HW224024   2.124   1.506   4.112  0.2588  0.1279  0.6025
 4188SOL     OW24025   2.295   1.117   5.378 -0.3909  0.0471 -0.1966
 4188SOL    HW124026   2.360   1.109   5.448  0.0915  2.0247 -0.4285
 4188SOL    HW224027   2.260   1.206   5.384 -0.0457  0.2623 -1.3834
 4189SOL     OW24028   2.843   2.402   9.857 -0.4222 -0.3350 -0.9495
 4189SOL    HW124029   2.808   2.454   9.785  0.6990  0.4091 -0.9554
 4189SOL    HW224030   2.785   2.327   9.870 -3.3784  1.6081 -3.0057
 4190SOL     OW24031   4.161   0.930   9.893 -0.2144  0.4154  0.2172
 4190SOL    HW124032   4.083   0.896   9.848 -0.8890 -1.3226  2.7230
 4190SOL    HW224033   4.186   1.010   9.846  2.9298 -0.5068  0.3227
 4191SOL     OW24034   3.714   1.648   9.403  0.2773  0.0965 -0.1944
 4191SOL    HW124035   3.703   1.732   9.359 -0.0067  0.7620  1.1287
 4191SOL    HW224036   3.803   1.661   9.435  0.4138 -0.1882 -0.4606
 4192SOL     OW24037   0.573   2.239   3.932 -0.2831  0.4225 -0.6118
 4192SOL    HW124038   0.555   2.154   3.972  1.0905  0.6866  0.5719
 4192SOL    HW224039   0.582   2.293   4.011 -4.4106 -0.9164  0.7714
 4193SOL     OW24040   4.209   0.140  10.549  0.2399  0.3470  0.4414
 4193SOL    HW124041   4.286   0.142  10.606  0.1869 -0.3467  0.5447
 4193SOL    HW224042   4.219   0.220  10.499  1.8756 -0.5530 -0.6818
 4194SOL     OW24043   4.079   3.535   4.644  0.3507 -0.0069 -0.6481
 4194SOL    HW124044   3.994   3.517   4.684  0.7195  0.4429  0.3536
 4194SOL    HW224045   4.077   3.631   4.645 -0.1433 -0.0197  0.0542
 4195SOL     OW24046   1.103   3.841   4.891 -0.0748 -0.4362  0.3961
 4195SOL    HW124047   1.073   3.931   4.905  0.6755  0.4555 -3.5927
 4195SOL    HW224048   1.052   3.796   4.958 -0.8107  1.0788  0.8493
 4196SOL     OW24049   0.166   2.962  11.470  0.0147  0.4397  0.4074
 4196SOL    HW124050   0.151   3.056  11.474  1.3653  0.6997 -1.0534
 4196SOL    HW224051   0.223   2.953  11.546 -0.1149 -1.4553  0.3057
 4197SOL     OW24052   1.139   2.100   4.592 -0.0850 -0.4273  0.4789
 4197SOL    HW124053   1.049   2.093   4.562 -0.2515  0.3185  0.8099
 4197SOL    HW224054   1.140   2.186   4.634  1.5227  0.3771 -1.2257
 4198SOL     OW24055   4.174   2.039  15.349  0.0637  0.4735 -0.0170
 4198SOL    HW124056   4.125   2.120  15.335  0.8187  0.8160 -0.7287
 4198SOL    HW224057   4.102   1.977  15.350  1.5921 -1.2895 -0.1979
 4199SOL     OW24058   2.444   1.122   3.428  0.1442 -0.2026 -0.1250
 4199SOL    HW124059   2.449   1.180   3.352  1.7707 -0.2404 -0.0497
 4199SOL    HW224060   2.382   1.054   3.400 -0.0396 -0.5598  1.1634
 4200SOL     OW24061   4.609   1.352   7.832 -0.0585 -0.3241  0.1201
 4200SOL    HW124062   4.680   1.410   7.860  0.5357 -0.7150 -0.5843
 4200SOL    HW224063   4.607   1.295   7.908 -0.6586  1.4166  1.4040
 4201SOL     OW24064   1.659   0.590  12.181 -0.2906 -0.9760  0.2401
 4201SOL    HW124065   1.677   0.650  12.254  2.9581 -2.9041  1.0654
 4201SOL    HW224066   1.715   0.627  12.113 -1.4883 -0.0256 -0.2233
 4202SOL     OW24067   3.685   4.165   5.430 -0.7443  0.0617  0.1568
 4202SOL    HW124068   3.644   4.079   5.423 -1.9095  0.5084  1.4542
 4202SOL    HW224069   3.615   4.220   5.467 -2.1877 -1.4441 -0.3583
 4203SOL     OW24070   1.300   4.169   2.799  0.0131 -0.3280 -0.3819
 4203SOL    HW124071   1.365   4.140   2.863 -0.6745  1.5709  1.1582
 4203SOL    HW224072   1.229   4.207   2.850  1.5639  0.7894  0.9234
 4204SOL     OW24073   2.221   4.406   7.539 -0.4266  0.8155  0.2717
 4204SOL    HW124074   2.150   4.471   7.541 -2.1422 -1.1383  2.2520
 4204SOL    HW224075   2.279   4.470   7.497  1.4100 -1.1158 -0.1198
 4205SOL     OW24076   3.699   1.691   2.329 -0.1318  0.1786  0.1821
 4205SOL    HW124077   3.750   1.763   2.291 -1.6134  0.1456 -1.8962
 4205SOL    HW224078   3.761   1.620   2.313 -0.7838 -0.1324 -0.9957
 4206SOL     OW24079   1.221   0.439   2.373  0.0215  0.2152  0.3832
 4206SOL    HW124080   1.165   0.507   2.410 -1.0163 -0.6905  0.4820
 4206SOL    HW224081   1.287   0.496   2.335 -0.4244  1.0309  0.8360
 4207SOL     OW24082   1.367   1.049   7.253  0.6834 -0.0534  0.4126
 4207SOL    HW124083   1.388   1.053   7.346  1.0864 -0.5838  0.3451
 4207SOL    HW224084   1.279   1.085   7.249 -0.3714 -2.7960 -1.2570
 4208SOL     OW24085   1.100   1.960   6.325 -0.2760 -0.3472  0.4036
 4208SOL    HW124086   1.184   1.914   6.321 -0.5023 -0.6188 -1.5507
 4208SOL    HW224087   1.047   1.896   6.372 -0.3190  0.2286  1.1346
 4209SOL     OW24088   4.222   3.128   8.464 -0.3314  0.2471  0.4207
 4209SOL    HW124089   4.264   3.048   8.497 -1.8499 -0.0553  1.6427
 4209SOL    HW224090   4.135   3.090   8.464 -0.6559  0.9907 -0.5308
 4210SOL     OW24091   3.994   1.930   3.641  0.3154 -0.1029 -0.0536
 4210SOL    HW124092   4.033   1.914   3.727 -0.9510 -0.7376  0.4158
 4210SOL    HW224093   3.959   1.846   3.609 -2.1990  1.5988 -1.7816
 4211SOL     OW24094   4.496   3.629   5.930  0.2039 -0.5311  0.4324
 4211SOL    HW124095   4.568   3.690   5.945 -0.4504  0.6654 -1.3919
 4211SOL    HW224096   4.500   3.595   6.020  0.7469  1.3485  1.1261
 4212SOL     OW24097   1.872   0.355  11.975 -0.2560 -0.5024 -0.3659
 4212SOL    HW124098   1.911   0.313  11.899  0.0938 -0.8496  0.0033
 4212SOL    HW224099   1.823   0.426  11.934  2.8330  0.8638 -1.6663
 4213SOL     OW24100   0.609   1.187   4.138 -0.4158  0.6967 -0.2290
 4213SOL    HW124101   0.536   1.229   4.092  0.0165 -1.4265 -2.8146
 4213SOL    HW224102   0.612   1.100   4.100 -1.0577 -0.6941  2.8852
 4214SOL     OW24103   0.296   0.862   5.732 -0.0854  0.2331  0.5179
 4214SOL    HW124104   0.342   0.946   5.728  2.1758 -1.0235  0.5012
 4214SOL    HW224105   0.328   0.806   5.802  2.7835  0.3667 -0.6631
 4215SOL     OW24106   0.226   0.302  13.425  0.4796 -0.0223 -0.0290
 4215SOL    HW124107   0.262   0.239  13.363 -0.1029 -1.6468  1.2704
 4215SOL    HW224108   0.295   0.367  13.434  3.1119 -3.1248  2.5757
 4216SOL     OW24109   4.022   1.880   8.549 -0.1050  0.3782  0.2178
 4216SOL    HW124110   4.049   1.943   8.482  1.1272  1.5541  1.8363
 4216SOL    HW224111   3.930   1.869   8.526 -0.4826  2.2984  0.8415
 4217SOL     OW24112   0.937   4.334   1.736  0.0137 -0.0121  0.5324
 4217SOL    HW124113   0.857   4.284   1.720  0.5520 -0.8537  0.4241
 4217SOL    HW224114   0.977   4.265   1.789  0.3203 -1.8002 -1.9926
 4218SOL     OW24115   2.559   2.001  14.908  0.4191 -0.0024  0.4870
 4218SOL    HW124116   2.516   2.084  14.933  1.9738  0.9080  0.1341
 4218SOL    HW224117   2.633   2.010  14.969 -0.6487 -0.8894  1.9134
 4219SOL     OW24118   2.142   1.947   5.953 -0.2700 -0.4390 -0.7113
 4219SOL    HW124119   2.156   1.972   6.044  0.1768  1.1552 -1.2260
 4219SOL    HW224120   2.232   1.932   5.926 -0.5920 -0.6705 -1.6489
 4220SOL     OW24121   0.831   0.200  14.956 -0.4045 -1.1603  0.2939
 4220SOL    HW124122   0.917   0.235  14.934  0.1990 -1.5091  2.1029
 4220SOL    HW224123   0.860   0.117  14.994 -0.8140 -1.5550 -0.2535
 4221SOL     OW24124   1.618   4.699   7.840 -0.3988 -0.0971  0.0844
 4221SOL    HW124125   1.673   0.048   7.832  0.3586 -0.6451 -0.0318
 4221SOL    HW224126   1.669   4.638   7.893  0.9802  0.7568 -0.2586
 4222SOL     OW24127   2.896   2.324   2.923  0.1919  0.1920  0.2504
 4222SOL    HW124128   2.872   2.380   2.998 -0.6569 -1.3252  1.1072
 4222SOL    HW224129   2.810   2.295   2.891 -0.4332  1.1962  1.0035
 4223SOL     OW24130   0.990   2.669  13.434  0.1466  0.2887 -0.8142
 4223SOL    HW124131   0.959   2.595  13.485  1.8727  1.5162  2.0559
 4223SOL    HW224132   1.039   2.620  13.368 -1.1892 -1.1963 -0.7034
 4224SOL     OW24133   0.482   1.788   2.161  0.1865  0.1633 -0.4518
 4224SOL    HW124134   0.483   1.706   2.210  0.6597  0.9534  0.8630
 4224SOL    HW224135   0.554   1.770   2.100 -0.0234 -0.3814 -0.5365
 4225SOL     OW24136   2.046   2.205  10.515  0.2551 -0.0509  0.7433
 4225SOL    HW124137   1.985   2.274  10.489 -1.4356 -1.1161  1.8792
 4225SOL    HW224138   2.090   2.250  10.587 -0.0281  0.2253  0.7441
 4226SOL     OW24139   1.150   2.820  10.791 -0.0414  0.0252 -0.0344
 4226SOL    HW124140   1.134   2.786  10.879 -0.7046  1.8972  0.5596
 4226SOL    HW224141   1.159   2.915  10.798  2.0235 -0.1524 -0.3637
 4227SOL     OW24142   2.881   1.268   6.274 -0.3369  0.3992  0.0547
 4227SOL    HW124143   2.970   1.237   6.289 -0.2353 -0.8643 -3.1644
 4227SOL    HW224144   2.826   1.214   6.332  1.4331 -0.0113  1.3496
 4228SOL     OW24145   0.650   1.870   1.439  0.3153 -0.1200 -0.3303
 4228SOL    HW124146   0.672   1.962   1.453  0.5996 -0.4483  1.3836
 4228SOL    HW224147   0.683   1.835   1.356 -0.3276 -0.2960 -0.5120
 4229SOL     OW24148   3.152   3.055   7.804 -0.0152 -0.3611  0.8853
 4229SOL    HW124149   3.099   3.086   7.731 -0.8482 -4.1174 -0.0817
 4229SOL    HW224150   3.158   3.131   7.862  1.7753  1.3689 -1.5569
 4230SOL     OW24151   1.693   3.502   6.024 -0.0969 -0.3251  0.2916
 4230SOL    HW124152   1.747   3.464   6.093 -0.2178  0.0972  0.6213
 4230SOL    HW224153   1.631   3.431   6.008 -2.2079  1.1747  1.8103
 4231SOL     OW24154   3.521   4.488   4.763  0.7500 -0.8127 -0.4996
 4231SOL    HW124155   3.538   4.482   4.669 -1.0950  2.7432 -1.0527
 4231SOL    HW224156   3.427   4.506   4.767  0.5862 -1.1128 -3.2117
 4232SOL     OW24157   0.516   0.089   1.814  0.1789 -0.6039  0.5076
 4232SOL    HW124158   0.435   0.066   1.769  0.0819  0.6294  0.0641
 4232SOL    HW224159   0.530   0.021   1.881 -0.0124  1.3686  2.5348
 4233SOL     OW24160   3.451   2.000   4.925 -0.1915  0.1902  0.1944
 4233SOL    HW124161   3.545   1.981   4.918 -0.2666 -0.6135  1.4493
 4233SOL    HW224162   3.414   1.926   4.972  1.7546  0.0531  1.5302
 4234SOL     OW24163   2.201   4.517   3.607  0.1362  0.2348  0.2066
 4234SOL    HW124164   2.138   4.578   3.569  0.3779  0.8630  0.8018
 4234SOL    HW224165   2.158   4.432   3.597  0.9266  0.1035 -2.0709
 4235SOL     OW24166   3.676   0.028   9.215 -0.3726 -0.0175 -0.0097
 4235SOL    HW124167   3.649   0.037   9.124 -0.5043 -1.1733 -0.0778
 4235SOL    HW224168   3.694   4.664   9.206  0.6952  0.2043 -0.1953
 4236SOL     OW24169   1.373   3.701  17.705  0.0831 -0.0536 -0.0842
 4236SOL    HW124170   1.452   3.755  17.714  0.5356 -0.8067  0.4887
 4236SOL    HW224171   1.383   3.626   0.047 -0.1363 -0.1852 -0.2177
 4237SOL     OW24172   4.029   1.552   1.064  0.4774  0.6876  0.1126
 4237SOL    HW124173   3.938   1.580   1.072 -0.1354 -1.5463  0.8570
 4237SOL    HW224174   4.054   1.623   1.004  2.4827  0.1858  0.3502
 4238SOL     OW24175   0.930   3.335   0.032 -0.0520 -0.2522 -0.1704
 4238SOL    HW124176   0.900   3.296  17.666  0.2849 -1.0071  0.0567
 4238SOL    HW224177   0.989   3.270   0.071 -1.4945 -0.9101  0.9168
 4239SOL     OW24178   0.052   1.259   7.203  0.8707 -0.1829 -0.2048
 4239SOL    HW124179   0.114   1.320   7.244  1.2697 -0.2995 -0.6296
 4239SOL    HW224180   0.086   1.177   7.238 -1.0612 -0.4750  0.9277
 4240SOL     OW24181   3.648   0.118   5.756 -0.7643 -0.7487  0.5664
 4240SOL    HW124182   3.616   0.100   5.844 -1.1642 -0.2927  0.5189
 4240SOL    HW224183   3.737   0.146   5.778 -1.5803  2.4680 -0.1107
 4241SOL     OW24184   2.214   0.088   4.553 -0.2941 -0.1901 -0.3781
 4241SOL    HW124185   2.308   0.069   4.550 -0.5437 -1.4723 -0.4515
 4241SOL    HW224186   2.174   0.005   4.582 -0.8330  1.0798  2.4912
 4242SOL     OW24187   4.659   3.699   9.331 -0.4261  0.4088 -0.1182
 4242SOL    HW124188   4.725   3.714   9.263  2.0051 -2.1630  1.6786
 4242SOL    HW224189   4.649   3.605   9.338  2.0198  0.2540  1.2515
 4243SOL     OW24190   3.077   1.473   1.215  0.0945  0.3017 -0.1230
 4243SOL    HW124191   3.046   1.435   1.133 -0.4629  0.3599  0.0554
 4243SOL    HW224192   3.161   1.429   1.228  0.5965  1.1261 -0.6411
 4244SOL     OW24193   0.139   1.460   2.989  0.1979  0.1699  0.2302
 4244SOL    HW124194   0.150   1.390   3.053 -1.1852  0.9584  1.3138
 4244SOL    HW224195   0.221   1.505   3.009  0.7359  0.0547 -1.6455
 4245SOL     OW24196   4.627   1.008   6.327 -0.5192  0.4157 -0.2299
 4245SOL    HW124197   4.628   0.981   6.418 -0.3297 -0.0191 -0.3623
 4245SOL    HW224198   4.705   1.063   6.320  1.0080 -1.8397 -1.0921
 4246SOL     OW24199   3.799   4.578   7.042  0.2256 -0.4399  0.1320
 4246SOL    HW124200   3.778   4.609   6.954 -2.4215 -1.0632  0.5488
 4246SOL    HW224201   3.761   4.492   7.025 -0.4924  0.2251 -1.6418
 4247SOL     OW24202   3.503   3.302  10.665 -0.5728  0.1923 -0.1440
 4247SOL    HW124203   3.517   3.390  10.630  0.3716  0.4638  0.8986
 4247SOL    HW224204   3.568   3.296  10.734 -0.3792  0.5117 -0.2963
 4248SOL     OW24205   3.614   0.106  10.059  0.1787  0.2487  0.1869
 4248SOL    HW124206   3.630   0.013  10.072 -0.0007  0.2699  0.5832
 4248SOL    HW224207   3.537   0.121  10.115  0.1786  1.3661 -0.1087
 4249SOL     OW24208   0.540   3.696   3.734  0.2297  0.3369 -0.6134
 4249SOL    HW124209   0.485   3.745   3.794 -0.4447 -0.5993 -0.4617
 4249SOL    HW224210   0.475   3.652   3.679  0.3742 -1.0817  0.3277
 4250SOL     OW24211   3.810   0.587   9.076  1.2294  0.0969  0.6159
 4250SOL    HW124212   3.866   0.658   9.045  0.0577 -0.5709 -3.0928
 4250SOL    HW224213   3.764   0.634   9.145 -1.2026 -0.0933 -0.8927
 4251SOL     OW24214   1.742   3.175   5.338 -0.1267  0.3223  0.4200
 4251SOL    HW124215   1.755   3.120   5.415  2.3123  1.6442  0.9331
 4251SOL    HW224216   1.745   3.259   5.385  1.3139 -0.2753  1.3825
 4252SOL     OW24217   0.253   2.641   8.037  0.4697  0.2068  0.1379
 4252SOL    HW124218   0.266   2.728   8.001  0.1695 -0.1241 -0.7894
 4252SOL    HW224219   0.344   2.618   8.015  0.5877 -0.0772  0.9207
 4253SOL     OW24220   1.839   4.709   2.316  0.0511 -0.0782 -0.8686
 4253SOL    HW124221   1.766   0.014   2.264 -0.5742 -3.0891 -1.9241
 4253SOL    HW224222   1.793   4.660   2.383 -0.6565 -1.2650 -2.2364
 4254SOL     OW24223   0.280   3.772   6.135  0.4052  0.3287 -0.3810
 4254SOL    HW124224   0.370   3.743   6.119  1.0483  2.0385  0.1223
 4254SOL    HW224225   0.276   3.868   6.133  3.1765  0.4552  0.2978
 4255SOL     OW24226   1.125   4.135   8.889 -0.5748  0.4970  0.0410
 4255SOL    HW124227   1.067   4.179   8.827  1.5298  1.6360 -1.1337
 4255SOL    HW224228   1.074   4.061   8.924  1.3198 -1.2350 -0.8161
 4256SOL     OW24229   1.620   0.872  13.475 -0.0639  0.0550 -0.5289
 4256SOL    HW124230   1.632   0.886  13.569  0.8194  2.7942 -1.0428
 4256SOL    HW224231   1.635   0.960  13.439  2.7602  0.9891  2.9341
 4257SOL     OW24232   2.311   0.159  14.544  0.0933  0.3555 -0.0075
 4257SOL    HW124233   2.273   0.247  14.540  1.0150  0.7731  0.3804
 4257SOL    HW224234   2.234   0.103  14.538  1.0065 -0.9701  0.3997
 4258SOL     OW24235   0.109   2.476   4.952 -0.4116  0.2503  0.5355
 4258SOL    HW124236   0.021   2.478   4.988 -0.5995 -0.2867  0.1059
 4258SOL    HW224237   0.107   2.553   4.896  1.4156 -1.2315 -1.6153
 4259SOL     OW24238   1.829   0.381  13.509  0.5050  0.4309  0.3637
 4259SOL    HW124239   1.769   0.369  13.582  0.1465 -2.3337 -0.3639
 4259SOL    HW224240   1.788   0.318  13.449 -2.3269  0.9216  1.8242
 4260SOL     OW24241   0.670   0.810   4.473  0.3996  0.3826 -0.4517
 4260SOL    HW124242   0.743   0.865   4.502 -1.1499  2.8021 -1.1551
 4260SOL    HW224243   0.702   0.770   4.392 -2.2484  0.2705 -1.4321
 4261SOL     OW24244   2.274   4.118   9.685  0.4186 -0.4169 -0.2541
 4261SOL    HW124245   2.282   4.053   9.755  0.5762  0.5425  0.6245
 4261SOL    HW224246   2.367   4.128   9.667  0.4765 -0.5426 -0.0201
 4262SOL     OW24247   0.364   3.023  14.043 -0.2181  0.0099  0.0757
 4262SOL    HW124248   0.274   3.043  14.067 -0.9162 -0.7363 -1.8902
 4262SOL    HW224249   0.397   3.104  14.003  0.1256 -0.4254 -0.5365
 4263SOL     OW24250   0.178   3.536   5.714 -0.3953 -0.5441 -0.0058
 4263SOL    HW124251   0.100   3.587   5.693  1.2011  1.8098 -0.2956
 4263SOL    HW224252   0.150   3.447   5.693  1.6928 -0.7699 -1.8104
 4264SOL     OW24253   3.981   2.409   7.391  0.4622 -0.2207 -1.1795
 4264SOL    HW124254   3.941   2.488   7.354  1.1053 -0.4183 -2.2982
 4264SOL    HW224255   4.012   2.428   7.479 -0.9032  1.4445 -1.0633
 4265SOL     OW24256   3.391   4.003  10.210  0.0301  0.3272 -0.2257
 4265SOL    HW124257   3.441   4.083  10.226 -1.5048  0.8304  2.0686
 4265SOL    HW224258   3.319   4.020  10.270 -1.5420 -1.3988 -1.6305
 4266SOL     OW24259   0.072   3.138   3.494 -0.5296 -0.9858 -0.0617
 4266SOL    HW124260   0.106   3.077   3.560  1.1391  0.3138  0.2563
 4266SOL    HW224261   0.068   3.211   3.555  0.9570  0.7407 -2.0335
 4267SOL     OW24262   3.258   2.787   0.215 -0.1752  0.2096 -0.1761
 4267SOL    HW124263   3.326   2.833   0.264  0.3246  0.2969 -0.9592
 4267SOL    HW224264   3.319   2.727   0.173  0.2335 -1.4482  2.7955
 4268SOL     OW24265   3.888   2.851  11.718 -0.1068  0.4130  0.2189
 4268SOL    HW124266   3.903   2.899  11.800  0.5234  1.7309 -0.6583
 4268SOL    HW224267   3.883   2.928  11.661 -1.1526 -0.6798 -1.1726
 4269SOL     OW24268   3.387   4.174  14.067 -0.1619 -0.2812  0.4191
 4269SOL    HW124269   3.306   4.144  14.026  0.6708 -0.3374 -1.1754
 4269SOL    HW224270   3.390   4.262  14.030  0.5709  0.0676  1.3115
 4270SOL     OW24271   1.166   3.539   6.802 -0.1095 -0.2981 -0.9412
 4270SOL    HW124272   1.104   3.482   6.848 -0.4370 -0.2219 -1.2830
 4270SOL    HW224273   1.254   3.512   6.828 -0.2882 -0.6020 -0.6590
 4271SOL     OW24274   2.952   1.621   9.274  0.1470  0.5746  0.5881
 4271SOL    HW124275   3.042   1.619   9.241 -0.1807 -0.3810 -0.2292
 4271SOL    HW224276   2.973   1.644   9.365  0.7284  2.0875  0.0611
 4272SOL     OW24277   2.205   3.328   5.048 -0.0581 -0.2083  0.4844
 4272SOL    HW124278   2.198   3.280   4.966 -0.9515 -1.8205  1.5147
 4272SOL    HW224279   2.114   3.347   5.070  0.6574  1.5278  1.9553
 4273SOL     OW24280   2.541   2.126   4.560  0.3730  0.0544  0.0199
 4273SOL    HW124281   2.474   2.096   4.498 -2.2335  1.4642  2.1484
 4273SOL    HW224282   2.574   2.040   4.584 -0.6277 -0.5926 -0.9399
 4274SOL     OW24283   2.851   4.058   2.577  0.1633  0.2049 -0.1156
 4274SOL    HW124284   2.808   4.017   2.652  0.5091 -2.0462 -1.1577
 4274SOL    HW224285   2.840   3.983   2.518 -0.8397  0.6516 -0.4851
 4275SOL     OW24286   2.038   0.268  12.881  0.4589  0.0222  0.5336
 4275SOL    HW124287   2.133   0.270  12.891  0.9314 -2.2801 -3.2534
 4275SOL    HW224288   2.021   0.174  12.879  1.0584 -0.0905  0.8477
 4276SOL     OW24289   1.319   3.549   8.487 -0.5542  0.3309 -0.3708
 4276SOL    HW124290   1.358   3.515   8.406  1.2060  2.5487 -0.4568
 4276SOL    HW224291   1.396   3.569   8.540 -0.4762 -0.5550 -0.1547
 4277SOL     OW24292   1.539   3.665   9.787  0.5765  0.1865 -0.3246
 4277SOL    HW124293   1.600   3.613   9.840  0.7351 -0.3064 -0.9892
 4277SOL    HW224294   1.467   3.694   9.843  0.7521  0.3286 -0.1722
 4278SOL     OW24295   3.476   3.626  16.588  0.4514 -0.3930 -0.3058
 4278SOL    HW124296   3.563   3.623  16.628  0.1578  1.8790  0.4983
 4278SOL    HW224297   3.424   3.576  16.652 -1.1589  2.2926  0.4945
 4279SOL     OW24298   1.527   4.061   3.158  0.3426  0.2473 -0.4069
 4279SOL    HW124299   1.576   4.128   3.205  2.0188 -2.0317  1.1099
 4279SOL    HW224300   1.606   4.021   3.122  1.9467  3.2986 -0.2476
 4280SOL     OW24301   3.938   0.910  11.376  0.0187 -0.5189  0.4381
 4280SOL    HW124302   3.919   0.838  11.315 -0.8326  0.3809 -0.3765
 4280SOL    HW224303   3.857   0.962  11.378  0.0907 -0.3278 -1.5489
 4281SOL     OW24304   0.136   0.440  11.991  0.0925  0.0313  0.0618
 4281SOL    HW124305   0.184   0.364  11.957 -0.1537 -0.0705 -0.0579
 4281SOL    HW224306   0.161   0.456  12.081  2.6847  0.9357 -0.8213
 4282SOL     OW24307   2.030   3.784   2.322  0.0586  0.2766 -0.3671
 4282SOL    HW124308   1.957   3.765   2.264  0.0905 -0.9715 -0.0091
 4282SOL    HW224309   2.096   3.835   2.274  0.1442  3.4486  3.1047
 4283SOL     OW24310   3.419   2.506   8.448 -0.0081 -0.4010 -0.0827
 4283SOL    HW124311   3.362   2.433   8.468 -2.3365  1.3027 -0.4933
 4283SOL    HW224312   3.371   2.575   8.493 -1.0604  0.1995 -2.1028
 4284SOL     OW24313   2.206   4.040   9.420 -0.3015 -0.9382 -0.5028
 4284SOL    HW124314   2.223   4.062   9.512  0.1414 -1.5386 -0.4360
 4284SOL    HW224315   2.115   4.012   9.412 -1.2596  1.9941  0.2481
 4285SOL     OW24316   0.165   4.363   6.624  0.2607  0.5131 -0.4572
 4285SOL    HW124317   0.204   4.441   6.663  0.2344  1.2055 -1.7965
 4285SOL    HW224318   0.150   4.313   6.704 -1.5825  1.8714  0.0296
 4286SOL     OW24319   1.140   1.062  12.381 -0.4737 -0.1342 -0.1469
 4286SOL    HW124320   1.142   1.108  12.297  0.8662 -1.8871 -1.0794
 4286SOL    HW224321   1.179   0.977  12.363 -0.4413  0.3224 -2.1764
 4287SOL     OW24322   0.384   0.903   6.355  0.1981 -0.0571 -0.6106
 4287SOL    HW124323   0.452   0.952   6.400  0.5327 -1.1744  0.1129
 4287SOL    HW224324   0.384   0.949   6.271 -1.1471  1.6622  0.3356
 4288SOL     OW24325   2.411   3.375   8.105  0.1822  0.1658  0.2594
 4288SOL    HW124326   2.505   3.386   8.096  0.0826 -0.2604 -1.3628
 4288SOL    HW224327   2.393   3.459   8.062 -0.7289 -0.6788 -1.0167
 4289SOL     OW24328   0.558   4.673   3.042  0.5343  0.2207  0.0993
 4289SOL    HW124329   0.525   4.611   2.977  0.0478  1.5030 -0.8785
 4289SOL    HW224330   0.652   4.667   3.023  0.7087 -0.3383  1.1785
 4290SOL     OW24331   4.363   0.328   1.572 -0.0757 -0.5024 -0.0890
 4290SOL    HW124332   4.288   0.362   1.621  2.1634  0.0399  2.9908
 4290SOL    HW224333   4.319   0.296   1.493  0.7040 -0.2085 -0.6360
 4291SOL     OW24334   1.681   2.137   8.413 -0.1553  0.5739  0.2510
 4291SOL    HW124335   1.733   2.061   8.387 -1.4259  0.1272 -0.9874
 4291SOL    HW224336   1.665   2.175   8.326 -1.6714  1.1046  0.7660
 4292SOL     OW24337   1.655   2.391   8.586  0.2294  0.3170  0.5336
 4292SOL    HW124338   1.575   2.392   8.533  1.0662 -0.3471 -0.7322
 4292SOL    HW224339   1.713   2.338   8.532  1.3358  0.2039  1.8538
 4293SOL     OW24340   0.253   3.955   6.505 -0.5182  0.1068  0.3723
 4293SOL    HW124341   0.276   4.038   6.463  1.2677 -0.6563 -0.1880
 4293SOL    HW224342   0.336   3.911   6.489  0.2277  1.3240  0.9272
 4294SOL     OW24343   1.786   3.545   9.341 -0.4298  0.9447 -0.1558
 4294SOL    HW124344   1.780   3.495   9.422 -0.4062 -0.3658 -0.9597
 4294SOL    HW224345   1.768   3.480   9.273 -0.4187  0.0423  0.6981
 4295SOL     OW24346   2.185   1.584   5.887  0.1114  0.2378 -0.0192
 4295SOL    HW124347   2.214   1.590   5.978 -0.0927 -0.8404  0.1155
 4295SOL    HW224348   2.091   1.599   5.898  0.1097 -0.2845  0.6469
 4296SOL     OW24349   3.069   0.503   2.133 -0.9030 -0.4242  0.3009
 4296SOL    HW124350   3.045   0.412   2.119  0.3465 -0.6555 -0.3247
 4296SOL    HW224351   3.143   0.497   2.072 -0.9345  1.6709  0.0595
 4297SOL     OW24352   4.662   3.759  16.219 -0.1269 -0.3231  0.2536
 4297SOL    HW124353   4.694   3.747  16.129 -1.6156 -0.9409 -0.1922
 4297SOL    HW224354   0.018   3.785  16.253 -0.1002  0.5063 -0.4639
 4298SOL     OW24355   3.787   1.753  14.923 -0.5625 -0.8005 -0.1030
 4298SOL    HW124356   3.807   1.728  14.833 -0.1218  0.3236 -0.3188
 4298SOL    HW224357   3.873   1.732  14.961 -0.2393  2.6627  1.0705
 4299SOL     OW24358   2.925   4.551   4.897  0.2669 -0.0272 -0.0892
 4299SOL    HW124359   3.008   4.579   4.935  0.6778 -1.3030 -0.0445
 4299SOL    HW224360   2.891   4.495   4.967  0.0946  0.2402  0.0426
 4300SOL     OW24361   4.446   2.728  14.494 -0.4875  0.0734 -0.5941
 4300SOL    HW124362   4.402   2.643  14.493  0.2000 -0.2766 -0.5675
 4300SOL    HW224363   4.503   2.705  14.567 -0.8104  1.1112 -0.0098
 4301SOL     OW24364   2.954   2.227   2.323  0.1062  0.4897  0.3723
 4301SOL    HW124365   2.934   2.133   2.325  0.0142  0.5091  0.3053
 4301SOL    HW224366   2.896   2.260   2.255  0.5334  0.7554  0.1353
 4302SOL     OW24367   4.301   3.745   3.163 -0.2500 -0.4584 -0.1116
 4302SOL    HW124368   4.335   3.712   3.080  1.5965 -0.5426  0.6707
 4302SOL    HW224369   4.290   3.660   3.206 -1.7536 -0.5647 -0.7002
 4303SOL     OW24370   2.844   3.292   6.278 -0.0531  0.1025  0.0554
 4303SOL    HW124371   2.750   3.294   6.260 -0.0454 -0.8740 -0.0710
 4303SOL    HW224372   2.862   3.221   6.216 -0.2373 -1.2095  1.5324
 4304SOL     OW24373   0.868   4.021   2.527  0.3764  0.1805 -0.1291
 4304SOL    HW124374   0.923   3.948   2.554 -0.1374 -0.6361 -1.3124
 4304SOL    HW224375   0.915   4.101   2.550 -0.9403  1.3210 -1.3631
 4305SOL     OW24376   2.562   3.268   2.664  0.1585 -0.1930 -0.8066
 4305SOL    HW124377   2.558   3.334   2.594 -1.4011  0.1101 -0.4350
 4305SOL    HW224378   2.548   3.185   2.619 -0.4221 -1.0459  0.9562
 4306SOL     OW24379   4.709   1.602   7.417  0.2938  0.2936 -0.1266
 4306SOL    HW124380   4.660   1.635   7.342 -0.7076 -0.4878  0.1888
 4306SOL    HW224381   0.061   1.563   7.383 -1.0128 -0.9989 -1.7151
 4307SOL     OW24382   1.984   0.866  15.830  0.2137  0.4055  0.0595
 4307SOL    HW124383   2.023   0.891  15.747 -1.0219 -0.1528 -0.6906
 4307SOL    HW224384   2.030   0.929  15.886  0.5639  0.9357 -0.8230
 4308SOL     OW24385   2.995   0.140   3.340  0.5725 -0.4869  0.1770
 4308SOL    HW124386   2.937   0.179   3.275 -1.2181 -0.5024  1.7564
 4308SOL    HW224387   2.951   0.161   3.423  2.3651  1.0578  0.7421
 4309SOL     OW24388   0.778   0.688  10.161  0.0201 -0.0095  0.3104
 4309SOL    HW124389   0.742   0.699  10.073  0.2390 -0.0292  0.2192
 4309SOL    HW224390   0.864   0.727  10.147  0.2119 -0.1455  1.1543
 4310SOL     OW24391   0.284   3.410   1.223 -0.6407 -0.2661  0.8230
 4310SOL    HW124392   0.370   3.390   1.186 -0.7936 -0.0219  0.3342
 4310SOL    HW224393   0.301   3.444   1.311 -2.2536  1.5640  0.4256
 4311SOL     OW24394   4.134   2.348   1.646 -0.4229  0.2839 -0.1887
 4311SOL    HW124395   4.145   2.433   1.688 -1.1162 -0.4190  1.4387
 4311SOL    HW224396   4.222   2.310   1.646  0.0689  1.4463 -0.7204
 4312SOL     OW24397   3.016   3.230   4.379 -0.4674  0.2933  0.8883
 4312SOL    HW124398   3.046   3.306   4.329 -0.8407 -0.8264 -1.0797
 4312SOL    HW224399   2.933   3.208   4.335  0.4005 -0.0467 -0.5999
 4313SOL     OW24400   0.115   4.270   8.315 -0.8217 -0.1960  0.3051
 4313SOL    HW124401   0.072   4.351   8.343  0.2860  0.2268  0.7773
 4313SOL    HW224402   0.146   4.301   8.230 -1.6026  1.8131  0.7515
 4314SOL     OW24403   3.942   4.386   4.133  0.0605  0.0853  0.2434
 4314SOL    HW124404   3.853   4.375   4.167 -1.0583 -0.8546 -3.0217
 4314SOL    HW224405   3.947   4.311   4.074 -0.0111 -0.2561  0.6731
 4315SOL     OW24406   1.783   3.011   4.279 -0.3147  0.2877  0.0346
 4315SOL    HW124407   1.717   3.075   4.307 -1.2647  0.6489 -2.9737
 4315SOL    HW224408   1.818   3.044   4.196  1.4956 -0.4745  0.4980
 4316SOL     OW24409   1.966   1.700  14.092  0.0476  0.2799  0.0007
 4316SOL    HW124410   1.951   1.649  14.171  0.1894 -1.0211 -0.8104
 4316SOL    HW224411   1.953   1.791  14.116  1.3333  0.0038  1.7198
 4317SOL     OW24412   1.850   3.871   4.941 -0.0770  0.0705 -0.2311
 4317SOL    HW124413   1.842   3.856   5.036 -3.9714 -0.1363 -0.5799
 4317SOL    HW224414   1.908   3.947   4.937 -0.1157  0.0653 -0.7871
 4318SOL     OW24415   2.353   2.450   1.728  0.0256 -0.4342 -0.0104
 4318SOL    HW124416   2.283   2.439   1.664  1.1004  0.4177 -1.3166
 4318SOL    HW224417   2.429   2.463   1.672  0.0327 -0.8034 -0.0906
 4319SOL     OW24418   1.279   2.742   3.186  0.8033 -0.5680  0.0336
 4319SOL    HW124419   1.293   2.659   3.141  1.0154 -0.5144 -0.0007
 4319SOL    HW224420   1.223   2.714   3.259 -0.3353 -0.7018 -0.8992
 4320SOL     OW24421   3.699   1.918  10.759 -0.2278 -0.1184  0.2008
 4320SOL    HW124422   3.791   1.941  10.751 -0.3754  0.4023 -0.0514
 4320SOL    HW224423   3.704   1.841  10.814 -0.3165 -0.9343 -0.9390
 4321SOL     OW24424   1.236   2.599   6.153 -0.1298 -0.2514  0.1379
 4321SOL    HW124425   1.191   2.519   6.179  1.4933 -0.1788  3.2077
 4321SOL    HW224426   1.163   2.649   6.116 -0.6180 -0.7135  0.4814
 4322SOL     OW24427   4.017   3.409   5.352 -0.2548 -0.8167  0.3422
 4322SOL    HW124428   4.057   3.383   5.435 -1.7594 -1.0883  0.9820
 4322SOL    HW224429   4.022   3.326   5.303  0.2803 -0.7748  0.3335
 4323SOL     OW24430   0.196   0.404   4.450  0.6090 -0.1871 -0.7202
 4323SOL    HW124431   0.181   0.332   4.389 -1.2760  1.7769 -2.5718
 4323SOL    HW224432   0.263   0.370   4.509 -1.4898 -3.0195  0.0143
 4324SOL     OW24433   0.610   3.508  13.198  0.0422  0.0546  0.1707
 4324SOL    HW124434   0.575   3.582  13.148 -0.5861 -0.7371 -0.5695
 4324SOL    HW224435   0.682   3.484  13.140 -1.4176 -1.1232 -1.1504
 4325SOL     OW24436   3.705   1.800   2.059  0.2654 -0.6253  0.3489
 4325SOL    HW124437   3.611   1.800   2.077  0.5786 -0.4107  1.9342
 4325SOL    HW224438   3.704   1.859   1.984 -0.0457 -1.1778 -0.0843
 4326SOL     OW24439   2.507   4.157   0.270 -0.7230 -0.0034 -0.2057
 4326SOL    HW124440   2.517   4.089   0.204  0.7968  0.7735 -0.7740
 4326SOL    HW224441   2.444   4.108   0.323  1.7916 -1.9892  0.9025
 4327SOL     OW24442   4.658   4.638   7.325 -0.0088 -0.1936  0.1512
 4327SOL    HW124443   4.600   4.647   7.250 -2.8871 -0.6952  2.3119
 4327SOL    HW224444   0.014   4.671   7.293 -0.6612 -1.4327 -2.8276
 4328SOL     OW24445   1.808   3.718   2.126 -0.1170 -0.4486  0.2279
 4328SOL    HW124446   1.805   3.624   2.109 -0.4066 -0.7827  2.0371
 4328SOL    HW224447   1.849   3.748   2.045  0.3527 -0.3111  0.5161
 4329SOL     OW24448   4.061   1.311   1.660  0.0158  0.1861 -0.0164
 4329SOL    HW124449   4.143   1.359   1.656 -0.5701  1.1072 -0.9522
 4329SOL    HW224450   4.006   1.381   1.694  1.4144  0.2840  2.0393
 4330SOL     OW24451   2.779   1.418   4.865 -0.4442 -0.0767  0.3202
 4330SOL    HW124452   2.818   1.411   4.952 -1.4620 -0.4762  0.7371
 4330SOL    HW224453   2.808   1.334   4.830 -0.5586  0.6393 -1.4932
 4331SOL     OW24454   0.543   3.025   4.698  0.3802 -0.5797 -0.4882
 4331SOL    HW124455   0.632   3.001   4.722  0.2451  0.1858  0.8287
 4331SOL    HW224456   0.557   3.108   4.652  1.2780 -0.1756  0.5107
 4332SOL     OW24457   3.009   0.231  14.376  0.2236 -0.9970  0.6059
 4332SOL    HW124458   3.013   0.286  14.454  0.8385  0.6546 -0.5985
 4332SOL    HW224459   3.012   0.300  14.310 -1.3986 -0.4701  1.1006
 4333SOL     OW24460   2.678   2.051  10.957  0.5518 -0.1396 -0.1894
 4333SOL    HW124461   2.640   1.970  10.992  1.3617  0.4265  2.0170
 4333SOL    HW224462   2.596   2.096  10.977  0.3625  0.0694 -1.4384
 4334SOL     OW24463   3.646   2.980   2.339  0.1539  0.2150  0.4348
 4334SOL    HW124464   3.561   3.004   2.303  1.0930  1.7550 -0.7637
 4334SOL    HW224465   3.657   2.890   2.308 -0.3400  0.2070  0.2890
 4335SOL     OW24466   1.385   0.117   2.759 -0.0262 -0.6471  0.2216
 4335SOL    HW124467   1.390   0.023   2.741 -1.2059 -0.2079 -2.4413
 4335SOL    HW224468   1.477   0.143   2.755  0.1787 -1.6423 -1.5923
 4336SOL     OW24469   4.345   2.042   6.795  0.2638 -0.2525 -0.4895
 4336SOL    HW124470   4.332   1.999   6.880  0.2174  1.1031  0.1945
 4336SOL    HW224471   4.440   2.031   6.787  0.2297 -2.0607  1.5707
 4337SOL     OW24472   1.743   4.718  12.900  0.0920 -0.1062 -0.4075
 4337SOL    HW124473   1.734   4.653  12.830 -0.2391  0.8149 -1.2244
 4337SOL    HW224474   1.835   4.701  12.921  0.4240 -0.2913 -1.9433
 4338SOL     OW24475   4.497   2.446   8.774  0.5465 -0.4966 -0.1260
 4338SOL    HW124476   4.584   2.457   8.734 -0.0607  1.9048 -0.7613
 4338SOL    HW224477   4.496   2.530   8.819 -0.2527 -0.8988  0.5834
 4339SOL     OW24478   2.690   2.076  12.484 -0.5757  0.2489 -0.0305
 4339SOL    HW124479   2.755   2.108  12.546  1.2151 -0.1688 -1.6752
 4339SOL    HW224480   2.737   2.007  12.436 -0.2034  0.5144 -0.0443
 4340SOL     OW24481   0.345   1.325   6.622 -0.0940  0.0750 -0.2586
 4340SOL    HW124482   0.368   1.249   6.675  1.6205  0.4426 -0.4636
 4340SOL    HW224483   0.261   1.351   6.660  1.3978  1.1344  2.3092
 4341SOL     OW24484   2.768   2.434   7.156  0.3072 -0.2910  0.5754
 4341SOL    HW124485   2.716   2.503   7.115  2.4516 -0.6449 -2.6927
 4341SOL    HW224486   2.779   2.372   7.085  1.9968 -1.1515  1.5704
 4342SOL     OW24487   1.852   4.202   8.233  0.1601  0.3578  0.1518
 4342SOL    HW124488   1.890   4.283   8.268 -1.5801  0.9373  0.6764
 4342SOL    HW224489   1.768   4.246   8.222  0.0745 -0.1409 -1.1234
 4343SOL     OW24490   1.343   0.502   3.338  0.0785  0.6822  0.4013
 4343SOL    HW124491   1.387   0.503   3.253 -2.0086  1.7034 -0.6714
 4343SOL    HW224492   1.291   0.421   3.340 -0.4186  0.9592 -2.2715
 4344SOL     OW24493   0.239   1.246   2.124 -0.4625 -0.4132  0.3997
 4344SOL    HW124494   0.175   1.196   2.175  0.1393 -1.5672  0.0214
 4344SOL    HW224495   0.193   1.328   2.108 -1.7717 -1.6635 -2.3787
 4345SOL     OW24496   0.061   3.547   1.827  0.1394 -0.0391  0.4070
 4345SOL    HW124497   0.084   3.607   1.756 -1.4332  0.6234  0.4391
 4345SOL    HW224498   4.699   3.578   1.835 -1.3922 -4.5482  0.2759
 4346SOL     OW24499   2.211   0.700   6.031  0.4004  0.1930 -0.5715
 4346SOL    HW124500   2.173   0.746   5.956 -0.6492 -1.7045 -1.2041
 4346SOL    HW224501   2.185   0.609   6.014 -0.2466  0.3815 -0.5957
 4347SOL     OW24502   3.786   2.850   5.667  0.0158 -0.4275 -0.0349
 4347SOL    HW124503   3.812   2.816   5.582  1.1837 -1.1744  0.6362
 4347SOL    HW224504   3.786   2.945   5.650 -0.9236 -0.3604  0.2944
 4348SOL     OW24505   4.033   0.638   2.780 -0.0309 -0.0251  0.8512
 4348SOL    HW124506   4.066   0.727   2.789 -1.9034  0.4274  3.0080
 4348SOL    HW224507   3.944   0.671   2.779  0.0950  0.2763 -0.3956
 4349SOL     OW24508   4.037   4.168   5.911  0.0657 -0.2534  0.3927
 4349SOL    HW124509   4.007   4.093   5.861 -0.0649 -0.1702  0.3458
 4349SOL    HW224510   3.955   4.217   5.917 -0.3597 -0.8866 -0.3233
 4350SOL     OW24511   4.586   3.470   7.024  0.1435 -0.2143 -0.0710
 4350SOL    HW124512   4.598   3.442   6.933 -0.2417 -0.7526  0.0450
 4350SOL    HW224513   4.667   3.516   7.045 -0.0235  0.6046 -1.1604
 4351SOL     OW24514   1.888   2.750   8.093  0.3572 -0.3605  0.3236
 4351SOL    HW124515   1.856   2.668   8.055  0.0200 -0.1261  0.1054
 4351SOL    HW224516   1.886   2.745   8.189 -1.5757 -0.3173  0.2820
 4352SOL     OW24517   2.998   1.493   0.226 -0.3376  0.0721  0.5178
 4352SOL    HW124518   2.978   1.403   0.252 -0.5717  0.1473  0.6046
 4352SOL    HW224519   3.081   1.485   0.180 -0.5414  1.3010 -0.0669
 4353SOL     OW24520   4.519   3.968   2.858  0.6899 -0.7618 -0.0158
 4353SOL    HW124521   4.566   4.018   2.792 -1.2417  0.4920 -0.4563
 4353SOL    HW224522   4.586   3.943   2.922 -0.2949  1.8742  2.0738
 4354SOL     OW24523   2.211   3.367  17.140  0.1141 -0.5069 -0.7730
 4354SOL    HW124524   2.241   3.440  17.086 -0.6364  0.3909  0.0199
 4354SOL    HW224525   2.252   3.284  17.117 -0.0606 -0.8342  0.0848
 4355SOL     OW24526   1.509   1.821   2.102 -0.4750  0.0963  0.3731
 4355SOL    HW124527   1.594   1.863   2.088 -0.0857 -0.7696  0.1196
 4355SOL    HW224528   1.454   1.847   2.028 -1.2731 -0.7752  0.6536
 4356SOL     OW24529   3.291   1.952   1.704  0.2249 -0.0758 -0.0124
 4356SOL    HW124530   3.370   1.906   1.678 -1.5482 -2.0742 -1.8433
 4356SOL    HW224531   3.240   1.933   1.625 -1.0186 -2.5909  1.3853
 4357SOL     OW24532   3.846   1.649   6.773  0.1057 -0.9522  0.0537
 4357SOL    HW124533   3.782   1.681   6.836 -0.9508 -0.6515 -1.1730
 4357SOL    HW224534   3.796   1.632   6.693  0.3206  0.5023 -0.4031
 4358SOL     OW24535   1.317   3.046   1.493  0.3969 -0.5498  0.1311
 4358SOL    HW124536   1.358   2.960   1.506  4.7130  1.5128  0.0513
 4358SOL    HW224537   1.331   3.050   1.399 -1.9526 -1.2468 -0.2714
 4359SOL     OW24538   0.427   4.416  15.709 -0.0453 -0.2952  0.3204
 4359SOL    HW124539   0.443   4.502  15.748  3.4250 -1.2185  0.8882
 4359SOL    HW224540   0.425   4.359  15.786  0.9019  0.9376  1.2484
 4360SOL     OW24541   3.921   0.083   4.519 -0.7142  0.7546 -0.1517
 4360SOL    HW124542   3.905   0.028   4.442 -0.2889  1.6949 -0.9022
 4360SOL    HW224543   3.965   0.157   4.478  0.2414 -0.7520 -1.8316
 4361SOL     OW24544   0.132   0.511  16.643 -0.1055  0.0593 -0.0207
 4361SOL    HW124545   0.053   0.563  16.634 -0.3060  0.1374  2.2546
 4361SOL    HW224546   0.189   0.578  16.681 -1.8352  1.2749  0.4392
 4362SOL     OW24547   4.583   0.915  10.507 -0.1546  0.2309  0.7550
 4362SOL    HW124548   4.625   0.910  10.421 -0.3291 -1.3284  0.7663
 4362SOL    HW224549   4.529   0.837  10.518  0.4025 -0.3608 -0.6309
 4363SOL     OW24550   4.529   1.603   8.898 -0.4251  0.9113 -0.2475
 4363SOL    HW124551   4.460   1.542   8.922  0.8420 -0.9086 -1.2158
 4363SOL    HW224552   4.615   1.561   8.909 -0.9835 -0.9991 -3.1989
 4364SOL     OW24553   1.327   4.355   5.902  0.1396 -0.1092 -0.5299
 4364SOL    HW124554   1.294   4.268   5.880 -0.7049  0.0672  0.0546
 4364SOL    HW224555   1.408   4.376   5.856  1.8547 -1.1993  1.9804
 4365SOL     OW24556   0.306   0.098   8.392  0.4664 -0.6046  0.7212
 4365SOL    HW124557   0.301   0.047   8.473 -0.4166 -1.4095  0.1551
 4365SOL    HW224558   0.230   0.155   8.402  1.0488  0.4822 -1.0372
 4366SOL     OW24559   3.639   1.197   6.430  0.1489  0.9986 -0.1749
 4366SOL    HW124560   3.620   1.243   6.348 -3.5896  1.0840  0.7592
 4366SOL    HW224561   3.609   1.260   6.496 -0.4662 -1.0641  1.4986
 4367SOL     OW24562   1.148   0.250   3.623 -0.1062  0.5130 -0.2624
 4367SOL    HW124563   1.186   0.173   3.665 -2.4101 -1.9077 -2.6684
 4367SOL    HW224564   1.201   0.325   3.650 -3.1424  1.4474  3.0525
 4368SOL     OW24565   3.216   1.497   2.441  0.2167 -1.0433  0.4005
 4368SOL    HW124566   3.192   1.588   2.459 -0.7003 -1.8901  3.4676
 4368SOL    HW224567   3.280   1.521   2.373  0.3706  0.5010  1.1016
 4369SOL     OW24568   3.934   1.074  12.372 -0.0745 -0.3487 -0.3303
 4369SOL    HW124569   3.942   1.003  12.308 -1.0194 -0.2287 -0.5905
 4369SOL    HW224570   3.891   1.030  12.445  1.9014 -1.6158  0.0692
 4370SOL     OW24571   0.677   1.706   4.245 -0.5715 -0.1899  0.1487
 4370SOL    HW124572   0.646   1.633   4.299  0.0167 -1.5294 -1.3258
 4370SOL    HW224573   0.747   1.659   4.200  1.1675  0.1486  2.5020
 4371SOL     OW24574   0.417   4.201   3.941 -0.1547  0.0439  0.1419
 4371SOL    HW124575   0.346   4.258   3.912 -0.7453  0.7699  3.0557
 4371SOL    HW224576   0.376   4.123   3.978  2.8806 -1.2596  0.8424
 4372SOL     OW24577   0.011   1.893   4.915  0.1897  0.6687 -0.0169
 4372SOL    HW124578   0.060   1.931   4.988  3.1863 -0.2095 -1.5838
 4372SOL    HW224579   0.047   1.947   4.846 -2.2798  2.2673 -0.0612
 4373SOL     OW24580   2.185   0.725   5.419 -0.2974 -0.2014 -0.3077
 4373SOL    HW124581   2.209   0.714   5.510  1.3255  1.2668 -0.5809
 4373SOL    HW224582   2.272   0.731   5.381  0.1767 -0.7001  0.7022
 4374SOL     OW24583   3.398   1.396   0.914  0.0907  0.3138 -0.3272
 4374SOL    HW124584   3.461   1.382   0.843  1.3016 -0.9239  0.9924
 4374SOL    HW224585   3.371   1.488   0.908  1.0271  0.6330  0.2753
 4375SOL     OW24586   0.362   0.568  14.339  0.1035 -0.0249  0.0361
 4375SOL    HW124587   0.306   0.499  14.373  0.1216 -0.6935 -1.3120
 4375SOL    HW224588   0.342   0.566  14.245  1.3631  0.6686 -0.2557
 4376SOL     OW24589   3.210   2.963   3.674 -0.2249  0.4049 -0.5532
 4376SOL    HW124590   3.143   2.905   3.638  1.1744 -1.2235 -0.5662
 4376SOL    HW224591   3.235   2.917   3.755 -2.5415  1.0248  0.5223
 4377SOL     OW24592   3.797   4.388   9.262  1.0537  0.6556  0.1107
 4377SOL    HW124593   3.861   4.328   9.300  0.9111  0.5648  0.2113
 4377SOL    HW224594   3.847   4.414   9.186  1.5011 -1.9905 -0.5032
 4378SOL     OW24595   0.140   0.373  10.067  0.8638  1.0767  0.4114
 4378SOL    HW124596   0.068   0.386  10.130  1.8904 -1.3246  2.0708
 4378SOL    HW224597   0.195   0.312  10.115  1.5166  0.4594 -1.1402
 4379SOL     OW24598   2.996   1.736   5.963  0.5456  0.3370  0.2720
 4379SOL    HW124599   2.955   1.822   5.957 -0.3453 -0.1338 -0.4563
 4379SOL    HW224600   3.007   1.705   5.873 -1.1603 -1.6106  0.7259
 4380SOL     OW24601   0.551   1.257   8.623 -0.0686 -0.0063  0.3782
 4380SOL    HW124602   0.500   1.222   8.697 -0.9853  1.9706  0.6962
 4380SOL    HW224603   0.522   1.348   8.626 -2.4418 -0.7102 -1.3330
 4381SOL     OW24604   1.068   4.405   7.398  0.0608 -0.1194  0.1592
 4381SOL    HW124605   1.127   4.338   7.363  1.0623  1.0539 -0.4047
 4381SOL    HW224606   1.132   4.447   7.456 -0.5269  2.1937 -0.8692
 4382SOL     OW24607   4.145   0.205  17.039  0.2677 -0.2097 -0.2089
 4382SOL    HW124608   4.221   0.158  17.005 -0.5015 -1.1212 -0.6584
 4382SOL    HW224609   4.167   0.294  17.012  1.3670 -0.2868  0.4299
 4383SOL     OW24610   0.759   0.757   4.214 -0.6870  0.1438  0.1863
 4383SOL    HW124611   0.750   0.769   4.119 -1.3202 -1.5611  0.0278
 4383SOL    HW224612   0.835   0.814   4.221  0.5511 -1.4164 -0.5840
 4384SOL     OW24613   3.685   2.130   5.615  0.1429  0.0770  0.5018
 4384SOL    HW124614   3.723   2.217   5.601  0.2148  0.3109  2.0822
 4384SOL    HW224615   3.667   2.110   5.524  1.2089  1.6365 -0.0443
 4385SOL     OW24616   3.198   2.894   1.823  0.5178 -0.2842 -0.1096
 4385SOL    HW124617   3.107   2.874   1.801  0.7526  0.0941 -1.4067
 4385SOL    HW224618   3.229   2.905   1.733 -1.3220 -2.3402 -0.9793
 4386SOL     OW24619   0.622   0.648  16.963 -0.1668  1.3597  0.0426
 4386SOL    HW124620   0.716   0.664  16.976  0.7477 -2.6918 -1.6510
 4386SOL    HW224621   0.616   0.704  16.886  2.9608  1.4396 -0.1556
 4387SOL     OW24622   2.849   2.258   3.710  0.2638 -0.0365  0.5169
 4387SOL    HW124623   2.880   2.330   3.765 -1.1078  0.4134  0.6907
 4387SOL    HW224624   2.922   2.258   3.648 -2.1906  0.3996 -2.3846
 4388SOL     OW24625   4.354   1.940   5.125 -0.1719  0.5190  0.2023
 4388SOL    HW124626   4.376   2.033   5.138  0.1704  0.3686  0.7085
 4388SOL    HW224627   4.431   1.911   5.076  1.5171  0.4848  2.8880
 4389SOL     OW24628   4.124   4.253   2.016  0.2566  0.2861  0.5641
 4389SOL    HW124629   4.182   4.328   2.001  0.5597 -0.2586 -0.9379
 4389SOL    HW224630   4.120   4.216   1.928  0.8702 -0.7738  0.9849
 4390SOL     OW24631   3.921   1.557   1.784  0.3263 -0.2256 -0.5631
 4390SOL    HW124632   3.862   1.620   1.744 -1.6495 -1.2750  0.7346
 4390SOL    HW224633   3.865   1.523   1.853  1.6757  0.7178  0.9994
 4391SOL     OW24634   4.361   0.986   8.325  0.3330  0.1094 -0.5273
 4391SOL    HW124635   4.324   1.001   8.238 -1.2125  2.5184  0.5417
 4391SOL    HW224636   4.315   1.049   8.381  0.9796  0.7825 -0.7553
 4392SOL     OW24637   2.787   0.576   1.403 -0.2508 -0.3966  0.1147
 4392SOL    HW124638   2.777   0.485   1.377 -1.5190  0.4558 -2.3988
 4392SOL    HW224639   2.832   0.563   1.486  2.8146 -0.8759 -1.6203
 4393SOL     OW24640   0.038   2.631  11.654  0.1571 -0.0660  0.2002
 4393SOL    HW124641   4.679   2.599  11.634 -0.2297  0.7409  0.6342
 4393SOL    HW224642   0.066   2.667  11.570 -0.0349  1.3943  0.7676
 4394SOL     OW24643   1.790   4.605   0.524  0.3754  0.2627  0.1362
 4394SOL    HW124644   1.852   4.596   0.451  0.0326 -1.0602 -0.0011
 4394SOL    HW224645   1.766   4.512   0.523 -0.1362  0.4195 -1.2295
 4395SOL     OW24646   4.542   1.268   4.243 -0.0826  0.3345 -0.4049
 4395SOL    HW124647   4.624   1.271   4.292  0.1922  1.1208 -0.9062
 4395SOL    HW224648   4.564   1.330   4.173 -0.0820  2.3240  1.3593
 4396SOL     OW24649   2.289   0.401   8.918  0.3602 -0.2555 -0.2959
 4396SOL    HW124650   2.264   0.331   8.978 -3.5521  1.0202 -0.4199
 4396SOL    HW224651   2.249   0.371   8.837  1.7203 -1.6225 -0.4578
 4397SOL     OW24652   3.104   3.379   4.087  0.2472 -0.6978  0.0215
 4397SOL    HW124653   3.034   3.417   4.034 -0.7838 -0.0799  1.8077
 4397SOL    HW224654   3.104   3.286   4.065 -1.5163 -0.8580  0.7094
 4398SOL     OW24655   0.022   4.262   9.360  0.6186 -0.1472  0.2015
 4398SOL    HW124656   4.700   4.310   9.424 -0.5947 -0.1495 -0.7594
 4398SOL    HW224657   0.092   4.328   9.359 -0.2766  0.8168  1.9842
 4399SOL     OW24658   2.016   4.148  11.549 -0.6601  0.1511 -0.0696
 4399SOL    HW124659   1.940   4.123  11.602 -0.7794 -0.9448 -0.7670
 4399SOL    HW224660   2.074   4.185  11.616  0.0856 -1.0134 -0.0799
 4400SOL     OW24661   2.881   0.943   1.537 -0.1474 -0.3079 -0.4079
 4400SOL    HW124662   2.889   0.875   1.604 -0.9363  0.6835  0.6789
 4400SOL    HW224663   2.965   0.982   1.558 -1.0974  1.1730  0.6537
 4401SOL     OW24664   0.697   3.202   9.583 -0.5629  0.1178  0.5612
 4401SOL    HW124665   0.726   3.111   9.578  3.4420  1.4158 -0.1172
 4401SOL    HW224666   0.758   3.239   9.646  0.6655  0.0639 -0.5915
 4402SOL     OW24667   2.472   1.092   6.981  0.1778 -0.2515 -0.0071
 4402SOL    HW124668   2.543   1.135   6.934 -0.3094  0.6745  0.1056
 4402SOL    HW224669   2.407   1.074   6.912  2.8352 -2.4542 -1.9215
 4403SOL     OW24670   2.772   3.557   6.356  0.1534 -0.2188  0.1953
 4403SOL    HW124671   2.796   3.473   6.318 -1.0447 -1.0668  1.3170
 4403SOL    HW224672   2.780   3.532   6.448  0.3865 -0.9455 -0.0212
 4404SOL     OW24673   1.897   1.758   7.061  0.2886 -0.2192 -0.3040
 4404SOL    HW124674   1.970   1.758   7.123 -1.1831 -1.2030  1.4482
 4404SOL    HW224675   1.842   1.695   7.107  0.6930 -0.3094  0.0615
 4405SOL     OW24676   0.833   1.310   8.053  0.2977  0.0833  0.4874
 4405SOL    HW124677   0.855   1.398   8.022 -0.0304  0.4878  1.4007
 4405SOL    HW224678   0.738   1.322   8.047  0.1507 -0.2269  2.2740
 4406SOL     OW24679   4.246   2.056   0.699 -0.1281  0.3130 -0.2412
 4406SOL    HW124680   4.209   2.064   0.612 -0.3664 -2.1528 -0.3528
 4406SOL    HW224681   4.339   2.072   0.680  0.0660 -0.0968  0.3679
 4407SOL     OW24682   1.208   4.163   8.109  0.2372 -0.0141 -0.4348
 4407SOL    HW124683   1.160   4.199   8.183  2.1752 -1.1157  1.3484
 4407SOL    HW224684   1.228   4.242   8.057  0.2641  0.3660  0.1563
 4408SOL     OW24685   0.258   3.896   5.832 -0.1540  0.1117  0.6104
 4408SOL    HW124686   0.231   3.986   5.851 -0.0752  0.2116  0.2477
 4408SOL    HW224687   0.290   3.896   5.742 -1.0583 -0.1524  0.2904
 4409SOL     OW24688   1.127   0.956   3.222  0.9432  0.0303  0.2366
 4409SOL    HW124689   1.183   0.979   3.296 -0.0246 -0.4440  1.1272
 4409SOL    HW224690   1.081   1.037   3.203  0.5684 -0.8133 -2.3756
 4410SOL     OW24691   0.553   0.115   1.523 -0.0279  0.2388  0.1851
 4410SOL    HW124692   0.588   0.143   1.608 -0.4091  1.6023 -0.1029
 4410SOL    HW224693   0.466   0.088   1.550  0.6418 -1.8723  0.2313
 4411SOL     OW24694   0.053   0.290   7.223 -0.2804  0.4163 -0.6237
 4411SOL    HW124695   0.061   0.229   7.296  1.4130  0.7566 -0.5335
 4411SOL    HW224696   0.147   0.306   7.217 -0.2163  0.4177  0.3765
 4412SOL     OW24697   0.471   1.731  13.556 -0.0434 -0.5555  0.2308
 4412SOL    HW124698   0.519   1.674  13.617  0.1179  0.7295  1.3031
 4412SOL    HW224699   0.453   1.663  13.491 -1.3670  1.0939 -1.1229
 4413SOL     OW24700   1.931   2.475   1.546 -0.2554 -0.1889 -0.2139
 4413SOL    HW124701   1.872   2.500   1.618  2.2135  0.5712  1.5538
 4413SOL    HW224702   1.913   2.382   1.534  1.7830 -0.6559  0.4687
 4414SOL     OW24703   0.708   1.983  13.374 -0.9330 -0.0223  0.1991
 4414SOL    HW124704   0.758   1.975  13.293  0.4566 -1.9445  1.2697
 4414SOL    HW224705   0.675   2.073  13.365 -0.9659  0.1116  1.7863
 4415SOL     OW24706   3.687   0.630   2.805  0.4538 -0.2921  0.3496
 4415SOL    HW124707   3.605   0.647   2.758  1.7350  2.5008 -0.8703
 4415SOL    HW224708   3.675   0.687   2.881 -0.4971  0.0448 -0.0443
 4416SOL     OW24709   1.390   3.737   4.450  0.0642 -0.2580  0.1514
 4416SOL    HW124710   1.327   3.762   4.382  0.2966  1.0267  0.4142
 4416SOL    HW224711   1.323   3.728   4.518  1.3462 -1.3682  1.2755
 4417SOL     OW24712   3.282   1.828   8.101  0.7117 -0.0491 -0.2884
 4417SOL    HW124713   3.322   1.862   8.021  0.3416 -1.7888 -1.2136
 4417SOL    HW224714   3.198   1.786   8.082 -0.7000  1.4114  2.7875
 4418SOL     OW24715   1.723   3.622  11.683  0.6609  0.0153 -0.1153
 4418SOL    HW124716   1.750   3.681  11.613  0.5709 -0.1704 -0.3070
 4418SOL    HW224717   1.720   3.545  11.626  1.3694 -0.2986  0.2665
 4419SOL     OW24718   1.532   3.532   4.883  0.0676  0.1612  0.7462
 4419SOL    HW124719   1.513   3.499   4.796  2.4428 -0.9006  0.6211
 4419SOL    HW224720   1.454   3.586   4.896 -0.8596 -1.0834  0.3466
 4420SOL     OW24721   0.073   3.365  15.458 -0.0877  0.4826  0.1618
 4420SOL    HW124722   0.070   3.415  15.376 -2.3468 -0.3663 -0.2821
 4420SOL    HW224723   0.146   3.412  15.498  2.1366 -1.7475 -1.2041
 4421SOL     OW24724   3.446   1.601   2.306  0.9104 -0.4042  0.0376
 4421SOL    HW124725   3.531   1.643   2.315 -0.1999  1.3885  2.3487
 4421SOL    HW224726   3.449   1.597   2.211 -1.6614  1.0142 -0.0912
 4422SOL     OW24727   1.368   3.711  17.436  0.4866  0.3469 -0.4596
 4422SOL    HW124728   1.378   3.649  17.508 -0.8591 -0.4353 -0.9535
 4422SOL    HW224729   1.285   3.753  17.457  1.0076  1.1987 -0.1001
 4423SOL     OW24730   2.527   2.228  10.148  0.2029 -0.6482  0.1130
 4423SOL    HW124731   2.574   2.298  10.102  0.3251  0.3191  1.6821
 4423SOL    HW224732   2.596   2.193  10.204  0.0178  1.3444  1.6086
 4424SOL     OW24733   4.167   2.154   3.151  0.7956  0.4793  0.1668
 4424SOL    HW124734   4.133   2.084   3.208 -0.3727  2.5275  1.9901
 4424SOL    HW224735   4.163   2.113   3.065 -0.3356 -1.2059  1.0153
 4425SOL     OW24736   1.712   4.413  10.543  0.1614  0.4767  0.1728
 4425SOL    HW124737   1.700   4.318  10.540  1.9320  0.2524  0.5390
 4425SOL    HW224738   1.659   4.449  10.471 -2.9300 -0.8303  1.7860
 4426SOL     OW24739   1.546   2.415  10.568  0.1490 -0.2289  0.0685
 4426SOL    HW124740   1.571   2.506  10.551  2.0018 -0.9066 -0.8439
 4426SOL    HW224741   1.600   2.398  10.645 -2.3161  0.0731  1.8738
 4427SOL     OW24742   1.792   4.590   5.195  0.1537  0.0218 -0.1315
 4427SOL    HW124743   1.844   4.667   5.218  1.4383 -0.8558 -0.1313
 4427SOL    HW224744   1.777   4.609   5.102 -0.0946  2.4199  0.3879
 4428SOL     OW24745   3.978   4.059  12.249 -0.5875 -0.2213 -0.0230
 4428SOL    HW124746   3.950   3.969  12.230 -0.6880 -0.2741  0.3908
 4428SOL    HW224747   3.973   4.060  12.344 -0.1589 -0.2661 -0.0032
 4429SOL     OW24748   0.695   3.589  15.109  0.3286 -0.2213  0.1041
 4429SOL    HW124749   0.702   3.663  15.048 -0.6469 -0.9434 -0.8931
 4429SOL    HW224750   0.788   3.580  15.129  0.5598  0.0406 -0.8237
 4430SOL     OW24751   1.043   1.269   6.666 -0.0359  0.1878  0.0416
 4430SOL    HW124752   1.101   1.196   6.690 -0.2283 -0.0919 -0.3402
 4430SOL    HW224753   1.075   1.341   6.719 -2.5991  2.4208 -1.4704
 4431SOL     OW24754   1.418   1.822  12.507  0.0865 -0.6917  0.0119
 4431SOL    HW124755   1.468   1.810  12.588 -0.6375 -2.3885  0.2205
 4431SOL    HW224756   1.396   1.915  12.508 -2.1568 -1.2090 -0.4764
 4432SOL     OW24757   2.288   1.275   1.613 -0.1195 -0.0366  0.0645
 4432SOL    HW124758   2.348   1.335   1.656 -0.8284 -0.8232  2.1465
 4432SOL    HW224759   2.207   1.310   1.651 -0.4701 -0.0014 -0.7006
 4433SOL     OW24760   3.617   1.014   7.590  0.0898 -0.1382  0.2756
 4433SOL    HW124761   3.545   0.965   7.551  0.9547 -0.7264 -0.5712
 4433SOL    HW224762   3.575   1.090   7.630  2.4076  2.0213 -1.4096
 4434SOL     OW24763   0.281   2.778   1.945 -0.1958  0.5604  0.1635
 4434SOL    HW124764   0.306   2.726   2.021 -0.6962 -0.0685 -0.1059
 4434SOL    HW224765   0.267   2.862   1.989 -1.1404  0.3808  0.1859
 4435SOL     OW24766   2.136   0.937   4.023 -0.7863  0.0883  0.0656
 4435SOL    HW124767   2.123   0.854   3.975 -0.1969  0.3725 -0.5815
 4435SOL    HW224768   2.231   0.936   4.031 -0.9780  0.4228  2.1388
 4436SOL     OW24769   1.908   3.567  15.213 -0.2552 -0.4913  0.0684
 4436SOL    HW124770   1.876   3.556  15.123 -1.7346  0.5211  0.4570
 4436SOL    HW224771   1.842   3.635  15.229  0.8660  0.5754  0.1887
 4437SOL     OW24772   3.503   2.892   7.826  0.4903  0.0816  0.3623
 4437SOL    HW124773   3.423   2.841   7.812  0.6400 -0.3203  0.9512
 4437SOL    HW224774   3.481   2.965   7.768  0.3599  1.0245  1.6109
 4438SOL     OW24775   2.704   3.536   5.106 -0.2707 -0.1367  0.1932
 4438SOL    HW124776   2.618   3.495   5.099 -0.7620  0.6040  1.6994
 4438SOL    HW224777   2.697   3.625   5.070 -1.8865  0.0160  0.8829
 4439SOL     OW24778   3.029   0.253   4.811  0.4511  0.0552  0.1757
 4439SOL    HW124779   2.953   0.300   4.777 -0.0521 -0.9539 -0.1071
 4439SOL    HW224780   3.056   0.313   4.880 -1.2762  1.9052 -0.7696
 4440SOL     OW24781   3.040   3.405   3.722 -0.4458 -0.4879 -0.9185
 4440SOL    HW124782   3.011   3.494   3.741  0.5620 -0.1326 -1.0376
 4440SOL    HW224783   3.060   3.411   3.628 -1.6234  1.8013 -1.0307
 4441SOL     OW24784   4.046   3.280   5.898  0.4479  0.3934 -0.0843
 4441SOL    HW124785   3.952   3.287   5.916  0.9398  1.3175  2.1628
 4441SOL    HW224786   4.068   3.190   5.924 -1.8995 -1.1628 -3.5415
 4442SOL     OW24787   2.189   1.055   4.689  0.0109  0.3590  0.0552
 4442SOL    HW124788   2.259   1.001   4.725  0.8226  1.9449  0.8655
 4442SOL    HW224789   2.242   1.133   4.669  2.9916 -1.2653  1.5611
 4443SOL     OW24790   1.712   0.704   8.717  0.4971 -0.1112  0.4571
 4443SOL    HW124791   1.702   0.676   8.626  4.7612  0.3779 -0.1345
 4443SOL    HW224792   1.772   0.640   8.756  0.2986 -1.4694 -1.4854
 4444SOL     OW24793   0.043   1.828  16.712 -0.4272  0.6782  0.8328
 4444SOL    HW124794   0.073   1.876  16.789 -0.8405 -0.5919  1.7837
 4444SOL    HW224795   0.106   1.851  16.643 -0.8758 -0.6581 -0.0415
 4445SOL     OW24796   4.232   0.009   3.150 -0.7355 -0.1412  0.1353
 4445SOL    HW124797   4.299   0.016   3.217  0.3925  1.5961 -1.1911
 4445SOL    HW224798   4.268   0.051   3.073 -1.8668  0.2055 -0.2038
 4446SOL     OW24799   2.494   4.599  11.534  0.3433 -0.2987  0.2707
 4446SOL    HW124800   2.516   4.517  11.578 -1.0861 -0.3406  0.9043
 4446SOL    HW224801   2.496   4.569  11.443  0.2336  2.1549 -0.5409
 4447SOL     OW24802   0.437   0.479  12.990  0.0758  0.6196 -0.4022
 4447SOL    HW124803   0.344   0.487  13.013 -0.3324 -2.1566 -1.0136
 4447SOL    HW224804   0.490   0.535  13.045 -0.7724  0.3653  0.6854
 4448SOL     OW24805   2.502   2.461  15.357 -0.4466  0.1272 -0.0711
 4448SOL    HW124806   2.434   2.479  15.422 -2.3987  0.6415 -2.2358
 4448SOL    HW224807   2.557   2.396  15.401  0.4686  1.7788  1.1881
 4449SOL     OW24808   3.429   2.212   7.834 -0.3436  0.6757 -1.0381
 4449SOL    HW124809   3.373   2.165   7.772 -2.3962  1.7456 -0.0210
 4449SOL    HW224810   3.370   2.276   7.874 -2.2009 -1.8814  0.3574
 4450SOL     OW24811   0.786   0.256   3.507 -0.1143 -0.1735 -0.1101
 4450SOL    HW124812   0.701   0.243   3.466  0.3745 -1.6000 -0.6407
 4450SOL    HW224813   0.827   0.332   3.464  2.4879 -1.3765  0.2637
 4451SOL     OW24814   4.449   1.523   5.792 -0.6555 -1.1865  0.1625
 4451SOL    HW124815   4.468   1.506   5.700 -0.7264 -0.1340 -0.0522
 4451SOL    HW224816   4.436   1.434   5.824  2.0133 -1.0998  1.5364
 4452SOL     OW24817   2.176   2.750  12.326  0.0841 -0.2315 -0.0884
 4452SOL    HW124818   2.132   2.833  12.311  0.0293  0.1260  1.9860
 4452SOL    HW224819   2.115   2.700  12.271  0.1010  0.0721 -0.3828
 4453SOL     OW24820   3.972   2.642  11.173 -0.5138  0.1734 -0.2556
 4453SOL    HW124821   4.064   2.669  11.170 -0.3277 -0.4952 -0.6545
 4453SOL    HW224822   3.963   2.597  11.089  3.9979 -1.3277  0.0683
 4454SOL     OW24823   3.544   0.567   7.440  0.5951 -0.1477  0.1123
 4454SOL    HW124824   3.615   0.551   7.378  0.6361 -1.9903  0.6281
 4454SOL    HW224825   3.480   0.609   7.383 -0.2271 -1.4175  0.0854
 4455SOL     OW24826   1.288   0.351  12.431 -0.3335  0.0273 -0.4253
 4455SOL    HW124827   1.381   0.330  12.440 -0.9379 -1.8048  1.7193
 4455SOL    HW224828   1.274   0.439  12.466 -0.8993 -0.4628  0.5927
 4456SOL     OW24829   3.229   2.435   4.883 -0.0932  0.2234  0.4053
 4456SOL    HW124830   3.159   2.391   4.835  0.4742 -1.2948  0.9583
 4456SOL    HW224831   3.209   2.406   4.972 -1.1478 -0.0037  0.0949
 4457SOL     OW24832   2.086   2.297   8.779  0.6389  0.0940  0.7011
 4457SOL    HW124833   2.145   2.258   8.714 -1.0094  0.5617 -1.0735
 4457SOL    HW224834   2.080   2.389   8.753  0.3405 -0.2097 -0.3425
 4458SOL     OW24835   2.448   3.408  12.934 -0.2523  0.4190 -0.0259
 4458SOL    HW124836   2.400   3.388  12.853 -2.0327  3.0779  0.3744
 4458SOL    HW224837   2.433   3.503  12.939 -1.3855  0.0468  3.0445
 4459SOL     OW24838   1.211   3.589   4.056 -0.2209 -0.1533  0.2291
 4459SOL    HW124839   1.116   3.584   4.045  0.0664 -0.0297 -2.2555
 4459SOL    HW224840   1.215   3.665   4.115 -3.0631  1.4102 -1.5945
 4460SOL     OW24841   2.771   1.798  10.059  0.4370 -0.0898 -0.5746
 4460SOL    HW124842   2.678   1.822  10.062  0.7865  1.1251  0.6845
 4460SOL    HW224843   2.781   1.743  10.137  2.4549  1.9410  0.5934
 4461SOL     OW24844   2.829   4.348   7.815  0.2339  0.1813 -0.3579
 4461SOL    HW124845   2.912   4.376   7.776  1.2139 -1.7608  0.3101
 4461SOL    HW224846   2.809   4.415   7.880 -3.4683 -2.5937  1.3163
 4462SOL     OW24847   1.082   2.938   6.538 -0.1198 -0.1668  0.3787
 4462SOL    HW124848   1.081   2.978   6.452 -1.5772  1.4606  1.1667
 4462SOL    HW224849   1.045   3.006   6.595 -1.1383 -1.2258  0.9883
 4463SOL     OW24850   1.377   1.492   4.461  0.5824  0.2891  0.1168
 4463SOL    HW124851   1.431   1.531   4.530  0.2452  0.1568  0.4577
 4463SOL    HW224852   1.426   1.525   4.387  2.4574  0.1858  1.3216
 4464SOL     OW24853   3.458   1.861   7.889  0.2821  0.6230 -0.1389
 4464SOL    HW124854   3.484   1.907   7.809 -0.0713  1.1034  0.0200
 4464SOL    HW224855   3.543   1.818   7.901  1.3782  2.7485 -0.2907
 4465SOL     OW24856   0.126   0.815   8.564 -0.3405  0.5472 -0.1337
 4465SOL    HW124857   0.123   0.773   8.649  0.3301  1.2254  0.2286
 4465SOL    HW224858   0.177   0.756   8.508  0.5564 -0.9293  2.2881
 4466SOL     OW24859   0.652   2.045   6.623 -0.7241 -0.0805  0.3413
 4466SOL    HW124860   0.725   2.064   6.564 -0.4880  2.7648  1.5384
 4466SOL    HW224861   0.650   1.950   6.621  0.5722 -0.0725 -0.9065
 4467SOL     OW24862   1.179   1.157   0.044 -0.5187 -0.2105  0.0485
 4467SOL    HW124863   1.115   1.132  17.693 -2.0003 -0.9621  1.7270
 4467SOL    HW224864   1.136   1.236   0.079 -0.4599 -0.3030  0.3302
 4468SOL     OW24865   1.126   0.735   0.394  0.7630 -0.7012  0.4005
 4468SOL    HW124866   1.130   0.764   0.486 -1.4273 -0.4088  0.4008
 4468SOL    HW224867   1.137   0.812   0.339 -0.6798  0.2858  1.4907
 4469SOL     OW24868   4.039   1.996   6.339  0.1337  0.8400  0.2479
 4469SOL    HW124869   4.101   1.994   6.412  0.4562 -1.6983 -0.0974
 4469SOL    HW224870   4.028   1.902   6.322  0.2834  0.5820  1.6346
 4470SOL     OW24871   3.966   1.807   7.811 -0.6220  0.1780  1.0324
 4470SOL    HW124872   4.021   1.832   7.737 -0.7163  0.0002  0.9048
 4470SOL    HW224873   4.012   1.839   7.889  0.7161 -2.2362  1.2144
 4471SOL     OW24874   1.207   0.827   0.633  0.5922 -0.2602 -0.7591
 4471SOL    HW124875   1.224   0.767   0.705  1.5457 -0.3400 -1.0634
 4471SOL    HW224876   1.183   0.907   0.680 -1.4898 -0.5705 -1.2836
 4472SOL     OW24877   3.114   1.880  16.309 -0.3084  0.4570  0.0958
 4472SOL    HW124878   3.028   1.922  16.305 -1.0469 -0.9281  1.4168
 4472SOL    HW224879   3.088   1.791  16.332 -0.2638  0.3774 -0.1578
 4473SOL     OW24880   4.094   0.884  15.977 -0.5119 -0.2720 -0.1742
 4473SOL    HW124881   4.080   0.909  15.885  0.6822  0.0356 -0.2686
 4473SOL    HW224882   4.004   0.905  16.002 -0.8318 -2.1155  0.1804
 4474SOL     OW24883   0.066   1.484   5.917  0.4348 -0.1097 -0.4435
 4474SOL    HW124884   0.161   1.490   5.912  0.3765  0.4928 -0.7464
 4474SOL    HW224885   0.041   1.565   5.873 -3.3555  0.5469  2.8611
 4475SOL     OW24886   0.743   0.528   2.194  0.2709  0.2209 -0.1657
 4475SOL    HW124887   0.821   0.553   2.145  0.6356  0.2342  0.4194
 4475SOL    HW224888   0.728   0.450   2.141  2.0744 -0.8370  0.8752
 4476SOL     OW24889   3.372   2.658   9.996  0.1696 -0.1835 -0.5597
 4476SOL    HW124890   3.307   2.719  10.030 -0.0516 -0.5667 -0.2970
 4476SOL    HW224891   3.328   2.578  10.026  2.2135 -1.3711 -0.6759
 4477SOL     OW24892   2.859   3.331   5.259  0.1725 -0.3354 -0.3022
 4477SOL    HW124893   2.817   3.377   5.186  0.5601 -0.8942 -0.8767
 4477SOL    HW224894   2.779   3.290   5.293  1.3083  0.4183  3.3021
 4478SOL     OW24895   3.723   4.643   6.788  0.7021  0.5752  0.5609
 4478SOL    HW124896   3.682   0.001   6.791  0.7076  0.5964 -0.0836
 4478SOL    HW224897   3.724   4.631   6.693  3.1675 -2.2256  0.9687
 4479SOL     OW24898   2.227   1.910   7.735 -0.0271 -0.7779 -0.1088
 4479SOL    HW124899   2.293   1.921   7.804  0.9793 -0.5597 -1.0977
 4479SOL    HW224900   2.146   1.933   7.780  0.4037 -0.6377  0.5970
 4480SOL     OW24901   4.598   1.097   8.761 -0.2111 -0.6667 -0.3229
 4480SOL    HW124902   4.602   1.008   8.796  2.0196 -0.6617 -0.5691
 4480SOL    HW224903   4.683   1.137   8.779 -2.0882  2.3545  1.6973
 4481SOL     OW24904   0.961   4.685   3.191 -0.1122  0.2234 -0.2142
 4481SOL    HW124905   1.033   4.621   3.197 -0.8494 -0.8806 -3.1215
 4481SOL    HW224906   1.002   0.028   3.239 -3.5567  1.0176  1.5637
 4482SOL     OW24907   1.703   3.699   7.830  0.1885 -0.3829  0.0757
 4482SOL    HW124908   1.747   3.647   7.762  1.0101  0.6015 -0.1385
 4482SOL    HW224909   1.611   3.692   7.804  0.2559 -0.9481 -0.0306
 4483SOL     OW24910   3.756   3.916   8.667  0.9459  0.0147 -0.4527
 4483SOL    HW124911   3.691   3.845   8.664  0.5086  0.3366  1.7394
 4483SOL    HW224912   3.779   3.911   8.574  0.9065  1.0603 -0.5209
 4484SOL     OW24913   1.404   2.126   7.037  0.3488  0.2808  0.5796
 4484SOL    HW124914   1.347   2.119   7.114  2.3504  0.3555  2.0484
 4484SOL    HW224915   1.407   2.036   7.005  2.4415  1.3891 -2.2686
 4485SOL     OW24916   0.447   0.022   6.501 -0.1424  0.0677 -0.0524
 4485SOL    HW124917   0.408   4.714   6.580  2.6040  1.0415  1.7767
 4485SOL    HW224918   0.410   0.109   6.487 -1.0577 -0.2503  0.4030
 4486SOL     OW24919   0.580   2.848   8.649 -0.4913 -0.0218 -0.2368
 4486SOL    HW124920   0.526   2.927   8.639  0.7083  0.8583  0.3536
 4486SOL    HW224921   0.530   2.796   8.711 -0.5122 -0.0679 -0.2920
 4487SOL     OW24922   2.032   0.358   2.814  0.3189  0.0322 -0.7112
 4487SOL    HW124923   2.001   0.365   2.724 -2.3166  0.6384  0.2523
 4487SOL    HW224924   2.058   0.266   2.819 -0.1960  0.0561  2.3713
 4488SOL     OW24925   4.444   2.451  12.760 -0.0087 -0.2275  0.6940
 4488SOL    HW124926   4.377   2.385  12.739  1.3628 -1.2979 -0.3109
 4488SOL    HW224927   4.522   2.397  12.746  0.7895  1.0173  0.4118
 4489SOL     OW24928   2.728   0.333   4.150 -0.1734 -0.1977  0.6292
 4489SOL    HW124929   2.808   0.373   4.186  0.1218 -0.4145  0.2170
 4489SOL    HW224930   2.756   0.247   4.118 -0.7461 -0.2727  0.3361
 4490SOL     OW24931   0.321   3.481  15.525 -0.2144  0.2041  0.1081
 4490SOL    HW124932   0.383   3.554  15.524  1.8150 -1.5239  0.1637
 4490SOL    HW224933   0.370   3.423  15.583 -0.2353  1.8783  1.7676
 4491SOL     OW24934   4.108   4.641   5.384 -0.0206 -0.2240 -0.1214
 4491SOL    HW124935   4.158   4.568   5.348  2.2821  0.6755  1.2644
 4491SOL    HW224936   4.146   4.717   5.340 -0.1846 -0.6712 -1.0411
 4492SOL     OW24937   4.584   2.680  13.452 -0.0940 -0.2212 -0.2927
 4492SOL    HW124938   4.592   2.645  13.540  0.3027  1.4000  0.3094
 4492SOL    HW224939   4.488   2.684  13.442 -0.2872  0.0714  1.6134
 4493SOL     OW24940   3.294   3.227   5.886  0.2525 -0.0349 -0.3804
 4493SOL    HW124941   3.228   3.240   5.818  0.2325 -1.5995 -0.6539
 4493SOL    HW224942   3.374   3.255   5.842  0.4176 -2.7292 -1.7980
 4494SOL     OW24943   4.605   2.914   9.795  0.2001  0.1633 -0.1802
 4494SOL    HW124944   4.538   2.964   9.843 -0.6978  0.2214 -1.4975
 4494SOL    HW224945   4.589   2.963   9.714 -0.3260 -0.7276 -0.6085
 4495SOL     OW24946   3.060   2.002   5.872  0.0507 -0.1558 -0.0876
 4495SOL    HW124947   3.123   2.055   5.823  0.7536  1.1738  2.2291
 4495SOL    HW224948   2.981   2.050   5.847 -0.3224 -1.0898 -0.7235
 4496SOL     OW24949   4.460   4.403   6.272  0.2385  0.1568 -0.1444
 4496SOL    HW124950   4.503   4.472   6.323 -1.5124  0.7195  0.5641
 4496SOL    HW224951   4.493   4.425   6.184  2.7930  1.8892  1.2284
 4497SOL     OW24952   4.249   2.571   1.734  0.2994 -0.1499 -0.4494
 4497SOL    HW124953   4.297   2.611   1.661  2.5942 -0.5193  0.8711
 4497SOL    HW224954   4.192   2.645   1.757 -2.6429 -2.7080  0.5182
 4498SOL     OW24955   1.134   3.308   5.340 -0.5629 -0.1074  0.3340
 4498SOL    HW124956   1.044   3.281   5.361 -0.6885  2.0101  2.4497
 4498SOL    HW224957   1.167   3.337   5.425 -2.2774 -0.9486  1.3007
 4499SOL     OW24958   3.615   2.097   6.407  0.2918 -0.5248  0.4632
 4499SOL    HW124959   3.568   2.124   6.485  0.7859 -1.3044  1.0372
 4499SOL    HW224960   3.690   2.156   6.416 -0.4034  0.6222 -1.2861
 4500SOL     OW24961   3.154   0.021  15.658  0.1936  0.1198  0.1005
 4500SOL    HW124962   3.187   0.037  15.569 -0.0147  0.8698  0.1638
 4500SOL    HW224963   3.214   0.067  15.716  0.8347 -2.0079  1.1563
 4501SOL     OW24964   2.797   2.827   4.398  0.9372 -0.8501 -0.0497
 4501SOL    HW124965   2.719   2.795   4.353  1.9043 -1.2087 -1.4789
 4501SOL    HW224966   2.759   2.871   4.474 -0.2799 -0.8463 -0.6561
 4502SOL     OW24967   2.853   4.094  13.924  0.5550  0.4369  0.7547
 4502SOL    HW124968   2.903   4.017  13.949  0.7914 -0.0029 -1.0975
 4502SOL    HW224969   2.920   4.157  13.897 -0.6242  0.7663 -1.3962
 4503SOL     OW24970   3.954   3.673   3.737  0.0284 -0.4418 -0.2663
 4503SOL    HW124971   4.029   3.706   3.688  0.3703  2.2623  2.0825
 4503SOL    HW224972   3.984   3.625   3.814  0.7064  1.4867  0.6855
 4504SOL     OW24973   3.971   3.635   5.153  0.1835  0.7423 -0.0977
 4504SOL    HW124974   4.014   3.640   5.067  2.8081 -1.5630  1.0949
 4504SOL    HW224975   3.982   3.541   5.164 -2.3375  0.3130 -1.1394
 4505SOL     OW24976   1.197   4.641   3.322  0.4869  0.7755 -0.5786
 4505SOL    HW124977   1.262   4.572   3.311 -0.1587 -0.3592  2.7370
 4505SOL    HW224978   1.186   4.645   3.417  1.1496  2.4743 -0.5590
 4506SOL     OW24979   0.051   1.380   4.388  0.6649  0.0513  0.1643
 4506SOL    HW124980   0.146   1.382   4.385  0.6407 -0.3773 -1.1276
 4506SOL    HW224981   0.044   1.472   4.414 -2.1854 -0.1977  0.2960
 4507SOL     OW24982   4.093   1.774   6.713 -0.0282  0.1357  0.6917
 4507SOL    HW124983   4.004   1.753   6.687  0.2337  0.0946 -0.1873
 4507SOL    HW224984   4.088   1.758   6.807  0.0552  1.3159  0.8979
 4508SOL     OW24985   1.200   2.732  11.257  0.5506 -0.1474 -0.3524
 4508SOL    HW124986   1.180   2.705  11.347  1.5144 -1.8890 -0.6634
 4508SOL    HW224987   1.112   2.752  11.224  0.0137 -2.6939 -0.4692
 4509SOL     OW24988   4.630   2.199   4.306  0.1182  0.2178  0.4767
 4509SOL    HW124989   4.650   2.275   4.251  1.6345 -0.5642 -0.0640
 4509SOL    HW224990   4.593   2.128   4.254 -2.7397  0.2320  2.4896
 4510SOL     OW24991   3.641   3.522   3.966  0.1140 -0.6338 -0.2195
 4510SOL    HW124992   3.596   3.601   3.998  1.0270 -0.8809  1.6925
 4510SOL    HW224993   3.617   3.518   3.874 -2.1601  0.9409  0.2942
 4511SOL     OW24994   0.745   2.027   9.004  0.6399  0.6463 -0.3875
 4511SOL    HW124995   0.727   1.950   9.058 -0.8978 -0.1312 -2.0103
 4511SOL    HW224996   0.664   2.076   9.016  1.0011  1.3349 -0.7530
 4512SOL     OW24997   3.204   2.822   9.806 -0.3791  0.3417  0.3306
 4512SOL    HW124998   3.173   2.795   9.893 -2.6354 -1.6419 -1.1018
 4512SOL    HW224999   3.210   2.736   9.764 -0.7505  0.3635  0.2361
 4513SOL     OW25000   2.814   1.411   5.351  0.1627 -0.7763 -0.7170
 4513SOL    HW125001   2.808   1.493   5.301 -3.6813 -0.5298  0.1673
 4513SOL    HW225002   2.735   1.360   5.335  0.4351 -1.6521  0.7891
 4514SOL     OW25003   0.585   3.565  15.619  0.5318 -0.2492  0.3568
 4514SOL    HW125004   0.583   3.620  15.540 -1.5376 -0.6593  0.1160
 4514SOL    HW225005   0.664   3.513  15.606  1.3568  1.4376 -1.4426
 4515SOL     OW25006   0.799   3.676  10.326  0.8915 -0.1669 -0.7190
 4515SOL    HW125007   0.713   3.636  10.315  1.4837 -1.2911 -1.3473
 4515SOL    HW225008   0.852   3.597  10.340 -0.5795 -1.3088 -1.6473
 4516SOL     OW25009   3.114   0.259   6.870 -0.2824 -0.0188 -0.1465
 4516SOL    HW125010   3.183   0.247   6.935 -2.0356 -1.0175  1.5222
 4516SOL    HW225011   3.036   0.234   6.919 -0.3794  1.4098  0.4092
 4517SOL     OW25012   2.011   3.225   2.954  0.1723 -0.0254 -0.0798
 4517SOL    HW125013   1.998   3.313   2.990 -0.1164  0.2653 -0.9030
 4517SOL    HW225014   2.064   3.185   3.023 -1.2128 -1.8502 -0.0747
 4518SOL     OW25015   0.751   4.172   4.287  0.1619  0.4171 -0.2146
 4518SOL    HW125016   0.812   4.227   4.335  1.1505 -0.4495 -0.4841
 4518SOL    HW225017   0.693   4.242   4.257 -0.3280  0.7299  1.4286
 4519SOL     OW25018   2.581   3.134  14.777  0.1684  0.1504 -0.1465
 4519SOL    HW125019   2.571   3.166  14.688 -0.6865  0.7204  0.1532
 4519SOL    HW225020   2.638   3.201  14.815  0.0890  0.4577 -0.5815
 4520SOL     OW25021   2.215   2.037   0.816  0.2164 -0.1781 -0.6563
 4520SOL    HW125022   2.206   2.100   0.744  0.1043  0.2317 -0.2806
 4520SOL    HW225023   2.156   1.973   0.777 -0.0570 -0.7682  0.7473
 4521SOL     OW25024   3.970   1.249  13.944 -0.1303 -0.2962 -0.9141
 4521SOL    HW125025   4.062   1.228  13.929 -0.1475 -0.6880 -0.4849
 4521SOL    HW225026   3.958   1.319  13.880  0.2143  0.7422  0.1449
 4522SOL     OW25027   3.057   4.527   9.133  0.5048 -0.0449  0.5400
 4522SOL    HW125028   3.089   4.579   9.059 -0.4009 -1.4725 -0.8577
 4522SOL    HW225029   3.090   4.441   9.109 -1.6792 -1.1290  1.3868
 4523SOL     OW25030   2.663   0.601   2.369  0.1855  0.4479 -0.2764
 4523SOL    HW125031   2.733   0.536   2.361 -0.8412 -0.6133 -0.6452
 4523SOL    HW225032   2.599   0.552   2.421  1.1287 -1.6560 -1.1265
 4524SOL     OW25033   0.178   1.228   8.669  0.3978 -0.1979  0.6564
 4524SOL    HW125034   0.183   1.137   8.699  0.1154 -0.2147  0.6510
 4524SOL    HW225035   0.112   1.232   8.600  0.3016  0.6626  0.8003
 4525SOL     OW25036   4.247   3.963   7.043  0.1413  0.0490 -0.2433
 4525SOL    HW125037   4.212   3.922   7.122  2.1850  2.6633  2.0103
 4525SOL    HW225038   4.306   4.035   7.067  0.3532 -1.0037  2.4055
 4526SOL     OW25039   1.026   0.948   7.638  1.0040 -0.4753  0.1636
 4526SOL    HW125040   1.023   1.016   7.571 -0.3090 -2.7349 -2.0656
 4526SOL    HW225041   1.023   0.991   7.723  0.9347 -0.0610 -0.0461
 4527SOL     OW25042   2.910   3.470   8.676  0.1215  0.1899 -0.5729
 4527SOL    HW125043   2.975   3.533   8.645  2.1686 -1.7601 -0.2775
 4527SOL    HW225044   2.942   3.459   8.765  0.0740 -0.5085 -0.6436
 4528SOL     OW25045   4.126   1.795   3.856 -0.0837 -0.0326 -0.3401
 4528SOL    HW125046   4.134   1.705   3.888 -0.4027  0.3296  0.7687
 4528SOL    HW225047   4.206   1.802   3.803  0.0455 -0.5173 -0.2116
 4529SOL     OW25048   1.556   4.591  15.273  0.0310  0.1875  0.7337
 4529SOL    HW125049   1.607   4.538  15.213 -0.8592 -0.4541  0.5367
 4529SOL    HW225050   1.535   4.674  15.230  0.9745 -0.4871 -1.0013
 4530SOL     OW25051   0.072   0.501   1.824 -1.1066 -0.3807 -0.0865
 4530SOL    HW125052   0.023   0.441   1.769  1.8581 -2.5654 -0.2976
 4530SOL    HW225053   0.002   0.567   1.826  1.0685  1.9492  0.3738
 4531SOL     OW25054   1.363   3.929   8.074  0.5004  0.1563  0.6384
 4531SOL    HW125055   1.312   4.010   8.081 -1.5424 -0.9165 -1.8583
 4531SOL    HW225056   1.295   3.862   8.082 -0.3370  1.0756  1.4201
 4532SOL     OW25057   0.962   3.637  15.254  0.4848 -0.0999 -0.3240
 4532SOL    HW125058   0.990   3.698  15.322  0.5504  1.1097 -1.4241
 4532SOL    HW225059   0.968   3.554  15.299  1.4964  0.5919  0.8167
 4533SOL     OW25060   0.557   0.282   3.340 -0.5370  0.3117 -0.1298
 4533SOL    HW125061   0.477   0.335   3.336  0.4201  1.6347 -1.6249
 4533SOL    HW225062   0.549   0.243   3.253 -0.3163  0.9506 -0.4422
 4534SOL     OW25063   4.652   0.109   3.631 -0.5812  0.4222  0.9899
 4534SOL    HW125064   0.015   0.081   3.630 -0.5299  0.6460 -1.0999
 4534SOL    HW225065   4.616   0.028   3.666 -1.8029  0.4454 -0.2338
 4535SOL     OW25066   3.541   1.250   4.486  0.3370  0.0264 -0.4309
 4535SOL    HW125067   3.508   1.179   4.541 -0.1324  1.5331  1.2121
 4535SOL    HW225068   3.510   1.326   4.534 -1.1223 -0.6031 -0.3860
 4536SOL     OW25069   4.374   4.684  16.940  0.0799 -0.2511 -0.3725
 4536SOL    HW125070   4.428   4.616  16.982  0.1374 -0.3687 -0.6353
 4536SOL    HW225071   4.440   0.008  16.896 -2.4659  1.6347 -1.9231
 4537SOL     OW25072   2.421   1.182  13.102 -0.5244 -0.5880  0.2820
 4537SOL    HW125073   2.416   1.267  13.146  0.0128  0.7936 -2.2987
 4537SOL    HW225074   2.474   1.207  13.026 -0.7574  0.2136  0.3821
 4538SOL     OW25075   4.491   0.997   9.271 -0.2672  0.0961 -0.4269
 4538SOL    HW125076   4.516   0.968   9.358 -1.4849 -1.0621 -0.4677
 4538SOL    HW225077   4.488   1.093   9.280 -1.9324  0.1542 -1.6583
 4539SOL     OW25078   0.708   0.360   5.195 -0.1748  0.0070 -0.1390
 4539SOL    HW125079   0.779   0.377   5.132  0.3523  0.5498  0.5987
 4539SOL    HW225080   0.674   0.450   5.200  0.6312  0.1992  1.9751
 4540SOL     OW25081   2.659   2.058   3.186 -0.4215 -0.2708  0.4333
 4540SOL    HW125082   2.718   1.996   3.229  1.2983  0.6557 -0.6037
 4540SOL    HW225083   2.588   2.071   3.249 -0.9648 -0.7733 -0.0650
 4541SOL     OW25084   2.257   3.346  17.637 -0.0565  0.5193  0.0255
 4541SOL    HW125085   2.311   3.373  17.711 -2.4403  2.7254  0.9726
 4541SOL    HW225086   2.178   3.399  17.647 -1.0266 -0.0161 -4.4040
 4542SOL     OW25087   2.577   0.921   7.597  0.9422  0.2102 -0.1413
 4542SOL    HW125088   2.504   0.973   7.630  1.3727 -0.8070  2.4156
 4542SOL    HW225089   2.582   0.854   7.665 -2.6865  0.1729  0.1059
 4543SOL     OW25090   1.039   2.842  15.046  0.1915 -0.0398  0.1851
 4543SOL    HW125091   1.037   2.861  15.139  0.5170  2.7785 -0.3976
 4543SOL    HW225092   1.113   2.898  15.023 -0.0896  1.6436  3.4701
 4544SOL     OW25093   4.580   0.412  10.137 -0.0962 -0.3323 -0.1184
 4544SOL    HW125094   4.499   0.368  10.163  0.0874 -0.7779 -0.3009
 4544SOL    HW225095   4.558   0.500  10.168 -0.5421 -0.7864  0.8628
 4545SOL     OW25096   2.095   4.311  17.232  0.4349 -0.0883 -0.3622
 4545SOL    HW125097   2.109   4.350  17.318 -1.1694  0.3959 -0.3135
 4545SOL    HW225098   2.152   4.356  17.170 -1.0845 -0.2750 -1.9057
 4546SOL     OW25099   0.494   3.841   4.805 -0.0769 -0.7651  0.1400
 4546SOL    HW125100   0.559   3.807   4.865 -0.5157 -0.1029  0.9879
 4546SOL    HW225101   0.434   3.858   4.877 -2.7401 -2.1178 -1.7396
 4547SOL     OW25102   1.522   0.840  14.530  0.0354  0.1561 -0.2133
 4547SOL    HW125103   1.550   0.855  14.440 -0.2943  0.7713 -0.2129
 4547SOL    HW225104   1.557   0.915  14.579  2.4464 -2.4731  2.0664
 4548SOL     OW25105   1.745   3.887  13.872  0.2639 -0.2886  0.3192
 4548SOL    HW125106   1.734   3.870  13.965 -1.3335 -1.0874 -0.0123
 4548SOL    HW225107   1.840   3.881  13.864  0.2329  1.4964 -1.2884
 4549SOL     OW25108   3.781   1.626   1.099 -0.0817  0.5069 -0.3855
 4549SOL    HW125109   3.717   1.675   1.048  0.1196 -1.1274 -2.2094
 4549SOL    HW225110   3.767   1.662   1.187 -4.2938 -0.3649 -0.6948
 4550SOL     OW25111   1.663   4.649   6.400 -0.2742 -0.4093  0.2719
 4550SOL    HW125112   1.579   4.647   6.447 -0.8169  2.3046 -0.5583
 4550SOL    HW225113   1.639   4.643   6.308 -0.4811 -0.3287  0.3188
 4551SOL     OW25114   3.356   3.883   3.143  0.0977  0.8328  0.3932
 4551SOL    HW125115   3.408   3.960   3.168 -0.0715  1.7254 -2.0463
 4551SOL    HW225116   3.323   3.911   3.057  2.1571  0.7723 -0.4069
 4552SOL     OW25117   0.836   4.386   0.681  0.1083 -0.0477 -0.4175
 4552SOL    HW125118   0.796   4.473   0.678  1.0978  0.3188 -2.7106
 4552SOL    HW225119   0.817   4.337   0.601 -2.3153 -2.9473  1.8874
 4553SOL     OW25120   1.020   1.018   8.112  0.6538  0.4057 -0.1372
 4553SOL    HW125121   0.940   1.047   8.067  1.1020 -2.1902 -2.6350
 4553SOL    HW225122   1.016   1.084   8.181 -2.9430 -0.4615  0.4835
 4554SOL     OW25123   3.837   4.456   3.580 -0.2830  0.0707  0.5745
 4554SOL    HW125124   3.761   4.512   3.597 -0.2952  0.1637  0.2102
 4554SOL    HW225125   3.799   4.403   3.510 -2.5671  2.7080 -0.2037
 4555SOL     OW25126   1.118   1.263   7.144 -0.1875 -0.2913  0.6140
 4555SOL    HW125127   1.153   1.348   7.171  0.2076 -1.1373  2.7374
 4555SOL    HW225128   1.041   1.292   7.094  0.0998  1.0074  0.9194
 4556SOL     OW25129   4.060   1.390   7.170 -0.0335 -0.1090  0.1109
 4556SOL    HW125130   4.062   1.295   7.164  2.5744 -0.0508  0.0661
 4556SOL    HW225131   4.073   1.416   7.078 -0.6768 -1.1250 -0.2660
 4557SOL     OW25132   1.269   2.551   1.971 -0.4632  0.5664  0.4056
 4557SOL    HW125133   1.298   2.520   1.885 -0.1149 -1.8027  1.3827
 4557SOL    HW225134   1.265   2.463   2.007 -1.8656  0.7703  0.7479
 4558SOL     OW25135   0.648   0.558  13.563 -0.4153 -0.5539  0.3707
 4558SOL    HW125136   0.743   0.554  13.550 -0.3831 -0.4131  0.5672
 4558SOL    HW225137   0.650   0.639  13.615  0.2818  0.3998 -1.1276
 4559SOL     OW25138   3.926   2.581   8.377  0.1582  0.0623  0.4381
 4559SOL    HW125139   3.949   2.594   8.469  0.9234  0.8572  0.1259
 4559SOL    HW225140   4.000   2.623   8.333 -0.3955 -1.3459 -1.8303
 4560SOL     OW25141   2.521   2.120   8.624 -0.1195 -0.0643  0.3423
 4560SOL    HW125142   2.589   2.053   8.634 -1.4156 -1.4792 -0.2800
 4560SOL    HW225143   2.578   2.190   8.592 -1.6678  0.5867 -0.9900
 4561SOL     OW25144   0.488   0.426   1.629 -0.0560 -0.2622  0.7359
 4561SOL    HW125145   0.438   0.345   1.623 -2.1904  1.0734  0.4151
 4561SOL    HW225146   0.427   0.494   1.657 -0.6394 -0.0914 -0.9267
 4562SOL     OW25147   3.918   2.980   4.639 -0.0951 -0.1137  0.4290
 4562SOL    HW125148   4.007   2.989   4.672  0.1312  0.2807 -0.2744
 4562SOL    HW225149   3.895   2.888   4.654 -2.1180  0.5990  1.5830
 4563SOL     OW25150   1.784   2.705   4.276  0.6749 -0.2482  0.5087
 4563SOL    HW125151   1.807   2.706   4.369  1.5668 -1.1020  0.2960
 4563SOL    HW225152   1.701   2.753   4.280 -0.0694 -1.5398  0.8452
 4564SOL     OW25153   2.528   3.571   2.897  0.2212  0.3500  0.2259
 4564SOL    HW125154   2.499   3.658   2.871  0.1407  0.0186 -0.8059
 4564SOL    HW225155   2.621   3.572   2.872 -0.1769  2.2492 -1.1262
 4565SOL     OW25156   1.453   3.971  10.666 -0.0107 -0.0743  0.2988
 4565SOL    HW125157   1.492   4.050  10.630  0.0763 -0.5486 -0.6568
 4565SOL    HW225158   1.528   3.935  10.712  0.1150  1.3789  1.2339
 4566SOL     OW25159   2.611   0.886   1.751  0.3265  0.0659 -0.1966
 4566SOL    HW125160   2.628   0.952   1.683  0.0433  0.0098 -0.3238
 4566SOL    HW225161   2.542   0.835   1.708 -0.3913  0.1762  0.8416
 4567SOL     OW25162   0.144   4.209   3.779  0.1086  0.3183  0.0383
 4567SOL    HW125163   0.186   4.253   3.705 -0.0284  0.5637  0.1055
 4567SOL    HW225164   0.124   4.292   3.822 -0.0860  0.2794  0.0249
 4568SOL     OW25165   2.839   2.259   3.377  0.6417 -0.0122  0.1243
 4568SOL    HW125166   2.754   2.218   3.392  0.4913  0.8538  1.6801
 4568SOL    HW225167   2.817   2.351   3.362 -2.4444 -0.8838 -0.5554
 4569SOL     OW25168   2.951   3.306   8.067  0.1373  0.3673  0.0947
 4569SOL    HW125169   2.859   3.311   8.040 -0.0081 -0.3344  0.4455
 4569SOL    HW225170   2.935   3.340   8.155 -0.7681 -1.6529  0.7258
 4570SOL     OW25171   1.023   3.513   4.315 -0.0999 -0.2384 -0.5510
 4570SOL    HW125172   0.928   3.508   4.307 -0.0733  1.2162 -1.6447
 4570SOL    HW225173   1.033   3.607   4.303  0.8169 -0.1578  0.8282
 4571SOL     OW25174   2.538   4.603   2.415  0.6172 -0.4745 -0.4703
 4571SOL    HW125175   2.525   4.679   2.473 -0.7332 -0.7453 -0.4109
 4571SOL    HW225176   2.569   4.648   2.337  0.3862  1.2855  0.4458
 4572SOL     OW25177   3.298   1.919  11.788  0.8825  0.9329 -0.3777
 4572SOL    HW125178   3.354   1.949  11.860  0.6592  0.3321  0.0519
 4572SOL    HW225179   3.208   1.939  11.812  0.4410 -1.9311  0.3584
 4573SOL     OW25180   3.248   1.350   1.746  0.3451 -0.2233 -0.4872
 4573SOL    HW125181   3.320   1.287   1.752  0.7559  0.4657  1.8871
 4573SOL    HW225182   3.191   1.313   1.814  1.3027 -1.6741 -0.4673
 4574SOL     OW25183   3.165   2.620   6.644 -0.6864  0.1015  0.0146
 4574SOL    HW125184   3.168   2.678   6.568 -1.1733 -0.2917 -0.3041
 4574SOL    HW225185   3.157   2.535   6.600  1.8401 -0.6545  0.9961
 4575SOL     OW25186   2.574   0.848   7.102 -0.5953 -0.3803  0.3413
 4575SOL    HW125187   2.549   0.851   7.195  1.2021  1.5495  0.7620
 4575SOL    HW225188   2.546   0.936   7.080 -1.6734 -0.5135  1.1372
 4576SOL     OW25189   2.126   3.624   9.528  0.2017  0.2190 -0.1730
 4576SOL    HW125190   2.176   3.580   9.597  0.5537 -0.6629 -0.9872
 4576SOL    HW225191   2.053   3.655   9.582  2.3031 -0.0001  2.7581
 4577SOL     OW25192   0.973   3.869  11.524 -0.3076  0.2638  0.2782
 4577SOL    HW125193   0.926   3.822  11.593  0.0658 -1.0383 -0.3557
 4577SOL    HW225194   0.906   3.932  11.498 -1.9912 -1.6811 -0.1069
 4578SOL     OW25195   1.843   4.505   4.390  0.4467  0.1735 -0.0755
 4578SOL    HW125196   1.922   4.517   4.338  1.3403 -1.9435  0.7806
 4578SOL    HW225197   1.797   4.586   4.367  0.3229 -0.0024 -0.4584
 4579SOL     OW25198   1.679   1.447   2.353 -0.0877 -0.3393 -0.9227
 4579SOL    HW125199   1.675   1.537   2.385  0.1089 -0.9415  0.8065
 4579SOL    HW225200   1.624   1.456   2.275 -1.2569  0.3066 -0.0297
 4580SOL     OW25201   3.892   2.848   0.377  0.4329  0.2260  0.3019
 4580SOL    HW125202   3.965   2.910   0.380  0.4078  0.1986  1.6862
 4580SOL    HW225203   3.940   2.766   0.386  1.6434  0.8554 -0.4786
 4581SOL     OW25204   4.205   0.294   6.422 -0.7411  0.0333 -0.2471
 4581SOL    HW125205   4.196   0.337   6.336 -1.0537  1.6580  0.5961
 4581SOL    HW225206   4.299   0.275   6.422 -0.2007  2.6180 -0.8269
 4582SOL     OW25207   2.649   0.646   2.079 -0.5245 -0.0591 -0.5706
 4582SOL    HW125208   2.605   0.569   2.042 -1.4902 -1.0588  2.7144
 4582SOL    HW225209   2.656   0.627   2.172  0.6624  0.5738 -0.5268
 4583SOL     OW25210   3.903   1.675   3.414 -0.0026 -0.0581  0.5838
 4583SOL    HW125211   3.873   1.625   3.338  0.7579  1.6277 -0.8307
 4583SOL    HW225212   3.877   1.763   3.389 -0.2852  0.0746  1.3734
 4584SOL     OW25213   3.607   3.797   5.084  0.0256  0.0952  0.4591
 4584SOL    HW125214   3.607   3.764   4.994  0.1633  1.1104  0.0974
 4584SOL    HW225215   3.650   3.880   5.066 -4.1954  2.0329 -0.6216
 4585SOL     OW25216   1.769   1.551   3.829  0.1535 -0.0936  0.2196
 4585SOL    HW125217   1.694   1.580   3.881 -0.8207  0.1805 -1.3327
 4585SOL    HW225218   1.770   1.461   3.861  2.2939 -0.7769 -1.7884
 4586SOL     OW25219   1.116   4.402   1.358  0.6205 -0.0215 -0.4094
 4586SOL    HW125220   1.048   4.438   1.415 -0.2270  1.5512 -2.4393
 4586SOL    HW225221   1.152   4.337   1.419  1.9219  0.6318 -0.4816
 4587SOL     OW25222   0.580   3.794   8.435 -0.3528 -0.0127  0.1356
 4587SOL    HW125223   0.671   3.822   8.429 -0.1151 -0.8729 -0.3178
 4587SOL    HW225224   0.537   3.866   8.480 -1.2950  0.9144 -2.2680
 4588SOL     OW25225   2.953   3.368   0.116 -0.4081 -0.3137 -0.3374
 4588SOL    HW125226   3.036   3.407   0.087 -1.2940  1.2743 -0.7328
 4588SOL    HW225227   2.903   3.449   0.111 -0.6189 -0.3934  0.4090
 4589SOL     OW25228   0.528   3.275   7.421  0.5890  0.3997  0.2330
 4589SOL    HW125229   0.559   3.236   7.503  0.9256 -2.3894 -1.2281
 4589SOL    HW225230   0.615   3.303   7.392 -1.0483  1.4315 -3.7715
 4590SOL     OW25231   2.419   2.881   0.924  0.1839 -0.3887  0.0079
 4590SOL    HW125232   2.515   2.883   0.925  0.1832  0.0942 -0.9280
 4590SOL    HW225233   2.398   2.900   1.015  1.5384  0.7220  0.1006
 4591SOL     OW25234   2.297   3.531   2.720  0.5509 -0.3044 -0.4512
 4591SOL    HW125235   2.347   3.594   2.668  1.3411 -0.3509  0.2610
 4591SOL    HW225236   2.341   3.533   2.805 -0.6856  2.3134  0.1232
 4592SOL     OW25237   0.723   0.893  11.287 -0.2131 -0.5378  0.0759
 4592SOL    HW125238   0.649   0.841  11.319  1.4166 -3.2779 -0.5563
 4592SOL    HW225239   0.699   0.903  11.196 -0.5727 -1.9547  0.0060
 4593SOL     OW25240   4.474   1.850   7.591  0.9219  0.1303 -0.4444
 4593SOL    HW125241   4.407   1.783   7.574  0.5432  0.5820 -0.7202
 4593SOL    HW225242   4.534   1.779   7.615  0.7268 -0.3747 -1.4323
 4594SOL     OW25243   2.753   1.634   2.024 -0.0647 -0.1428  0.1593
 4594SOL    HW125244   2.712   1.551   2.048  1.7139 -0.4620  2.1432
 4594SOL    HW225245   2.775   1.655   2.115  1.2984  0.7089 -0.3636
 4595SOL     OW25246   1.110   0.317   9.555 -0.6967 -0.1112  0.2386
 4595SOL    HW125247   1.144   0.256   9.620  2.0496  1.3007  0.0961
 4595SOL    HW225248   1.032   0.272   9.522  0.9215 -2.1853 -0.7440
 4596SOL     OW25249   2.500   3.022   7.914  0.0918  0.2278  0.0199
 4596SOL    HW125250   2.537   2.949   7.962  1.5772 -0.6288 -2.4298
 4596SOL    HW225251   2.468   2.986   7.831 -1.5171  0.5546  0.5030
 4597SOL     OW25252   3.721   3.974   7.524 -0.2456 -0.1690  0.2273
 4597SOL    HW125253   3.725   3.883   7.553  0.7098  0.0219  0.7020
 4597SOL    HW225254   3.684   4.029   7.592 -0.5139  0.0262 -0.0738
 4598SOL     OW25255   1.927   1.317   7.553  0.0545  0.6876  0.4749
 4598SOL    HW125256   1.969   1.231   7.551  2.9758  2.0659  1.5004
 4598SOL    HW225257   1.848   1.309   7.605  0.7512  0.7463  1.5427
 4599SOL     OW25258   1.705   3.089   8.418  0.6467  0.0938  0.6442
 4599SOL    HW125259   1.649   3.036   8.474 -1.1072 -0.1601 -1.3658
 4599SOL    HW225260   1.736   3.146   8.488  1.6336  0.5752 -0.1682
 4600SOL     OW25261   2.964   0.557   9.758  0.0740  0.3023  0.1914
 4600SOL    HW125262   3.039   0.541   9.815 -1.9463 -0.0738  2.7434
 4600SOL    HW225263   2.986   0.501   9.684 -2.9805  1.1900 -1.3962
 4601SOL     OW25264   4.219   3.888   8.044  0.7986 -0.0263 -0.1416
 4601SOL    HW125265   4.186   3.813   8.093  0.3113 -0.8454 -1.7189
 4601SOL    HW225266   4.258   3.935   8.118 -1.6380  0.0569  1.0921
 4602SOL     OW25267   3.129   1.483   9.711  0.2262 -0.5485  0.0043
 4602SOL    HW125268   3.170   1.442   9.787  0.2246  0.2271  0.4242
 4602SOL    HW225269   3.164   1.427   9.641  0.2584  2.3721 -2.3481
 4603SOL     OW25270   0.338   1.548  13.391 -0.1374 -0.4221  0.3790
 4603SOL    HW125271   0.260   1.571  13.441  0.8549 -1.2983  2.3151
 4603SOL    HW225272   0.292   1.472  13.354  2.3192 -1.2258 -1.0482
 4604SOL     OW25273   0.055   1.875   0.164 -0.2173  0.0031  0.3737
 4604SOL    HW125274   4.721   1.804   0.147 -1.2694  1.5114 -2.0441
 4604SOL    HW225275   0.115   1.832   0.224 -0.2345  0.8682  1.0055
 4605SOL     OW25276   2.698   1.786   3.661 -0.0067  0.0535  0.0328
 4605SOL    HW125277   2.745   1.842   3.600 -1.7439  0.9360 -0.4848
 4605SOL    HW225278   2.712   1.703   3.615  0.3833 -0.2751  0.7413
 4606SOL     OW25279   4.452   3.126  16.496  0.6976  0.2165 -0.0716
 4606SOL    HW125280   4.494   3.058  16.443  0.1606 -0.8123  0.8173
 4606SOL    HW225281   4.409   3.066  16.557 -0.0594  1.3380  0.4982
 4607SOL     OW25282   2.349   2.371   7.816  0.7911 -0.5121 -0.6377
 4607SOL    HW125283   2.394   2.369   7.731  0.2295  2.2624 -1.0091
 4607SOL    HW225284   2.422   2.351   7.874  1.0629  1.2579 -0.3560
 4608SOL     OW25285   0.556   3.238   2.493 -0.6257 -0.0461  0.0509
 4608SOL    HW125286   0.514   3.323   2.495  1.2730  0.8987 -0.4111
 4608SOL    HW225287   0.645   3.259   2.466 -0.7978 -0.7425 -1.0642
 4609SOL     OW25288   2.309   1.669   1.931  0.7377 -0.5796 -0.2361
 4609SOL    HW125289   2.237   1.728   1.905  1.8188  0.9830  0.2997
 4609SOL    HW225290   2.268   1.606   1.989 -0.4088  1.4297  1.1516
 4610SOL     OW25291   0.131   4.087  14.632  0.4423  0.3996 -0.6038
 4610SOL    HW125292   0.104   4.174  14.603 -0.2467  0.0649 -0.9633
 4610SOL    HW225293   0.071   4.080  14.706  2.4045 -1.4147  0.8386
 4611SOL     OW25294   0.084   3.781   7.329 -0.1648  0.7765  0.1439
 4611SOL    HW125295   4.726   3.764   7.291  1.4518 -3.5888 -1.6597
 4611SOL    HW225296   0.108   3.869   7.301 -0.0367  0.2073 -1.5863
 4612SOL     OW25297   0.918   2.848   3.047  0.2428  0.3234  0.1116
 4612SOL    HW125298   0.862   2.807   3.112  1.2278 -2.7693 -0.9799
 4612SOL    HW225299   0.940   2.930   3.091 -0.3665 -0.2685  1.4947
 4613SOL     OW25300   1.199   4.665   1.507  0.7226 -0.0788 -0.4802
 4613SOL    HW125301   1.116   4.619   1.513  0.2777  0.5879 -1.5589
 4613SOL    HW225302   1.212   4.678   1.413  1.6176  3.0910  0.0657
 4614SOL     OW25303   2.460   0.616   0.747 -0.2609  0.2745  0.0604
 4614SOL    HW125304   2.409   0.579   0.819  1.1088 -1.5810  0.0618
 4614SOL    HW225305   2.482   0.696   0.794 -3.3074  1.0179  0.2628
 4615SOL     OW25306   1.819   4.178   7.525  0.2825 -0.0761  0.5967
 4615SOL    HW125307   1.825   4.274   7.532 -1.5737  0.0475  0.4742
 4615SOL    HW225308   1.842   4.140   7.610 -1.4817 -2.5833 -0.0672
 4616SOL     OW25309   0.290   2.477  16.939 -0.1242 -0.5777  0.3642
 4616SOL    HW125310   0.206   2.474  16.986  0.0676 -0.0173  0.7463
 4616SOL    HW225311   0.300   2.573  16.939 -0.9024 -0.5073 -2.2939
 4617SOL     OW25312   4.549   0.331  14.701 -0.6799  0.6751 -0.4334
 4617SOL    HW125313   4.497   0.377  14.767  0.5994  1.1819  0.2332
 4617SOL    HW225314   4.615   0.398  14.685 -1.3955  1.2064 -1.1375
 4618SOL     OW25315   3.674   1.961   6.732 -0.0166 -0.3571  0.0930
 4618SOL    HW125316   3.762   1.999   6.737 -0.8835  1.8084 -0.9875
 4618SOL    HW225317   3.700   1.877   6.694 -2.0700 -1.1612  0.5096
 4619SOL     OW25318   1.605   4.365   0.836 -0.3634  0.1879 -0.1651
 4619SOL    HW125319   1.646   4.335   0.755 -1.6297  0.4061 -0.8903
 4619SOL    HW225320   1.646   4.452   0.842  2.1835 -1.1277  1.3784
 4620SOL     OW25321   2.162   0.838   6.825  0.5408  0.1184  0.7927
 4620SOL    HW125322   2.203   0.923   6.808 -1.9626  1.2367  0.3341
 4620SOL    HW225323   2.137   0.850   6.917 -0.3234  0.6077  0.4909
 4621SOL     OW25324   4.490   2.882   8.882  0.1188 -0.4169 -0.3276
 4621SOL    HW125325   4.414   2.876   8.824  0.4514 -2.4243 -0.5574
 4621SOL    HW225326   4.487   2.800   8.932 -1.3391  0.1792  0.5721
 4622SOL     OW25327   3.278   0.327   2.346  0.2558  0.0256  0.3652
 4622SOL    HW125328   3.313   0.322   2.257 -1.1618 -0.1581 -0.1762
 4622SOL    HW225329   3.310   0.243   2.378  1.0086  0.1088 -0.1628
 4623SOL     OW25330   4.223   1.147   9.716 -0.2663  0.1770  0.5614
 4623SOL    HW125331   4.305   1.136   9.668 -0.5886 -0.0466  0.0587
 4623SOL    HW225332   4.181   1.193   9.644  0.3348  0.8235  0.6255
 4624SOL     OW25333   3.115   3.294   6.402  0.0522 -0.1218  0.3644
 4624SOL    HW125334   3.029   3.309   6.363 -0.0975 -1.0284  0.3484
 4624SOL    HW225335   3.171   3.292   6.324  0.4050  1.9127  0.5512
 4625SOL     OW25336   2.288   4.417   5.714 -0.0689  0.4838  0.3190
 4625SOL    HW125337   2.256   4.493   5.665 -1.6243 -1.3324 -1.4906
 4625SOL    HW225338   2.293   4.349   5.646 -1.8742  1.5211 -0.8520
 4626SOL     OW25339   3.696   0.293   3.748  0.4401  0.6770 -0.3711
 4626SOL    HW125340   3.699   0.280   3.843 -0.3446  1.4279 -0.2495
 4626SOL    HW225341   3.648   0.375   3.741  2.0627  1.5940 -0.8978
 4627SOL     OW25342   3.657   3.873   0.389 -0.5681  0.2751 -0.1790
 4627SOL    HW125343   3.577   3.923   0.375 -0.5762  0.0552 -0.9019
 4627SOL    HW225344   3.665   3.890   0.483 -0.4554  0.6029 -0.2462
 4628SOL     OW25345   0.106   1.678   2.298  0.3270 -0.2114  0.7412
 4628SOL    HW125346   0.129   1.753   2.353 -0.9219 -1.9914  3.6824
 4628SOL    HW225347   0.156   1.609   2.340  1.7770 -0.1484 -0.8495
 4629SOL     OW25348   1.336   0.201   3.329  0.1129  0.0552 -0.3069
 4629SOL    HW125349   1.262   0.160   3.374  0.9541 -0.6263  0.4578
 4629SOL    HW225350   1.344   0.174   3.238 -0.0827 -1.2697  0.0761
 4630SOL     OW25351   2.543   0.323   4.335 -0.2328 -0.1059  0.2793
 4630SOL    HW125352   2.522   0.411   4.305 -0.6483 -0.1062  0.5706
 4630SOL    HW225353   2.598   0.295   4.262  1.1014 -0.9396  1.5918
 4631SOL     OW25354   3.393   4.524   4.465 -0.1281 -0.1179 -0.0305
 4631SOL    HW125355   3.461   4.478   4.417  1.4739  2.1175  0.0562
 4631SOL    HW225356   3.353   4.583   4.401 -1.4859  0.7961  1.6587
 4632SOL     OW25357   3.940   1.923  12.533  0.1324 -0.6635 -0.1051
 4632SOL    HW125358   3.970   1.902  12.445  0.5992  1.3350 -0.4164
 4632SOL    HW225359   3.917   2.015  12.526 -2.8366 -1.5127 -1.2089
 4633SOL     OW25360   2.371   3.371   7.383 -0.1443 -0.0830 -0.1246
 4633SOL    HW125361   2.442   3.432   7.366 -1.1115  1.6476  1.9343
 4633SOL    HW225362   2.309   3.434   7.421  1.0908  0.1822  1.4463
 4634SOL     OW25363   3.971   4.258   5.022  0.2911 -0.5749 -0.1660
 4634SOL    HW125364   3.921   4.254   5.104 -1.9695  1.6180 -1.4407
 4634SOL    HW225365   3.963   4.351   4.998 -0.3147 -0.6804 -0.3713
 4635SOL     OW25366   4.065   3.452   6.882 -0.2836  0.2578  0.2358
 4635SOL    HW125367   4.024   3.533   6.852  0.8133  0.9485  0.6037
 4635SOL    HW225368   4.014   3.396   6.824 -2.0013  0.0779  1.9146
 4636SOL     OW25369   4.357   3.562   4.841 -0.4072 -0.6607  0.2233
 4636SOL    HW125370   4.440   3.604   4.819 -0.7127 -0.9043 -1.4190
 4636SOL    HW225371   4.380   3.471   4.825 -1.8731 -0.6885 -1.6985
 4637SOL     OW25372   1.205   1.489   0.249 -0.2027  0.6267 -0.2597
 4637SOL    HW125373   1.130   1.472   0.193  0.9406  0.1462 -1.6441
 4637SOL    HW225374   1.260   1.413   0.231  0.0803  0.5756  0.7952
 4638SOL     OW25375   1.053   2.313   9.791  0.3146 -0.5202 -0.2785
 4638SOL    HW125376   1.147   2.331   9.795  0.5286 -1.5409 -0.6166
 4638SOL    HW225377   1.041   2.263   9.872  2.1838 -2.2912 -1.0867
 4639SOL     OW25378   3.835   1.661  14.678 -0.1849 -0.6122  0.8065
 4639SOL    HW125379   3.814   1.648  14.586  0.7129  0.2120  0.4808
 4639SOL    HW225380   3.870   1.573  14.693  1.7010  0.4336  2.6267
 4640SOL     OW25381   4.390   1.290   5.923 -0.5583 -0.1298  0.0071
 4640SOL    HW125382   4.301   1.282   5.887 -0.0950  1.7342 -1.5566
 4640SOL    HW225383   4.421   1.200   5.926 -1.9577 -0.6136 -0.0033
 4641SOL     OW25384   1.055   4.418  14.330  0.2127  0.1113 -0.2095
 4641SOL    HW125385   1.012   4.504  14.327 -0.0739  0.0263  1.5512
 4641SOL    HW225386   1.016   4.371  14.256 -1.2026  2.4132 -0.9492
 4642SOL     OW25387   4.552   2.137  10.991  0.0374 -0.6108  0.6174
 4642SOL    HW125388   4.534   2.127  10.898 -0.2498 -1.7768  0.7996
 4642SOL    HW225389   4.601   2.219  10.996 -0.7847 -0.0136 -1.5008
 4643SOL     OW25390   1.138   1.337   9.084  0.9019 -0.1460  0.0207
 4643SOL    HW125391   1.130   1.385   9.002  0.6290  0.5672  0.4568
 4643SOL    HW225392   1.171   1.253   9.052  2.4044  1.4151 -2.4513
 4644SOL     OW25393   3.727   2.241   1.958  0.3545  0.1804 -0.3156
 4644SOL    HW125394   3.659   2.269   1.898  1.0752 -0.3781 -1.3920
 4644SOL    HW225395   3.789   2.311   1.938 -1.7376  2.3191  0.7297
 4645SOL     OW25396   3.860   1.427   9.636 -0.1149  0.2510  0.0792
 4645SOL    HW125397   3.928   1.395   9.696  0.8947  0.8396 -0.7717
 4645SOL    HW225398   3.813   1.490   9.691  1.2712  1.0453  0.3420
 4646SOL     OW25399   1.535   2.655   7.536  0.9307  0.0521 -0.2417
 4646SOL    HW125400   1.625   2.625   7.528  0.5118 -0.9190 -1.2808
 4646SOL    HW225401   1.486   2.573   7.545  2.3130 -0.6044  1.1478
 4647SOL     OW25402   1.023   1.721   7.798 -0.5232  0.0273  0.7605
 4647SOL    HW125403   1.112   1.742   7.826  0.2468 -0.8784 -1.0482
 4647SOL    HW225404   0.995   1.804   7.758  0.6704  0.0607 -0.0132
 4648SOL     OW25405   1.425   0.425   5.496  0.2198  0.3702  0.4391
 4648SOL    HW125406   1.406   0.331   5.497 -1.4385  0.6947  0.0546
 4648SOL    HW225407   1.339   0.467   5.499  0.4308  0.9313 -1.2726
 4649SOL     OW25408   3.250   0.393  16.292 -0.5118  0.0367  0.4567
 4649SOL    HW125409   3.201   0.364  16.215 -0.2367  1.8286 -0.3732
 4649SOL    HW225410   3.292   0.465  16.246 -1.5581 -0.5470 -1.4167
 4650SOL     OW25411   4.279   4.606   6.497 -0.1777 -0.1799 -0.3146
 4650SOL    HW125412   4.229   4.546   6.442  0.2950 -2.0178  1.2541
 4650SOL    HW225413   4.286   4.677   6.433 -0.2958 -1.9102 -2.2590
 4651SOL     OW25414   0.798   0.046  13.831  0.3033  0.0495 -0.4906
 4651SOL    HW125415   0.811   0.136  13.860  0.1503 -0.3102  0.6905
 4651SOL    HW225416   0.874   0.026  13.776  0.0156  0.4345 -1.0259
 4652SOL     OW25417   2.728   3.081   3.639 -0.4425 -0.3653  0.3510
 4652SOL    HW125418   2.703   3.033   3.718  1.6088 -0.4805  0.9339
 4652SOL    HW225419   2.772   3.022   3.577 -0.0680  0.6009 -0.3119
 4653SOL     OW25420   1.526   1.520   5.527 -0.3867  0.0728 -0.3080
 4653SOL    HW125421   1.443   1.538   5.482 -1.4104 -2.3311  0.5979
 4653SOL    HW225422   1.582   1.479   5.461  0.3032  0.7549 -0.1415
 4654SOL     OW25423   1.010   0.765   6.034  0.2465  0.0280 -0.0250
 4654SOL    HW125424   0.938   0.793   6.091  0.2821 -0.4068  0.2265
 4654SOL    HW225425   1.083   0.795   6.087  0.3804 -0.5995  0.1406
 4655SOL     OW25426   1.720   0.608   6.663  0.0152 -0.0424 -0.3421
 4655SOL    HW125427   1.624   0.607   6.660 -0.0239 -0.0650  0.8420
 4655SOL    HW225428   1.742   0.538   6.602 -0.3103  1.9884 -2.8019
 4656SOL     OW25429   1.584   0.473  13.155  0.7383 -0.2934  0.5625
 4656SOL    HW125430   1.577   0.471  13.251 -2.4157 -2.4494  0.2927
 4656SOL    HW225431   1.612   0.385  13.131 -0.7007 -0.4672 -0.4507
 4657SOL     OW25432   4.067   1.718   6.297  0.3416  0.2334 -0.3968
 4657SOL    HW125433   4.162   1.716   6.304  0.4384  1.4932 -1.4013
 4657SOL    HW225434   4.046   1.735   6.205 -1.7634 -0.3428 -0.0203
 4658SOL     OW25435   1.938   0.154  12.167  0.1168 -0.1886  0.2664
 4658SOL    HW125436   1.932   0.236  12.117 -0.0820  0.3255  1.1311
 4658SOL    HW225437   1.848   0.120  12.161  1.1483 -2.4757 -2.1563
 4659SOL     OW25438   4.473   4.010   9.055  0.1351  0.3775 -0.0373
 4659SOL    HW125439   4.507   4.082   9.107 -2.0337 -0.5641  2.6919
 4659SOL    HW225440   4.450   3.952   9.127 -0.9211  1.2730  0.3405
 4660SOL     OW25441   1.029   0.481  16.430 -0.0790  0.0241  0.4647
 4660SOL    HW125442   0.968   0.475  16.504  0.5613  0.2874  1.0193
 4660SOL    HW225443   1.051   0.573  16.436 -1.3543  0.2399  1.9278
 4661SOL     OW25444   0.843   3.586   7.431 -0.7977 -0.4431  0.3575
 4661SOL    HW125445   0.915   3.555   7.378  0.7942  1.6016  1.3208
 4661SOL    HW225446   0.853   3.534   7.511 -1.9025  1.6768  1.8853
 4662SOL     OW25447   3.623   2.369  13.771  0.5432  0.1035 -0.2010
 4662SOL    HW125448   3.623   2.386  13.865 -0.8408 -2.0353  0.1891
 4662SOL    HW225449   3.532   2.384  13.746  0.2556  1.0187  1.4284
 4663SOL     OW25450   1.945   4.063  14.249  0.2967 -0.0186 -0.1182
 4663SOL    HW125451   1.954   4.153  14.219 -2.7394 -0.2410 -1.7201
 4663SOL    HW225452   2.027   4.062  14.299  1.4369  0.5363 -1.9894
 4664SOL     OW25453   2.655   3.282   3.471 -0.5427  0.0559 -0.0326
 4664SOL    HW125454   2.718   3.280   3.399  0.2501 -1.0015  0.6802
 4664SOL    HW225455   2.684   3.206   3.523 -2.4037  1.5616  3.2206
 4665SOL     OW25456   0.962   2.489   4.392 -0.3756  0.8934 -0.1913
 4665SOL    HW125457   1.034   2.468   4.333 -0.4906  1.3621 -0.4925
 4665SOL    HW225458   0.883   2.498   4.340 -0.3352  0.2277 -0.3702
 4666SOL     OW25459   2.755   1.021   3.897 -0.2804 -0.2334 -0.2755
 4666SOL    HW125460   2.716   0.950   3.846  0.1060 -1.5400  1.2545
 4666SOL    HW225461   2.846   1.030   3.867 -1.1198  0.3145 -2.6814
 4667SOL     OW25462   2.122   0.602   7.232 -0.0687  0.4531  0.4188
 4667SOL    HW125463   2.056   0.611   7.163  0.0527  1.3006  0.4153
 4667SOL    HW225464   2.172   0.528   7.197  2.8142  0.7953  3.8699
 4668SOL     OW25465   0.802   1.659   4.696 -0.6236 -0.0819 -0.6598
 4668SOL    HW125466   0.752   1.711   4.759 -1.1485 -0.7083 -0.5567
 4668SOL    HW225467   0.748   1.580   4.689 -1.1150  0.2455 -0.6068
 4669SOL     OW25468   0.124   3.225  11.451 -0.2543  0.2780 -0.7884
 4669SOL    HW125469   0.084   3.296  11.401 -0.7483 -0.0498 -0.8639
 4669SOL    HW225470   0.145   3.272  11.531  0.0823 -2.8933  0.9673
 4670SOL     OW25471   3.243   2.333   3.823 -0.0034 -0.0804  0.1420
 4670SOL    HW125472   3.263   2.328   3.730 -0.4424 -0.4779  0.0692
 4670SOL    HW225473   3.308   2.274   3.861  1.9357  2.0075  0.1253
 4671SOL     OW25474   2.517   1.181   1.255  0.1308  0.0278 -0.3906
 4671SOL    HW125475   2.568   1.109   1.217 -0.4622  0.8648 -2.8085
 4671SOL    HW225476   2.452   1.132   1.306  1.1145  0.5670  1.3668
 4672SOL     OW25477   2.636   3.208   6.988  0.1188 -0.0670 -0.0962
 4672SOL    HW125478   2.645   3.292   7.032 -1.0389 -0.7969  1.5386
 4672SOL    HW225479   2.717   3.210   6.937  1.3263 -1.9053  1.7434
 4673SOL     OW25480   2.389   0.896  14.221 -0.8071 -0.9535 -0.1500
 4673SOL    HW125481   2.297   0.891  14.247 -0.9751  1.9858 -0.1660
 4673SOL    HW225482   2.410   0.990  14.224 -1.7753 -0.7845  1.4152
 4674SOL     OW25483   1.574   3.330  16.158 -0.4393 -0.2486 -0.5864
 4674SOL    HW125484   1.598   3.401  16.099  0.5325  0.6666  0.9008
 4674SOL    HW225485   1.588   3.250  16.106 -0.6422 -1.6010  1.4298
 4675SOL     OW25486   1.487   1.172   7.023  0.6147  0.2133  0.0679
 4675SOL    HW125487   1.527   1.088   6.999  0.6566  0.5445 -1.0166
 4675SOL    HW225488   1.439   1.142   7.100  2.0637  1.9255  1.6018
 4676SOL     OW25489   0.845   0.175   3.770  0.2711 -0.2329  0.1994
 4676SOL    HW125490   0.850   0.181   3.675 -2.4122 -0.5858  0.0562
 4676SOL    HW225491   0.908   0.244   3.792 -2.9092  2.2493  1.6261
 4677SOL     OW25492   0.962   3.955  15.233  0.0407  1.0745  0.2964
 4677SOL    HW125493   0.970   3.964  15.138 -0.6623  1.3704  0.2622
 4677SOL    HW225494   1.030   4.018  15.257  0.6736  0.1875  0.8082
 4678SOL     OW25495   3.926   4.225   8.629  0.1634 -0.3032  0.2879
 4678SOL    HW125496   3.834   4.237   8.605  0.0134  1.5657  1.7808
 4678SOL    HW225497   3.919   4.226   8.724 -1.0370 -2.8108  0.2191
 4679SOL     OW25498   0.858   1.540   7.907  0.3264  0.2204  0.0693
 4679SOL    HW125499   0.936   1.591   7.885  0.8636 -0.3453  0.6786
 4679SOL    HW225500   0.801   1.617   7.908 -3.4986 -2.6199  1.0651
 4680SOL     OW25501   1.018   1.334   3.541  0.2093  0.2111  0.1862
 4680SOL    HW125502   0.983   1.396   3.605 -1.4211 -1.5662  1.0350
 4680SOL    HW225503   1.086   1.388   3.501  1.2985 -2.8835 -2.1319
 4681SOL     OW25504   0.811   2.784   5.303 -0.3742 -0.2383  0.2934
 4681SOL    HW125505   0.727   2.759   5.342 -0.3945 -1.4808 -0.5259
 4681SOL    HW225506   0.839   2.854   5.362 -0.6238  1.6549 -1.8288
 4682SOL     OW25507   0.204   4.712  13.087  0.2650  0.4689  0.3355
 4682SOL    HW125508   0.155   4.669  13.157 -0.7748 -0.4629 -0.9643
 4682SOL    HW225509   0.235   4.634  13.042 -0.2424  0.0773  0.6674
 4683SOL     OW25510   0.595   1.163   7.910 -0.1127 -0.1052 -0.0699
 4683SOL    HW125511   0.592   1.121   7.824  0.2247 -0.0567 -0.1053
 4683SOL    HW225512   0.625   1.096   7.972 -1.8288 -1.5755 -0.8425
 4684SOL     OW25513   3.977   1.167   2.642  0.2680 -0.0479  0.0061
 4684SOL    HW125514   4.067   1.199   2.630  0.7396 -1.1620  0.5938
 4684SOL    HW225515   3.947   1.150   2.553 -0.7364 -0.3619  0.4101
 4685SOL     OW25516   0.780   0.803   3.938 -0.1014 -0.3532 -0.1282
 4685SOL    HW125517   0.750   0.760   3.858 -3.0783  1.7199 -0.1211
 4685SOL    HW225518   0.753   0.893   3.920  0.5801 -0.5528 -2.1959
 4686SOL     OW25519   4.204   2.586   7.237  0.0640  0.3378 -0.0166
 4686SOL    HW125520   4.242   2.546   7.315  1.8348  0.0291 -1.0392
 4686SOL    HW225521   4.227   2.520   7.172  0.1855 -0.8147  1.1943
 4687SOL     OW25522   1.151   4.685   4.912  0.0309 -0.2134  0.1246
 4687SOL    HW125523   1.081   4.623   4.892 -0.3936 -0.1646  1.4521
 4687SOL    HW225524   1.221   4.627   4.939 -0.7200 -1.3848 -0.4202
 4688SOL     OW25525   2.510   2.843   2.053 -0.0433  0.4226  0.2276
 4688SOL    HW125526   2.481   2.874   1.968 -1.5294  0.0821  0.6164
 4688SOL    HW225527   2.461   2.899   2.112  0.6245  1.5488 -0.2819
 4689SOL     OW25528   0.791   1.333   2.987 -0.0194 -0.1393 -0.7529
 4689SOL    HW125529   0.728   1.315   2.917  1.7732 -1.1093 -2.1116
 4689SOL    HW225530   0.869   1.288   2.954 -0.4925 -0.9607 -0.7479
 4690SOL     OW25531   1.233   0.005   6.631 -0.7651 -0.0948  0.0322
 4690SOL    HW125532   1.267   0.055   6.557 -1.3249  0.2181 -0.0138
 4690SOL    HW225533   1.256   0.058   6.707 -1.1164  1.1074 -0.6946
 4691SOL     OW25534   3.620   0.696   8.367 -0.2316 -0.5251 -0.3172
 4691SOL    HW125535   3.600   0.764   8.431  3.7779 -1.3625  1.8332
 4691SOL    HW225536   3.664   0.751   8.302  1.7558 -0.6898  0.8812
 4692SOL     OW25537   3.283   1.892   4.121  0.0195 -0.1246 -0.2499
 4692SOL    HW125538   3.311   1.820   4.178  0.5502 -0.0724 -0.4401
 4692SOL    HW225539   3.205   1.919   4.170  0.4876  0.5456  0.1158
 4693SOL     OW25540   1.971   3.358   3.825  0.3153 -0.1861 -0.6761
 4693SOL    HW125541   2.002   3.301   3.894 -1.9163  0.1823  0.6092
 4693SOL    HW225542   2.049   3.410   3.806  1.0250 -1.4089 -1.0898
 4694SOL     OW25543   0.128   0.342   1.179  0.3766  0.0775  0.3083
 4694SOL    HW125544   0.120   0.328   1.085  2.0574  1.6850 -0.0686
 4694SOL    HW225545   0.072   0.420   1.185 -1.7189 -1.2216 -2.4504
 4695SOL     OW25546   0.018   0.503   7.522 -0.5116 -0.7861  0.1059
 4695SOL    HW125547   4.680   0.548   7.470  1.2043  1.1549 -0.4397
 4695SOL    HW225548   0.084   0.487   7.454 -1.3097 -0.1426 -0.8291
 4696SOL     OW25549   0.221   3.006   3.680 -0.3402 -0.0328 -0.1006
 4696SOL    HW125550   0.311   2.997   3.712  0.5588  1.3594 -2.2819
 4696SOL    HW225551   0.194   3.060   3.754  0.7096  2.2724 -1.4126
 4697SOL     OW25552   4.402   1.989   8.539  0.3032 -0.1171 -0.2646
 4697SOL    HW125553   4.484   1.947   8.561 -0.0251 -0.9806 -0.6748
 4697SOL    HW225554   4.334   1.955   8.597  0.3081 -0.6157 -0.5549
 4698SOL     OW25555   3.601   3.311   6.355 -0.4630 -0.7288  0.3100
 4698SOL    HW125556   3.571   3.402   6.353  0.4901 -0.4305 -0.5172
 4698SOL    HW225557   3.627   3.295   6.264  1.2693  1.6768  0.3743
 4699SOL     OW25558   0.527   1.370   2.831  0.3249 -0.1349  0.4671
 4699SOL    HW125559   0.474   1.372   2.752 -0.7087  0.8601  1.1969
 4699SOL    HW225560   0.514   1.454   2.875 -2.5883 -0.7500  0.7755
 4700SOL     OW25561   1.970   4.497  12.761  0.0968  0.3129  0.0478
 4700SOL    HW125562   2.027   4.568  12.790 -1.1375  0.9575  0.9275
 4700SOL    HW225563   1.952   4.452  12.844  0.4227 -1.4331 -0.8364
 4701SOL     OW25564   0.265   1.485  10.063 -0.2639 -0.2811  0.5355
 4701SOL    HW125565   0.234   1.425   9.995 -1.9672 -0.7447  1.7413
 4701SOL    HW225566   0.359   1.468  10.052 -0.4851 -0.4297 -1.0721
 4702SOL     OW25567   2.134   4.710   8.709 -0.6774 -0.7288  0.0393
 4702SOL    HW125568   2.047   4.703   8.747  0.4728 -1.9729  2.4545
 4702SOL    HW225569   2.163   4.620   8.696  0.7279 -0.1954 -0.5586
 4703SOL     OW25570   3.609   1.262   9.668  0.2450 -0.5381  0.0447
 4703SOL    HW125571   3.670   1.318   9.620 -1.5785 -0.3803 -2.0528
 4703SOL    HW225572   3.674   1.206   9.712 -0.2069  0.9684  2.6391
 4704SOL     OW25573   0.662   4.351   6.676 -0.1098 -0.7792 -0.1360
 4704SOL    HW125574   0.729   4.323   6.614  1.4866 -1.7268  2.0264
 4704SOL    HW225575   0.662   4.447   6.673  4.2102 -0.6940  2.3624
 4705SOL     OW25576   3.807   2.897   8.917  0.1809  0.3488 -0.2709
 4705SOL    HW125577   3.849   2.824   8.872  0.4730  0.7841 -0.7002
 4705SOL    HW225578   3.768   2.866   8.999 -0.9100 -0.5520 -1.1442
 4706SOL     OW25579   3.231   3.651  16.104 -0.4181  0.3648 -0.3582
 4706SOL    HW125580   3.265   3.607  16.027 -0.4249  0.8955 -0.6599
 4706SOL    HW225581   3.292   3.622  16.172  2.1149  0.3283 -2.6788
 4707SOL     OW25582   4.270   4.093   4.248 -0.1163  0.6323 -0.0468
 4707SOL    HW125583   4.211   4.041   4.304  0.1628  0.1730 -0.1775
 4707SOL    HW225584   4.355   4.050   4.253 -0.4434  0.1760  1.6277
 4708SOL     OW25585   2.125   4.054   7.186 -0.2049 -0.5376 -0.8646
 4708SOL    HW125586   2.086   3.991   7.246  2.2848 -0.8870  0.4074
 4708SOL    HW225587   2.135   3.995   7.111  2.3684 -0.5703 -0.5135
 4709SOL     OW25588   1.494   3.138   7.404 -0.3315 -0.5157 -0.0910
 4709SOL    HW125589   1.405   3.102   7.405  1.2620 -4.4604 -1.1129
 4709SOL    HW225590   1.531   3.086   7.334  1.5780 -0.9270  1.2327
 4710SOL     OW25591   1.848   4.583  15.824  0.3668 -0.6454  0.0566
 4710SOL    HW125592   1.793   4.519  15.779  0.2597 -1.7546  1.7929
 4710SOL    HW225593   1.781   4.598  15.890  1.1016 -2.8205  1.2846
 4711SOL     OW25594   1.561   2.933   3.383 -0.1095 -0.6346  0.1575
 4711SOL    HW125595   1.624   2.864   3.362  0.8315  0.5909 -1.0441
 4711SOL    HW225596   1.549   2.924   3.478 -0.1077  2.5558  0.4642
 4712SOL     OW25597   3.983   1.579   8.101  0.2062 -0.4027  0.2159
 4712SOL    HW125598   4.025   1.660   8.071  1.2457 -0.5642  1.2378
 4712SOL    HW225599   4.056   1.517   8.090 -0.3933 -0.8597 -1.1941
 4713SOL     OW25600   2.210   3.734   0.295  0.0262 -0.0532 -0.0781
 4713SOL    HW125601   2.144   3.717   0.363  1.1008  0.3461  1.0648
 4713SOL    HW225602   2.206   3.829   0.280  1.4745  0.2271  1.2736
 4714SOL     OW25603   1.978   4.407   2.449 -0.0072 -0.3071 -0.0515
 4714SOL    HW125604   1.907   4.460   2.486 -0.7411 -0.0251 -1.8448
 4714SOL    HW225605   2.047   4.469   2.424  0.1141 -0.8260 -0.9868
 4715SOL     OW25606   2.599   2.160   3.482 -0.1106  0.1270 -0.2015
 4715SOL    HW125607   2.517   2.148   3.434 -0.6423  0.3128  0.6714
 4715SOL    HW225608   2.572   2.231   3.540  0.2253  1.0095 -1.1166
 4716SOL     OW25609   4.196   2.820  14.429 -0.3834  0.8226 -0.3937
 4716SOL    HW125610   4.210   2.741  14.376 -0.4044  1.6057 -1.5684
 4716SOL    HW225611   4.286   2.833  14.459 -0.5401 -0.0259  0.4418
 4717SOL     OW25612   3.432   2.182   1.875  0.3702 -0.2106 -0.4687
 4717SOL    HW125613   3.418   2.092   1.847 -0.7153  0.7254 -2.9563
 4717SOL    HW225614   3.399   2.229   1.798 -1.1962  0.6611  0.7479
 4718SOL     OW25615   0.297   1.284   4.964  0.5477  0.3709 -0.0438
 4718SOL    HW125616   0.381   1.324   4.990  0.8988  0.8594 -1.9844
 4718SOL    HW225617   0.268   1.251   5.049 -0.2287  1.8310  0.2486
 4719SOL     OW25618   0.411   0.628   2.035 -0.0535  0.1153 -0.0258
 4719SOL    HW125619   0.366   0.711   2.045  1.4350  0.6617  2.3694
 4719SOL    HW225620   0.498   0.659   2.009  0.7370 -0.1171  2.2831
 4720SOL     OW25621   0.021   3.752  13.941  0.2133  0.2635 -0.4853
 4720SOL    HW125622   0.075   3.750  13.862 -1.1792 -0.2377 -1.4187
 4720SOL    HW225623   4.720   3.843  13.942 -1.2522 -0.1946 -2.3787
 4721SOL     OW25624   3.701   2.154   7.052  0.2000 -0.1914  0.4115
 4721SOL    HW125625   3.686   2.226   7.114 -0.3432  0.6437 -0.6945
 4721SOL    HW225626   3.743   2.191   6.975  0.6731 -2.1331 -0.2692
 4722SOL     OW25627   3.442   4.194   6.495 -0.1682  0.1578 -0.1610
 4722SOL    HW125628   3.497   4.144   6.555 -1.2477 -0.1792  0.5578
 4722SOL    HW225629   3.390   4.244   6.558 -1.1082  0.0367 -0.8333
 4723SOL     OW25630   0.789   2.022   9.673 -0.7283 -0.1053 -0.2007
 4723SOL    HW125631   0.770   1.942   9.625  0.2334 -1.3336  1.4576
 4723SOL    HW225632   0.707   2.072   9.671 -0.6172  0.0386 -0.9106
 4724SOL     OW25633   2.093   1.967   8.869 -0.1880  0.3579  0.1776
 4724SOL    HW125634   2.185   1.981   8.849 -0.3806  0.1517 -0.8604
 4724SOL    HW225635   2.050   2.049   8.845  0.3931  0.6320  0.0771
 4725SOL     OW25636   3.489   2.403  10.666 -0.2311  0.0984 -0.2133
 4725SOL    HW125637   3.506   2.319  10.707  1.9902  0.7981  0.3351
 4725SOL    HW225638   3.420   2.433  10.725  0.1387 -0.1530  0.3385
 4726SOL     OW25639   1.536   0.662   4.140 -1.1488  0.2623 -0.0228
 4726SOL    HW125640   1.570   0.592   4.196 -0.9772  0.7124  0.4299
 4726SOL    HW225641   1.617   0.699   4.105 -0.2426 -2.5078 -0.8515
 4727SOL     OW25642   4.157   2.106   4.441 -0.5542 -0.2266 -0.0889
 4727SOL    HW125643   4.243   2.140   4.466 -0.8970 -0.1105  0.9168
 4727SOL    HW225644   4.179   2.028   4.390 -2.8261 -1.2891  0.5643
 4728SOL     OW25645   4.150   1.798   8.039 -0.4179 -0.1207  0.1440
 4728SOL    HW125646   4.213   1.746   7.990 -1.6502 -0.0906 -1.4940
 4728SOL    HW225647   4.193   1.880   8.064 -0.1137 -0.2872  0.1524
 4729SOL     OW25648   4.152   1.718  10.634 -0.4825 -0.1380  0.3958
 4729SOL    HW125649   4.155   1.755  10.723 -1.4057  3.0165 -0.9047
 4729SOL    HW225650   4.106   1.634  10.644 -0.4013 -0.2492 -0.1726
 4730SOL     OW25651   1.002   2.871  13.988  0.0034  0.0070  0.1131
 4730SOL    HW125652   0.919   2.899  14.027 -2.3022 -4.5121 -1.5286
 4730SOL    HW225653   1.027   2.956  13.952  0.3755 -0.8609 -1.6882
 4731SOL     OW25654   4.471   2.780  14.947 -0.4678  0.7498  0.1678
 4731SOL    HW125655   4.547   2.753  14.998  0.2189  0.1146 -1.1691
 4731SOL    HW225656   4.452   2.703  14.892  1.2447 -0.6165  1.5006
 4732SOL     OW25657   1.635   0.340  10.956 -0.2863  0.1027 -0.0330
 4732SOL    HW125658   1.694   0.341  10.880 -0.3439  0.3843 -0.0739
 4732SOL    HW225659   1.557   0.290  10.932  0.3567 -0.1569 -1.6341
 4733SOL     OW25660   1.968   1.854   5.748  0.3656 -0.0542  0.2925
 4733SOL    HW125661   2.002   1.880   5.834 -0.1292  0.9268  0.1885
 4733SOL    HW225662   1.881   1.825   5.776 -0.8757  1.0735 -2.4026
 4734SOL     OW25663   1.339   3.079   1.854  0.1864 -0.2720 -0.2676
 4734SOL    HW125664   1.260   3.033   1.884 -0.3990  0.9331  0.0424
 4734SOL    HW225665   1.410   3.071   1.918 -1.9706  1.2433  2.3294
 4735SOL     OW25666   2.730   1.013   8.300  0.3181  0.2932 -0.0683
 4735SOL    HW125667   2.727   0.950   8.228 -0.9133 -2.0186  1.9886
 4735SOL    HW225668   2.779   0.960   8.364  0.2162 -1.2834 -1.2953
 4736SOL     OW25669   0.279   0.107  14.038  0.6379  0.8240  0.0748
 4736SOL    HW125670   0.363   0.152  14.030  1.2330 -0.3475 -0.2269
 4736SOL    HW225671   0.255   0.110  13.945  1.0909  1.5714 -0.0188
 4737SOL     OW25672   4.103   1.720   6.989 -0.4459 -0.1144  0.1977
 4737SOL    HW125673   4.178   1.779   7.001 -1.8151  1.4728  1.0002
 4737SOL    HW225674   4.033   1.776   7.022  0.6060  0.6877  1.0563
 4738SOL     OW25675   2.421   2.959   4.334  0.1987 -0.0145 -0.5297
 4738SOL    HW125676   2.405   3.049   4.362 -0.7316 -1.0992  2.4185
 4738SOL    HW225677   2.470   2.916   4.404 -1.8206  2.5540  2.4120
 4739SOL     OW25678   3.482   2.883   6.170 -0.0526 -0.2946  0.1938
 4739SOL    HW125679   3.485   2.894   6.265 -2.8360  1.1769  0.1407
 4739SOL    HW225680   3.525   2.798   6.173  0.6126  0.0390 -0.0303
 4740SOL     OW25681   1.848   4.172   2.313  0.1686 -0.6940 -0.4314
 4740SOL    HW125682   1.782   4.222   2.264  0.7998  1.1748  0.6215
 4740SOL    HW225683   1.898   4.246   2.349 -0.1276 -1.0187  0.6515
 4741SOL     OW25684   1.213   2.803   8.728  0.2611  0.3756  0.2550
 4741SOL    HW125685   1.134   2.764   8.765  1.4684 -2.1589  0.2250
 4741SOL    HW225686   1.263   2.725   8.702  0.3137  0.2347  0.7786
 4742SOL     OW25687   0.178   2.784   7.628 -0.1183 -0.3434 -0.3527
 4742SOL    HW125688   0.122   2.831   7.690 -0.4095 -2.3343  0.8905
 4742SOL    HW225689   0.136   2.821   7.550 -2.0165  0.3589  0.9902
 4743SOL     OW25690   3.963   0.154   5.417  0.8518  0.4866  0.6651
 4743SOL    HW125691   3.988   0.064   5.398 -0.2024  0.3573 -0.1211
 4743SOL    HW225692   3.867   0.145   5.416  0.8564  0.8253 -1.5245
 4744SOL     OW25693   3.971   4.055  17.519  0.0849 -0.0386  0.2414
 4744SOL    HW125694   3.912   4.065  17.444 -0.4561  2.2540  0.9719
 4744SOL    HW225695   4.053   4.094  17.488  0.1086  0.3322  0.7787
 4745SOL     OW25696   4.505   0.943   2.368 -0.2508 -0.1062 -0.0325
 4745SOL    HW125697   4.566   0.871   2.352 -0.2124 -0.6101  2.2880
 4745SOL    HW225698   4.418   0.907   2.347 -0.8937  0.9972  0.7563
 4746SOL     OW25699   2.792   1.980   7.320  0.1555  0.0574 -0.0771
 4746SOL    HW125700   2.767   1.957   7.410 -0.8937  0.9188 -0.1524
 4746SOL    HW225701   2.711   2.025   7.296 -0.5962 -1.0464  0.3595
 4747SOL     OW25702   3.789   3.850  14.865 -0.6662 -0.1606  0.1290
 4747SOL    HW125703   3.752   3.848  14.777  0.8933  1.4676 -0.5610
 4747SOL    HW225704   3.712   3.873  14.916 -0.2952  0.0716  0.5838
 4748SOL     OW25705   1.552   0.787  12.572 -0.2319 -0.5958 -0.5803
 4748SOL    HW125706   1.498   0.859  12.540  0.7990  0.3805 -0.0984
 4748SOL    HW225707   1.628   0.790  12.514 -0.8190 -2.0886 -1.4538
 4749SOL     OW25708   2.938   3.955  16.234 -1.1065  0.0227  0.3271
 4749SOL    HW125709   2.913   4.041  16.268  2.1533  0.7950  0.7941
 4749SOL    HW225710   2.868   3.902  16.272 -0.3710 -2.0010 -1.1201
 4750SOL     OW25711   2.226   1.998   0.481 -0.0176  0.3792  0.2732
 4750SOL    HW125712   2.162   1.933   0.510  2.8200 -2.6523 -0.2908
 4750SOL    HW225713   2.173   2.078   0.483  0.1742  0.4780  1.9772
 4751SOL     OW25714   4.523   0.217   2.167 -0.1991  0.1121 -0.0360
 4751SOL    HW125715   4.520   0.311   2.150 -0.6544  0.4845  2.1761
 4751SOL    HW225716   4.537   0.225   2.261  2.1463 -1.2835 -0.2790
 4752SOL     OW25717   2.332   0.997   0.617  0.6084  0.4069  0.4711
 4752SOL    HW125718   2.324   0.961   0.705 -0.6703 -3.3222 -1.1857
 4752SOL    HW225719   2.277   0.945   0.559 -3.0902  2.2466  2.3503
 4753SOL     OW25720   1.375   0.783  13.436  0.2686 -0.0825 -0.3553
 4753SOL    HW125721   1.469   0.799  13.428  0.1662  0.9170  0.3729
 4753SOL    HW225722   1.346   0.828  13.356 -5.1739  0.5726  2.0000
 4754SOL     OW25723   2.926   3.178  14.269 -0.0633  0.5912 -0.1438
 4754SOL    HW125724   2.859   3.138  14.324  0.3924  2.5699  1.8778
 4754SOL    HW225725   3.003   3.121  14.279 -0.8624 -0.2667  1.1451
 4755SOL     OW25726   0.611   3.616   2.055  0.0649 -0.4365 -0.2924
 4755SOL    HW125727   0.614   3.705   2.092  0.6507  0.0891 -1.6029
 4755SOL    HW225728   0.611   3.635   1.961  1.4869 -0.4726 -0.2976
 4756SOL     OW25729   2.548   4.209   2.813  0.1185  0.5911  0.9186
 4756SOL    HW125730   2.479   4.202   2.879  0.1443  0.1447  0.8985
 4756SOL    HW225731   2.534   4.303   2.799  0.5258  0.6298  0.7697
 4757SOL     OW25732   4.460   1.908   4.470  0.5741  0.2369 -0.0507
 4757SOL    HW125733   4.395   1.872   4.531 -0.0048  2.7573  0.7988
 4757SOL    HW225734   4.443   1.845   4.399 -0.6699 -0.9149  1.2704
 4758SOL     OW25735   2.511   1.218  10.428  0.2270  0.3080  0.3528
 4758SOL    HW125736   2.599   1.201  10.394 -0.2814  0.6175 -1.1171
 4758SOL    HW225737   2.538   1.214  10.519 -0.4408  0.0629  0.5371
 4759SOL     OW25738   2.186   3.527   4.743 -0.2074  0.3986  0.3427
 4759SOL    HW125739   2.107   3.574   4.716 -0.7255 -0.8691 -0.3556
 4759SOL    HW225740   2.217   3.575   4.819  0.1169  2.4484 -1.0714
 4760SOL     OW25741   3.050   3.842  14.973 -0.7298  0.1947 -0.0552
 4760SOL    HW125742   3.055   3.936  14.991 -1.7838 -0.3078  2.8142
 4760SOL    HW225743   3.135   3.817  15.008 -0.3302  0.8997 -0.5337
 4761SOL     OW25744   0.539   0.274   2.017  0.4508  0.1533  0.1316
 4761SOL    HW125745   0.464   0.323   1.984  1.9939  2.1861 -0.4087
 4761SOL    HW225746   0.597   0.285   1.941  0.6049  0.7197  0.3229
 4762SOL     OW25747   1.341   0.398  15.753 -0.1137  0.1454 -0.3887
 4762SOL    HW125748   1.348   0.376  15.660 -0.0710  0.1579 -0.3882
 4762SOL    HW225749   1.321   0.311  15.789 -2.3528  0.7608 -0.1213
 4763SOL     OW25750   3.812   0.175   7.110  0.0734  0.0474 -0.4660
 4763SOL    HW125751   3.893   0.187   7.159 -0.9570 -1.4171  1.5996
 4763SOL    HW225752   3.854   0.196   7.027 -1.1128  2.8953 -0.3655
 4764SOL     OW25753   4.610   4.077  12.655 -0.2902 -0.3924  0.5476
 4764SOL    HW125754   4.516   4.063  12.646 -0.7386  1.2792  2.6435
 4764SOL    HW225755   4.648   4.050  12.571 -0.8726 -0.9803  0.4660
 4765SOL     OW25756   2.186   2.723   4.318  0.3870  0.1852 -0.1224
 4765SOL    HW125757   2.125   2.788   4.352  1.4134  1.5589 -0.8834
 4765SOL    HW225758   2.223   2.706   4.404  0.3243 -0.5555 -0.2431
 4766SOL     OW25759   1.337   2.824  16.649 -0.3001  0.0689 -0.8071
 4766SOL    HW125760   1.293   2.744  16.677  0.6135 -1.0391 -2.5467
 4766SOL    HW225761   1.404   2.789  16.591 -1.5459 -0.2544 -2.0513
 4767SOL     OW25762   2.878   3.192   5.754  0.1244 -0.4507 -0.1307
 4767SOL    HW125763   2.802   3.181   5.698  0.1253 -1.7229  0.1101
 4767SOL    HW225764   2.869   3.121   5.818  0.6548  1.1247  1.7167
 4768SOL     OW25765   1.008   2.152  11.587 -0.2476  0.2405  0.1708
 4768SOL    HW125766   1.059   2.204  11.649 -0.9033  1.2109 -0.1145
 4768SOL    HW225767   1.070   2.092  11.547 -2.7919 -1.2372 -1.5224
 4769SOL     OW25768   1.123   2.323   2.628  0.0342 -0.1425  0.1676
 4769SOL    HW125769   1.063   2.325   2.554 -1.8551 -1.0206  1.6598
 4769SOL    HW225770   1.204   2.330   2.578 -0.4317 -2.8474 -0.9993
 4770SOL     OW25771   0.068   2.232   8.282 -0.0424 -0.2518 -0.0825
 4770SOL    HW125772   0.129   2.291   8.327  0.0277 -0.0669 -0.4241
 4770SOL    HW225773   0.008   2.294   8.242  0.8542  0.0719 -0.9123
 4771SOL     OW25774   4.500   2.623   3.075  0.9896 -0.2859  0.2474
 4771SOL    HW125775   4.588   2.603   3.041  1.1944 -0.4577  0.8805
 4771SOL    HW225776   4.493   2.714   3.047  0.1223 -0.2602  0.5520
 4772SOL     OW25777   3.184   1.249   4.663  0.0278  0.3303  0.1155
 4772SOL    HW125778   3.135   1.199   4.597  0.4729  1.2914 -0.9378
 4772SOL    HW225779   3.251   1.287   4.607 -0.8177  0.4245 -0.8250
 4773SOL     OW25780   3.504   1.577  12.285 -0.1368  0.0303  0.5234
 4773SOL    HW125781   3.474   1.662  12.254  0.4116  0.0859  0.1415
 4773SOL    HW225782   3.451   1.523  12.226 -1.4024  2.0118 -0.1485
 4774SOL     OW25783   2.453   3.868   2.920  0.0016  0.2490  0.3757
 4774SOL    HW125784   2.369   3.902   2.891 -0.0726 -0.7884 -0.6276
 4774SOL    HW225785   2.514   3.878   2.847  0.3343 -0.0724  0.6076
 4775SOL     OW25786   3.171   2.013  17.349  0.7937 -0.2265  0.0401
 4775SOL    HW125787   3.079   2.004  17.375  0.8683 -0.8343  0.0846
 4775SOL    HW225788   3.213   1.930  17.370  0.2066 -0.9751 -1.7500
 4776SOL     OW25789   0.369   3.011   5.051 -0.3003  0.0573  0.4196
 4776SOL    HW125790   0.450   2.967   5.074  0.6229  0.1062 -2.7431
 4776SOL    HW225791   0.318   2.935   5.024 -0.1257 -0.0089  0.2769
 4777SOL     OW25792   4.190   3.501   4.244 -0.2672 -0.3177  0.2033
 4777SOL    HW125793   4.160   3.417   4.278 -2.7166  0.7107  0.5809
 4777SOL    HW225794   4.283   3.489   4.222 -0.4129  0.5638 -0.8918
 4778SOL     OW25795   3.303   3.312   6.183  0.1175  0.6275  0.0639
 4778SOL    HW125796   3.312   3.261   6.102  1.7596  1.8591 -0.5412
 4778SOL    HW225797   3.330   3.403   6.165  2.1453  0.7947  4.0432
 4779SOL     OW25798   3.661   4.186  14.216  0.1446  0.4438 -0.1590
 4779SOL    HW125799   3.651   4.258  14.154 -1.2229 -0.1573 -0.6349
 4779SOL    HW225800   3.703   4.243  14.280 -2.1744  0.8413  1.0002
 4780SOL     OW25801   3.408   1.018   6.481  0.1739 -0.4708  0.0263
 4780SOL    HW125802   3.320   1.055   6.491  0.3879 -0.7978  3.2427
 4780SOL    HW225803   3.469   1.090   6.468  1.2654 -1.5856 -0.9782
 4781SOL     OW25804   3.308   1.532   5.708  0.2242 -0.5147 -0.0748
 4781SOL    HW125805   3.288   1.445   5.743 -1.5255 -0.6185 -1.3567
 4781SOL    HW225806   3.238   1.583   5.749  0.1302  1.4642 -2.7060
 4782SOL     OW25807   0.675   2.336   3.682 -0.0765  0.2402  0.1183
 4782SOL    HW125808   0.748   2.374   3.731 -0.4326 -0.2086  0.9920
 4782SOL    HW225809   0.646   2.294   3.763  1.9178 -1.1308  0.1157
 4783SOL     OW25810   3.630   3.586   8.668 -0.0573 -0.0449 -0.6104
 4783SOL    HW125811   3.575   3.633   8.730 -1.7372 -1.6824 -0.8675
 4783SOL    HW225812   3.603   3.495   8.684  0.2197  0.0400  0.3275
 4784SOL     OW25813   3.457   1.030   3.392 -0.4752  0.3229 -0.2815
 4784SOL    HW125814   3.399   1.045   3.318 -0.8997 -1.3833 -0.2892
 4784SOL    HW225815   3.421   1.090   3.457 -0.6059  0.7782 -0.7753
 4785SOL     OW25816   2.675   0.164  13.622  0.1709  0.2478 -0.2916
 4785SOL    HW125817   2.673   0.255  13.651  0.3251  0.3424 -0.5770
 4785SOL    HW225818   2.581   0.155  13.608  0.2184  0.9561 -1.1055
 4786SOL     OW25819   1.605   0.938   3.793 -0.8065  0.1412 -0.1675
 4786SOL    HW125820   1.565   1.014   3.749 -0.1713  1.7773  2.1332
 4786SOL    HW225821   1.530   0.892   3.830 -0.6521  1.6826  2.0615
 4787SOL     OW25822   4.035   3.961   2.483  0.0739  0.0443  0.2213
 4787SOL    HW125823   4.083   4.035   2.521 -0.7505  0.3015  0.7672
 4787SOL    HW225824   4.041   3.986   2.391 -1.9470 -0.3036  0.0086
 4788SOL     OW25825   0.418   1.277   4.625  0.5914  0.1345 -0.0649
 4788SOL    HW125826   0.335   1.302   4.666 -0.6379  1.0226 -3.0832
 4788SOL    HW225827   0.393   1.203   4.569  1.2519 -0.5162  0.4872
 4789SOL     OW25828   1.039   1.445   6.431 -0.2040 -0.0274  0.2908
 4789SOL    HW125829   1.055   1.395   6.512 -1.4334 -0.9191 -0.0181
 4789SOL    HW225830   0.989   1.513   6.475 -0.8366  1.1898 -2.3196
 4790SOL     OW25831   3.488   3.978   5.714 -0.0819 -0.9600  0.9219
 4790SOL    HW125832   3.512   4.003   5.625 -1.4700 -1.0063  0.5271
 4790SOL    HW225833   3.423   3.909   5.704  1.0990 -2.1727  1.7283
 4791SOL     OW25834   1.923   4.550  10.332  0.6488 -0.0050 -0.2108
 4791SOL    HW125835   1.997   4.559  10.272  0.6346  0.1072 -0.2113
 4791SOL    HW225836   1.862   4.615  10.300 -1.0116 -1.5178 -0.1385
 4792SOL     OW25837   4.392   4.542   5.351 -0.0965 -0.2162 -0.2053
 4792SOL    HW125838   4.462   4.477   5.354  1.4968  1.5119  0.4962
 4792SOL    HW225839   4.317   4.494   5.318  0.1862  0.3075 -1.6050
 4793SOL     OW25840   4.430   3.137   1.254  0.3882  0.2564 -0.1283
 4793SOL    HW125841   4.399   3.133   1.345 -1.2895  2.7821 -0.5715
 4793SOL    HW225842   4.522   3.146   1.277  1.1310 -0.2978 -2.9045
 4794SOL     OW25843   4.251   4.371  16.786 -0.2114  0.4623 -0.0140
 4794SOL    HW125844   4.260   4.442  16.849 -0.2449  0.2155  0.2678
 4794SOL    HW225845   4.318   4.392  16.721 -0.4404 -0.9575 -0.7176
 4795SOL     OW25846   3.009   4.315   5.990  0.1770 -0.2691 -0.3014
 4795SOL    HW125847   2.981   4.343   6.078  1.9627 -0.7135  0.4084
 4795SOL    HW225848   2.986   4.400   5.953  1.2819  1.1119  2.1569
 4796SOL     OW25849   3.310   2.412   6.325  0.5038  0.2391 -0.1192
 4796SOL    HW125850   3.277   2.502   6.329  1.1178  0.4260  0.6726
 4796SOL    HW225851   3.268   2.389   6.242 -0.2743  0.3358  0.2476
 4797SOL     OW25852   2.284   0.937   3.323  0.0366  0.2479  0.2218
 4797SOL    HW125853   2.246   0.901   3.243  1.0849  0.1264 -0.2238
 4797SOL    HW225854   2.282   0.858   3.376 -0.9482  0.4062  0.4238
 4798SOL     OW25855   3.518   0.497   3.441 -1.0160 -0.1164  0.3241
 4798SOL    HW125856   3.547   0.478   3.352  1.8979 -0.7655  1.4138
 4798SOL    HW225857   3.471   0.580   3.439 -1.7234 -0.4658  1.9121
 4799SOL     OW25858   3.827   3.024   3.043 -0.0971 -0.3783  0.9035
 4799SOL    HW125859   3.782   2.942   3.024  1.1878 -0.2509 -2.7127
 4799SOL    HW225860   3.914   3.041   3.005 -0.5991  0.5810  0.1869
 4800SOL     OW25861   0.010   2.614  10.765 -0.5142  0.3170 -0.5195
 4800SOL    HW125862   4.697   2.528  10.759 -1.4907  0.7873 -0.4636
 4800SOL    HW225863   4.666   2.673  10.783 -0.0005  0.2383  1.7195
 4801SOL     OW25864   2.879   1.906  12.398 -0.2053 -0.8142  0.1559
 4801SOL    HW125865   2.865   1.816  12.427  0.2546 -0.0826  2.6719
 4801SOL    HW225866   2.940   1.894  12.326  1.1969 -1.3362  1.4139
 4802SOL     OW25867   3.500   2.027   8.911 -0.4269 -0.0815 -0.0757
 4802SOL    HW125868   3.587   2.057   8.884 -0.9330  1.8684  0.4742
 4802SOL    HW225869   3.494   2.072   8.995 -0.8982 -0.4284  0.0729
 4803SOL     OW25870   0.951   3.635   3.963  0.0553  0.0951  0.7228
 4803SOL    HW125871   0.891   3.687   4.017 -0.0175 -1.0081  1.7287
 4803SOL    HW225872   0.955   3.685   3.882  1.6595  0.3724  0.9835
 4804SOL     OW25873   0.104   3.073  14.087  0.3001  0.2523  0.4108
 4804SOL    HW125874   0.025   3.069  14.141  0.1964 -0.2524  0.2275
 4804SOL    HW225875   0.085   3.144  14.025  0.1544 -1.6795 -1.7889
 4805SOL     OW25876   1.280   1.581  13.228  0.4207  1.0685 -0.9220
 4805SOL    HW125877   1.245   1.599  13.315  0.3903 -2.4579 -0.1916
 4805SOL    HW225878   1.216   1.511  13.216  0.7874  0.0281  3.1057
 4806SOL     OW25879   4.149   4.524   7.452 -0.0959 -0.4276 -0.5125
 4806SOL    HW125880   4.122   4.596   7.394  0.0486 -0.6252 -0.8253
 4806SOL    HW225881   4.135   4.448   7.396  0.4574  0.6038 -2.0784
 4807SOL     OW25882   4.711   0.233   3.198  0.2918 -0.3629  0.7023
 4807SOL    HW125883   4.717   0.276   3.284 -0.2909 -0.6355  0.8742
 4807SOL    HW225884   0.070   0.258   3.168  0.2155 -1.0552 -0.0802
 4808SOL     OW25885   2.188   3.387   5.893 -0.3946 -1.0983 -0.2544
 4808SOL    HW125886   2.118   3.375   5.957 -0.7479 -0.9395 -0.6193
 4808SOL    HW225887   2.242   3.441   5.951  1.0068 -2.7809  0.0158
 4809SOL     OW25888   3.468   0.071  16.507  0.2027  0.0859  1.0868
 4809SOL    HW125889   3.490   4.715  16.467 -0.7977 -0.1536  1.0428
 4809SOL    HW225890   3.553   0.096  16.542  1.3532 -2.0419 -0.1370
 4810SOL     OW25891   2.282   4.063   2.036  0.7464  0.7687  0.3787
 4810SOL    HW125892   2.244   3.976   2.026 -0.2827  1.3084 -0.4415
 4810SOL    HW225893   2.229   4.097   2.109 -0.3227  1.4926 -0.7370
 4811SOL     OW25894   1.672   2.464  15.411  0.3067  0.0401 -0.0745
 4811SOL    HW125895   1.634   2.378  15.397 -0.7263  0.3475  0.8622
 4811SOL    HW225896   1.698   2.494  15.324 -1.7414 -4.3271 -2.1729
 4812SOL     OW25897   0.755   3.688  17.021 -0.5675 -0.2235 -0.2081
 4812SOL    HW125898   0.697   3.744  16.970 -1.6599 -1.5681 -0.4574
 4812SOL    HW225899   0.765   3.741  17.100  2.0055 -0.6942 -0.2140
 4813SOL     OW25900   3.278   4.425   5.762  0.1719  0.1376 -0.2756
 4813SOL    HW125901   3.262   4.331   5.759 -0.8249  0.3431 -1.4366
 4813SOL    HW225902   3.213   4.467   5.705  0.2134 -1.9834 -1.8862
 4814SOL     OW25903   2.616   1.384   4.238  0.1968 -0.3871  0.2740
 4814SOL    HW125904   2.531   1.427   4.240 -1.4210 -3.6441  0.9163
 4814SOL    HW225905   2.619   1.358   4.146 -2.1830 -0.4724  0.2299
 4815SOL     OW25906   2.251   0.320   4.909  0.0410  0.0298  0.3198
 4815SOL    HW125907   2.275   0.338   4.818  4.1977 -0.1511  1.3515
 4815SOL    HW225908   2.221   0.229   4.906  0.0231  0.0209  0.6912
 4816SOL     OW25909   0.754   4.672   1.392 -0.4260  0.5719 -0.7713
 4816SOL    HW125910   0.681   4.720   1.432  1.1697  1.4282  1.1501
 4816SOL    HW225911   0.708   4.605   1.342  1.3114 -0.9247 -0.3706
 4817SOL     OW25912   3.915   2.225   7.899 -0.5190 -0.9670  0.3423
 4817SOL    HW125913   3.907   2.183   7.813 -0.9509  0.2680 -0.2389
 4817SOL    HW225914   3.989   2.173   7.929  0.9738 -0.2575 -2.1052
 4818SOL     OW25915   4.206   0.743  16.862  0.1805 -0.1991  0.4909
 4818SOL    HW125916   4.159   0.699  16.792  1.0985 -0.9947  0.3719
 4818SOL    HW225917   4.164   0.828  16.850 -2.0565 -1.2476  0.9006
 4819SOL     OW25918   0.599   0.960   7.735 -0.3650 -0.0080  0.5533
 4819SOL    HW125919   0.631   0.983   7.647 -1.2473  0.1845  0.2773
 4819SOL    HW225920   0.515   0.916   7.718  0.6629 -1.6635 -0.1667
 4820SOL     OW25921   2.787   2.896  15.145 -0.6613  0.1438 -0.1270
 4820SOL    HW125922   2.775   2.932  15.233 -1.1059 -1.6625  0.5422
 4820SOL    HW225923   2.707   2.844  15.135 -0.3696 -0.1482 -0.9823
 4821SOL     OW25924   0.016   4.457   4.332  0.4319  0.4241 -0.5148
 4821SOL    HW125925   0.088   4.451   4.269  0.4938  1.5617 -0.5469
 4821SOL    HW225926   4.691   4.530   4.301 -0.5175  0.0986  0.3678
 4822SOL     OW25927   0.913   1.349   6.990 -0.7203  0.1135  0.0626
 4822SOL    HW125928   0.952   1.420   6.939 -0.3313 -0.2684 -0.1754
 4822SOL    HW225929   0.839   1.327   6.934 -2.0078  0.3662  1.6710
 4823SOL     OW25930   1.961   2.213  13.081 -0.1318  0.4176  0.0718
 4823SOL    HW125931   1.950   2.140  13.142  1.7802 -0.1240 -0.2394
 4823SOL    HW225932   1.876   2.258  13.082 -1.0483 -1.3462  1.0099
 4824SOL     OW25933   1.809   4.673   6.636 -0.0023 -0.2365  0.4900
 4824SOL    HW125934   1.765   4.635   6.560 -1.8931 -0.5974  1.7671
 4824SOL    HW225935   1.886   4.701   6.587 -1.0592  1.8273  0.0165
 4825SOL     OW25936   2.544   4.685   8.514 -1.1530 -0.3826 -0.4796
 4825SOL    HW125937   2.512   4.713   8.429 -0.1226  4.1818  0.6476
 4825SOL    HW225938   2.603   4.612   8.494  0.5729 -0.1810  3.6820
 4826SOL     OW25939   1.773   0.666   2.384 -0.0015 -0.0038  0.3927
 4826SOL    HW125940   1.741   0.727   2.318  1.0116 -2.7499 -2.6083
 4826SOL    HW225941   1.770   0.582   2.339 -1.7640  0.0366  0.4137
 4827SOL     OW25942   2.624   2.511  17.612  0.4941  0.9779 -0.0136
 4827SOL    HW125943   2.561   2.583  17.613 -0.9890 -0.2678 -2.4803
 4827SOL    HW225944   2.691   2.543  17.551  0.7604  0.1335 -0.1622
 4828SOL     OW25945   3.122   3.165   9.308  0.1920  0.4631  0.0809
 4828SOL    HW125946   3.031   3.195   9.309 -0.7784 -2.4689  0.0793
 4828SOL    HW225947   3.105   3.073   9.326 -1.0889  0.5444 -0.6722
 4829SOL     OW25948   4.728   0.863   1.768  0.3193 -0.2575  1.0718
 4829SOL    HW125949   0.091   0.848   1.790  0.8197 -0.8243 -1.5039
 4829SOL    HW225950   4.714   0.942   1.821 -1.1928 -0.3467  0.7932
 4830SOL     OW25951   1.926   1.194  16.961  0.0484  0.3966  0.3655
 4830SOL    HW125952   1.854   1.256  16.945  0.9519  1.3044 -0.1882
 4830SOL    HW225953   1.993   1.258  16.939 -0.5130  0.7693 -0.2854
 4831SOL     OW25954   0.153   2.772   3.487  0.0947  0.4855  0.6099
 4831SOL    HW125955   0.247   2.754   3.485 -0.5448 -2.8407  0.7534
 4831SOL    HW225956   0.148   2.840   3.554  0.4551  0.7442  0.3695
 4832SOL     OW25957   3.721   1.382   0.995  0.2454  0.1475 -0.2382
 4832SOL    HW125958   3.699   1.380   0.902  3.4524  0.6415 -0.9917
 4832SOL    HW225959   3.711   1.475   1.014 -0.7895 -0.3274  1.6038
 4833SOL     OW25960   4.402   3.544  15.815  0.1133 -0.1911 -0.2700
 4833SOL    HW125961   4.457   3.522  15.891 -1.5465  0.7750  1.2142
 4833SOL    HW225962   4.378   3.636  15.828  0.1966 -0.2849  0.5462
 4834SOL     OW25963   4.230   2.326   2.296 -0.1697  0.7905  0.0371
 4834SOL    HW125964   4.296   2.371   2.244  0.8611  1.0141  1.5077
 4834SOL    HW225965   4.148   2.337   2.248  0.1286  1.5713 -0.2921
 4835SOL     OW25966   1.869   4.599   3.794  0.0130 -0.2885  0.0920
 4835SOL    HW125967   1.953   4.564   3.762  1.6134  3.0093  0.7005
 4835SOL    HW225968   1.827   4.612   3.709  2.0892 -0.9042 -1.0235
 4836SOL     OW25969   0.720   2.438   6.440 -0.3603  0.0004 -0.0820
 4836SOL    HW125970   0.800   2.405   6.482  1.3237 -1.1171 -4.1564
 4836SOL    HW225971   0.723   2.525   6.481 -0.7408  0.2083 -0.4938
 4837SOL     OW25972   2.589   4.526  15.888  0.1702  0.2298  0.4681
 4837SOL    HW125973   2.507   4.562  15.855  0.6388  2.3359  1.6101
 4837SOL    HW225974   2.636   4.609  15.887 -0.8381  0.7774 -0.3306
 4838SOL     OW25975   3.857   0.743   4.110  0.0302 -0.3034  0.4328
 4838SOL    HW125976   3.807   0.815   4.147  0.2055 -0.1691  0.4067
 4838SOL    HW225977   3.785   0.693   4.072  0.8393  0.5151 -2.1960
 4839SOL     OW25978   3.041   1.094   9.954 -0.4329 -0.3218 -0.6705
 4839SOL    HW125979   3.127   1.091   9.913  0.8090 -3.1748  2.1306
 4839SOL    HW225980   3.050   1.169  10.013  0.9890  0.1072 -1.4176
 4840SOL     OW25981   1.898   2.640  15.584  0.0594  0.7568 -0.0021
 4840SOL    HW125982   1.802   2.649  15.581  0.0986  0.7248 -1.0628
 4840SOL    HW225983   1.900   2.548  15.559  2.1049  0.0076  2.8191
 4841SOL     OW25984   0.703   2.974   5.580  0.3417  1.0157 -0.4186
 4841SOL    HW125985   0.726   3.067   5.588 -0.4234  1.2154 -0.5181
 4841SOL    HW225986   0.788   2.938   5.606  0.1113  0.3704 -0.5742
 4842SOL     OW25987   1.596   2.653  12.750 -0.4135  0.3239 -0.8831
 4842SOL    HW125988   1.607   2.719  12.681 -0.7370  1.3312  0.0250
 4842SOL    HW225989   1.557   2.704  12.821 -1.0981 -0.4206 -0.7347
 4843SOL     OW25990   4.436   3.273   0.850 -0.1046  0.3571 -0.1038
 4843SOL    HW125991   4.514   3.256   0.902  2.6315 -0.8817 -4.6503
 4843SOL    HW225992   4.378   3.197   0.859  1.6517 -0.9032  0.6029
 4844SOL     OW25993   3.561   3.546   1.736 -0.3743  0.1772  0.2420
 4844SOL    HW125994   3.480   3.597   1.744  0.3472  1.9024 -3.1839
 4844SOL    HW225995   3.588   3.549   1.827  1.7284 -1.6971 -0.3384
 4845SOL     OW25996   1.744   3.262   2.479  0.3201  0.3839  0.5808
 4845SOL    HW125997   1.743   3.349   2.517 -1.2376 -0.7290  3.0791
 4845SOL    HW225998   1.758   3.211   2.558  2.6853 -1.2470 -0.8881
 4846SOL     OW25999   2.483   3.499  17.418  0.6228  0.0591 -0.0735
 4846SOL    HW126000   2.393   3.502  17.448  0.4686 -2.9029 -0.2566
 4846SOL    HW226001   2.488   3.575  17.360  1.9621 -0.9819 -1.3249
 4847SOL     OW26002   1.496   1.487   4.942  0.4744 -0.1168  0.2743
 4847SOL    HW126003   1.419   1.524   4.899  1.3850  1.7501  0.2347
 4847SOL    HW226004   1.517   1.417   4.881  0.0273 -0.2514  0.2762
 4848SOL     OW26005   1.105   1.144   2.048 -0.5022 -0.3397  0.3563
 4848SOL    HW126006   1.197   1.165   2.065 -0.6921 -0.5196  1.6248
 4848SOL    HW226007   1.125   1.052   2.027  0.9020  0.1168 -0.2875
 4849SOL     OW26008   0.071   2.976  11.791  0.3112 -0.7156 -0.1694
 4849SOL    HW126009   4.718   2.933  11.768 -0.2609 -1.1304  2.6834
 4849SOL    HW226010   0.132   2.919  11.744  2.1923  0.3961  0.9126
 4850SOL     OW26011   2.760   2.611   3.683  0.8701 -0.3077 -0.1419
 4850SOL    HW126012   2.666   2.590   3.681  0.8964 -0.5597  1.2676
 4850SOL    HW226013   2.772   2.609   3.778  2.1984  0.8169 -0.2823
 4851SOL     OW26014   3.511   1.391   8.244  0.1142 -0.1716  0.0929
 4851SOL    HW126015   3.514   1.473   8.195 -0.2684 -0.4270 -0.3624
 4851SOL    HW226016   3.596   1.358   8.215 -0.3757 -1.1144 -0.2815
 4852SOL     OW26017   1.006   2.716   7.300  0.1742 -0.1150  0.2958
 4852SOL    HW126018   1.019   2.666   7.219 -2.5162  0.0859 -0.2616
 4852SOL    HW226019   1.012   2.808   7.274 -0.1804  0.9116  3.9394
 4853SOL     OW26020   2.772   2.425  10.520 -0.5789  0.7150 -0.0434
 4853SOL    HW126021   2.703   2.462  10.464 -0.9190 -1.5275 -1.1259
 4853SOL    HW226022   2.765   2.474  10.602 -0.9627  0.2632  0.1975
 4854SOL     OW26023   2.180   4.353   7.105  0.4025 -0.1084  0.5132
 4854SOL    HW126024   2.171   4.440   7.145 -3.4138  0.1137 -0.8589
 4854SOL    HW226025   2.155   4.296   7.178 -1.2013 -1.9618 -1.5020
 4855SOL     OW26026   1.540   1.448   7.316 -0.1105  0.2913 -0.1552
 4855SOL    HW126027   1.446   1.442   7.297 -0.3168  2.2926  0.2651
 4855SOL    HW226028   1.559   1.361   7.350  0.1393  0.7535  0.8913
 4856SOL     OW26029   4.135   3.384   7.782  0.5598  0.3069 -0.4272
 4856SOL    HW126030   4.063   3.322   7.782  1.7205 -1.0676 -3.1309
 4856SOL    HW226031   4.142   3.419   7.693  1.6217 -3.4876 -1.8406
 4857SOL     OW26032   0.433   0.237  11.079  0.2863 -0.2907 -0.3809
 4857SOL    HW126033   0.340   0.255  11.092 -0.0787 -0.7235 -2.3671
 4857SOL    HW226034   0.470   0.280  11.156 -0.4772  1.9720 -1.2608
 4858SOL     OW26035   2.563   4.128  16.364  0.1973  0.1201 -0.5960
 4858SOL    HW126036   2.635   4.172  16.319  0.1348 -0.5137 -1.3315
 4858SOL    HW226037   2.496   4.155  16.300 -0.2539  0.2927 -0.0515
 4859SOL     OW26038   3.250   4.604   2.388 -0.3993 -0.2401 -0.5511
 4859SOL    HW126039   3.168   4.588   2.343  0.7904 -0.4838 -2.6137
 4859SOL    HW226040   3.289   4.517   2.378  0.3607  0.1235 -0.8109
 4860SOL     OW26041   4.557   4.036   7.622 -0.0603  0.2503  0.4444
 4860SOL    HW126042   4.471   4.038   7.664  0.2621  0.8575  1.0762
 4860SOL    HW226043   4.612   4.077   7.689  2.2958 -0.5364 -0.9801
 4861SOL     OW26044   0.788   2.472   7.582  0.1130 -0.5775 -0.2346
 4861SOL    HW126045   0.752   2.392   7.545  1.1227 -1.5011  0.8082
 4861SOL    HW226046   0.761   2.534   7.513  1.6190 -0.5840 -0.8319
 4862SOL     OW26047   0.321   0.573  10.640 -0.4359 -0.3254 -0.1784
 4862SOL    HW126048   0.297   0.642  10.579  3.4878 -1.5270 -3.0865
 4862SOL    HW226049   0.371   0.614  10.710 -0.4989 -1.1589  0.3663
 4863SOL     OW26050   1.946   2.514   9.015 -0.2052  0.0692  0.3075
 4863SOL    HW126051   1.864   2.479   8.979 -0.9862  1.5679  0.6579
 4863SOL    HW226052   1.909   2.560   9.090 -0.5016  0.7772 -0.2756
 4864SOL     OW26053   2.365   0.982   2.368 -0.1011  0.0201  0.4981
 4864SOL    HW126054   2.345   1.073   2.347  1.4853  0.2943  0.1893
 4864SOL    HW226055   2.342   0.952   2.280  2.3357  1.6277 -0.6951
 4865SOL     OW26056   4.260   4.696   4.271 -0.2304  0.2981  0.2255
 4865SOL    HW126057   4.207   4.650   4.206 -0.1372 -0.1930  0.5008
 4865SOL    HW226058   4.241   4.638   4.345  1.1056  1.4434  1.4652
 4866SOL     OW26059   0.894   4.613   5.243 -0.3550  0.4497 -0.6576
 4866SOL    HW126060   0.924   4.691   5.290 -1.9415  1.8237 -1.9191
 4866SOL    HW226061   0.848   4.560   5.308  0.4116 -0.5887 -0.9587
 4867SOL     OW26062   3.524   2.290  15.490 -0.2523  0.2860  0.7557
 4867SOL    HW126063   3.571   2.323  15.566 -2.8106 -0.2735  2.6030
 4867SOL    HW226064   3.513   2.195  15.496  0.8350 -0.0289 -2.1769
 4868SOL     OW26065   2.078   3.523   9.292 -0.1102 -0.6977 -0.4806
 4868SOL    HW126066   2.102   3.551   9.381  1.0588 -0.0850 -0.9813
 4868SOL    HW226067   2.165   3.518   9.252  0.1782 -0.0898  0.0655
 4869SOL     OW26068   0.955   4.691   3.951 -0.1265 -0.3574  0.1808
 4869SOL    HW126069   0.907   4.708   3.870  0.7669  2.8658  0.3599
 4869SOL    HW226070   1.011   4.615   3.936  0.3939 -0.7252  3.9562
 4870SOL     OW26071   2.593   1.667  13.259  0.6285 -0.1741  0.2510
 4870SOL    HW126072   2.583   1.763  13.260 -0.8397 -0.3456  1.1993
 4870SOL    HW226073   2.670   1.655  13.204  1.6071 -2.0425  2.0021
 4871SOL     OW26074   3.741   0.678   9.683 -0.3680 -0.1253 -0.3094
 4871SOL    HW126075   3.733   0.679   9.778 -0.0578  2.0040 -0.3176
 4871SOL    HW226076   3.773   0.767   9.666  0.1522  0.2813  2.8928
 4872SOL     OW26077   0.787   2.121  10.501  0.1018  0.3924 -0.1898
 4872SOL    HW126078   0.810   2.193  10.560 -0.2994  2.2148 -2.2714
 4872SOL    HW226079   0.693   2.114  10.519 -0.1554  2.1282 -0.8426
 4873SOL     OW26080   3.973   3.428   0.240 -0.2259  0.2002 -0.3474
 4873SOL    HW126081   3.997   3.452   0.329 -1.3308  1.7520 -0.4752
 4873SOL    HW226082   4.018   3.501   0.197  2.5123 -1.4699 -0.3120
 4874SOL     OW26083   3.763   4.576  15.412  0.0712 -0.3733  0.3880
 4874SOL    HW126084   3.793   4.488  15.391  0.5738  0.7571 -3.6129
 4874SOL    HW226085   3.726   4.610  15.331 -2.3062  2.7507  2.7550
 4875SOL     OW26086   2.006   1.709   3.834  0.4297  0.3630  0.2561
 4875SOL    HW126087   2.040   1.666   3.913 -0.9749  0.4097  0.8705
 4875SOL    HW226088   1.931   1.654   3.816 -1.6646  2.5161  2.3094
 4876SOL     OW26089   4.522   1.163  10.668 -0.0728 -0.4517 -0.3604
 4876SOL    HW126090   4.455   1.211  10.620  0.4775  0.9370  0.2497
 4876SOL    HW226091   4.557   1.107  10.600 -0.9400 -1.6717  0.2116
 4877SOL     OW26092   1.644   2.440   5.767 -0.1650 -0.2058 -0.5694
 4877SOL    HW126093   1.680   2.497   5.835 -1.9042  2.3095 -1.7428
 4877SOL    HW226094   1.660   2.355   5.809  0.1158  1.2755  2.3517
 4878SOL     OW26095   0.883   0.501   6.236  0.4237 -0.5501 -0.1410
 4878SOL    HW126096   0.909   0.484   6.146 -0.7453 -0.7971 -0.4434
 4878SOL    HW226097   0.829   0.425   6.259  0.2697 -1.1431 -2.4652
 4879SOL     OW26098   1.921   1.500   7.948 -0.1281  0.3971 -0.0502
 4879SOL    HW126099   1.945   1.429   8.008 -2.2770 -0.2862  0.0200
 4879SOL    HW226100   1.993   1.505   7.886  1.5211 -2.8289  1.5894
 4880SOL     OW26101   3.194   1.325  15.919  0.4081 -0.2675 -0.5810
 4880SOL    HW126102   3.156   1.400  15.875  1.3370  0.0659 -0.8225
 4880SOL    HW226103   3.122   1.262  15.928  0.9441 -0.9157 -0.7751
 4881SOL     OW26104   1.778   2.028   9.722  0.1616  0.5465  0.1090
 4881SOL    HW126105   1.790   1.950   9.777  0.0412  1.9644  2.1166
 4881SOL    HW226106   1.864   2.048   9.687  0.5680 -0.9004  0.2615
 4882SOL     OW26107   0.818   3.401   2.559  0.0220 -0.3316 -0.3350
 4882SOL    HW126108   0.777   3.480   2.523 -0.4549 -0.2677  0.3340
 4882SOL    HW226109   0.891   3.438   2.610  0.7933 -0.5681 -1.2840
 4883SOL     OW26110   1.369   4.194   6.735  0.4985  0.4869 -0.2737
 4883SOL    HW126111   1.377   4.289   6.726  1.6979  0.2136 -1.9831
 4883SOL    HW226112   1.355   4.188   6.830  2.9911 -0.7838  0.0269
 4884SOL     OW26113   1.734   4.528   2.520 -0.1076 -0.4208 -0.0210
 4884SOL    HW126114   1.640   4.537   2.535 -0.4187  0.2848 -2.4929
 4884SOL    HW226115   1.755   4.545   2.612 -1.1228  2.2223 -0.2979
 4885SOL     OW26116   0.889   1.896   2.534  0.4541 -0.1175  0.2137
 4885SOL    HW126117   0.951   1.883   2.463 -1.1115 -2.0180 -0.8167
 4885SOL    HW226118   0.814   1.856   2.491  1.0740 -0.5859 -0.4312
 4886SOL     OW26119   0.117   4.068   9.586 -0.0153 -0.0949  0.3539
 4886SOL    HW126120   0.152   4.039   9.502  1.1878  0.6184  0.6129
 4886SOL    HW226121   0.046   4.004   9.597 -0.2565  0.0771 -0.1935
 4887SOL     OW26122   3.278   1.994  15.246  0.3182 -0.2597  0.3941
 4887SOL    HW126123   3.345   2.062  15.237 -0.9095  0.9059  0.0442
 4887SOL    HW226124   3.338   1.920  15.258  1.1547  0.3086 -0.2715
 4888SOL     OW26125   1.751   3.781   2.704 -0.6858  0.1059  0.1055
 4888SOL    HW126126   1.745   3.726   2.625 -0.4755 -0.2966  0.3711
 4888SOL    HW226127   1.670   3.832   2.698  0.2945  1.3263 -3.1923
 4889SOL     OW26128   4.333   0.078   8.149  0.1669  0.3632  0.4037
 4889SOL    HW126129   4.297   4.725   8.180 -0.8532  0.1058 -1.5230
 4889SOL    HW226130   4.367   0.117   8.230 -0.9144  1.9422  0.0944
 4890SOL     OW26131   4.437   3.866   8.613  0.2781 -0.0769 -0.1893
 4890SOL    HW126132   4.478   3.796   8.563  0.1745  0.6435 -1.2699
 4890SOL    HW226133   4.364   3.823   8.659 -0.6142  0.0612 -1.4855
 4891SOL     OW26134   1.189   1.955   6.056 -0.9362 -0.7298 -0.8009
 4891SOL    HW126135   1.117   2.008   6.089 -0.3285  0.0555 -0.7110
 4891SOL    HW226136   1.259   1.987   6.114 -0.5742 -1.4702 -0.8298
 4892SOL     OW26137   1.726   3.616  14.800  0.7836 -0.1814 -0.2031
 4892SOL    HW126138   1.694   3.608  14.890  0.8602 -0.9628 -0.2458
 4892SOL    HW226139   1.647   3.629  14.749 -0.9682 -0.9591  2.3266
 4893SOL     OW26140   2.518   0.524   7.958  0.2773 -0.0896 -0.6862
 4893SOL    HW126141   2.559   0.563   8.036 -0.3395  1.0662 -0.9405
 4893SOL    HW226142   2.426   0.516   7.985  0.4334 -1.5430 -0.5637
 4894SOL     OW26143   1.806   2.807   6.650 -0.5296  0.2974 -0.5004
 4894SOL    HW126144   1.786   2.745   6.580 -1.1989  0.6191 -0.5989
 4894SOL    HW226145   1.824   2.743   6.719  1.0437 -0.5523 -1.6955
 4895SOL     OW26146   1.735   3.775  15.267  0.6403 -0.5865 -0.3057
 4895SOL    HW126147   1.807   3.800  15.326  0.8876 -0.9571 -0.4520
 4895SOL    HW226148   1.708   3.858  15.229  2.3229 -1.0430 -2.4904
 4896SOL     OW26149   0.955   2.562   2.862 -0.1979 -0.2248  0.1435
 4896SOL    HW126150   1.028   2.500   2.864  0.0660  0.0846  0.0017
 4896SOL    HW226151   0.979   2.629   2.926 -0.2203 -0.2451  0.1731
 4897SOL     OW26152   3.676   1.724   6.956  0.0291 -0.2798  0.1937
 4897SOL    HW126153   3.671   1.672   7.037  2.0017  0.3120  0.6945
 4897SOL    HW226154   3.723   1.805   6.976  1.2329 -0.8358 -0.4249
 4898SOL     OW26155   2.477   1.509  17.542 -0.6096 -0.0677  0.4647
 4898SOL    HW126156   2.531   1.443  17.499  0.7945 -1.2220  4.0042
 4898SOL    HW226157   2.527   1.539  17.618 -0.6545  1.9616 -0.3145
 4899SOL     OW26158   2.724   3.959   6.278 -0.3667  0.1394 -0.4154
 4899SOL    HW126159   2.663   3.988   6.210 -1.0721 -1.9855 -0.7167
 4899SOL    HW226160   2.801   4.002   6.241  0.1577 -1.5521 -1.3037
 4900SOL     OW26161   2.561   1.786   9.792  0.0530 -0.1606 -0.1283
 4900SOL    HW126162   2.476   1.743   9.802 -1.8326  3.4620 -0.7411
 4900SOL    HW226163   2.591   1.739   9.714  0.2039 -1.6593  0.8109
 4901SOL     OW26164   2.853   1.488   2.484  0.0541  0.2071  0.3208
 4901SOL    HW126165   2.913   1.417   2.508  1.7569  2.0261  1.3867
 4901SOL    HW226166   2.796   1.451   2.417  0.0387  2.4485 -0.9007
 4902SOL     OW26167   1.429   1.550  17.380 -0.1006 -0.1696 -0.4672
 4902SOL    HW126168   1.410   1.642  17.365  2.8110  0.1509 -2.2390
 4902SOL    HW226169   1.354   1.511  17.335  0.8633  0.6316 -2.7263
 4903SOL     OW26170   3.176   0.112  16.521 -0.4752 -0.0715  0.3582
 4903SOL    HW126171   3.130   0.051  16.463 -3.1913  0.4665  1.9272
 4903SOL    HW226172   3.130   0.094  16.603  0.7349 -0.9015  0.8471
 4904SOL     OW26173   0.357   3.758  11.383 -0.1239  0.3374 -0.2326
 4904SOL    HW126174   0.311   3.810  11.317 -1.4180  0.6124  0.8970
 4904SOL    HW226175   0.435   3.728  11.335 -0.1449  1.0521 -0.7077
 4905SOL     OW26176   4.497   3.074   6.500 -0.0296  0.2089 -0.5644
 4905SOL    HW126177   4.432   3.144   6.495 -0.6005 -0.2455  0.6793
 4905SOL    HW226178   4.528   3.067   6.410  0.5326  2.1752 -0.5261
 4906SOL     OW26179   1.439   2.956   2.529 -0.3902 -0.1569  0.4792
 4906SOL    HW126180   1.437   2.986   2.438  1.9199 -1.4624 -0.0238
 4906SOL    HW226181   1.347   2.957   2.552 -0.9381  2.3712 -1.8208
 4907SOL     OW26182   0.616   4.702   5.446 -0.3427  0.2629 -0.1557
 4907SOL    HW126183   0.661   0.055   5.465 -0.9009  0.2593  1.1833
 4907SOL    HW226184   0.550   0.014   5.390 -1.0915 -0.5309  0.1404
 4908SOL     OW26185   1.005   1.647   8.411  0.3489  0.3442 -0.4085
 4908SOL    HW126186   0.979   1.718   8.470 -1.8794 -1.1518  0.3868
 4908SOL    HW226187   0.922   1.629   8.367  0.5407 -2.6581  0.4760
 4909SOL     OW26188   1.241   2.268   2.021  0.3135  0.2903  0.1507
 4909SOL    HW126189   1.162   2.256   1.967 -1.4195  1.7898  2.3375
 4909SOL    HW226190   1.290   2.193   1.988 -1.2829 -0.2624 -0.9675
 4910SOL     OW26191   2.578   0.813   3.238 -0.1796 -0.4486  0.0281
 4910SOL    HW126192   2.616   0.855   3.161  0.7922 -2.7295 -0.7310
 4910SOL    HW226193   2.492   0.854   3.249  0.9152  1.9547 -0.5748
 4911SOL     OW26194   2.414   2.407   3.054 -0.0414  0.6642 -0.4170
 4911SOL    HW126195   2.335   2.457   3.072 -0.5564  0.3464 -1.8282
 4911SOL    HW226196   2.378   2.348   2.988 -3.2230  1.3477  0.7221
 4912SOL     OW26197   0.037   2.988   4.133  0.3205 -0.0627 -0.3324
 4912SOL    HW126198   0.039   3.041   4.213  0.0831 -1.7573  0.7930
 4912SOL    HW226199   4.678   2.952   4.130 -0.5852  2.2233 -0.7786
 4913SOL     OW26200   0.234   2.732   5.234  0.5767  0.1807  0.1132
 4913SOL    HW126201   0.276   2.718   5.319 -0.8111 -1.5882  0.5073
 4913SOL    HW226202   0.180   2.807   5.257  1.5765  0.5052  1.4104
 4914SOL     OW26203   1.379   4.575   5.604 -0.4424  0.2687  0.2424
 4914SOL    HW126204   1.453   4.570   5.544 -0.4882  2.3621  0.0248
 4914SOL    HW226205   1.431   4.540   5.677 -0.7054 -0.0853  0.2628
 4915SOL     OW26206   3.834   2.856  12.356  0.4463  0.0803 -0.0745
 4915SOL    HW126207   3.745   2.875  12.388 -0.5353 -1.3920 -1.9605
 4915SOL    HW226208   3.852   2.769  12.393  0.9758  0.8861  1.5932
 4916SOL     OW26209   0.149   0.610   3.236  0.1898  0.3603 -0.1287
 4916SOL    HW126210   0.104   0.653   3.162  0.2379 -1.3743 -1.1671
 4916SOL    HW226211   0.087   0.623   3.308 -1.0772  1.2850 -1.3643
 4917SOL     OW26212   4.009   1.707   9.468  0.0457  0.7783 -0.1602
 4917SOL    HW126213   4.070   1.773   9.500  1.7770 -0.9833  0.1824
 4917SOL    HW226214   4.054   1.686   9.386  2.4199  0.1994  1.2915
 4918SOL     OW26215   1.751   4.587   2.805 -0.0002 -0.0398  0.9372
 4918SOL    HW126216   1.745   4.673   2.847  0.1891  0.3821  0.0890
 4918SOL    HW226217   1.719   4.530   2.875  0.6153  0.8505  1.9563
 4919SOL     OW26218   0.453   1.279   2.301 -0.0979 -0.3993  0.0349
 4919SOL    HW126219   0.380   1.246   2.247  0.0272  2.4279 -1.8652
 4919SOL    HW226220   0.522   1.226   2.262  0.1397  1.1453 -1.6326
 4920SOL     OW26221   0.098   3.585   6.209  0.2666 -0.5511 -0.5252
 4920SOL    HW126222   0.155   3.656   6.179  0.0652 -0.0798  0.2083
 4920SOL    HW226223   0.020   3.639   6.221  2.2167  1.9378  0.7480
 4921SOL     OW26224   1.799   4.047   1.426  0.0700  0.3930  0.5210
 4921SOL    HW126225   1.712   4.073   1.393 -0.7809 -2.2972  0.6600
 4921SOL    HW226226   1.857   4.123   1.429 -0.0343  0.6300 -3.0043
 4922SOL     OW26227   4.047   3.436   8.240 -0.2506  0.5838  0.0018
 4922SOL    HW126228   3.982   3.366   8.232 -0.5658  0.9400 -0.6007
 4922SOL    HW226229   4.125   3.381   8.231  0.1839  0.7896  2.7004
 4923SOL     OW26230   0.873   3.070   7.881 -0.4506  0.1922  0.3689
 4923SOL    HW126231   0.792   3.026   7.907  0.3546 -2.5121 -1.7462
 4923SOL    HW226232   0.929   2.993   7.873 -0.9653 -0.2504  1.0116
 4924SOL     OW26233   1.870   0.951  12.783 -0.2434  0.0609  0.7468
 4924SOL    HW126234   1.838   0.861  12.782 -0.0389 -0.0308  2.0616
 4924SOL    HW226235   1.842   0.970  12.873  0.3644  1.3525  0.6528
 4925SOL     OW26236   0.194   3.372   7.066  0.0186  0.0502 -0.3966
 4925SOL    HW126237   0.286   3.376   7.089 -0.3397  0.6347  0.9603
 4925SOL    HW226238   0.162   3.459   7.090 -1.3418  0.1776 -2.6694
 4926SOL     OW26239   2.232   2.207   6.140  0.0702 -0.0465 -0.1785
 4926SOL    HW126240   2.305   2.187   6.082  0.5726 -1.3775  0.9200
 4926SOL    HW226241   2.283   2.230   6.218  1.2901 -0.6938 -0.7874
 4927SOL     OW26242   2.254   4.043   4.202  0.4144 -0.3673  0.1282
 4927SOL    HW126243   2.243   3.948   4.209  0.6746 -0.3708  0.5123
 4927SOL    HW226244   2.177   4.077   4.157  1.1282  1.9813  0.7056
 4928SOL     OW26245   3.758   4.407  17.602 -0.0043 -0.7514 -0.7684
 4928SOL    HW126246   3.828   4.473  17.600 -0.6406  0.0207  2.8964
 4928SOL    HW226247   3.676   4.455  17.591 -0.2282 -0.8169  0.6805
 4929SOL     OW26248   0.784   4.436  16.445  0.3808  0.4505  0.3352
 4929SOL    HW126249   0.838   4.510  16.473  1.1116  1.1308 -2.8511
 4929SOL    HW226250   0.852   4.376  16.475 -0.0133  0.5567  1.4526
 4930SOL     OW26251   2.327   4.131  10.884  0.3252  0.3822  0.7526
 4930SOL    HW126252   2.405   4.185  10.896  0.9595  0.2797 -2.7947
 4930SOL    HW226253   2.352   4.049  10.927  1.2068 -0.8405 -2.0573
 4931SOL     OW26254   3.211   0.690   4.316 -0.5833  0.6554 -0.4003
 4931SOL    HW126255   3.162   0.773   4.315 -0.6827  0.5962 -0.4432
 4931SOL    HW226256   3.174   0.644   4.391  0.3495 -0.7880 -0.8389
 4932SOL     OW26257   1.879   2.019   2.629  0.1761  0.2005  0.0712
 4932SOL    HW126258   1.901   2.057   2.715  0.5149  1.0932 -0.4044
 4932SOL    HW226259   1.812   2.084   2.605  0.1433  0.6537  1.3303
 4933SOL     OW26260   1.899   1.852   6.800  0.2666 -0.6554 -0.8009
 4933SOL    HW126261   1.892   1.801   6.881  2.1463 -0.9389 -0.8066
 4933SOL    HW226262   1.823   1.821   6.751 -0.6561 -0.1085  0.2772
 4934SOL     OW26263   1.938   3.633   7.022 -0.0653 -0.2836 -0.4226
 4934SOL    HW126264   1.994   3.607   7.095  0.0500  1.5496  0.1345
 4934SOL    HW226265   1.979   3.704   6.974 -2.4322  1.5853  0.3118
 4935SOL     OW26266   1.404   3.523   8.879  0.1782 -0.0858  0.3794
 4935SOL    HW126267   1.445   3.526   8.792  0.9116  0.9898  0.7625
 4935SOL    HW226268   1.328   3.581   8.875  1.3813  1.5686  1.6466
 4936SOL     OW26269   4.347   3.220   2.473  0.4117 -0.1313  0.2994
 4936SOL    HW126270   4.407   3.210   2.547 -0.7118 -1.9220  0.9483
 4936SOL    HW226271   4.294   3.292   2.510  1.8947  1.1176 -0.0099
 4937SOL     OW26272   1.039   0.579  12.852 -0.2867  0.4579  0.1720
 4937SOL    HW126273   1.049   0.505  12.792  2.0559  0.8717  0.0542
 4937SOL    HW226274   0.997   0.549  12.933 -2.1339  1.6327 -0.3443
 4938SOL     OW26275   1.412   1.724  12.973  0.3632 -0.2429  0.2759
 4938SOL    HW126276   1.342   1.771  12.927  1.0124 -0.7696 -1.2556
 4938SOL    HW226277   1.365   1.700  13.053  2.6967 -0.8103  1.4873
 4939SOL     OW26278   1.168   0.628  15.832 -0.1356 -0.1038 -0.1588
 4939SOL    HW126279   1.214   0.554  15.793 -0.0974  0.6180 -1.5018
 4939SOL    HW226280   1.232   0.694  15.806  0.9216 -1.5573 -1.2535
 4940SOL     OW26281   2.746   3.543   4.779 -0.6114 -0.2981 -0.4946
 4940SOL    HW126282   2.763   3.462   4.827 -0.8339  0.1446  0.3275
 4940SOL    HW226283   2.694   3.597   4.838 -1.1758 -0.7666 -0.5589
 4941SOL     OW26284   3.360   0.492  14.457 -0.0518  0.1597 -0.2306
 4941SOL    HW126285   3.451   0.522  14.469 -0.5590  1.9352 -0.8598
 4941SOL    HW226286   3.317   0.515  14.539 -1.1335 -0.2083 -0.7063
 4942SOL     OW26287   2.294   3.309   2.332 -0.2201 -0.0076 -0.1002
 4942SOL    HW126288   2.255   3.396   2.330 -2.0446 -0.8023  0.7949
 4942SOL    HW226289   2.251   3.267   2.406  0.5706  0.1495  0.4498
 4943SOL     OW26290   2.612   4.559   5.595  0.1480  0.2737  0.5696
 4943SOL    HW126291   2.531   4.527   5.554  1.0918  1.1492 -2.0226
 4943SOL    HW226292   2.635   4.636   5.543  0.2874 -1.1605 -1.5365
 4944SOL     OW26293   2.309   1.304   9.745  0.5557 -0.0034  0.2564
 4944SOL    HW126294   2.386   1.333   9.696 -0.2048  2.0093  0.2260
 4944SOL    HW226295   2.250   1.373   9.714  0.1534 -0.7794 -0.6980
 4945SOL     OW26296   0.885   0.893  11.684 -0.3082  0.1846  0.3036
 4945SOL    HW126297   0.882   0.799  11.701  0.7275  0.5416  2.5392
 4945SOL    HW226298   0.795   0.916  11.705  0.4008  3.1862 -0.0306
 4946SOL     OW26299   0.154   1.281  13.986 -0.4728  0.2113  0.0270
 4946SOL    HW126300   0.172   1.193  14.021 -0.3428  0.4374  0.5336
 4946SOL    HW226301   0.207   1.276  13.907 -1.2390  2.4828 -0.6204
 4947SOL     OW26302   3.951   3.150   5.241 -0.1689  0.8187 -0.0830
 4947SOL    HW126303   4.030   3.100   5.260 -0.4065  0.9135  1.2119
 4947SOL    HW226304   3.919   3.095   5.170  0.1479  0.7721 -0.1906
 4948SOL     OW26305   1.938   3.446   8.558 -0.3678 -0.5200 -0.7565
 4948SOL    HW126306   1.909   3.507   8.490 -1.6223  0.4188  0.6535
 4948SOL    HW226307   1.858   3.395   8.568 -0.7951  0.4964  0.8841
 4949SOL     OW26308   3.167   0.680   1.511  0.0191 -0.1822 -0.3283
 4949SOL    HW126309   3.126   0.719   1.434 -2.3910  1.8637  2.0090
 4949SOL    HW226310   3.132   0.592   1.525 -2.0350  1.2038  3.0908
 4950SOL     OW26311   0.097   2.753   8.248  0.2306 -0.1708  0.4717
 4950SOL    HW126312   0.142   2.781   8.327  0.3630  1.6408 -0.2467
 4950SOL    HW226313   0.172   2.747   8.189 -1.6579 -0.0585 -1.9311
 4951SOL     OW26314   0.232   0.841   1.893  0.1829 -0.0825 -0.6610
 4951SOL    HW126315   0.212   0.799   1.977 -1.3184  0.9854 -0.4780
 4951SOL    HW226316   0.306   0.896   1.917 -1.5267  3.1027 -2.6156
 4952SOL     OW26317   0.845   1.296   5.797  0.3274 -0.3003 -0.5054
 4952SOL    HW126318   0.861   1.202   5.802 -2.0485 -0.6899 -0.1476
 4952SOL    HW226319   0.906   1.314   5.725  0.9515 -0.6574 -0.0689
 4953SOL     OW26320   3.137   3.000  12.732  0.6192  0.4693  0.2029
 4953SOL    HW126321   3.103   2.922  12.689  0.2858  0.8682 -0.2563
 4953SOL    HW226322   3.065   3.058  12.756  0.0151  0.5780 -1.9114
 4954SOL     OW26323   1.764   0.511  15.103  0.2957  0.2380 -0.1606
 4954SOL    HW126324   1.703   0.442  15.080  1.4791 -0.4166 -1.3220
 4954SOL    HW226325   1.725   0.580  15.049 -0.5597 -0.7638 -0.8049
 4955SOL     OW26326   4.417   2.774   7.715 -0.3353  0.1266 -0.2464
 4955SOL    HW126327   4.327   2.762   7.746 -0.1976  1.6980  0.7340
 4955SOL    HW226328   4.435   2.866   7.736 -1.6569  0.2584  0.3362
 4956SOL     OW26329   3.869   1.168   9.747  0.1356 -0.3965  0.1288
 4956SOL    HW126330   3.933   1.218   9.798  1.3557 -0.3847 -1.4273
 4956SOL    HW226331   3.886   1.199   9.658 -1.0023 -2.1630 -0.6993
 4957SOL     OW26332   4.693   2.028   7.941  0.1108  0.0032 -0.0811
 4957SOL    HW126333   0.028   2.021   7.870 -0.5292  0.0678 -0.6604
 4957SOL    HW226334   4.675   2.118   7.915  0.7581  0.7231  2.0019
 4958SOL     OW26335   0.578   3.254   7.880 -0.3846  0.4118  0.1260
 4958SOL    HW126336   0.612   3.313   7.947 -0.5879 -0.1162  0.6930
 4958SOL    HW226337   0.581   3.172   7.930  0.5288 -0.8912 -2.0663
 4959SOL     OW26338   3.735   0.816   0.843 -0.4206  0.0861  0.0518
 4959SOL    HW126339   3.792   0.753   0.799 -1.1703 -0.1968 -0.5025
 4959SOL    HW226340   3.648   0.802   0.806 -0.4181 -2.0307  0.8234
 4960SOL     OW26341   2.354   4.654   7.468  0.4477  0.2204  0.0124
 4960SOL    HW126342   2.382   4.715   7.400 -0.4695 -0.2389 -0.7836
 4960SOL    HW226343   2.441   4.634   7.501  0.5875 -0.2854 -0.6697
 4961SOL     OW26344   3.147   1.935   5.264 -0.0898  0.5317  0.1397
 4961SOL    HW126345   3.125   2.028   5.268 -0.0007  0.5344  0.5115
 4961SOL    HW226346   3.184   1.917   5.350  0.3766 -3.8720 -0.9515
 4962SOL     OW26347   2.422   2.005   2.550 -0.0278 -0.1750  0.5041
 4962SOL    HW126348   2.470   1.958   2.618  0.5018  1.5269  1.3095
 4962SOL    HW226349   2.334   2.010   2.587 -0.3354 -0.0350 -0.2381
 4963SOL     OW26350   3.251   2.517  17.059  0.2811 -0.5398 -0.1060
 4963SOL    HW126351   3.300   2.552  17.134  0.0952 -1.3779  0.4067
 4963SOL    HW226352   3.254   2.424  17.081 -1.3105 -0.9230 -1.5528
 4964SOL     OW26353   0.557   2.789   3.811 -0.6340 -0.0635 -0.1220
 4964SOL    HW126354   0.506   2.709   3.816  0.8256 -1.0070 -0.3986
 4964SOL    HW226355   0.596   2.794   3.898  0.9710  0.2699 -0.8509
 4965SOL     OW26356   0.297   4.222   6.388 -0.0571 -0.3963 -0.4312
 4965SOL    HW126357   0.291   4.283   6.315  0.2217 -0.2198 -0.3102
 4965SOL    HW226358   0.252   4.269   6.458 -1.4303 -0.7722 -1.0622
 4966SOL     OW26359   1.347   2.716   5.484  0.0129  0.2318  0.1563
 4966SOL    HW126360   1.290   2.778   5.439  0.0422  1.3208  1.6488
 4966SOL    HW226361   1.295   2.694   5.561  0.4693 -0.6581  0.2073
 4967SOL     OW26362   3.581   1.442   7.274 -0.5977  0.5711 -0.0947
 4967SOL    HW126363   3.530   1.521   7.294 -2.2073 -0.0536 -1.6870
 4967SOL    HW226364   3.658   1.476   7.229 -0.5747 -0.8986 -1.1692
 4968SOL     OW26365   2.056   4.657   9.627 -0.1519  0.6659 -0.6842
 4968SOL    HW126366   2.140   4.698   9.607  0.0370 -0.2890 -1.8185
 4968SOL    HW226367   2.017   4.634   9.543 -0.9780  0.1222 -0.1507
 4969SOL     OW26368   2.232   1.510  13.136  0.0071 -0.7054 -0.1239
 4969SOL    HW126369   2.223   1.502  13.041 -0.0146 -0.4809 -0.1417
 4969SOL    HW226370   2.190   1.596  13.143  0.4495 -0.5264  0.4111
 4970SOL     OW26371   0.265   0.699  16.846  0.2493 -0.2445  0.4112
 4970SOL    HW126372   0.268   0.794  16.830  0.2341 -0.4173 -0.6473
 4970SOL    HW226373   0.344   0.673  16.800 -0.8027 -2.1374 -0.2979
 4971SOL     OW26374   2.331   3.123  10.587 -0.3070 -0.1596  0.2654
 4971SOL    HW126375   2.286   3.204  10.612 -1.5836 -0.9912  0.6624
 4971SOL    HW226376   2.261   3.067  10.555 -0.5029 -0.5022  1.2770
 4972SOL     OW26377   3.276   3.436  16.402 -0.5463  0.0916 -0.6088
 4972SOL    HW126378   3.333   3.505  16.366 -0.8646 -0.5902 -2.4422
 4972SOL    HW226379   3.305   3.438  16.493 -2.4250  3.2492 -0.0696
 4973SOL     OW26380   0.287   3.010  13.148 -0.6516 -0.0359 -0.4120
 4973SOL    HW126381   0.323   3.098  13.159  0.1112 -0.3484 -0.3428
 4973SOL    HW226382   0.359   2.956  13.182 -0.0415  0.5686 -0.7475
 4974SOL     OW26383   0.609   1.558  17.183  0.1228  0.6135 -0.0469
 4974SOL    HW126384   0.698   1.571  17.150  0.1100  2.8167  0.8309
 4974SOL    HW226385   0.624   1.564  17.278  0.2860  0.7462 -0.0809
 4975SOL     OW26386   1.494   0.734   6.350  0.5104 -0.1915  0.1243
 4975SOL    HW126387   1.580   0.772   6.368 -0.3278  2.7168 -2.1147
 4975SOL    HW226388   1.442   0.767   6.423 -0.6831  0.3110 -0.9709
 4976SOL     OW26389   4.099   3.502   0.485 -0.0949  0.1285 -0.3715
 4976SOL    HW126390   4.084   3.536   0.574 -1.1776 -1.9059  0.2081
 4976SOL    HW226391   4.184   3.540   0.462  0.5566 -1.7109 -0.9702
 4977SOL     OW26392   2.912   3.449   7.262 -0.1161  0.2050  0.2224
 4977SOL    HW126393   2.856   3.426   7.187  0.7486 -3.1593  0.6170
 4977SOL    HW226394   2.974   3.508   7.220  0.6494  0.6435  2.0133
 4978SOL     OW26395   4.234   0.114   3.911 -0.1299  0.2997 -0.2108
 4978SOL    HW126396   4.250   0.047   3.845  1.6101  0.0248  0.5046
 4978SOL    HW226397   4.172   0.074   3.972  0.5067  0.4520  0.5300
 4979SOL     OW26398   4.290   3.705  17.116  0.0353 -0.3617  0.1812
 4979SOL    HW126399   4.280   3.797  17.094  1.3573 -0.1247  0.5924
 4979SOL    HW226400   4.205   3.680  17.079  0.0251  0.8523 -0.6280
 4980SOL     OW26401   4.371   2.430   5.976  0.0251  0.2583 -0.8147
 4980SOL    HW126402   4.290   2.385   5.997 -0.1226  1.3700  1.0251
 4980SOL    HW226403   4.413   2.354   5.936 -2.3791 -0.9412 -1.0529
 4981SOL     OW26404   2.656   0.494   7.135 -0.5599  0.2584  0.1649
 4981SOL    HW126405   2.605   0.413   7.123 -2.2357  1.5399 -1.2856
 4981SOL    HW226406   2.638   0.547   7.058 -0.0633 -0.7010 -0.6174
 4982SOL     OW26407   4.121   3.247   7.076 -0.3716  0.0088  0.2239
 4982SOL    HW126408   4.124   3.332   7.033 -2.7355 -0.9202 -1.8011
 4982SOL    HW226409   4.029   3.218   7.071 -0.6006  0.8556 -0.4591
 4983SOL     OW26410   3.628   1.636   0.295 -0.0609  0.4004  0.6037
 4983SOL    HW126411   3.708   1.669   0.252  0.1368 -1.4749 -0.4782
 4983SOL    HW226412   3.614   1.698   0.366 -1.0961  1.8015 -0.8129
 4984SOL     OW26413   2.491   1.584   6.336 -0.1119 -0.5312 -0.2820
 4984SOL    HW126414   2.451   1.541   6.410 -0.0863  0.6449  0.4154
 4984SOL    HW226415   2.583   1.569   6.358 -0.2645  1.4337  1.6319
 4985SOL     OW26416   2.218   3.630  17.437  0.2191  0.2565 -0.8083
 4985SOL    HW126417   2.130   3.601  17.463  0.7390  0.5378  1.2695
 4985SOL    HW226418   2.201   3.684  17.361  1.0174  0.1894 -1.0346
 4986SOL     OW26419   0.592   2.564   1.609 -0.0227 -0.3982  0.0201
 4986SOL    HW126420   0.503   2.599   1.596  0.3036  0.4323  0.0298
 4986SOL    HW226421   0.647   2.630   1.566  0.1516 -0.8678 -0.4727
 4987SOL     OW26422   0.789   1.803  10.695  0.0775  0.6025 -0.1922
 4987SOL    HW126423   0.769   1.881  10.748 -1.2504  0.8619 -1.0620
 4987SOL    HW226424   0.709   1.803  10.643 -0.2332  0.3625  0.2810
 4988SOL     OW26425   1.872   1.753   2.490 -0.2840 -0.2173  0.0293
 4988SOL    HW126426   1.894   1.835   2.535 -2.0006  0.1168  0.2450
 4988SOL    HW226427   1.802   1.776   2.430 -0.7323  0.4354  0.8098
 4989SOL     OW26428   2.976   2.416   2.535 -0.2710  0.0620  0.4346
 4989SOL    HW126429   2.939   2.352   2.474 -1.4041  1.1588 -0.0402
 4989SOL    HW226430   3.050   2.448   2.485  0.5956  0.4450  1.9650
 4990SOL     OW26431   3.686   3.522   0.044  0.3309  0.0887  0.4684
 4990SOL    HW126432   3.594   3.546   0.046  0.5050  0.8673 -1.8731
 4990SOL    HW226433   3.727   3.595   0.090  1.4147 -0.4217  0.3068
 4991SOL     OW26434   3.384   1.141   3.645 -0.2791  0.3305 -0.0640
 4991SOL    HW126435   3.472   1.179   3.638 -1.0988  1.7679 -2.6664
 4991SOL    HW226436   3.333   1.222   3.641 -3.3136 -1.6090 -0.4029
 4992SOL     OW26437   0.080   1.828   5.269  0.0378 -0.5704  0.2265
 4992SOL    HW126438   0.114   1.917   5.258 -0.2134 -0.5848 -0.6696
 4992SOL    HW226439   0.136   1.785   5.204  1.2751  0.6695  0.4729
 4993SOL     OW26440   4.097   1.116   2.063 -0.0797  0.0849 -0.2948
 4993SOL    HW126441   4.186   1.081   2.061 -1.3225 -3.3415  2.5504
 4993SOL    HW226442   4.071   1.133   1.973 -1.6880 -2.6446 -0.3454
 4994SOL     OW26443   2.628   3.785   4.605 -0.3457 -0.5602  0.2566
 4994SOL    HW126444   2.628   3.699   4.648 -1.9091 -0.8572 -0.3431
 4994SOL    HW226445   2.689   3.828   4.665 -2.3246  0.7709  1.2933
 4995SOL     OW26446   1.179   0.916   1.869 -0.3650  0.0058 -0.1850
 4995SOL    HW126447   1.270   0.916   1.841 -0.1806 -1.4090  0.4126
 4995SOL    HW226448   1.141   0.929   1.782 -0.3066  0.1242 -0.1930
 4996SOL     OW26449   2.718   0.632  15.348  0.9842  0.3285 -0.0286
 4996SOL    HW126450   2.791   0.676  15.304  1.8382 -1.3101 -0.2376
 4996SOL    HW226451   2.710   0.549  15.301  0.4143 -0.5559  1.6283
 4997SOL     OW26452   0.704   3.806   7.332  0.2029  0.4237 -0.5587
 4997SOL    HW126453   0.723   3.793   7.239  0.5296  0.0795 -0.4458
 4997SOL    HW226454   0.742   3.727   7.372  0.0938  0.4094 -0.4820
 4998SOL     OW26455   2.377   2.419   8.823  0.5068  0.2759 -0.1417
 4998SOL    HW126456   2.328   2.496   8.795 -1.5439 -1.5103 -1.3793
 4998SOL    HW226457   2.366   2.355   8.753 -1.3283  0.1123  0.3002
 4999SOL     OW26458   1.699   2.265   5.194 -0.5615  0.0791  0.0477
 4999SOL    HW126459   1.780   2.271   5.142  0.7528 -1.1089  1.9715
 4999SOL    HW226460   1.683   2.358   5.214 -5.1521 -1.1614  1.9781
 5000SOL     OW26461   0.986   1.067   4.286 -0.4366  0.4303 -0.0395
 5000SOL    HW126462   0.972   1.143   4.230 -0.0984  0.3825 -0.1891
 5000SOL    HW226463   0.943   1.106   4.362  0.1356  0.4186  0.2935
 5001SOL     OW26464   4.037   2.996   4.364  0.1886 -0.4218 -0.2543
 5001SOL    HW126465   3.994   2.968   4.445 -2.4851  2.2091 -0.7643
 5001SOL    HW226466   3.955   3.006   4.316 -0.1274  0.7277  0.5173
 5002SOL     OW26467   1.379   4.030   2.049 -0.1544  0.2193  0.2091
 5002SOL    HW126468   1.446   3.965   2.028  0.5372  0.3444  2.0287
 5002SOL    HW226469   1.386   4.023   2.144  1.9193  1.0385  0.1225
 5003SOL     OW26470   4.435   0.176   8.390  0.0736  0.9005 -0.0703
 5003SOL    HW126471   4.481   0.251   8.352  1.0301 -0.0629 -0.8080
 5003SOL    HW226472   4.390   0.228   8.456 -0.5676 -0.4685  0.5398
 5004SOL     OW26473   2.833   1.382  13.978  0.3277  0.5245 -0.2879
 5004SOL    HW126474   2.738   1.396  13.979  0.6529  2.4807  0.9486
 5004SOL    HW226475   2.832   1.286  13.986  1.2302  0.6248  1.0013
 5005SOL     OW26476   4.538   0.908   6.602  0.3308 -0.5251  0.8754
 5005SOL    HW126477   4.461   0.858   6.576 -1.5472  1.9887  1.6227
 5005SOL    HW226478   4.508   0.952   6.681 -1.1861 -0.4572  0.2453
 5006SOL     OW26479   2.579   0.051   2.988  0.1679  0.1953  0.3544
 5006SOL    HW126480   2.540   0.101   3.059  0.4658  0.8683  0.0412
 5006SOL    HW226481   2.672   0.064   3.007  0.0272 -1.5590  2.2540
 5007SOL     OW26482   1.053   2.122  12.320  0.1576  0.6095  0.2117
 5007SOL    HW126483   1.101   2.205  12.320 -0.7954  1.1651  0.3987
 5007SOL    HW226484   0.986   2.158  12.379  0.2824 -0.0658  0.7583
 5008SOL     OW26485   1.077   0.672   5.777 -0.4678  0.0512  0.2116
 5008SOL    HW126486   1.082   0.723   5.858  0.8088  0.5018 -0.1487
 5008SOL    HW226487   1.000   0.713   5.738 -1.1601 -0.1713  1.3573
 5009SOL     OW26488   2.554   1.347   1.907  0.0592  0.2305 -0.1112
 5009SOL    HW126489   2.623   1.349   1.841  2.2718  1.0094  2.2047
 5009SOL    HW226490   2.586   1.273   1.959  2.5782 -0.3502 -2.5081
 5010SOL     OW26491   1.834   2.800   5.500  0.2877  0.1814 -0.3230
 5010SOL    HW126492   1.760   2.757   5.542  0.2965 -0.7763 -1.3098
 5010SOL    HW226493   1.800   2.890   5.499 -1.2418 -0.4228 -1.5672
 5011SOL     OW26494   0.068   2.485   3.019  0.1834  0.1554  0.1790
 5011SOL    HW126495   0.087   2.567   3.066 -3.1046  0.6157  0.6797
 5011SOL    HW226496   0.146   2.466   2.967  0.1822 -1.3737  0.7302
 5012SOL     OW26497   0.156   3.431  11.888  0.1704 -0.0349  0.2296
 5012SOL    HW126498   0.136   3.442  11.980  0.7253 -2.0232  0.5826
 5012SOL    HW226499   0.201   3.514  11.873 -0.7450  0.3717 -0.2858
 5013SOL     OW26500   3.588   0.765  10.260  0.1410 -0.3343 -0.2517
 5013SOL    HW126501   3.638   0.686  10.280  0.6660  0.7697  2.7618
 5013SOL    HW226502   3.608   0.822  10.334 -0.6002 -0.9312  0.4050
 5014SOL     OW26503   1.264   0.357   2.649 -0.7419 -0.4777  0.1085
 5014SOL    HW126504   1.320   0.279   2.645  0.6690  0.4286  2.0506
 5014SOL    HW226505   1.265   0.378   2.556 -0.5732  1.0322  0.4472
 5015SOL     OW26506   0.856   2.921   9.492  0.1077 -0.3119 -0.2841
 5015SOL    HW126507   0.930   2.981   9.505 -0.6650  0.8001 -1.0638
 5015SOL    HW226508   0.899   2.836   9.494  1.3186  0.2935 -0.5184
 5016SOL     OW26509   0.304   4.474   0.570 -0.1681  0.2188  0.0537
 5016SOL    HW126510   0.358   4.553   0.568  1.0567 -0.6368 -0.4218
 5016SOL    HW226511   0.321   4.446   0.661 -1.2615 -0.0920  0.1614
 5017SOL     OW26512   2.914   3.081   6.116  0.0985 -0.2465 -0.7767
 5017SOL    HW126513   2.996   3.049   6.077 -0.0685 -1.2863 -0.2664
 5017SOL    HW226514   2.888   2.999   6.157  2.6515 -1.6935 -2.0613
 5018SOL     OW26515   3.922   3.214   7.783  0.0673 -0.3689 -0.1902
 5018SOL    HW126516   3.845   3.217   7.840  0.8095  0.3299  0.7720
 5018SOL    HW226517   3.943   3.121   7.781  0.2381 -0.3445  0.4487
 5019SOL     OW26518   1.883   0.754   5.581 -0.5512 -0.6876 -0.4178
 5019SOL    HW126519   1.910   0.812   5.511 -0.0910 -0.2561  0.1179
 5019SOL    HW226520   1.800   0.721   5.547 -0.9336 -1.2350  1.0479
 5020SOL     OW26521   3.190   3.596   7.393  0.2883  0.2952  0.2502
 5020SOL    HW126522   3.187   3.573   7.300 -0.7447 -0.7848  0.5457
 5020SOL    HW226523   3.201   3.509   7.433  1.0690  0.7434  0.9954
 5021SOL     OW26524   3.752   3.721   7.605 -0.4062  0.1517 -0.2320
 5021SOL    HW126525   3.751   3.655   7.535  2.5317  1.4759 -1.5412
 5021SOL    HW226526   3.789   3.681   7.683 -0.8479  0.0925 -0.0509
 5022SOL     OW26527   2.240   4.477  10.947 -0.5058 -0.2623  0.0303
 5022SOL    HW126528   2.187   4.556  10.957  1.7076  1.1655  0.4936
 5022SOL    HW226529   2.316   4.504  10.896  0.1164 -0.1916  0.9848
 5023SOL     OW26530   1.192   2.908   5.381 -0.2990  0.1246  0.1917
 5023SOL    HW126531   1.230   2.980   5.329  0.1835  0.0313  0.4201
 5023SOL    HW226532   1.098   2.923   5.374 -0.5470 -2.0508 -1.2338
 5024SOL     OW26533   1.807   4.063   8.600  0.4357  0.1485  0.1559
 5024SOL    HW126534   1.819   4.089   8.691 -0.9470  0.7546  0.1678
 5024SOL    HW226535   1.758   4.139   8.568  1.0374  0.2026 -0.6375
 5025SOL     OW26536   4.223   1.970   6.575  0.9361  0.0274 -0.3049
 5025SOL    HW126537   4.267   2.015   6.648 -1.2332  2.1220 -0.2981
 5025SOL    HW226538   4.189   1.892   6.621  1.4011 -0.2111 -0.3634
 5026SOL     OW26539   3.353   3.624  11.221 -0.1987  0.1609  0.4912
 5026SOL    HW126540   3.313   3.537  11.220  0.0136  0.0581  0.9645
 5026SOL    HW226541   3.341   3.637  11.126  1.2703 -0.8502  0.1589
 5027SOL     OW26542   4.157   2.979   5.258  0.1752 -0.7534  0.3602
 5027SOL    HW126543   4.219   2.938   5.197  1.8549 -1.7002  2.6700
 5027SOL    HW226544   4.136   2.895   5.298  0.6504 -1.3327 -0.6011
 5028SOL     OW26545   0.999   0.018   7.487 -0.1479  0.2307 -0.1259
 5028SOL    HW126546   1.049   0.061   7.418  0.5859 -0.4963 -0.0343
 5028SOL    HW226547   1.063   4.686   7.522  0.0219  1.5010  1.7944
 5029SOL     OW26548   0.059   4.454   6.239  0.2013 -0.1397 -0.1427
 5029SOL    HW126549   0.028   4.364   6.247  1.7812 -0.6207  0.4530
 5029SOL    HW226550   4.717   4.489   6.184 -0.0329 -1.3160 -0.6031
 5030SOL     OW26551   0.081   4.387   3.214 -0.4986 -0.2385 -0.0134
 5030SOL    HW126552   0.112   4.354   3.130 -1.3100 -1.0066 -0.0018
 5030SOL    HW226553   4.718   4.405   3.196  0.5693  0.4424 -4.6851
 5031SOL     OW26554   2.588   0.471   3.791 -0.1523  0.0562 -0.0771
 5031SOL    HW126555   2.614   0.562   3.799  0.1139 -0.0009 -0.3012
 5031SOL    HW226556   2.645   0.446   3.718  0.5203 -0.8662  0.7690
 5032SOL     OW26557   0.194   2.545   0.277 -0.2935 -0.1801  0.7437
 5032SOL    HW126558   0.167   2.606   0.209 -0.8032  0.4356  1.4902
 5032SOL    HW226559   0.178   2.608   0.348 -0.9512  2.6012 -1.8941
 5033SOL     OW26560   1.902   0.470  11.502  0.2145  0.6001 -0.3690
 5033SOL    HW126561   1.820   0.474  11.551  0.5108 -1.7411  0.2885
 5033SOL    HW226562   1.882   0.407  11.433  2.5491  0.8438 -1.2667
 5034SOL     OW26563   0.445   0.881   2.698  0.1066  0.0097 -0.5272
 5034SOL    HW126564   0.426   0.829   2.619  1.3024  0.8379 -1.3448
 5034SOL    HW226565   0.539   0.869   2.700  0.1776  0.6237 -0.2525
 5035SOL     OW26566   1.577   4.491  10.323 -0.5021 -0.4967  0.1747
 5035SOL    HW126567   1.577   4.571  10.375  0.0157 -1.0954  1.1080
 5035SOL    HW226568   1.602   4.528  10.239  1.3539  0.8775  1.3293
 5036SOL     OW26569   0.174   4.688   2.660 -0.1371 -0.6699 -0.2468
 5036SOL    HW126570   0.145   0.050   2.656  0.6349 -0.4154 -0.0487
 5036SOL    HW226571   0.230   4.692   2.582 -0.6669 -2.0212 -0.7051
 5037SOL     OW26572   0.090   1.044   0.473  0.2726 -0.2350 -0.3420
 5037SOL    HW126573   0.149   1.106   0.430  1.1987 -0.0350  1.2251
 5037SOL    HW226574   0.022   1.030   0.407 -0.6125 -0.3156  0.5972
 5038SOL     OW26575   4.681   4.099   8.060  0.0169  0.1071 -0.3635
 5038SOL    HW126576   4.722   4.184   8.049 -0.4747  0.5316  1.0302
 5038SOL    HW226577   4.711   4.054   7.981 -1.4214 -0.8383 -0.3808
 5039SOL     OW26578   0.294   3.391   4.912  0.1104 -0.5944 -0.0635
 5039SOL    HW126579   0.252   3.411   4.828  0.9250  2.1739  0.1795
 5039SOL    HW226580   0.377   3.346   4.896  0.7516  0.9121 -0.9724
 5040SOL     OW26581   4.695   2.029   9.278  0.1215  0.1049  0.0853
 5040SOL    HW126582   4.696   2.079   9.360 -2.3543 -0.4343  0.4289
 5040SOL    HW226583   4.625   2.074   9.231 -0.1369 -1.0905 -0.6600
 5041SOL     OW26584   0.062   3.079   8.008  0.2289  0.2400 -0.0347
 5041SOL    HW126585   0.122   3.153   8.001 -0.6785  0.7953 -1.9148
 5041SOL    HW226586   0.001   3.099   7.937 -0.2932  1.1684  0.6849
 5042SOL     OW26587   3.950   0.751   9.428  0.8733  0.6109  0.0216
 5042SOL    HW126588   4.015   0.786   9.367  1.4001 -3.5260 -1.8300
 5042SOL    HW226589   3.937   0.817   9.496  2.7464  1.0386 -0.0542
 5043SOL     OW26590   3.152   2.234  17.056  0.5651 -0.4656  0.3168
 5043SOL    HW126591   3.181   2.160  17.110 -2.2720 -2.0791 -0.3428
 5043SOL    HW226592   3.073   2.267  17.099 -0.1567  0.9303 -2.1162
 5044SOL     OW26593   1.710   0.103   2.898  0.4006  0.9458 -0.1701
 5044SOL    HW126594   1.692   0.169   2.831 -2.0207  2.1982  1.6897
 5044SOL    HW226595   1.702   0.150   2.982  2.9018  0.4511  0.3294
 5045SOL     OW26596   1.506   1.920   8.965 -0.0026  0.5755  0.0158
 5045SOL    HW126597   1.486   1.910   8.871  3.8737  1.0428 -0.8498
 5045SOL    HW226598   1.600   1.920   8.981  0.1402  0.6272 -0.8053
 5046SOL     OW26599   4.324   0.190   4.558 -0.3571  0.3789 -0.4313
 5046SOL    HW126600   4.266   0.245   4.610 -0.6369 -1.2782  0.9881
 5046SOL    HW226601   4.342   0.131   4.631 -0.5364  1.6220  0.6272
 5047SOL     OW26602   1.008   0.380   3.136  0.5271  0.2909 -0.2527
 5047SOL    HW126603   1.054   0.332   3.205  0.8700  0.4766 -0.3549
 5047SOL    HW226604   1.016   0.326   3.058  0.6829  2.9870 -2.0929
 5048SOL     OW26605   3.907   0.437   4.556 -0.0495  0.0562 -0.1252
 5048SOL    HW126606   3.936   0.365   4.500 -1.6171 -0.2126 -0.6028
 5048SOL    HW226607   3.985   0.492   4.562  0.3807 -0.4332 -1.2500
 5049SOL     OW26608   3.126   2.227   9.311  0.1572 -0.1258 -0.2531
 5049SOL    HW126609   3.056   2.176   9.271 -0.6778 -1.0200  2.3221
 5049SOL    HW226610   3.149   2.168   9.383  0.3888  0.3903  0.1033
 5050SOL     OW26611   1.680   0.443   2.236 -0.5426  0.2823  0.3794
 5050SOL    HW126612   1.611   0.473   2.177 -1.3002 -0.7920  0.7177
 5050SOL    HW226613   1.709   0.368   2.184 -0.0215  1.1473 -0.5596
 5051SOL     OW26614   3.070   1.948   4.310 -0.4104 -0.0061  0.0560
 5051SOL    HW126615   3.089   1.865   4.354  2.6615  0.6261 -0.0832
 5051SOL    HW226616   2.984   1.935   4.270  0.3315  1.2378 -1.9358
 5052SOL     OW26617   3.676   2.791   7.633  0.0590  0.2734  0.4962
 5052SOL    HW126618   3.702   2.873   7.592  0.4022 -0.5649 -0.9829
 5052SOL    HW226619   3.626   2.823   7.708 -1.1606 -0.5523  0.0515
 5053SOL     OW26620   2.074   0.979  15.606 -0.5840  0.0367 -0.6331
 5053SOL    HW126621   2.134   1.036  15.558 -1.6363  2.3878  0.8910
 5053SOL    HW226622   2.004   0.979  15.540 -0.1680 -3.0986 -1.0842
 5054SOL     OW26623   2.262   4.155   1.032 -0.2235 -0.0439  0.0241
 5054SOL    HW126624   2.321   4.195   1.095 -0.0045  0.2546 -0.3681
 5054SOL    HW226625   2.309   4.182   0.953  0.6416  0.1233  0.5947
 5055SOL     OW26626   1.030   1.286   8.728  0.1100  0.5497  0.3775
 5055SOL    HW126627   1.109   1.255   8.685 -1.1467 -2.4771  0.2901
 5055SOL    HW226628   1.037   1.381   8.719 -2.3993  0.6729 -0.3087
 5056SOL     OW26629   3.354   1.789   7.113 -0.1679  0.3428 -0.1321
 5056SOL    HW126630   3.381   1.734   7.187  2.5714  0.7130 -0.8358
 5056SOL    HW226631   3.406   1.867   7.132  0.0905  0.1172  0.0965
 5057SOL     OW26632   3.445   3.940   6.850 -0.1056 -0.5186 -0.3790
 5057SOL    HW126633   3.391   4.007   6.892 -0.6580 -1.5054  0.4723
 5057SOL    HW226634   3.466   3.877   6.918 -1.1937  0.7667  1.1637
 5058SOL     OW26635   0.978   3.905   8.983 -0.0604  0.5206  0.4669
 5058SOL    HW126636   0.982   3.809   8.987 -0.3043  0.5404  1.2498
 5058SOL    HW226637   0.970   3.926   9.076  2.2419  2.3378  0.2392
 5059SOL     OW26638   4.081   2.337   6.648  0.3029  0.0834  0.5882
 5059SOL    HW126639   4.174   2.356   6.654  0.0433  0.7765  2.6922
 5059SOL    HW226640   4.072   2.348   6.554 -0.3088 -1.5740  0.4628
 5060SOL     OW26641   3.334   0.815   6.687  0.1185 -0.6736  0.0905
 5060SOL    HW126642   3.287   0.773   6.615  1.0287  1.0256 -1.4755
 5060SOL    HW226643   3.364   0.896   6.645 -1.5347  0.2931  0.7744
 5061SOL     OW26644   2.275   0.378   6.847 -0.6481  0.0360 -0.8760
 5061SOL    HW126645   2.296   0.302   6.793  0.5387  0.5734 -1.1688
 5061SOL    HW226646   2.203   0.422   6.802 -1.3623  0.2741  0.4805
 5062SOL     OW26647   3.488   0.091   1.927 -1.1096 -0.2276 -0.5232
 5062SOL    HW126648   3.548   0.027   1.887 -1.7939 -1.1378 -0.0915
 5062SOL    HW226649   3.506   0.080   2.020  4.8889  0.3537 -1.6074
 5063SOL     OW26650   3.801   0.548   7.785  0.1682 -0.0717 -0.4520
 5063SOL    HW126651   3.736   0.596   7.734 -0.5842 -1.0108 -0.3849
 5063SOL    HW226652   3.752   0.528   7.865 -1.3292  0.8202 -1.1482
 5064SOL     OW26653   4.157   2.968   2.663 -0.1265 -0.6916  0.1835
 5064SOL    HW126654   4.210   2.888   2.655 -0.1378 -0.6182 -0.5910
 5064SOL    HW226655   4.130   2.968   2.755  0.1708  1.9474  0.2746
 5065SOL     OW26656   0.298   3.284   4.486  0.1568  0.2268  0.2090
 5065SOL    HW126657   0.231   3.280   4.555  0.1508  1.5596  0.2933
 5065SOL    HW226658   0.369   3.241   4.534 -1.1842 -2.2408 -0.0727
 5066SOL     OW26659   1.529   3.150   4.591 -0.3367  0.7928 -0.1414
 5066SOL    HW126660   1.447   3.117   4.553  1.5154 -3.3009 -0.6045
 5066SOL    HW226661   1.524   3.104   4.674 -0.9745 -0.0126 -0.6192
 5067SOL     OW26662   3.713   3.702   2.741 -0.4939  0.4665  0.3098
 5067SOL    HW126663   3.700   3.675   2.832 -2.7004  0.3410 -0.0225
 5067SOL    HW226664   3.774   3.775   2.747  1.4889 -1.3358  1.8360
 5068SOL     OW26665   0.716   2.791   1.933  0.4764 -0.5103  0.5874
 5068SOL    HW126666   0.635   2.750   1.902  1.4892 -1.6723 -0.5599
 5068SOL    HW226667   0.694   2.848   2.006 -1.4446  1.6867 -1.7109
 5069SOL     OW26668   1.140   3.286   9.060 -0.0840 -0.1410 -0.1514
 5069SOL    HW126669   1.149   3.320   9.149 -0.5485  0.4398 -0.3279
 5069SOL    HW226670   1.048   3.307   9.043  0.4358  1.2877 -1.1329
 5070SOL     OW26671   2.617   3.241   4.027  0.1729 -0.3582 -0.2069
 5070SOL    HW126672   2.681   3.285   3.971 -0.4889  1.0720  0.1793
 5070SOL    HW226673   2.558   3.189   3.973 -0.0616  0.4010 -0.6742
 5071SOL     OW26674   2.065   1.379  17.618 -0.0039  0.3203  0.3917
 5071SOL    HW126675   2.102   1.326  17.688  1.3055  1.2551  0.4110
 5071SOL    HW226676   1.972   1.364  17.633  0.1107 -0.5272  0.2254
 5072SOL     OW26677   3.994   2.014  16.535 -0.2591 -0.1637  0.2940
 5072SOL    HW126678   4.027   1.948  16.474  0.0174  0.3134 -0.0784
 5072SOL    HW226679   3.916   1.967  16.565 -0.2865 -0.5381 -0.3699
 5073SOL     OW26680   0.430   4.457   2.872  0.1688 -0.5579  0.4448
 5073SOL    HW126681   0.439   4.390   2.939 -1.8226 -2.6951 -1.4360
 5073SOL    HW226682   0.447   4.420   2.785 -0.9913 -1.6354  0.6939
 5074SOL     OW26683   1.434   3.244   8.605 -0.3494 -0.4185  0.2903
 5074SOL    HW126684   1.424   3.159   8.650  0.0881 -1.1347 -0.9813
 5074SOL    HW226685   1.349   3.283   8.625  0.6432  1.9693 -0.2054
 5075SOL     OW26686   0.748   1.113  11.457  0.7899  0.4262 -0.0370
 5075SOL    HW126687   0.739   1.051  11.385 -0.1739 -0.6821  1.0289
 5075SOL    HW226688   0.823   1.076  11.504  1.7450  0.3900 -1.6160
 5076SOL     OW26689   3.615   4.164  17.527  0.3102  0.3665  0.2710
 5076SOL    HW126690   3.663   4.144  17.446  1.2759 -0.8616  1.1421
 5076SOL    HW226691   3.672   4.237  17.552  0.9837  0.4436 -1.4849
 5077SOL     OW26692   2.353   2.783   1.215  0.1912  0.0987  0.3464
 5077SOL    HW126693   2.306   2.860   1.181  1.4795  1.0388  0.6861
 5077SOL    HW226694   2.286   2.715   1.210 -0.0624  0.3766 -0.0126
 5078SOL     OW26695   1.917   0.841   5.086  0.3249 -0.1818  0.1669
 5078SOL    HW126696   2.009   0.822   5.071  0.1439 -0.3723 -0.6545
 5078SOL    HW226697   1.880   0.853   4.999  0.1069  1.9076  0.5268
 5079SOL     OW26698   3.123   1.368   9.174 -0.0001 -0.2967 -0.0118
 5079SOL    HW126699   3.136   1.304   9.104 -0.5408  1.3770 -1.6519
 5079SOL    HW226700   3.035   1.400   9.156  1.2232  2.6391 -0.7651
 5080SOL     OW26701   3.450   3.714   5.898  0.3906  0.1419 -0.3049
 5080SOL    HW126702   3.356   3.716   5.879  0.6252  0.7488 -1.4279
 5080SOL    HW226703   3.455   3.662   5.978  0.6436 -0.9175 -1.0129
 5081SOL     OW26704   4.028   3.952  14.244  0.3032 -0.2105  0.6673
 5081SOL    HW126705   3.938   3.927  14.223  0.1529 -0.3292  1.4370
 5081SOL    HW226706   4.045   4.014  14.174  1.9367  0.6582  1.8438
 5082SOL     OW26707   4.712   4.020  14.010 -0.2430  0.1047 -0.3933
 5082SOL    HW126708   4.728   4.081  13.938 -1.4892  1.2211  0.2911
 5082SOL    HW226709   0.007   4.080  14.080 -1.5328  0.7391 -0.5168
 5083SOL     OW26710   4.053   1.808  16.089 -0.3779 -0.3010  0.4683
 5083SOL    HW126711   4.080   1.871  16.023 -1.2178 -0.7174 -0.2818
 5083SOL    HW226712   4.033   1.734  16.031  0.7670 -0.7572  0.6655
 5084SOL     OW26713   2.839   1.254   8.115 -0.9344 -0.2168  0.8216
 5084SOL    HW126714   2.758   1.232   8.069  0.6192 -2.1622 -1.0165
 5084SOL    HW226715   2.821   1.205   8.196 -3.8728  1.3430  1.1225
 5085SOL     OW26716   0.404   3.569   4.508  0.0340  0.1414  0.5410
 5085SOL    HW126717   0.361   3.485   4.490 -2.0183  1.4618 -0.6775
 5085SOL    HW226718   0.328   3.623   4.489 -0.6124 -1.5469 -1.7351
 5086SOL     OW26719   1.674   0.882   0.929  0.3138 -0.4268  0.6868
 5086SOL    HW126720   1.650   0.814   0.992  0.5928 -0.7286  0.4707
 5086SOL    HW226721   1.655   0.963   0.976 -0.9487 -0.8456  0.8924
 5087SOL     OW26722   3.889   4.101   8.273  0.1230 -0.0652  0.1915
 5087SOL    HW126723   3.823   4.045   8.314  0.9232 -1.5960 -0.6434
 5087SOL    HW226724   3.857   4.114   8.184 -3.4068  1.3999  1.6768
 5088SOL     OW26725   3.046   4.077  17.146  0.0752 -0.2076  0.7119
 5088SOL    HW126726   3.013   3.991  17.119  0.3502  0.3418 -1.4024
 5088SOL    HW226727   3.108   4.103  17.078  0.4744 -1.8918  0.4215
 5089SOL     OW26728   2.676   1.891   8.036  0.3160  0.3209 -0.2070
 5089SOL    HW126729   2.739   1.849   7.977 -0.5316 -0.2138 -0.7388
 5089SOL    HW226730   2.712   1.848   8.114  0.6146  0.3495 -0.3284
 5090SOL     OW26731   0.218   2.114   9.208 -0.4341 -0.0338  0.0822
 5090SOL    HW126732   0.187   2.199   9.177  0.5847  0.1306 -0.4685
 5090SOL    HW226733   0.137   2.072   9.239  0.1717  0.1574  1.9344
 5091SOL     OW26734   4.717   1.321   2.428 -0.4833  0.3161 -0.0783
 5091SOL    HW126735   0.046   1.391   2.459  0.2502  0.3818 -1.6315
 5091SOL    HW226736   4.651   1.369   2.379  0.0215  1.0424 -0.0582
 5092SOL     OW26737   0.282   4.693  15.844  0.2073 -0.0752 -0.0769
 5092SOL    HW126738   0.194   4.669  15.814  0.9000  0.8568 -2.8849
 5092SOL    HW226739   0.306   4.620  15.900  3.7659  1.2089  0.0290
 5093SOL     OW26740   4.409   4.153   5.478 -0.4265  0.2166 -0.0094
 5093SOL    HW126741   4.435   4.118   5.563  1.2664 -1.3211 -1.1517
 5093SOL    HW226742   4.491   4.136   5.430 -0.7671 -0.7265 -0.2620
 5094SOL     OW26743   1.157   1.579  12.481  0.2147  0.4873  0.3905
 5094SOL    HW126744   1.231   1.563  12.539  2.2435 -0.0964 -2.3480
 5094SOL    HW226745   1.097   1.505  12.490  0.5484  0.0382 -1.0713
 5095SOL     OW26746   0.873   0.590   3.535 -0.3269 -0.3576  0.3671
 5095SOL    HW126747   0.947   0.581   3.595  0.6652  0.3351 -0.7615
 5095SOL    HW226748   0.909   0.585   3.447  2.7742 -0.0478  1.6104
 5096SOL     OW26749   1.227   3.727   4.645  0.0931  0.1543 -0.4228
 5096SOL    HW126750   1.158   3.666   4.620 -0.9875  0.8866  0.7436
 5096SOL    HW226751   1.187   3.762   4.725 -0.7177 -0.2921 -0.6242
 5097SOL     OW26752   3.737   3.247   5.927 -0.2040  0.3603  0.5805
 5097SOL    HW126753   3.717   3.319   5.987  2.8549  0.9570  0.8793
 5097SOL    HW226754   3.666   3.186   5.947  0.1193 -0.4786 -0.8176
 5098SOL     OW26755   1.499   0.100   5.765  0.1664 -0.4256  0.0169
 5098SOL    HW126756   1.423   0.061   5.809 -1.1799  0.2144 -1.7736
 5098SOL    HW226757   1.540   0.155   5.832  1.0186  0.6443 -1.3727
 5099SOL     OW26758   1.613   0.226   4.417  0.2100 -0.8527 -0.0919
 5099SOL    HW126759   1.695   0.178   4.401  2.0730  1.6885  1.8402
 5099SOL    HW226760   1.620   0.251   4.509  0.4488 -1.1046 -0.0409
 5100SOL     OW26761   3.561   2.653  11.740  0.5079  0.5545  0.2216
 5100SOL    HW126762   3.638   2.656  11.683 -0.5536 -0.5847 -1.2687
 5100SOL    HW226763   3.594   2.593  11.807  0.7910  0.2929 -0.1537
 5101SOL     OW26764   4.065   2.956   3.275 -0.0529 -0.0832 -0.4337
 5101SOL    HW126765   4.054   3.052   3.274 -2.5029 -0.3554  1.8064
 5101SOL    HW226766   4.159   2.952   3.293 -0.1917 -0.4447  0.1738
 5102SOL     OW26767   0.016   4.513   3.437 -0.4565 -0.2530  0.1869
 5102SOL    HW126768   0.103   4.533   3.472 -0.5893 -0.6753  0.7604
 5102SOL    HW226769   0.049   4.467   3.360 -0.1785  2.9941 -1.6295
 5103SOL     OW26770   0.037   0.886   7.758 -1.0112 -0.2112  0.4060
 5103SOL    HW126771   0.006   0.965   7.802 -0.5797 -0.1870  0.6576
 5103SOL    HW226772   4.711   0.819   7.799  1.3951 -2.1727  0.3909
 5104SOL     OW26773   2.485   3.827   3.182 -0.1504 -0.6455 -0.2909
 5104SOL    HW126774   2.467   3.837   3.088 -1.5618 -2.3545 -0.2105
 5104SOL    HW226775   2.580   3.836   3.185 -0.2011 -0.2043 -0.1169
 5105SOL     OW26776   3.893   2.030  11.085 -0.5834  0.5846 -0.1906
 5105SOL    HW126777   3.977   2.072  11.102  0.5047 -1.2413 -1.0238
 5105SOL    HW226778   3.914   1.990  11.001  0.7476  0.7465  0.0722
 5106SOL     OW26779   0.292   0.090  12.561 -0.0676 -0.0647  0.8472
 5106SOL    HW126780   0.332   0.068  12.477  0.6518 -2.4543  1.8020
 5106SOL    HW226781   0.314   0.008  12.606  0.4044  0.8238  2.2380
 5107SOL     OW26782   0.294   3.496   3.841  0.0467  1.0383 -0.0066
 5107SOL    HW126783   0.309   3.459   3.928  0.0918  0.4318 -0.2687
 5107SOL    HW226784   0.253   3.578   3.869 -0.7268  0.4339  0.6390
 5108SOL     OW26785   1.125   0.889   4.041 -0.4315 -0.1989  0.0693
 5108SOL    HW126786   1.084   0.873   4.126  2.1813 -0.6990  1.2539
 5108SOL    HW226787   1.166   0.803   4.028  1.2775  0.6944 -0.3970
 5109SOL     OW26788   1.441   2.202   1.582  0.0492  0.1182  0.1596
 5109SOL    HW126789   1.456   2.124   1.528 -0.2392 -0.9690  1.6097
 5109SOL    HW226790   1.345   2.200   1.587  0.0524  0.1015  0.2231
 5110SOL     OW26791   0.242   4.558   1.117  0.3915  0.0703  0.1627
 5110SOL    HW126792   0.291   4.534   1.039  0.2567 -1.9682  0.7142
 5110SOL    HW226793   0.213   4.644   1.086 -4.0690 -0.8217  1.8277
 5111SOL     OW26794   0.988   3.037   5.694  0.0622  0.1155 -0.1491
 5111SOL    HW126795   1.007   3.107   5.757  0.5788  0.3002 -0.5082
 5111SOL    HW226796   0.970   2.963   5.752  1.5674  1.0512  1.5412
 5112SOL     OW26797   2.603   1.540   0.075  0.6780  0.1511 -0.0906
 5112SOL    HW126798   2.539   1.522   0.145 -0.0599  0.6771 -0.6376
 5112SOL    HW226799   2.661   1.594   0.129  1.1115  0.2589 -0.6706
 5113SOL     OW26800   1.212   1.647   6.081  0.0293 -0.1289  0.1346
 5113SOL    HW126801   1.189   1.739   6.071 -1.3771 -0.2168  2.5758
 5113SOL    HW226802   1.126   1.606   6.091  1.0383 -2.5661 -1.1659
 5114SOL     OW26803   2.543   1.289   5.656  0.1849 -0.4264 -0.5813
 5114SOL    HW126804   2.502   1.370   5.688  0.2827  0.2639 -2.1810
 5114SOL    HW226805   2.547   1.303   5.561  1.1439  0.9378 -0.3486
 5115SOL     OW26806   4.549   3.542   0.468  0.4816  0.3182  0.0607
 5115SOL    HW126807   4.613   3.528   0.537  0.6822 -0.6126 -0.3080
 5115SOL    HW226808   4.594   3.594   0.402  2.3186 -1.8739 -0.3972
 5116SOL     OW26809   4.554   3.393  16.572  0.4331 -0.1343  0.1863
 5116SOL    HW126810   4.564   3.299  16.557  1.5214  0.1012 -0.5250
 5116SOL    HW226811   4.460   3.411  16.573  0.5623  0.5113  2.1969
 5117SOL     OW26812   2.858   0.800   9.416 -0.2144 -0.2556  0.8281
 5117SOL    HW126813   2.843   0.718   9.463 -0.4684 -1.3157 -1.1344
 5117SOL    HW226814   2.951   0.786   9.395 -0.0610  0.8914  0.7465
 5118SOL     OW26815   1.980   0.239   4.242  0.2642 -0.1872 -0.1954
 5118SOL    HW126816   1.913   0.293   4.200 -0.7734 -0.7355  0.7283
 5118SOL    HW226817   2.025   0.311   4.286  1.2438  1.0121 -3.2164
 5119SOL     OW26818   2.245   1.929   8.171  0.1285 -0.8945  0.1012
 5119SOL    HW126819   2.197   1.847   8.160 -1.3080 -0.0133 -0.1638
 5119SOL    HW226820   2.313   1.914   8.106 -1.4760 -0.4622 -1.6755
 5120SOL     OW26821   0.474   2.172   6.798  0.2958  0.5160 -0.0891
 5120SOL    HW126822   0.531   2.108   6.756  3.4518  2.2834  1.4809
 5120SOL    HW226823   0.519   2.248   6.762  2.1412 -0.4849  0.0848
 5121SOL     OW26824   3.507   4.487  15.886  0.5847 -0.0302 -0.6597
 5121SOL    HW126825   3.558   4.509  15.808  2.1298 -0.8770  0.1088
 5121SOL    HW226826   3.496   4.393  15.871 -1.0125  0.2791 -1.4433
 5122SOL     OW26827   2.355   1.520  13.798 -0.3944  0.1080 -0.3208
 5122SOL    HW126828   2.293   1.555  13.862 -0.8984 -2.9497  0.8807
 5122SOL    HW226829   2.295   1.478  13.737  1.6417 -1.1105 -1.5053
 5123SOL     OW26830   3.751   2.646   3.592  0.4655  0.1715  0.3322
 5123SOL    HW126831   3.841   2.657   3.561  0.2028  2.5240  0.4802
 5123SOL    HW226832   3.757   2.577   3.659  1.7698 -0.6946 -0.6830
 5124SOL     OW26833   4.067   0.107   7.666  0.0481  0.1153  0.2074
 5124SOL    HW126834   4.053   0.132   7.757  0.0684  1.3361 -0.1257
 5124SOL    HW226835   3.997   0.043   7.651  0.3340  0.0322 -0.7455
 5125SOL     OW26836   1.508   0.783   4.617 -0.6576  0.1952 -0.0886
 5125SOL    HW126837   1.579   0.825   4.568  0.6089 -2.2547 -0.3278
 5125SOL    HW226838   1.435   0.825   4.570  0.5391  1.3543 -0.9190
 5126SOL     OW26839   1.981   1.881   9.551 -0.3135  0.2955  0.9695
 5126SOL    HW126840   1.972   1.858   9.458  0.8097  0.1584  0.9016
 5126SOL    HW226841   1.976   1.976   9.542  0.1541  0.2897  0.6363
 5127SOL     OW26842   1.095   3.994   0.223  0.0769  0.3295 -0.1130
 5127SOL    HW126843   1.129   4.027   0.306  1.4097 -0.5957 -0.2889
 5127SOL    HW226844   1.143   3.911   0.219  0.4352  0.5319  0.1004
 5128SOL     OW26845   3.800   2.898   8.329  0.0637 -0.1683  0.4312
 5128SOL    HW126846   3.726   2.948   8.362  1.2546  1.2382  0.9601
 5128SOL    HW226847   3.764   2.810   8.345 -0.1577 -0.1392  0.0697
 5129SOL     OW26848   0.268   2.764  16.936 -0.2457  0.1260 -0.0278
 5129SOL    HW126849   0.183   2.748  16.897  0.9204  0.2285 -2.5992
 5129SOL    HW226850   0.245   2.843  16.985  0.5271 -0.1203  0.7287
 5130SOL     OW26851   1.260   4.579   7.502 -0.0791 -0.0569  0.4362
 5130SOL    HW126852   1.330   4.615   7.447  0.8511 -0.3972  1.4012
 5130SOL    HW226853   1.289   4.594   7.592  3.6205  0.6112 -0.8484
 5131SOL     OW26854   4.203   0.816   3.259  0.2221 -0.1034 -0.7775
 5131SOL    HW126855   4.157   0.755   3.201 -1.0542  1.1540 -1.0731
 5131SOL    HW226856   4.273   0.852   3.204  0.4043  1.3088  0.3881
 5132SOL     OW26857   3.730   3.172  15.124  0.0744 -0.4403  0.5441
 5132SOL    HW126858   3.644   3.155  15.085 -0.5816 -0.9264  2.2469
 5132SOL    HW226859   3.720   3.131  15.209  1.2275 -0.8793  0.4624
 5133SOL     OW26860   3.571   4.713   5.246  0.0934  0.0269 -0.3924
 5133SOL    HW126861   3.580   0.052   5.313 -0.6492  0.0236 -0.2893
 5133SOL    HW226862   3.515   0.032   5.185  0.9067  0.1520 -1.0431
 5134SOL     OW26863   1.555   2.084   2.304  0.1065  0.1320 -0.0704
 5134SOL    HW126864   1.596   2.125   2.228 -1.2354 -0.5046 -1.1505
 5134SOL    HW226865   1.538   2.168   2.348 -0.0429  0.0014  0.1232
 5135SOL     OW26866   1.947   1.161  11.239  0.8292 -0.6398  0.3582
 5135SOL    HW126867   1.867   1.123  11.204  0.2683  0.9252 -0.0830
 5135SOL    HW226868   1.956   1.111  11.320 -0.2375 -0.8684  0.3291
 5136SOL     OW26869   2.296   1.745   3.112  0.5696 -0.2232  0.3460
 5136SOL    HW126870   2.201   1.739   3.111  0.7812 -3.8241  0.0089
 5136SOL    HW226871   2.313   1.822   3.058 -2.1733  0.0190 -0.1374
 5137SOL     OW26872   1.734   1.201   8.561 -0.1310  0.0138 -0.0272
 5137SOL    HW126873   1.747   1.293   8.537  0.1637 -0.3047 -1.0719
 5137SOL    HW226874   1.732   1.213   8.656 -0.4318 -1.1204  0.1116
 5138SOL     OW26875   4.256   0.530   8.907  0.5581 -0.1434  0.1670
 5138SOL    HW126876   4.221   0.573   8.829  1.0605  2.3595  1.3189
 5138SOL    HW226877   4.346   0.509   8.884 -0.8569 -2.7133 -3.0470
 5139SOL     OW26878   2.816   2.174   7.041  0.0051 -0.5097 -0.4022
 5139SOL    HW126879   2.843   2.146   6.953 -0.4614  0.8097 -0.9651
 5139SOL    HW226880   2.901   2.159   7.083 -1.0722 -0.8169  1.6670
 5140SOL     OW26881   0.106   4.106   2.726 -0.4182 -0.3575 -0.3225
 5140SOL    HW126882   0.048   4.167   2.771  0.1861  0.0559 -0.1057
 5140SOL    HW226883   0.174   4.101   2.794 -1.4491  0.6532  0.7877
 5141SOL     OW26884   2.091   0.511   1.943 -0.1367  0.4909 -0.2211
 5141SOL    HW126885   2.030   0.579   1.915 -1.1296 -0.4434 -0.3111
 5141SOL    HW226886   2.143   0.547   2.015  0.0721 -0.5238  0.1307
 5142SOL     OW26887   2.341   0.981   2.081 -0.3926 -0.6012  0.3687
 5142SOL    HW126888   2.430   0.971   2.049 -0.0660 -0.9177  1.3752
 5142SOL    HW226889   2.322   1.073   2.062 -1.0308 -0.9258 -0.5876
 5143SOL     OW26890   2.850   3.647   4.377 -0.5075 -0.5686 -0.1172
 5143SOL    HW126891   2.773   3.593   4.359 -0.9772 -0.0939  0.5065
 5143SOL    HW226892   2.919   3.614   4.319 -1.1443  0.6211 -1.5330
 5144SOL     OW26893   1.181   2.055   3.239  0.1898 -0.4304  0.3025
 5144SOL    HW126894   1.154   2.122   3.176  1.9898 -3.1293 -3.3296
 5144SOL    HW226895   1.206   1.992   3.172 -1.1737 -0.4331 -0.1877
 5145SOL     OW26896   2.853   2.520   5.386 -0.1628 -0.3749 -0.1920
 5145SOL    HW126897   2.819   2.454   5.325  1.0423 -1.1559 -0.0207
 5145SOL    HW226898   2.851   2.478   5.472  0.9856 -0.6785 -0.3044
 5146SOL     OW26899   3.097   2.266   2.738  0.2301 -0.1554  0.0314
 5146SOL    HW126900   3.051   2.289   2.818  1.3192  0.7259  0.3988
 5146SOL    HW226901   3.058   2.326   2.674  2.6048 -0.5796 -1.8279
 5147SOL     OW26902   0.284   1.776   3.618  0.1582 -0.4435  0.4338
 5147SOL    HW126903   0.339   1.829   3.560 -1.4239  1.2329  0.4663
 5147SOL    HW226904   0.271   1.699   3.562  0.8753  0.5376 -1.0883
 5148SOL     OW26905   3.362   0.434   8.614  0.9527  0.0266 -0.2637
 5148SOL    HW126906   3.455   0.438   8.594  0.9740 -0.3558 -0.2346
 5148SOL    HW226907   3.352   0.511   8.670  1.7071 -0.8467  1.0695
 5149SOL     OW26908   0.933   1.970   1.668 -0.0061  0.0303 -0.0337
 5149SOL    HW126909   0.908   1.879   1.684 -1.9674  0.2925 -1.5676
 5149SOL    HW226910   1.023   1.961   1.638  0.0270  1.7700 -0.5007
 5150SOL     OW26911   2.455   3.844   6.357  0.0381 -0.0635 -0.8671
 5150SOL    HW126912   2.428   3.916   6.300 -2.6697  1.8069  2.7155
 5150SOL    HW226913   2.549   3.863   6.361 -0.3478  1.6239  0.2994
 5151SOL     OW26914   1.878   2.656   3.831  0.3822  1.2229 -0.2449
 5151SOL    HW126915   1.834   2.726   3.879 -1.2374 -0.2976  0.5015
 5151SOL    HW226916   1.900   2.595   3.902  0.8471  0.1372 -1.3146
 5152SOL     OW26917   4.012   1.655   9.732 -0.4301  0.3833 -0.2751
 5152SOL    HW126918   3.921   1.648   9.761  0.1025 -1.7546  0.9295
 5152SOL    HW226919   4.004   1.680   9.641 -1.3260  0.0184 -0.2930
 5153SOL     OW26920   2.740   1.120   6.034  0.3998  0.0950 -0.1524
 5153SOL    HW126921   2.754   1.172   6.113 -0.7598  0.8775 -0.4478
 5153SOL    HW226922   2.758   1.185   5.966  0.5083  0.2569  0.0321
 5154SOL     OW26923   0.208   0.351  14.527  0.0715 -0.3686  0.8972
 5154SOL    HW126924   0.217   0.308  14.441  1.8407  1.1476  0.3346
 5154SOL    HW226925   0.262   0.306  14.592  1.6574 -0.1785 -0.2966
 5155SOL     OW26926   4.395   1.371   9.035  0.3911 -0.2651  0.1269
 5155SOL    HW126927   4.459   1.335   9.097  0.2585 -1.2604 -0.3236
 5155SOL    HW226928   4.388   1.453   9.085 -0.4205 -1.4552  1.9577
 5156SOL     OW26929   4.153   2.003   2.944  0.0745  0.0483 -0.3133
 5156SOL    HW126930   4.210   2.064   2.897 -1.7767  0.3805 -2.1249
 5156SOL    HW226931   4.194   1.919   2.923 -0.2398 -0.0585 -0.4970
 5157SOL     OW26932   4.334   3.134   1.521 -0.9354 -0.1136 -0.5582
 5157SOL    HW126933   4.258   3.082   1.548 -0.5300  1.2698  3.2047
 5157SOL    HW226934   4.286   3.216   1.510  0.1874  0.2692 -2.6106
 5158SOL     OW26935   2.619   4.174   3.751  0.1193  0.2219  0.0224
 5158SOL    HW126936   2.561   4.098   3.744  0.2314  0.1119  0.2756
 5158SOL    HW226937   2.679   4.147   3.681 -1.3349 -0.7379 -0.8519
 5159SOL     OW26938   3.116   0.190  17.466  0.4263  0.9362  0.1759
 5159SOL    HW126939   3.211   0.201  17.457  0.1946  1.2502 -1.9251
 5159SOL    HW226940   3.115   0.169  17.559  1.2943 -0.7814 -0.2058
 5160SOL     OW26941   2.670   3.545   5.473  0.5260  1.0459 -0.3176
 5160SOL    HW126942   2.736   3.586   5.417  1.5946 -0.8309 -0.4352
 5160SOL    HW226943   2.732   3.496   5.526  1.9101  1.8625 -1.1634
 5161SOL     OW26944   1.880   1.851   6.402  0.2959 -0.5267  0.9003
 5161SOL    HW126945   1.959   1.896   6.372 -0.1152 -0.1390  0.3784
 5161SOL    HW226946   1.856   1.922   6.461  1.3438  2.1637 -1.8702
 5162SOL     OW26947   4.286   0.888   7.007  0.4041  0.2518  0.0694
 5162SOL    HW126948   4.355   0.918   6.948  0.0065 -0.8230 -0.9553
 5162SOL    HW226949   4.209   0.936   6.975 -1.9909 -1.6187  2.9243
 5163SOL     OW26950   3.083   0.908   5.236  0.0765  0.5208 -0.4161
 5163SOL    HW126951   3.133   0.922   5.156 -1.9393  2.2852 -1.3959
 5163SOL    HW226952   3.013   0.847   5.214  1.1949 -1.4440  1.5248
 5164SOL     OW26953   3.439   2.543   0.536  0.2785 -0.1228  0.6172
 5164SOL    HW126954   3.505   2.517   0.601  0.8765  1.5611  0.6717
 5164SOL    HW226955   3.423   2.633   0.563  0.9024 -0.1263  1.0222
 5165SOL     OW26956   1.934   0.303  12.459 -0.0258  0.4111 -0.0336
 5165SOL    HW126957   1.954   0.252  12.538 -0.0119  0.2086 -0.1686
 5165SOL    HW226958   1.945   0.239  12.389  0.7451  0.7977 -0.2626
 5166SOL     OW26959   4.477   0.330   7.583  0.2963 -0.1181  0.3566
 5166SOL    HW126960   4.527   0.407   7.555  0.2159 -0.7661 -1.5589
 5166SOL    HW226961   4.458   0.290   7.498 -1.5312  1.2397  0.1278
 5167SOL     OW26962   1.701   0.588   1.918 -0.4540 -0.6702  0.1557
 5167SOL    HW126963   1.719   0.598   1.825  0.1136 -0.0064  0.3370
 5167SOL    HW226964   1.776   0.643   1.940 -1.3590  0.4188  0.5137
 5168SOL     OW26965   2.364   3.058  15.074  0.1783  0.1593 -0.4970
 5168SOL    HW126966   2.453   3.078  15.045  0.4696  1.3758  1.1701
 5168SOL    HW226967   2.335   3.145  15.102 -2.8857 -0.6640 -1.1725
 5169SOL     OW26968   1.687   4.277  17.113  0.0179 -0.1619  0.5273
 5169SOL    HW126969   1.717   4.264  17.023  1.6701 -0.1898  1.0750
 5169SOL    HW226970   1.670   4.186  17.137  1.0253 -0.5352 -0.1812
 5170SOL     OW26971   1.507   3.872   7.440  0.1456 -0.2409 -0.3895
 5170SOL    HW126972   1.586   3.830   7.405 -0.1686 -1.0442 -0.1365
 5170SOL    HW226973   1.438   3.807   7.429  0.2885 -0.5933  0.8359
 5171SOL     OW26974   1.747   4.645   3.546 -0.2974  0.3712  0.2176
 5171SOL    HW126975   1.654   4.662   3.532 -1.3433 -2.2011  3.7935
 5171SOL    HW226976   1.747   4.554   3.517  1.6002  0.0588  1.1615
 5172SOL     OW26977   0.555   3.942   4.571 -0.3334  0.0511 -0.3339
 5172SOL    HW126978   0.554   3.895   4.655  1.2662 -0.4591 -0.6100
 5172SOL    HW226979   0.475   3.995   4.575 -1.0124 -1.0228  0.0876
 5173SOL     OW26980   0.276   3.560  13.112  0.4613  0.1874 -0.5265
 5173SOL    HW126981   0.333   3.628  13.075 -1.1301  1.1418 -1.2244
 5173SOL    HW226982   0.197   3.590  13.067 -0.6531 -0.2191  1.1602
 5174SOL     OW26983   3.015   2.397   3.932 -0.2115 -0.3677  0.0564
 5174SOL    HW126984   3.099   2.375   3.892  0.1796 -1.8281  1.6613
 5174SOL    HW226985   3.017   2.493   3.927  0.7149 -0.2826  1.9488
 5175SOL     OW26986   1.694   0.194  13.066 -0.5339 -0.2098  0.0518
 5175SOL    HW126987   1.686   0.164  13.156 -1.6588  2.4014  0.8270
 5175SOL    HW226988   1.720   0.115  13.019 -0.3861  0.1968 -0.5500
 5176SOL     OW26989   3.069   2.698  16.980  0.2026  0.5224 -0.1780
 5176SOL    HW126990   3.123   2.632  17.025 -0.3147  0.5073  0.4272
 5176SOL    HW226991   3.007   2.634  16.946  0.5833 -1.3306  2.6403
 5177SOL     OW26992   3.674   0.153   5.451 -0.4700  0.4665 -0.1350
 5177SOL    HW126993   3.687   0.240   5.413 -0.9562  0.6304  0.0791
 5177SOL    HW226994   3.640   0.171   5.538 -1.9593  0.7261 -0.7827
 5178SOL     OW26995   0.398   2.132   4.685  0.3533  1.0189  0.1524
 5178SOL    HW126996   0.411   2.214   4.637 -1.4458  0.1811 -1.7420
 5178SOL    HW226997   0.338   2.162   4.753  2.2004  0.1846  2.1375
 5179SOL     OW26998   2.498   1.231   4.874  0.5980  0.1597  0.4106
 5179SOL    HW126999   2.522   1.323   4.870 -0.0866  0.2338 -1.6867
 5179SOL    HW227000   2.464   1.214   4.786  0.4550 -0.7724  0.6363
 5180SOL     OW27001   4.363   1.554   2.465 -0.0930 -0.2041 -0.2142
 5180SOL    HW127002   4.289   1.605   2.433 -1.3618 -3.5606 -2.4893
 5180SOL    HW227003   4.347   1.559   2.560  0.4918  0.5862 -0.1587
 5181SOL     OW27004   0.437   4.356   1.909  0.1919  0.4875  0.0013
 5181SOL    HW127005   0.389   4.282   1.945  0.8417  1.2299  2.3455
 5181SOL    HW227006   0.396   4.367   1.823 -0.5812  1.0453  0.4385
 5182SOL     OW27007   1.340   2.765  13.137 -0.4887 -0.1042 -0.5551
 5182SOL    HW127008   1.354   2.670  13.145  0.9380  0.0050 -1.7153
 5182SOL    HW227009   1.408   2.790  13.075 -1.2338 -0.4752 -1.5264
 5183SOL     OW27010   0.300   3.837   0.265  0.2072  0.4522 -0.2649
 5183SOL    HW127011   0.243   3.903   0.304 -0.2693 -0.0958 -0.0323
 5183SOL    HW227012   0.256   3.759   0.298  2.2214 -0.7812 -0.5029
 5184SOL     OW27013   1.232   1.931   9.279  0.1010  0.0393 -0.3131
 5184SOL    HW127014   1.157   1.981   9.246  1.6997  2.6100 -0.1084
 5184SOL    HW227015   1.227   1.967   9.368 -3.2118 -1.3235  0.0309
 5185SOL     OW27016   3.918   2.056  17.357 -0.0378 -0.0066  0.4563
 5185SOL    HW127017   3.897   2.069  17.449  1.5887 -0.4449  0.8737
 5185SOL    HW227018   3.996   2.001  17.352 -1.2068 -1.5446 -0.9156
 5186SOL     OW27019   3.809   3.825   5.304  0.1227 -0.5335  0.3627
 5186SOL    HW127020   3.841   3.740   5.272  2.3625  0.4612 -0.0661
 5186SOL    HW227021   3.807   3.873   5.221  1.4535  0.2508  0.7759
 5187SOL     OW27022   3.404   1.793   2.092 -0.3407  0.2058 -0.1051
 5187SOL    HW127023   3.351   1.782   2.013  1.2616  0.8695 -1.2698
 5187SOL    HW227024   3.348   1.855   2.140 -2.1671  0.7638 -2.9426
 5188SOL     OW27025   0.403   3.051   2.601  0.1081  1.0556 -0.2075
 5188SOL    HW127026   0.355   3.004   2.532  0.8423 -2.1212  1.4346
 5188SOL    HW227027   0.456   3.106   2.544  1.7707 -1.6904 -1.3257
 5189SOL     OW27028   3.421   2.854   8.311 -0.1005 -0.1443  0.0189
 5189SOL    HW127029   3.354   2.914   8.344  1.1473  1.3744 -0.1960
 5189SOL    HW227030   3.421   2.796   8.387 -0.9879  0.2371  0.3096
 5190SOL     OW27031   4.253   0.032   6.093  0.4040  0.2518  0.0770
 5190SOL    HW127032   4.194   4.685   6.095 -1.3734  1.6274  0.1643
 5190SOL    HW227033   4.322   0.007   6.032 -0.6782  1.2152 -1.5345
 5191SOL     OW27034   4.483   3.723   2.623  0.4440 -0.5985  0.1700
 5191SOL    HW127035   4.487   3.779   2.545 -2.0084 -1.1589 -0.3639
 5191SOL    HW227036   4.519   3.779   2.692  0.5398  0.6578 -0.8837
 5192SOL     OW27037   2.460   3.091   6.091  0.1693 -0.3069  0.8841
 5192SOL    HW127038   2.413   3.008   6.089 -2.4876  1.1246  3.1304
 5192SOL    HW227039   2.439   3.120   6.002  2.5146  2.2212  1.1563
 5193SOL     OW27040   1.527   4.155  11.088 -0.5086  0.7102  0.1223
 5193SOL    HW127041   1.620   4.138  11.099  0.0073  2.4907 -1.5291
 5193SOL    HW227042   1.514   4.208  11.167  0.0986 -0.3757  0.9504
 5194SOL     OW27043   3.550   2.450   6.441 -0.0035  0.8352 -0.4976
 5194SOL    HW127044   3.476   2.430   6.384 -0.3301  0.6730 -0.0221
 5194SOL    HW227045   3.501   2.459   6.523  1.5240  0.8419  0.4187
 5195SOL     OW27046   3.088   1.117   1.601  0.1850  0.0732  0.5767
 5195SOL    HW127047   3.142   1.102   1.524  1.3630 -1.2907  1.6797
 5195SOL    HW227048   3.048   1.201   1.576 -1.0103 -0.6931 -0.1014
 5196SOL     OW27049   3.872   2.706  14.336  0.4601 -0.1897 -0.7328
 5196SOL    HW127050   3.904   2.682  14.423 -0.1008  0.5195 -0.3312
 5196SOL    HW227051   3.839   2.795  14.345  1.4324  0.1629 -0.6110
 5197SOL     OW27052   2.008   1.692   8.861 -0.2819 -0.1597  0.4098
 5197SOL    HW127053   2.046   1.711   8.775 -0.8164 -1.3186 -0.0779
 5197SOL    HW227054   2.055   1.750   8.920 -0.6004  1.0196 -0.5080
 5198SOL     OW27055   4.465   2.526  16.940 -0.5951  0.3779 -0.7434
 5198SOL    HW127056   4.471   2.614  16.904  0.3711 -0.4303 -2.5469
 5198SOL    HW227057   4.445   2.534  17.033 -0.3430  0.8064 -0.7237
 5199SOL     OW27058   1.568   4.552   7.006  0.1535 -0.5476 -0.1884
 5199SOL    HW127059   1.651   4.513   7.033  1.0894  1.2849 -0.4142
 5199SOL    HW227060   1.587   4.582   6.917  0.3696  0.2808  0.1341
 5200SOL     OW27061   3.725   4.031   5.020 -0.0322  0.3307  0.3875
 5200SOL    HW127062   3.703   4.122   5.001 -0.7401  0.1626  0.3884
 5200SOL    HW227063   3.818   4.013   5.008  0.3995  1.2890  2.2804
 5201SOL     OW27064   2.876   4.489  12.714 -0.1228  0.0526  0.6461
 5201SOL    HW127065   2.945   4.538  12.759  0.6631 -0.9802  0.5535
 5201SOL    HW227066   2.844   4.558  12.656  2.6902  0.1262 -0.8019
 5202SOL     OW27067   2.622   1.688   3.948 -0.3716 -0.8703  0.6144
 5202SOL    HW127068   2.530   1.666   3.939  0.1871 -2.9033 -0.0978
 5202SOL    HW227069   2.657   1.639   3.874 -3.9354 -2.2361 -0.1552
 5203SOL     OW27070   1.299   1.276   7.655 -0.4892  0.1111 -0.3671
 5203SOL    HW127071   1.291   1.371   7.648 -1.4815  0.0231 -0.3256
 5203SOL    HW227072   1.208   1.257   7.634 -0.6036 -0.3974  0.5880
 5204SOL     OW27073   0.099   3.797   6.862 -0.8487 -0.4778  0.0124
 5204SOL    HW127074   0.156   3.874   6.861  0.0576 -1.1283  1.3515
 5204SOL    HW227075   0.110   3.761   6.774  0.3280 -1.2401  0.4727
 5205SOL     OW27076   2.806   1.055   9.825 -0.3173 -0.0475 -0.7180
 5205SOL    HW127077   2.814   0.960   9.823 -0.6091 -0.0839 -0.2636
 5205SOL    HW227078   2.897   1.082   9.840 -0.3900 -0.9839  1.4506
 5206SOL     OW27079   2.248   2.596  10.901  0.0577  0.3135 -0.4371
 5206SOL    HW127080   2.190   2.528  10.867 -0.5720  0.9099 -0.5516
 5206SOL    HW227081   2.265   2.650  10.824  0.0025  1.2901  0.2358
 5207SOL     OW27082   3.009   2.518   6.384 -0.4639  0.0813  0.6264
 5207SOL    HW127083   3.030   2.583   6.317  0.2431 -0.2747  0.5097
 5207SOL    HW227084   2.940   2.466   6.344  1.7982 -1.0937 -1.7817
 5208SOL     OW27085   0.336   0.434   3.356 -0.4237 -0.0913  0.2880
 5208SOL    HW127086   0.265   0.459   3.298  2.2236  1.9308 -2.0449
 5208SOL    HW227087   0.299   0.470   3.437 -1.5930 -2.9192  1.0326
 5209SOL     OW27088   4.513   2.743   2.603  0.2673  0.0141 -0.1236
 5209SOL    HW127089   4.549   2.667   2.557 -0.8570 -0.5753 -0.0114
 5209SOL    HW227090   4.508   2.806   2.531  1.4823  0.0347 -0.2046
 5210SOL     OW27091   2.526   0.229   3.174  0.4145  0.7608 -0.3125
 5210SOL    HW127092   2.437   0.197   3.192  0.9650 -0.9270 -0.5991
 5210SOL    HW227093   2.542   0.265   3.261 -1.3166 -0.2975  0.4344
 5211SOL     OW27094   0.089   3.289   1.928  0.1591  0.0818 -0.6026
 5211SOL    HW127095   0.065   3.380   1.908  1.6985  0.2362 -1.7609
 5211SOL    HW227096   0.177   3.302   1.965 -0.7610  1.5584  1.0804
 5212SOL     OW27097   1.810   0.211   2.124  0.6231 -0.5275 -0.1144
 5212SOL    HW127098   1.735   0.180   2.074 -0.3464  1.6101  0.0088
 5212SOL    HW227099   1.841   0.127   2.157  0.5502 -0.1487  0.9200
 5213SOL     OW27100   4.137   2.710   5.286  0.3163 -0.4236  0.1271
 5213SOL    HW127101   4.096   2.629   5.319 -0.8812  0.2048  0.1666
 5213SOL    HW227102   4.227   2.705   5.319 -0.2516 -0.5697  1.6769
 5214SOL     OW27103   1.275   3.379   5.558 -0.3079  0.1040  0.7104
 5214SOL    HW127104   1.324   3.297   5.550 -0.7703 -0.0311 -0.7151
 5214SOL    HW227105   1.341   3.447   5.576 -0.5052  0.5562 -0.2412
 5215SOL     OW27106   1.642   0.507   5.147 -0.5504  0.0077  0.7202
 5215SOL    HW127107   1.723   0.484   5.100 -0.5343  1.3856  0.0804
 5215SOL    HW227108   1.644   0.432   5.206  1.5926  0.1656  0.8729
 5216SOL     OW27109   2.733   2.345   6.578  0.1720  0.3061  0.1412
 5216SOL    HW127110   2.781   2.428   6.578 -0.3838  0.6262  1.4291
 5216SOL    HW227111   2.694   2.342   6.665 -0.5744 -1.3245 -0.2507
 5217SOL     OW27112   3.803   0.741   5.419 -0.2238 -0.4892  0.1909
 5217SOL    HW127113   3.897   0.754   5.404 -0.1680  0.0688  1.0100
 5217SOL    HW227114   3.763   0.827   5.403  0.6946 -0.0375  0.3066
 5218SOL     OW27115   3.645   0.742  13.112 -0.3861  0.4810  0.5476
 5218SOL    HW127116   3.604   0.797  13.045  1.8830 -0.4073 -1.5651
 5218SOL    HW227117   3.563   0.724  13.158  0.0550 -3.4048 -0.1984
 5219SOL     OW27118   0.747   3.545   2.832 -0.2704  0.5132  0.5667
 5219SOL    HW127119   0.717   3.543   2.922 -0.7995  0.8425  0.3960
 5219SOL    HW227120   0.816   3.479   2.825  0.8993  1.6742  1.0700
 5220SOL     OW27121   4.199   2.417   0.364 -0.0588 -0.3598  0.4007
 5220SOL    HW127122   4.172   2.326   0.368 -0.4301 -0.2744 -0.3317
 5220SOL    HW227123   4.284   2.403   0.406  0.3901  1.3197  0.0712
 5221SOL     OW27124   1.029   3.497   3.627 -0.0162  0.0269  0.3643
 5221SOL    HW127125   0.935   3.508   3.615 -0.2291 -1.5729  0.4665
 5221SOL    HW227126   1.048   3.562   3.694 -2.5869 -0.4742  1.6000
 5222SOL     OW27127   4.531   3.155   5.837  1.0523 -0.2140  0.0695
 5222SOL    HW127128   4.464   3.215   5.869  0.3994 -1.5943  1.3341
 5222SOL    HW227129   4.605   3.187   5.888  0.0707 -1.8664  2.5561
 5223SOL     OW27130   4.475   4.360   5.130 -0.0712 -0.1379  0.0670
 5223SOL    HW127131   4.488   4.281   5.077  2.0615  0.7988 -0.8093
 5223SOL    HW227132   4.518   4.340   5.213 -2.1157  0.6275  1.3208
 5224SOL     OW27133   3.491   1.658   8.171  0.0965  0.5030 -0.2863
 5224SOL    HW127134   3.559   1.725   8.160  0.0409  0.1493 -2.9509
 5224SOL    HW227135   3.424   1.726   8.177  0.4215  0.8463 -0.4840
 5225SOL     OW27136   1.288   3.823   0.241 -0.2863 -0.2573  0.0191
 5225SOL    HW127137   1.372   3.868   0.230 -0.7924  0.9464  1.0916
 5225SOL    HW227138   1.316   3.737   0.210  2.8950  0.9393 -0.4002
 5226SOL     OW27139   0.663   3.930   6.858  0.3769  0.3883 -0.2550
 5226SOL    HW127140   0.705   3.951   6.775 -1.3236  1.3027 -0.8959
 5226SOL    HW227141   0.593   3.871   6.830  0.6433  0.1194 -0.3517
 5227SOL     OW27142   2.926   2.763   5.076 -0.1175 -0.0206 -0.2194
 5227SOL    HW127143   2.973   2.740   5.156 -0.3577  0.1802 -0.0199
 5227SOL    HW227144   2.908   2.679   5.033 -0.7583 -0.2445  0.4992
 5228SOL     OW27145   1.647   2.333   2.445  0.4680  0.4458  0.2179
 5228SOL    HW127146   1.734   2.316   2.411  0.4004 -0.7600  0.6548
 5228SOL    HW227147   1.634   2.274   2.519  0.1249  0.1207 -0.1023
 5229SOL     OW27148   1.526   0.879   3.480 -0.0582  0.2085  0.2104
 5229SOL    HW127149   1.457   0.923   3.529 -0.4465 -1.7793  1.4447
 5229SOL    HW227150   1.532   0.797   3.529 -0.3282 -1.4778 -2.5326
 5230SOL     OW27151   1.709   2.391  14.096 -0.2326 -0.1919  0.0224
 5230SOL    HW127152   1.745   2.401  14.008  2.8271 -2.6983  1.0111
 5230SOL    HW227153   1.748   2.310  14.128  1.4312  0.6781  0.2178
 5231SOL     OW27154   3.459   2.681   2.328 -0.2607 -0.5720  0.0723
 5231SOL    HW127155   3.406   2.711   2.254  1.5068 -1.9045 -1.7302
 5231SOL    HW227156   3.544   2.718   2.302 -2.1959  2.4561 -2.0077
 5232SOL     OW27157   0.496   0.674   6.220  0.1622  0.6221  0.0860
 5232SOL    HW127158   0.452   0.744   6.269  1.9628  1.3908  0.6160
 5232SOL    HW227159   0.435   0.650   6.151 -2.4074 -0.0870  2.6282
 5233SOL     OW27160   2.833   4.293   6.945  0.0379 -0.5503  0.2325
 5233SOL    HW127161   2.829   4.322   7.036 -0.6991  1.2162 -0.3464
 5233SOL    HW227162   2.781   4.213   6.955  0.7722 -0.9169  1.1105
 5234SOL     OW27163   4.425   2.035   7.841  0.2964  0.0117 -0.1156
 5234SOL    HW127164   4.508   2.012   7.799 -1.2718 -0.6809 -2.8792
 5234SOL    HW227165   4.366   2.049   7.767 -0.1871  0.0812  0.2848
 5235SOL     OW27166   3.670   3.954   1.588  0.4257  0.4304 -0.1143
 5235SOL    HW127167   3.765   3.955   1.578  0.5928 -1.4090  1.4038
 5235SOL    HW227168   3.654   3.897   1.662 -0.7879  0.0338 -0.6738
 5236SOL     OW27169   3.876   1.334   6.116 -0.6946 -0.0985  0.9587
 5236SOL    HW127170   3.836   1.409   6.072  1.9480  1.8136  1.7512
 5236SOL    HW227171   3.961   1.368   6.147  0.6950 -1.1513 -1.6544
 5237SOL     OW27172   2.290   1.168   8.511 -0.3185 -0.4667  0.2475
 5237SOL    HW127173   2.373   1.199   8.477 -1.0235  1.7301  0.5750
 5237SOL    HW227174   2.312   1.167   8.604  0.5147  2.2639  0.0565
 5238SOL     OW27175   2.579   1.898   4.921 -0.6291 -0.0942 -0.3690
 5238SOL    HW127176   2.649   1.835   4.938 -0.7005 -0.0950 -0.0655
 5238SOL    HW227177   2.541   1.873   4.837 -0.5053  0.0329 -0.4622
 5239SOL     OW27178   2.270   3.184   4.830  0.4555 -0.6163 -0.7499
 5239SOL    HW127179   2.202   3.188   4.762  0.4405  0.1807 -0.6877
 5239SOL    HW227180   2.340   3.223   4.777 -0.1091  4.5930  2.2461
 5240SOL     OW27181   3.969   3.009   9.786  0.4102  0.3104  0.1628
 5240SOL    HW127182   3.968   3.095   9.743  2.2031  1.2550  2.0647
 5240SOL    HW227183   4.003   3.033   9.872 -2.5990 -0.5235  1.6013
 5241SOL     OW27184   1.828   1.388   6.658  0.6386 -0.5435  0.5519
 5241SOL    HW127185   1.785   1.464   6.619  0.5608 -0.8017  0.1373
 5241SOL    HW227186   1.916   1.387   6.621  0.3860  3.1683 -0.1141
 5242SOL     OW27187   1.105   0.315   5.788 -0.0007 -0.2359 -0.2433
 5242SOL    HW127188   1.112   0.230   5.831 -3.4829 -0.2816  0.2319
 5242SOL    HW227189   1.022   0.305   5.741 -0.8716  0.4880  1.1407
 5243SOL     OW27190   3.014   4.532   7.970 -0.1385  0.1796  0.0663
 5243SOL    HW127191   2.985   4.466   8.033  3.1243  1.7953  3.2939
 5243SOL    HW227192   3.102   4.553   8.002  1.0099 -0.9912 -2.3742
 5244SOL     OW27193   4.267   3.169   8.905  0.1987 -0.0449 -0.1069
 5244SOL    HW127194   4.234   3.093   8.951 -3.2925  1.7014  0.2756
 5244SOL    HW227195   4.339   3.192   8.964  1.7677 -0.8325 -1.7038
 5245SOL     OW27196   0.773   1.253   6.771  0.2198 -0.5648 -0.3224
 5245SOL    HW127197   0.861   1.245   6.734  0.1778 -0.2339 -0.4924
 5245SOL    HW227198   0.722   1.283   6.695 -1.6824  0.6104  1.4385
 5246SOL     OW27199   2.516   2.294   6.805  0.3004  0.0601 -0.3319
 5246SOL    HW127200   2.446   2.233   6.828  0.6535 -0.3989 -0.4758
 5246SOL    HW227201   2.535   2.334   6.890  0.7686  2.6942 -1.6630
 5247SOL     OW27202   1.680   3.381   3.473  0.3142  0.2943  0.2590
 5247SOL    HW127203   1.610   3.413   3.530 -0.3981  0.6610 -0.8310
 5247SOL    HW227204   1.678   3.430   3.391  2.8573 -0.8224 -0.4897
 5248SOL     OW27205   1.182   3.074   9.764  0.3050  0.5231 -0.1095
 5248SOL    HW127206   1.221   2.990   9.742 -1.2021  0.2878 -1.8627
 5248SOL    HW227207   1.106   3.047   9.817  0.0377  3.3047  0.9664
 5249SOL     OW27208   0.530   2.434   6.713 -0.2378 -0.0904  0.0766
 5249SOL    HW127209   0.599   2.499   6.697  1.6040 -1.7643  1.1738
 5249SOL    HW227210   0.482   2.438   6.631  0.9774 -0.6500 -0.6682
 5250SOL     OW27211   2.432   0.972   5.006 -0.0643 -0.3536  0.4192
 5250SOL    HW127212   2.472   1.057   4.986  0.2574 -0.7423 -0.5845
 5250SOL    HW227213   2.412   0.966   5.100 -1.2769  0.4959  0.2228
 5251SOL     OW27214   1.409   0.085  17.308  0.4052 -0.5232  0.2980
 5251SOL    HW127215   1.504   0.088  17.304  0.3799 -1.1878 -0.9236
 5251SOL    HW227216   1.379   0.169  17.342  3.4124 -0.9199  3.8900
 5252SOL     OW27217   3.607   4.353   8.962  0.2971 -0.5226 -0.0613
 5252SOL    HW127218   3.546   4.426   8.974  1.4661  0.7015 -1.5799
 5252SOL    HW227219   3.559   4.281   9.003 -0.6918 -0.7682 -1.6782
 5253SOL     OW27220   3.423   0.702  17.231  0.7071  0.1831  0.0486
 5253SOL    HW127221   3.374   0.783  17.246 -1.2848 -0.5607 -2.3019
 5253SOL    HW227222   3.392   0.652  17.306  0.0555 -1.0937 -1.0589
 5254SOL     OW27223   1.238   4.688   1.246  0.4726  0.2862  0.4360
 5254SOL    HW127224   1.155   0.007   1.241  0.8660  0.7960 -1.1945
 5254SOL    HW227225   1.293   0.023   1.200  2.5131 -0.7659  1.4066
 5255SOL     OW27226   2.001   3.353   6.459  0.3625 -0.5597 -0.3562
 5255SOL    HW127227   2.020   3.261   6.478 -1.9535 -0.8090  0.7287
 5255SOL    HW227228   1.926   3.364   6.517  0.2924  0.7727 -0.6849
 5256SOL     OW27229   0.033   2.302   5.396  0.0430  0.2548 -0.6255
 5256SOL    HW127230   0.121   2.267   5.409  0.2314  1.0276  0.1484
 5256SOL    HW227231   4.709   2.226   5.421 -0.3784  0.4154 -1.0103
 5257SOL     OW27232   3.720   4.387  10.123  0.0901 -0.2538  0.3526
 5257SOL    HW127233   3.776   4.310  10.114  0.7556 -0.1140  3.3863
 5257SOL    HW227234   3.772   4.439  10.184 -1.1353 -2.2329  3.0727
 5258SOL     OW27235   3.698   0.653   2.490 -0.1016 -0.1640  0.4123
 5258SOL    HW127236   3.604   0.647   2.472 -0.3064  0.4015  1.3149
 5258SOL    HW227237   3.730   0.568   2.461  0.4988  0.0450  0.4763
 5259SOL     OW27238   2.525   2.281  16.956 -0.3762  0.6406  0.3833
 5259SOL    HW127239   2.473   2.267  17.035 -3.2204  0.4552 -1.4937
 5259SOL    HW227240   2.484   2.213  16.902 -1.7410  1.2587  0.6408
 5260SOL     OW27241   1.784   4.211  11.381 -0.2459  0.0976  0.4586
 5260SOL    HW127242   1.842   4.265  11.329  1.0270 -2.0659 -0.3650
 5260SOL    HW227243   1.850   4.154  11.421 -2.4721 -1.8667  1.4077
 5261SOL     OW27244   2.518   3.716   2.141  0.0354 -0.6896  0.1912
 5261SOL    HW127245   2.484   3.632   2.110 -0.8374 -0.3259  0.1637
 5261SOL    HW227246   2.532   3.762   2.058  0.4903 -0.2563  0.5071
 5262SOL     OW27247   3.520   1.734  14.979  0.0623  0.1938  0.0228
 5262SOL    HW127248   3.496   1.642  14.963 -1.4383  0.6094 -0.0888
 5262SOL    HW227249   3.615   1.731  14.968  0.1031  0.4252  0.3043
 5263SOL     OW27250   2.745   3.080   9.242  0.6598  1.1646 -0.4900
 5263SOL    HW127251   2.757   2.986   9.256  0.1125  1.1551 -0.0867
 5263SOL    HW227252   2.765   3.104   9.332  2.2645  0.0558 -0.5567
 5264SOL     OW27253   2.693   4.158  11.219 -0.3289  0.0997  0.5092
 5264SOL    HW127254   2.610   4.188  11.257 -0.9541 -0.0783 -0.7102
 5264SOL    HW227255   2.750   4.143  11.295  1.0791 -2.2695 -1.0257
 5265SOL     OW27256   4.439   1.140   2.946 -0.0980  0.8370  0.8391
 5265SOL    HW127257   4.380   1.146   3.021  0.2887  0.0765  1.2052
 5265SOL    HW227258   4.448   1.233   2.928  1.3238  0.4815 -0.2893
 5266SOL     OW27259   4.576   2.492   9.421  0.3211 -0.0526  0.3485
 5266SOL    HW127260   4.627   2.539   9.354  1.6073 -2.3239 -0.2616
 5266SOL    HW227261   4.516   2.554   9.463  0.6778  0.2425  0.4310
 5267SOL     OW27262   1.326   4.274   1.944 -0.1417  0.6519 -0.0169
 5267SOL    HW127263   1.236   4.246   1.930  0.2121 -1.0495  1.0120
 5267SOL    HW227264   1.354   4.187   1.975  4.0247  2.3382  1.0157
 5268SOL     OW27265   0.676   2.956   7.213 -0.2100  0.1147 -0.1919
 5268SOL    HW127266   0.736   2.992   7.148  1.3297  1.2637  1.8580
 5268SOL    HW227267   0.728   2.972   7.292  0.7794 -0.9975 -0.6064
 5269SOL     OW27268   2.229   0.106   2.154  0.7068  0.1920  0.0317
 5269SOL    HW127269   2.175   0.155   2.092 -0.8243 -0.5144  0.8053
 5269SOL    HW227270   2.186   0.022   2.170  0.1852  0.2164 -1.2117
 5270SOL     OW27271   4.515   3.415   6.784 -0.3467 -0.0311  0.4633
 5270SOL    HW127272   4.444   3.386   6.842 -2.5566 -1.6756 -3.0426
 5270SOL    HW227273   4.475   3.439   6.700  0.3696  0.9543  0.4087
 5271SOL     OW27274   3.618   0.019   7.190  0.0895 -1.0227 -0.5490
 5271SOL    HW127275   3.663   0.079   7.130  2.0795 -1.4292  0.5332
 5271SOL    HW227276   3.673   4.672   7.173  3.6648  1.3214  0.4840
 5272SOL     OW27277   4.048   4.227   1.471  0.1515 -0.6825  0.4872
 5272SOL    HW127278   3.970   4.250   1.522 -0.6050  0.6207 -1.2629
 5272SOL    HW227279   4.022   4.147   1.426 -2.1980  0.0358  0.5833
 5273SOL     OW27280   0.182   1.380  17.376  0.1768  0.2731  0.3643
 5273SOL    HW127281   0.262   1.340  17.412  0.7019 -0.4892 -1.6472
 5273SOL    HW227282   0.229   1.456  17.342  2.3304 -0.5924  1.4353
 5274SOL     OW27283   0.282   4.247   7.197  0.1368 -0.3625 -0.2867
 5274SOL    HW127284   0.361   4.252   7.252 -0.7456  0.3375  0.9216
 5274SOL    HW227285   0.323   4.251   7.111 -0.6638  2.4152 -0.5545
 5275SOL     OW27286   1.918   3.876   2.898  0.3251  0.3246  0.1159
 5275SOL    HW127287   1.972   3.797   2.895  1.3019  1.1123 -2.6169
 5275SOL    HW227288   1.858   3.853   2.827  1.4313 -2.3479  0.0498
 5276SOL     OW27289   0.476   4.224   4.558 -1.2109  0.1704  0.0950
 5276SOL    HW127290   0.381   4.236   4.551 -1.0759  1.2010  0.0760
 5276SOL    HW227291   0.507   4.296   4.613  0.5616  0.9562 -1.9386
 5277SOL     OW27292   3.554   2.567  12.857  0.1023  0.0441 -0.0018
 5277SOL    HW127293   3.484   2.617  12.816  0.4531  1.2601  0.9092
 5277SOL    HW227294   3.563   2.594  12.949  1.4423  0.7539 -0.3526
 5278SOL     OW27295   3.942   0.493  17.572  0.1458 -0.5446  0.1570
 5278SOL    HW127296   3.894   0.575  17.581  2.0396  0.5605  0.1516
 5278SOL    HW227297   3.986   0.491  17.657  1.1368 -2.2356 -0.3912
 5279SOL     OW27298   0.390   0.794   7.281 -0.1865  0.0475 -0.2280
 5279SOL    HW127299   0.390   0.701   7.260  1.9780 -0.1905  0.8356
 5279SOL    HW227300   0.306   0.813   7.321  1.3690  1.9698  2.1289
 5280SOL     OW27301   2.363   2.641   2.790 -0.2988 -0.0495 -0.0671
 5280SOL    HW127302   2.317   2.557   2.797 -1.1618  0.2526 -2.2019
 5280SOL    HW227303   2.454   2.621   2.807  0.0871  1.1091 -0.7523
 5281SOL     OW27304   4.639   2.489   1.947 -0.2300 -0.1681 -0.3901
 5281SOL    HW127305   4.680   2.556   2.001 -1.1867  0.0546  0.0515
 5281SOL    HW227306   4.653   2.522   1.858  2.1902  1.7351  0.7085
 5282SOL     OW27307   1.156   0.929  11.768 -0.3462  0.2899 -0.0538
 5282SOL    HW127308   1.196   0.975  11.694 -0.7934  0.2054 -0.3465
 5282SOL    HW227309   1.064   0.906  11.755  0.1558 -1.1634 -1.0836
 5283SOL     OW27310   3.275   4.338   6.630  0.2919 -0.3795 -0.0175
 5283SOL    HW127311   3.230   4.417   6.600 -1.4450 -0.6969  1.7140
 5283SOL    HW227312   3.230   4.308   6.709  0.5241  3.0298  1.4334
 5284SOL     OW27313   0.086   1.004   8.332  0.0956 -0.5039 -0.3346
 5284SOL    HW127314   0.169   1.048   8.351  1.2456 -1.9508 -1.8889
 5284SOL    HW227315   0.095   0.928   8.390  0.5711 -1.3931 -1.5538
 5285SOL     OW27316   0.168   0.355   5.987 -0.3046  0.0114  0.3080
 5285SOL    HW127317   0.205   0.341   5.899 -0.6531  2.2747 -0.2119
 5285SOL    HW227318   0.117   0.274   5.987  0.9459 -0.7800  0.0689
 5286SOL     OW27319   3.148   3.801   3.456 -0.1528 -0.0621 -0.2496
 5286SOL    HW127320   3.239   3.797   3.486 -0.6171 -3.4573  0.7446
 5286SOL    HW227321   3.116   3.809   3.546  0.7087 -1.4011  0.1701
 5287SOL     OW27322   0.582   1.354   6.005  0.0722 -0.6834  0.3847
 5287SOL    HW127323   0.583   1.270   5.961 -2.7807 -0.2510 -0.5248
 5287SOL    HW227324   0.668   1.356   6.047 -0.3559 -1.4224  1.2851
 5288SOL     OW27325   1.449   3.800  10.447  0.1299 -0.3391  0.5430
 5288SOL    HW127326   1.459   3.863  10.518 -0.8125  1.6409 -1.0710
 5288SOL    HW227327   1.536   3.767  10.427  0.3485 -0.0099  0.9584
 5289SOL     OW27328   0.149   2.955  11.160  0.3458 -0.2335  0.7880
 5289SOL    HW127329   0.144   2.978  11.253 -1.0188 -0.4379  0.7597
 5289SOL    HW227330   0.204   2.877  11.158  1.8261  0.7762  1.3104
 5290SOL     OW27331   0.624   0.753  11.889  0.2921 -0.8218  0.3362
 5290SOL    HW127332   0.619   0.839  11.847  0.6083 -0.2434  1.4793
 5290SOL    HW227333   0.597   0.698  11.816  1.1752 -0.4560 -0.2750
 5291SOL     OW27334   4.413   2.259   3.036  0.4737  0.2141 -0.2159
 5291SOL    HW127335   4.419   2.251   2.941 -1.2299 -0.7654 -0.2418
 5291SOL    HW227336   4.327   2.218   3.036  1.3449 -1.5837 -1.3513
 5292SOL     OW27337   0.749   3.904   7.647 -0.0348 -0.1697 -0.6776
 5292SOL    HW127338   0.668   3.889   7.695  0.7534 -2.8406 -0.1900
 5292SOL    HW227339   0.815   3.846   7.685 -1.1055  0.3002  1.9472
 5293SOL     OW27340   3.470   4.544   6.484  0.3825 -0.0499 -0.2570
 5293SOL    HW127341   3.562   4.559   6.508  0.5123  2.0205 -2.0359
 5293SOL    HW227342   3.432   4.526   6.569  0.6307  3.9043  0.7083
 5294SOL     OW27343   0.641   2.459  13.539  0.3926  0.0780 -0.0335
 5294SOL    HW127344   0.619   2.550  13.517  0.4445 -0.5876 -2.8086
 5294SOL    HW227345   0.576   2.455  13.609  2.7057 -2.6046  1.9483
 5295SOL     OW27346   0.808   4.434   0.013 -0.3184 -0.1276  0.5031
 5295SOL    HW127347   0.725   4.424   0.059 -1.2339 -1.2144 -1.3593
 5295SOL    HW227348   0.814   4.529  17.713 -0.5766 -0.4037 -1.1947
 5296SOL     OW27349   2.008   0.539   5.240  0.7181  0.6169  0.6291
 5296SOL    HW127350   1.950   0.505   5.308 -1.4008  0.0566 -1.4745
 5296SOL    HW227351   2.056   0.608   5.286 -1.5808  1.8776  1.1734
 5297SOL     OW27352   4.385   0.548   7.851  0.1618 -0.4866  0.0950
 5297SOL    HW127353   4.374   0.488   7.925 -2.8319  0.2583  0.2502
 5297SOL    HW227354   4.338   0.498   7.784 -0.7456 -2.0658  1.9280
 5298SOL     OW27355   1.111   3.984   1.411  0.4334 -0.2240  0.4189
 5298SOL    HW127356   1.079   4.072   1.393  1.6184  0.0621 -0.2390
 5298SOL    HW227357   1.191   3.977   1.360  0.3161 -0.1745  0.2289
 5299SOL     OW27358   3.673   1.551   1.953 -0.2487 -0.3056  0.0557
 5299SOL    HW127359   3.713   1.628   1.994  0.9507 -0.7579 -0.2734
 5299SOL    HW227360   3.583   1.539   1.983 -0.8275  0.9699 -1.1582
 5300SOL     OW27361   3.366   4.302   2.029 -0.7982 -0.1099  0.2437
 5300SOL    HW127362   3.293   4.364   2.028 -0.5846  0.1656  1.6358
 5300SOL    HW227363   3.376   4.289   1.935  0.0595 -0.7947  0.4243
 5301SOL     OW27364   1.674   2.335  14.668 -0.0519  0.4003 -0.0265
 5301SOL    HW127365   1.750   2.346  14.610  0.9065 -0.3725  1.0836
 5301SOL    HW227366   1.611   2.285  14.616  0.5534 -1.6556  1.2154
 5302SOL     OW27367   0.032   2.308  14.720 -0.4124  0.6422 -0.1938
 5302SOL    HW127368   0.126   2.324  14.735 -0.7097  2.9806 -0.8358
 5302SOL    HW227369   0.043   2.325  14.627  0.9520  0.8981  0.0041
 5303SOL     OW27370   1.378   2.530   5.286  0.0391  0.0700  0.2099
 5303SOL    HW127371   1.362   2.552   5.377 -0.2300 -0.0263  0.1839
 5303SOL    HW227372   1.471   2.507   5.277  0.2136  0.8039  0.1412
 5304SOL     OW27373   4.217   2.774  16.904  0.4848 -0.4093 -0.8695
 5304SOL    HW127374   4.163   2.697  16.923  0.1570  0.4061  1.4212
 5304SOL    HW227375   4.163   2.850  16.925  2.0479  0.7534 -1.0888
 5305SOL     OW27376   1.654   3.674   6.487  0.0788  0.6419  0.2080
 5305SOL    HW127377   1.597   3.702   6.558 -1.4407 -1.5110 -0.1286
 5305SOL    HW227378   1.701   3.610   6.540 -1.9790  0.8229  2.2701
 5306SOL     OW27379   2.828   1.045   3.044  0.1116  0.2841  0.0742
 5306SOL    HW127380   2.770   0.982   3.001  1.6531 -2.0235  1.3998
 5306SOL    HW227381   2.873   0.971   3.083 -0.8193 -0.4032 -0.1447
 5307SOL     OW27382   2.293   2.662   5.134  0.5467  0.1480  0.2174
 5307SOL    HW127383   2.241   2.741   5.146  1.5913  0.4927  2.4633
 5307SOL    HW227384   2.319   2.666   5.042 -0.4467 -0.4077 -0.0903
 5308SOL     OW27385   2.086   0.578  12.183 -0.0144  0.2681  0.2596
 5308SOL    HW127386   2.145   0.648  12.212  0.9733 -0.3923 -0.1359
 5308SOL    HW227387   2.020   0.587  12.252 -1.9524  0.2007 -1.5955
 5309SOL     OW27388   0.731   2.459  16.537 -0.0858  0.5248 -0.1967
 5309SOL    HW127389   0.695   2.399  16.602 -1.9098  0.8920 -0.8608
 5309SOL    HW227390   0.661   2.525  16.532 -0.4715  0.1905  0.8979
 5310SOL     OW27391   4.565   1.273   5.699 -0.0918  0.8775  0.3152
 5310SOL    HW127392   4.567   1.202   5.764 -3.1962  1.0676  0.6165
 5310SOL    HW227393   4.514   1.234   5.627 -0.0397  0.3700  0.5555
 5311SOL     OW27394   4.151   4.199  12.110 -0.3166 -0.0135 -0.1927
 5311SOL    HW127395   4.105   4.155  12.182  2.1829 -1.1233  0.7127
 5311SOL    HW227396   4.081   4.214  12.047  0.5100  1.2752 -0.8083
 5312SOL     OW27397   3.941   1.965   1.569  0.0236 -0.1276 -0.4924
 5312SOL    HW127398   3.977   1.934   1.653  0.0286  1.1998 -0.0025
 5312SOL    HW227399   3.933   2.058   1.588 -2.0156 -0.4144  0.1139
 5313SOL     OW27400   3.190   0.516   7.871 -0.5621  0.4157 -0.0542
 5313SOL    HW127401   3.271   0.558   7.899  0.7544 -0.9798 -1.7506
 5313SOL    HW227402   3.165   0.574   7.800 -2.8770  0.4021  0.7633
 5314SOL     OW27403   0.803   3.262  12.100 -0.1157  0.1242 -0.0846
 5314SOL    HW127404   0.873   3.268  12.036  2.3642  0.4498  2.6649
 5314SOL    HW227405   0.797   3.351  12.133 -2.2730 -0.3010  0.7355
 5315SOL     OW27406   4.444   2.150   5.333 -0.1171  0.2792 -0.3479
 5315SOL    HW127407   4.494   2.120   5.257  0.4234 -1.2381  0.6145
 5315SOL    HW227408   4.496   2.121   5.408  1.1837 -0.7009 -1.6176
 5316SOL     OW27409   1.463   4.501   1.084  0.0018 -0.3485 -0.1239
 5316SOL    HW127410   1.493   4.429   1.028 -0.4739  0.0711 -0.9144
 5316SOL    HW227411   1.538   4.545   1.122 -0.7843  1.6621 -0.8820
 5317SOL     OW27412   2.033   2.147   9.678 -0.2199  0.5052 -0.1975
 5317SOL    HW127413   2.100   2.133   9.612 -0.9784 -2.2199 -0.3912
 5317SOL    HW227414   2.081   2.180   9.754 -1.4785 -0.0391  0.8389
 5318SOL     OW27415   4.242   2.412   6.378  0.2730 -0.0294  0.2308
 5318SOL    HW127416   4.293   2.480   6.423  1.1846  0.7509 -1.9577
 5318SOL    HW227417   4.305   2.361   6.327  1.1278  1.2638  0.0094
 5319SOL     OW27418   1.752   1.530   7.136  0.2208 -0.3161 -0.1877
 5319SOL    HW127419   1.673   1.540   7.189  0.1668 -0.6980 -0.2010
 5319SOL    HW227420   1.810   1.487   7.199  0.3453 -1.0489 -0.8032
 5320SOL     OW27421   0.257   1.192   5.232 -0.4466  0.3331  0.2778
 5320SOL    HW127422   0.206   1.170   5.310  3.6311 -1.4060  2.4610
 5320SOL    HW227423   0.238   1.110   5.187  1.0309 -1.0546  2.1617
 5321SOL     OW27424   2.548   2.507   3.258 -0.1629 -0.1143  0.1693
 5321SOL    HW127425   2.555   2.598   3.227 -0.2050 -1.2766 -3.3014
 5321SOL    HW227426   2.511   2.463   3.182  0.2489 -0.5766  0.2377
 5322SOL     OW27427   2.576   4.091   5.183 -0.0366  0.3602 -0.0779
 5322SOL    HW127428   2.617   4.145   5.251 -0.2060  0.2258  0.1291
 5322SOL    HW227429   2.527   4.022   5.229  1.0152  0.3362  1.0080
 5323SOL     OW27430   1.534   3.650   5.692  0.1933  0.3435 -0.5583
 5323SOL    HW127431   1.479   3.727   5.677 -0.2396 -0.4527 -3.0867
 5323SOL    HW227432   1.613   3.673   5.643  0.1319 -0.7649 -1.1851
 5324SOL     OW27433   0.256   1.234   5.925  1.2567  0.1561 -0.3395
 5324SOL    HW127434   0.256   1.327   5.903  2.0172  0.3516  0.4704
 5324SOL    HW227435   0.309   1.204   5.852  2.9309 -0.3560  1.0848
 5325SOL     OW27436   0.875   2.038   3.557  0.3172  0.5540 -0.0696
 5325SOL    HW127437   0.786   2.018   3.586  1.0121 -2.3610  0.0808
 5325SOL    HW227438   0.873   1.980   3.481  0.2534 -1.2150  1.2789
 5326SOL     OW27439   3.324   0.006   5.957 -0.4113  0.4218 -0.2363
 5326SOL    HW127440   3.351   4.661   6.012  0.3855  0.9358  0.0772
 5326SOL    HW227441   3.406   0.055   5.967  1.2471 -2.3799 -0.0035
 5327SOL     OW27442   4.199   2.394   4.672 -0.3636  0.5048 -0.2549
 5327SOL    HW127443   4.284   2.383   4.630  0.5565  3.2230  0.8619
 5327SOL    HW227444   4.152   2.442   4.604  0.1567  0.4230 -0.6694
 5328SOL     OW27445   4.218   1.125   3.157 -0.4909 -0.0992  0.2602
 5328SOL    HW127446   4.158   1.164   3.219  1.6572  0.5134  1.9621
 5328SOL    HW227447   4.168   1.061   3.107 -1.9819  1.1529  0.1450
 5329SOL     OW27448   2.989   3.863   2.946  0.4924  0.1246  0.9071
 5329SOL    HW127449   2.928   3.924   2.987 -1.6801 -1.4257  0.0253
 5329SOL    HW227450   3.040   3.830   3.019 -0.3636 -2.9830  0.1066
 5330SOL     OW27451   0.403   3.382   4.067 -0.6311  0.5303 -0.1045
 5330SOL    HW127452   0.487   3.428   4.059 -0.2254 -0.3551 -0.9210
 5330SOL    HW227453   0.433   3.293   4.081 -1.6296 -0.0727 -1.7985
 5331SOL     OW27454   2.415   4.042   5.749  0.3717 -0.1324 -0.4682
 5331SOL    HW127455   2.349   4.044   5.679 -0.6113 -2.2824  0.3923
 5331SOL    HW227456   2.387   4.117   5.802  0.4629  0.3757 -1.1402
 5332SOL     OW27457   3.383   0.302   3.599  0.3920  0.0627  0.1230
 5332SOL    HW127458   3.445   0.364   3.561  1.3643 -1.8002 -1.3212
 5332SOL    HW227459   3.346   0.264   3.519  0.0431 -0.2938  0.4566
 5333SOL     OW27460   3.225   0.734   6.466 -0.0287 -0.3615  0.0881
 5333SOL    HW127461   3.183   0.798   6.408  1.5588 -0.6022 -1.3390
 5333SOL    HW227462   3.188   0.656   6.424  1.6650 -2.1471  1.9052
 5334SOL     OW27463   1.540   0.188  10.683  0.2898  0.6020  0.6722
 5334SOL    HW127464   1.465   0.233  10.645  0.4364  0.8980  0.7292
 5334SOL    HW227465   1.492   0.162  10.761 -0.4013  0.5443  0.2237
 5335SOL     OW27466   4.313   3.500   2.527 -0.3657 -0.1469  0.7876
 5335SOL    HW127467   4.352   3.582   2.557  0.3625 -1.3313  3.0620
 5335SOL    HW227468   4.252   3.486   2.599 -0.9803 -1.9843 -0.0890
 5336SOL     OW27469   1.460   0.674  14.728 -0.0631 -0.9453  0.2531
 5336SOL    HW127470   1.498   0.723  14.655 -2.3553 -0.6020 -0.7166
 5336SOL    HW227471   1.382   0.726  14.747 -0.2331 -0.5942 -1.4434
 5337SOL     OW27472   2.461   4.278  11.289  0.2684  0.0884 -0.1632
 5337SOL    HW127473   2.387   4.260  11.230 -0.5751 -1.5655  1.4041
 5337SOL    HW227474   2.459   4.370  11.264 -0.8673  0.3445  0.8943
 5338SOL     OW27475   0.748   2.065  11.543 -0.3789 -0.4791  0.2296
 5338SOL    HW127476   0.831   2.099  11.577 -1.4009  0.5344  1.7449
 5338SOL    HW227477   0.680   2.100  11.601  1.9147  0.7170  2.2226
 5339SOL     OW27478   0.783   3.545  13.694  0.4009  0.2784 -0.3787
 5339SOL    HW127479   0.868   3.517  13.660 -0.0819 -1.0996 -0.4412
 5339SOL    HW227480   0.804   3.618  13.753 -1.4095 -0.8157  1.5970
 5340SOL     OW27481   4.597   0.200   2.779  0.3980 -0.3290  0.6902
 5340SOL    HW127482   4.600   0.256   2.856 -0.6953 -0.3650  0.7539
 5340SOL    HW227483   4.530   0.244   2.726  1.1089 -1.6111 -1.2618
 5341SOL     OW27484   1.357   3.161  15.294 -0.4629  0.7832  0.1553
 5341SOL    HW127485   1.373   3.234  15.233  1.6306 -0.1646 -0.4237
 5341SOL    HW227486   1.352   3.201  15.381  1.0878 -0.3381  0.7513
 5342SOL     OW27487   1.439   0.459   6.009 -0.5264 -0.0801 -0.0604
 5342SOL    HW127488   1.436   0.551   6.033  1.2678  1.1834 -4.6243
 5342SOL    HW227489   1.399   0.459   5.922  0.1618  2.0662 -0.3814
 5343SOL     OW27490   3.983   4.630   2.980  0.1173 -0.5002  0.2105
 5343SOL    HW127491   3.979   4.587   2.895  1.1592 -0.2355  0.0298
 5343SOL    HW227492   3.963   4.723   2.964 -0.1990 -0.3752  1.3345
 5344SOL     OW27493   1.683   4.324   6.085 -0.6878 -0.6945 -0.4599
 5344SOL    HW127494   1.695   4.292   6.175  1.0200  1.6593  0.1534
 5344SOL    HW227495   1.669   4.243   6.036  1.2233 -1.9114  0.9615
 5345SOL     OW27496   2.972   2.061   8.612  0.7757  0.2920 -0.5800
 5345SOL    HW127497   3.017   2.061   8.528 -1.9739 -0.0175 -2.0587
 5345SOL    HW227498   3.017   1.999   8.668 -1.2906 -0.9102 -0.2393
 5346SOL     OW27499   0.453   4.701   0.636 -0.2419  0.6958 -0.3855
 5346SOL    HW127500   0.423   0.056   0.671 -1.4125  0.1922 -0.1640
 5346SOL    HW227501   0.485   4.724   0.550  0.7685  0.0127 -0.1869
 5347SOL     OW27502   1.595   2.961   5.583 -0.1655  0.0221  0.0336
 5347SOL    HW127503   1.578   2.887   5.641 -2.5603  0.4283 -0.1637
 5347SOL    HW227504   1.625   3.011   5.659  0.3141 -0.3439  0.0827
 5348SOL     OW27505   2.757   4.013   4.983  0.1693  0.2075  0.1519
 5348SOL    HW127506   2.718   4.009   5.071  1.9732  0.2881  0.9594
 5348SOL    HW227507   2.767   4.107   4.969  0.1121  0.0925 -0.6352
 5349SOL     OW27508   4.424   0.613   3.447 -0.1307 -0.0077  0.2993
 5349SOL    HW127509   4.417   0.611   3.542  0.9103 -0.8919  0.3635
 5349SOL    HW227510   4.337   0.627   3.411 -0.1450  0.9499  0.7083
 5350SOL     OW27511   0.991   2.757   4.258 -0.0934  0.1602  0.6323
 5350SOL    HW127512   1.075   2.721   4.229 -1.0322 -0.7529 -0.8963
 5350SOL    HW227513   0.996   2.738   4.352  0.9230 -1.4819  0.2354
 5351SOL     OW27514   3.987   2.423   6.371 -0.4415 -0.2191 -0.5778
 5351SOL    HW127515   4.081   2.436   6.360 -0.5210  0.0522 -0.9533
 5351SOL    HW227516   3.958   2.515   6.371  0.3755  0.0234  3.2213
 5352SOL     OW27517   0.410   0.234  14.669  0.0585 -0.0833 -0.1640
 5352SOL    HW127518   0.429   0.141  14.655 -0.6615 -0.1923 -0.4403
 5352SOL    HW227519   0.468   0.250  14.744  0.2399 -2.9701  0.2965
 5353SOL     OW27520   2.550   2.601   2.240 -0.0707  0.3707  0.3004
 5353SOL    HW127521   2.541   2.558   2.155 -1.6820 -1.2240  1.2743
 5353SOL    HW227522   2.547   2.693   2.212 -1.8051 -0.8512 -3.5281
 5354SOL     OW27523   1.257   1.440   9.297 -0.1953 -0.2340 -0.1599
 5354SOL    HW127524   1.173   1.486   9.304  0.6661  1.5402 -1.3353
 5354SOL    HW227525   1.244   1.383   9.221 -0.8324 -0.0237 -0.2038
 5355SOL     OW27526   3.885   3.410   4.782  0.1701  0.3629 -0.3603
 5355SOL    HW127527   3.792   3.393   4.798  0.4249  0.1714  0.9699
 5355SOL    HW227528   3.926   3.402   4.869 -2.2713 -2.3472  0.5400
 5356SOL     OW27529   0.182   3.557   2.087  0.1177 -0.0646 -0.1261
 5356SOL    HW127530   0.126   3.546   2.010 -0.2986  0.2306  0.1362
 5356SOL    HW227531   0.200   3.650   2.072  0.6472  0.4175  3.7367
 5357SOL     OW27532   0.397   4.159   2.794  0.2740 -0.0369 -0.0709
 5357SOL    HW127533   0.371   4.182   2.705  3.0956 -0.4626 -1.0181
 5357SOL    HW227534   0.473   4.107   2.768 -2.6856 -4.4752  0.0977
 5358SOL     OW27535   2.182   4.013  11.134  0.2154  0.3879  0.7316
 5358SOL    HW127536   2.257   3.970  11.094 -0.9162  0.2959 -1.2621
 5358SOL    HW227537   2.212   4.103  11.122 -2.2547  1.2028  0.6297
 5359SOL     OW27538   4.448   3.890   1.607 -0.2493  0.4849 -0.2953
 5359SOL    HW127539   4.479   3.973   1.643  0.1916 -0.5140  1.6388
 5359SOL    HW227540   4.443   3.920   1.517  0.2385  1.7879  0.1208
 5360SOL     OW27541   4.091   4.061   8.923  0.9337 -0.1068  0.3516
 5360SOL    HW127542   4.085   4.133   8.987 -1.3456 -1.4297  1.6353
 5360SOL    HW227543   3.998   4.042   8.910  1.0907 -0.2804 -0.4655
 5361SOL     OW27544   4.260   3.048   4.211 -0.0133 -0.1799 -0.5108
 5361SOL    HW127545   4.180   3.036   4.261 -0.1504  1.1067 -0.4437
 5361SOL    HW227546   4.214   3.077   4.132 -0.2971  0.5509 -0.0726
 5362SOL     OW27547   3.951   0.837   1.832 -0.1473  0.0241 -0.6254
 5362SOL    HW127548   3.883   0.889   1.874  0.9041  0.1208  0.9771
 5362SOL    HW227549   4.021   0.902   1.819  1.0176 -0.7441  1.8800
 5363SOL     OW27550   1.578   4.199  15.149  0.5528  0.5252  0.9491
 5363SOL    HW127551   1.483   4.187  15.150  0.5037  1.0148  1.9912
 5363SOL    HW227552   1.585   4.285  15.108  0.4446  1.0967  2.1177
 5364SOL     OW27553   3.292   4.210   7.882  0.3891  0.3189  0.2986
 5364SOL    HW127554   3.300   4.293   7.835  1.8578 -0.3002 -0.5392
 5364SOL    HW227555   3.291   4.253   7.967 -1.1744 -0.3922  0.6236
 5365SOL     OW27556   0.883   4.170   6.787  0.3787 -0.3873  0.3108
 5365SOL    HW127557   0.916   4.225   6.717 -0.5569 -1.4398 -0.9646
 5365SOL    HW227558   0.802   4.219   6.803 -0.5043 -2.0147  0.8218
 5366SOL     OW27559   1.392   4.120   7.483  0.0966 -0.2935  0.4181
 5366SOL    HW127560   1.434   4.038   7.460  2.7112  0.5366  2.2277
 5366SOL    HW227561   1.422   4.144   7.571 -0.4629  1.9409  0.0151
 5367SOL     OW27562   1.704   3.722   2.398  0.4759 -0.0653 -0.0594
 5367SOL    HW127563   1.724   3.709   2.305  1.6971  0.1028  0.1764
 5367SOL    HW227564   1.716   3.816   2.409  3.2101 -0.3326 -0.8264
 5368SOL     OW27565   2.538   3.824   6.743 -0.0835 -0.7687  0.7531
 5368SOL    HW127566   2.555   3.902   6.690  1.0621  0.3978  2.8082
 5368SOL    HW227567   2.623   3.821   6.787  0.3143  1.1281  0.1076
 5369SOL     OW27568   1.435   3.935   5.805  0.3220  0.7219  0.0823
 5369SOL    HW127569   1.453   3.966   5.716  1.6076 -0.7058 -0.1490
 5369SOL    HW227570   1.474   4.005   5.857  2.1394 -0.5584  0.4485
 5370SOL     OW27571   0.785   3.346   6.548  0.1718 -0.2060  0.4300
 5370SOL    HW127572   0.712   3.344   6.610  0.1571  2.7461  0.5060
 5370SOL    HW227573   0.789   3.438   6.521 -0.6648 -0.3778 -0.2712
 5371SOL     OW27574   2.496   0.533   7.366 -0.0572 -0.4465  0.0874
 5371SOL    HW127575   2.532   0.478   7.436 -0.0564 -0.8305 -0.2165
 5371SOL    HW227576   2.538   0.490   7.292 -0.1936  0.9988 -0.8286
 5372SOL     OW27577   4.503   4.316   4.378 -0.1630 -0.2250 -0.3206
 5372SOL    HW127578   4.591   4.352   4.366  0.0935 -0.2986  1.3545
 5372SOL    HW227579   4.492   4.250   4.310  2.5237 -0.3244 -0.6550
 5373SOL     OW27580   3.558   0.908   6.933  0.2219 -0.6002 -0.3276
 5373SOL    HW127581   3.493   0.839   6.950  0.9314 -1.4314 -0.9652
 5373SOL    HW227582   3.628   0.896   6.998  0.2125  1.6490  0.0822
 5374SOL     OW27583   3.073   0.540   5.066 -0.1187  0.4167 -0.3116
 5374SOL    HW127584   3.019   0.471   5.105 -0.7803 -0.1441 -2.2686
 5374SOL    HW227585   3.016   0.616   5.062 -3.0405 -1.8809 -2.4682
 5375SOL     OW27586   1.617   2.468  16.667  0.2756  0.5413 -0.2043
 5375SOL    HW127587   1.655   2.416  16.596  2.2132 -0.9762  1.9485
 5375SOL    HW227588   1.568   2.529  16.613 -2.0352 -1.5704 -0.5027
 5376SOL     OW27589   3.247   1.137   5.517  0.0336  0.6391 -0.9930
 5376SOL    HW127590   3.208   1.136   5.604 -0.1334 -0.6038 -1.0741
 5376SOL    HW227591   3.171   1.151   5.462  0.1735 -1.7938 -1.8104
 5377SOL     OW27592   0.303   2.418   6.935  0.5197 -0.0937  0.2609
 5377SOL    HW127593   0.312   2.373   6.851 -1.4418 -1.0356  0.5658
 5377SOL    HW227594   0.271   2.506   6.917  2.0122  0.1693 -1.1038
 5378SOL     OW27595   1.479   1.231  13.146  0.1351 -0.2584 -0.3098
 5378SOL    HW127596   1.473   1.324  13.165  0.1729 -0.4032  0.4007
 5378SOL    HW227597   1.444   1.191  13.226 -1.0720  1.6264  0.0873
 5379SOL     OW27598   2.355   3.315  14.332  0.5784  0.5941  0.1480
 5379SOL    HW127599   2.378   3.391  14.278 -1.4334  0.5294 -0.7815
 5379SOL    HW227600   2.279   3.288  14.282 -0.2808  1.8603  0.7501
 5380SOL     OW27601   4.714   1.611   4.935 -0.3034 -0.1876  0.0167
 5380SOL    HW127602   0.013   1.631   4.846 -1.2320 -0.5142 -0.3459
 5380SOL    HW227603   4.690   1.699   4.965  1.3662  1.1651 -2.6336
 5381SOL     OW27604   0.739   0.153  13.511  0.2370 -0.5451  0.5346
 5381SOL    HW127605   0.811   0.200  13.553 -0.2040  0.9839 -0.4180
 5381SOL    HW227606   0.756   0.063  13.537  1.8343 -0.6861 -1.0146
 5382SOL     OW27607   2.842   3.124   6.850  0.1029  0.3157 -0.0783
 5382SOL    HW127608   2.913   3.144   6.789  0.6760 -0.9217  0.1820
 5382SOL    HW227609   2.822   3.035   6.821 -0.1993 -0.5280  2.6606
 5383SOL     OW27610   1.972   0.543  10.387  0.0856 -0.0382 -0.6428
 5383SOL    HW127611   1.944   0.599  10.315 -2.0171 -1.5837 -1.0114
 5383SOL    HW227612   1.960   0.454  10.355  0.0104 -0.3955  0.3580
 5384SOL     OW27613   2.299   3.768   8.767  0.6027  0.3319 -0.0177
 5384SOL    HW127614   2.223   3.733   8.812  1.2244 -0.1200  0.6843
 5384SOL    HW227615   2.261   3.792   8.682  0.8380 -1.0835 -0.5277
 5385SOL     OW27616   3.653   1.502   3.952  0.3621  0.0715 -0.4932
 5385SOL    HW127617   3.726   1.545   3.997  2.4086 -2.4677 -1.4392
 5385SOL    HW227618   3.694   1.425   3.912 -0.3859  0.3557 -1.7984
 5386SOL     OW27619   0.188   2.465   5.613 -0.2405  0.4537  0.1098
 5386SOL    HW127620   0.117   2.425   5.562  0.8885 -0.2574 -0.9134
 5386SOL    HW227621   0.165   2.449   5.704 -1.0817 -1.9541 -0.5048
 5387SOL     OW27622   2.419   1.635  17.293 -0.0277  0.4448 -0.0665
 5387SOL    HW127623   2.440   1.577  17.366  1.0266 -2.2818 -2.5043
 5387SOL    HW227624   2.448   1.713  17.339  0.7312  0.3201 -0.3292
 5388SOL     OW27625   4.666   0.676  16.649 -0.8575  0.1680 -0.2475
 5388SOL    HW127626   4.695   0.767  16.646  2.8243 -1.0316 -0.6984
 5388SOL    HW227627   4.593   0.687  16.709 -1.9405 -2.7970 -0.9996
 5389SOL     OW27628   4.715   3.455  11.399  0.2911 -0.8613 -0.4504
 5389SOL    HW127629   4.643   3.392  11.391 -1.7240  1.4918 -0.8260
 5389SOL    HW227630   4.677   3.540  11.380 -1.4798 -1.4990  0.3209
 5390SOL     OW27631   0.431   4.541   7.083 -0.3145 -0.1767 -0.7148
 5390SOL    HW127632   0.489   4.543   7.159 -2.5434  0.1284  0.9773
 5390SOL    HW227633   0.460   4.463   7.036 -0.4279  0.2881 -1.5746
 5391SOL     OW27634   3.340   2.845  13.769  0.1957 -0.0871 -0.0657
 5391SOL    HW127635   3.268   2.879  13.820  0.3874 -1.0913  0.8611
 5391SOL    HW227636   3.380   2.784  13.831 -1.9708 -1.3106  0.0948
 5392SOL     OW27637   0.874   2.126  10.226 -0.0221 -0.1620 -0.1714
 5392SOL    HW127638   0.888   2.032  10.222  0.4096 -0.2196  2.2590
 5392SOL    HW227639   0.888   2.130  10.321  0.0484  3.4664 -0.3324
 5393SOL     OW27640   2.082   3.938   8.105 -0.2133 -0.1886  0.1539
 5393SOL    HW127641   2.035   3.957   8.186 -0.8672  0.9262 -0.4976
 5393SOL    HW227642   2.125   4.023   8.099 -1.3812  0.1675 -2.8389
 5394SOL     OW27643   4.703   1.673  15.555  0.1298 -0.1282  0.1531
 5394SOL    HW127644   0.056   1.721  15.569  0.0710  0.4339 -1.4354
 5394SOL    HW227645   4.644   1.736  15.597  2.0360  0.4808  1.9260
 5395SOL     OW27646   1.484   2.575   4.056 -0.1125 -0.2371  0.3077
 5395SOL    HW127647   1.462   2.534   3.972  3.2540 -0.0979 -0.6266
 5395SOL    HW227648   1.561   2.625   4.030 -0.4772 -0.1162 -0.5633
 5396SOL     OW27649   0.757   2.936   4.860  0.1641 -0.0398  0.2759
 5396SOL    HW127650   0.852   2.942   4.855  0.1554  0.7403  0.9249
 5396SOL    HW227651   0.738   3.004   4.925 -0.1540 -0.0109  0.1529
 5397SOL     OW27652   2.276   2.281  15.107  0.1097 -0.1540  0.4883
 5397SOL    HW127653   2.328   2.266  15.029  0.6789 -0.4582  0.9249
 5397SOL    HW227654   2.307   2.204  15.156 -1.5004 -1.5897 -0.7708
 5398SOL     OW27655   3.832   1.936   6.130 -0.1892  0.0650 -0.0523
 5398SOL    HW127656   3.892   1.930   6.056 -1.2682  1.0209 -1.0199
 5398SOL    HW227657   3.884   1.966   6.205 -0.2006  2.4083 -0.9632
 5399SOL     OW27658   0.980   1.887  16.953 -0.2509  0.9253  0.0830
 5399SOL    HW127659   0.901   1.872  17.005  1.2510 -1.1738  1.7796
 5399SOL    HW227660   1.040   1.830  17.001 -1.8787 -0.4964  0.4549
 5400SOL     OW27661   4.343   0.924   4.339  0.2597  0.0114 -0.0392
 5400SOL    HW127662   4.281   0.971   4.283  0.1179  1.0012  0.9701
 5400SOL    HW227663   4.343   0.840   4.293  0.6184 -0.2752  0.5000
 5401SOL     OW27664   4.407   2.481   2.146  0.0621 -0.4286  0.1992
 5401SOL    HW127665   4.419   2.576   2.145  1.3958 -0.5592  2.2215
 5401SOL    HW227666   4.462   2.448   2.075  0.8645  1.6205 -0.1245
 5402SOL     OW27667   4.192   3.822   9.434  0.2310 -0.2901 -0.3635
 5402SOL    HW127668   4.148   3.905   9.451  0.3803 -0.0261 -1.2692
 5402SOL    HW227669   4.206   3.835   9.341 -0.3636 -0.3567 -0.4647
 5403SOL     OW27670   1.928   1.553  10.593 -0.6530 -0.0352  0.2960
 5403SOL    HW127671   1.901   1.473  10.549  1.0512 -2.6282  3.9023
 5403SOL    HW227672   2.001   1.570  10.534  0.0791  1.4883  1.6448
 5404SOL     OW27673   3.031   1.573  11.259  0.5305  0.4050  0.2675
 5404SOL    HW127674   3.095   1.626  11.307 -0.9028  0.1674  2.4414
 5404SOL    HW227675   2.960   1.568  11.322 -1.0333  1.1942 -1.4305
 5405SOL     OW27676   0.906   1.584   1.542 -0.4905 -0.4795  0.3187
 5405SOL    HW127677   0.939   1.495   1.554  0.3619 -0.1065  0.7634
 5405SOL    HW227678   0.962   1.625   1.476  0.7617 -0.6948  1.2371
 5406SOL     OW27679   4.547   3.125  12.254 -0.2426  0.5306  0.1236
 5406SOL    HW127680   4.559   3.127  12.159  0.6463  2.8503  0.3043
 5406SOL    HW227681   4.477   3.187  12.273  1.0445  2.1978 -0.6794
 5407SOL     OW27682   1.304   3.879  15.823 -0.8023  0.4230 -0.1628
 5407SOL    HW127683   1.347   3.913  15.744  0.6271  1.7623  1.1787
 5407SOL    HW227684   1.242   3.947  15.848 -1.8829 -1.5787  2.5382
 5408SOL     OW27685   1.019   3.748   3.732 -0.2149  0.3651 -0.2985
 5408SOL    HW127686   0.933   3.728   3.694 -0.2209  1.0304 -0.6374
 5408SOL    HW227687   1.022   3.834   3.691  0.6782 -0.1309 -1.2760
 5409SOL     OW27688   2.845   2.073   5.693 -0.4473 -0.3828  0.2617
 5409SOL    HW127689   2.786   2.111   5.628 -0.3376  0.1941  0.5001
 5409SOL    HW227690   2.795   1.996   5.721 -2.2326  0.7794  0.2479
 5410SOL     OW27691   2.088   1.475   7.721  0.1565 -0.8195 -0.0295
 5410SOL    HW127692   2.128   1.539   7.662  1.3785 -2.2340 -0.7144
 5410SOL    HW227693   2.033   1.422   7.664 -1.5378  0.6987  0.2017
 5411SOL     OW27694   3.424   0.386   4.759  0.2337  0.0131  0.5481
 5411SOL    HW127695   3.492   0.363   4.823 -1.2824 -3.6927  0.8072
 5411SOL    HW227696   3.488   0.419   4.695  1.2489 -0.7440  1.1666
 5412SOL     OW27697   2.349   3.142  12.545  0.4314 -0.1940  0.1400
 5412SOL    HW127698   2.384   3.101  12.466 -4.3024 -1.6867 -1.1943
 5412SOL    HW227699   2.281   3.077  12.561 -0.5819  0.5962 -0.9649
 5413SOL     OW27700   1.449   3.946   5.251  0.1205  0.1484 -0.1118
 5413SOL    HW127701   1.530   3.916   5.209 -0.4157 -1.5292  0.0669
 5413SOL    HW227702   1.470   4.038   5.233 -1.5158  0.4283 -0.5217
 5414SOL     OW27703   1.717   1.572   9.552 -0.1812  0.2336 -0.8233
 5414SOL    HW127704   1.723   1.582   9.457  0.0388  0.1270 -0.8195
 5414SOL    HW227705   1.628   1.600   9.575  0.5647  1.3664  0.6639
 5415SOL     OW27706   1.588   0.806   7.653  0.1936  0.3655 -0.6253
 5415SOL    HW127707   1.625   0.718   7.666  1.0538  0.4961 -2.0879
 5415SOL    HW227708   1.604   0.837   7.742 -1.7444  1.9680 -0.8499
 5416SOL     OW27709   1.049   2.116   2.287  0.0940 -0.4212 -0.2086
 5416SOL    HW127710   0.991   2.190   2.268 -1.1151 -1.3613 -0.1590
 5416SOL    HW227711   1.130   2.166   2.279  0.1664 -0.1114  2.3365
 5417SOL     OW27712   2.758   3.413   2.774  0.4585 -0.2603  0.1938
 5417SOL    HW127713   2.691   3.350   2.749  0.0917  0.9737 -1.9480
 5417SOL    HW227714   2.818   3.348   2.811 -1.5148 -1.5643  1.1313
 5418SOL     OW27715   3.066   1.138   4.172  0.7810 -0.2762 -0.4775
 5418SOL    HW127716   3.030   1.205   4.230 -0.1190  0.7410 -2.2076
 5418SOL    HW227717   3.017   1.151   4.091 -2.0345 -0.4672  1.2127
 5419SOL     OW27718   3.716   1.232   3.335 -0.6518  0.6927 -0.8036
 5419SOL    HW127719   3.662   1.311   3.340 -0.2900  0.7657  2.1029
 5419SOL    HW227720   3.687   1.195   3.418 -1.5357 -0.7863 -1.7614
 5420SOL     OW27721   1.940   3.225  12.387 -0.2688 -0.1023 -0.0415
 5420SOL    HW127722   1.929   3.217  12.482 -1.0668 -2.0434 -0.2943
 5420SOL    HW227723   1.849   3.219  12.357 -0.5029  0.5218  0.5607
 5421SOL     OW27724   1.803   0.611   4.669  0.0495  0.4326  0.0566
 5421SOL    HW127725   1.884   0.571   4.702  0.2623 -0.9756 -2.1345
 5421SOL    HW227726   1.788   0.682   4.731  0.2083 -1.3376  2.1246
 5422SOL     OW27727   3.233   2.590   1.724  0.0555 -0.0627  0.4340
 5422SOL    HW127728   3.293   2.648   1.675  0.0927 -1.0008 -0.6239
 5422SOL    HW227729   3.234   2.511   1.670 -0.6740  1.1806 -1.4191
 5423SOL     OW27730   0.302   0.908  11.263  0.0197 -0.0817 -0.8477
 5423SOL    HW127731   0.216   0.879  11.294 -0.1429  1.1371 -0.1990
 5423SOL    HW227732   0.350   0.825  11.268 -1.9721 -1.2336 -0.9691
 5424SOL     OW27733   2.286   4.397   3.932 -0.1091 -0.5084 -0.2725
 5424SOL    HW127734   2.297   4.453   3.856 -1.2846 -0.2831 -0.2744
 5424SOL    HW227735   2.250   4.314   3.901 -0.1697 -0.4441 -0.3711
 5425SOL     OW27736   1.298   2.343   2.304  0.4347  0.3463  0.4466
 5425SOL    HW127737   1.274   2.326   2.213  0.5372 -0.9487  0.6569
 5425SOL    HW227738   1.358   2.417   2.298  0.7099 -0.1360 -2.9577
 5426SOL     OW27739   3.354   2.118  10.702  0.1287 -0.6255  0.0501
 5426SOL    HW127740   3.384   2.134  10.612 -0.5545  0.6248  0.0314
 5426SOL    HW227741   3.270   2.074  10.687 -0.4213 -0.5440  2.8815
 5427SOL     OW27742   0.361   1.577   4.880  0.2578  0.5414 -0.1847
 5427SOL    HW127743   0.417   1.524   4.823 -2.4295 -1.3892 -1.0633
 5427SOL    HW227744   0.284   1.520   4.888 -0.3222  1.6087  1.6190
 5428SOL     OW27745   3.867   2.386   9.454 -0.3376 -0.2822 -0.3887
 5428SOL    HW127746   3.929   2.313   9.445  0.0006  0.0376 -0.6240
 5428SOL    HW227747   3.871   2.401   9.548  1.8098  0.8796 -0.6852
 5429SOL     OW27748   1.025   2.129  10.689  0.3338  0.0097  0.4051
 5429SOL    HW127749   0.957   2.192  10.712  0.9589  1.0053 -0.4509
 5429SOL    HW227750   0.970   2.057  10.721  2.7451 -1.7795  0.6002
 5430SOL     OW27751   3.074   0.928   4.340  0.0214  0.2491 -0.1805
 5430SOL    HW127752   2.980   0.913   4.337  0.2813 -1.4954  0.3834
 5430SOL    HW227753   3.076   1.000   4.277  2.0333  1.2168  0.9718
 5431SOL     OW27754   4.540   1.054   5.869 -0.2724 -0.5639  0.1230
 5431SOL    HW127755   4.629   1.031   5.894  0.3112  1.8737  0.3170
 5431SOL    HW227756   4.489   0.974   5.883 -2.8422  0.4357 -3.4220
 5432SOL     OW27757   0.437   4.567   3.684 -0.0056 -0.4451 -0.4410
 5432SOL    HW127758   0.515   4.615   3.656  1.5356  0.0230  4.6739
 5432SOL    HW227759   0.393   4.551   3.600 -0.4087  0.3739 -0.3868
 5433SOL     OW27760   2.726   1.895   2.546  0.3676  0.4528 -0.1132
 5433SOL    HW127761   2.810   1.941   2.551  1.4408 -1.3304 -1.5766
 5433SOL    HW227762   2.689   1.930   2.464  1.5344  0.4144 -0.6585
 5434SOL     OW27763   1.370   2.832   2.851 -0.1086  0.0224 -0.8376
 5434SOL    HW127764   1.384   2.738   2.847  1.8217  0.3953 -2.9221
 5434SOL    HW227765   1.332   2.848   2.764 -1.2215  1.9844 -0.0032
 5435SOL     OW27766   1.304   4.711   2.452 -0.0895  0.0428 -0.7237
 5435SOL    HW127767   1.368   0.048   2.480 -2.0444  2.0918 -1.0962
 5435SOL    HW227768   1.350   4.667   2.380  1.8985  0.9789 -0.0465
 5436SOL     OW27769   4.132   2.682  16.598  0.2578  0.2828  0.0221
 5436SOL    HW127770   4.132   2.722  16.685 -1.2477  0.9646 -0.2764
 5436SOL    HW227771   4.070   2.609  16.600  2.3432 -1.4663  1.0454
 5437SOL     OW27772   1.855   2.812   5.016 -0.1442  0.2725 -0.3196
 5437SOL    HW127773   1.843   2.854   4.931  0.6059  0.1084 -0.5108
 5437SOL    HW227774   1.770   2.820   5.059 -1.5365  1.3965 -3.2817
 5438SOL     OW27775   1.721   0.265   3.096 -0.2655  0.5471  0.1001
 5438SOL    HW127776   1.678   0.264   3.182 -1.4803  1.2334 -0.5080
 5438SOL    HW227777   1.717   0.360   3.080  1.1427  0.8280  1.4834
 5439SOL     OW27778   3.049   3.192  17.301  0.2755 -0.2848 -0.2819
 5439SOL    HW127779   2.984   3.139  17.255 -1.8546  1.1532  1.0037
 5439SOL    HW227780   3.064   3.262  17.237  1.1700  0.6236  0.9250
 5440SOL     OW27781   0.982   0.716  15.561  0.5530  0.5800 -0.1172
 5440SOL    HW127782   1.052   0.663  15.600 -0.2121 -1.3180 -1.3445
 5440SOL    HW227783   0.950   0.654  15.495  0.5689  0.5788 -0.1239
 5441SOL     OW27784   1.042   2.209   6.828 -0.2374  0.7547 -0.1349
 5441SOL    HW127785   0.972   2.145   6.812 -1.4135  1.5223  2.0046
 5441SOL    HW227786   1.110   2.182   6.766 -0.5988 -0.2725 -0.0838
 5442SOL     OW27787   2.126   1.127  10.411 -0.4282  0.0776 -0.1736
 5442SOL    HW127788   2.063   1.141  10.481  0.2639 -0.9083  0.6458
 5442SOL    HW227789   2.069   1.159  10.341  1.3139  0.0460 -1.6105
 5443SOL     OW27790   1.554   0.125   7.104 -0.3322  0.3428 -0.2443
 5443SOL    HW127791   1.604   0.046   7.084 -0.3505  0.5636 -1.1891
 5443SOL    HW227792   1.625   0.190   7.100  0.1081 -0.1437 -0.3420
 5444SOL     OW27793   2.211   2.118   4.582 -0.0629 -0.2902  0.0707
 5444SOL    HW127794   2.235   2.078   4.666  0.5674 -0.8315 -0.3578
 5444SOL    HW227795   2.253   2.204   4.588  1.2697 -0.8513 -1.1629
 5445SOL     OW27796   4.089   3.966   4.407  0.0167  0.2544  0.1835
 5445SOL    HW127797   4.087   3.874   4.432  2.5112  0.2834  0.4772
 5445SOL    HW227798   3.999   3.983   4.379 -0.8883  0.6465  3.2500
 5446SOL     OW27799   3.088   3.587   7.112  0.4889  0.7285 -0.2217
 5446SOL    HW127800   3.104   3.555   7.024  1.2913  0.3202  0.0767
 5446SOL    HW227801   3.074   3.679   7.089 -0.5874  0.5055 -0.4406
 5447SOL     OW27802   1.999   3.267   9.478  0.2054 -0.1602  0.0927
 5447SOL    HW127803   1.943   3.309   9.543 -2.8976  3.1697 -4.6736
 5447SOL    HW227804   2.040   3.349   9.448  1.2855 -0.3407  1.0858
 5448SOL     OW27805   1.885   2.643   3.546  0.2850 -0.5649  0.3356
 5448SOL    HW127806   1.926   2.724   3.516 -3.6239  1.5530  0.8342
 5448SOL    HW227807   1.872   2.660   3.639  0.2596 -0.3175  0.2857
 5449SOL     OW27808   2.201   0.030  11.933 -0.0082 -0.0607 -0.5648
 5449SOL    HW127809   2.282   0.078  11.950 -1.3058  1.7954  0.3686
 5449SOL    HW227810   2.137   0.080  11.984  0.4524 -1.0372  0.9646
 5450SOL     OW27811   1.974   2.424   2.614  0.2832 -0.4167  0.6153
 5450SOL    HW127812   1.958   2.354   2.551  0.9074 -1.3217  1.4659
 5450SOL    HW227813   1.964   2.503   2.560 -1.0649 -0.2286  1.1423
 5451SOL     OW27814   4.256   3.084   7.978  0.7240  0.0608  0.1919
 5451SOL    HW127815   4.285   3.130   8.056  0.9601  0.7086 -0.2770
 5451SOL    HW227816   4.170   3.056   8.010  0.0872  0.5208 -1.0977
 5452SOL     OW27817   1.207   1.632  14.864  0.4098  0.3589 -0.0946
 5452SOL    HW127818   1.117   1.655  14.886  1.0829  0.3032  2.7619
 5452SOL    HW227819   1.197   1.539  14.842 -1.1125  0.7790 -1.1353
 5453SOL     OW27820   0.378   1.058   8.321  0.2680  0.5730 -0.5248
 5453SOL    HW127821   0.364   0.997   8.249  1.0117 -0.7047  0.4072
 5453SOL    HW227822   0.423   0.995   8.377 -0.6378 -0.9350 -1.4998
 5454SOL     OW27823   2.295   1.039   9.026 -0.7735  0.2624 -0.1389
 5454SOL    HW127824   2.335   1.062   9.110  0.0748  0.3456 -0.5625
 5454SOL    HW227825   2.208   1.075   9.039  0.7806  2.8736  2.9932
 5455SOL     OW27826   3.579   2.116   9.354  0.1195  0.0123  0.0361
 5455SOL    HW127827   3.586   2.081   9.443 -1.8267  1.5745  0.8160
 5455SOL    HW227828   3.622   2.051   9.298  1.2387  1.2133 -0.5132
 5456SOL     OW27829   2.527   1.926   4.202 -0.4413 -0.7604 -0.0477
 5456SOL    HW127830   2.609   1.937   4.154  1.2430 -4.0196  2.1079
 5456SOL    HW227831   2.465   1.946   4.132 -0.7249  1.6689  0.8778
 5457SOL     OW27832   0.784   0.476   1.591  0.3899 -0.6927 -0.2341
 5457SOL    HW127833   0.719   0.507   1.528  0.0770  1.7898  1.3004
 5457SOL    HW227834   0.828   0.414   1.533  1.7170 -1.2498  1.3963
 5458SOL     OW27835   4.494   4.441   6.856  0.3214 -0.0704  0.5598
 5458SOL    HW127836   4.403   4.466   6.873  0.0132 -1.5107  1.0840
 5458SOL    HW227837   4.495   4.374   6.787  0.9048 -0.5928  1.0796
 5459SOL     OW27838   0.627   3.616   1.789 -0.6936 -0.0633  0.0805
 5459SOL    HW127839   0.681   3.610   1.710 -0.9900  0.4098 -0.1592
 5459SOL    HW227840   0.564   3.547   1.766 -1.8589  1.4588 -1.2827
 5460SOL     OW27841   3.909   3.834   1.692  0.1628  1.1374  0.1989
 5460SOL    HW127842   4.000   3.837   1.662 -0.0314 -0.1338 -0.5130
 5460SOL    HW227843   3.889   3.747   1.657 -0.0419  0.7745  1.2368
 5461SOL     OW27844   2.916   2.611  15.274 -0.0635  0.5852  0.7578
 5461SOL    HW127845   2.976   2.556  15.225 -0.5125  1.8014 -1.1596
 5461SOL    HW227846   2.927   2.700  15.240  1.3121 -0.9857 -2.8043
 5462SOL     OW27847   2.409   4.681   9.370  0.6557  0.1280 -0.2014
 5462SOL    HW127848   2.332   4.641   9.330  1.0578 -1.7592  0.9054
 5462SOL    HW227849   2.469   4.607   9.364 -0.2512 -0.3721 -3.1256
 5463SOL     OW27850   0.526   0.079   1.226  0.0209 -0.1910  1.1588
 5463SOL    HW127851   0.613   0.113   1.209  0.2120  1.0762  4.5395
 5463SOL    HW227852   0.509   0.126   1.308  2.0911  2.2676  0.1594
 5464SOL     OW27853   3.780   4.006  13.980 -0.1977 -0.5391  0.0142
 5464SOL    HW127854   3.806   3.936  14.039 -1.5675 -1.8218 -0.8970
 5464SOL    HW227855   3.845   4.073  14.000 -0.7585 -0.4199  1.3961
 5465SOL     OW27856   0.788   1.341  17.632  0.2123  0.0339 -0.0814
 5465SOL    HW127857   0.726   1.389  17.578  0.9133  1.7942  0.6642
 5465SOL    HW227858   0.745   1.256  17.629  0.8965 -0.2900 -0.6120
 5466SOL     OW27859   0.860   3.520  13.278 -0.0885 -0.1490 -0.1959
 5466SOL    HW127860   0.768   3.508  13.302 -0.5078 -0.7887 -2.1318
 5466SOL    HW227861   0.865   3.533  13.184  1.1169 -1.9254 -0.3831
 5467SOL     OW27862   2.054   0.904   6.233 -0.1111  0.4100 -0.1125
 5467SOL    HW127863   2.080   0.813   6.250 -3.4630 -0.4556  0.3966
 5467SOL    HW227864   1.991   0.928   6.301  1.8271  1.6456  1.2393
 5468SOL     OW27865   3.092   0.993   1.828 -0.6040 -0.1380  0.5401
 5468SOL    HW127866   3.103   1.053   1.754 -1.2047 -2.5856 -1.5731
 5468SOL    HW227867   3.016   1.024   1.877 -0.4979  2.1795 -0.7716
 5469SOL     OW27868   4.268   3.439   3.207 -0.1114  0.0241  0.0350
 5469SOL    HW127869   4.195   3.468   3.263 -0.7340 -1.4070 -0.0433
 5469SOL    HW227870   4.221   3.389   3.141  1.3737  1.6101 -2.2173
 5470SOL     OW27871   1.330   3.985  14.997  0.1600  0.6771  0.1872
 5470SOL    HW127872   1.322   4.035  15.078 -0.7509 -0.0601  0.5499
 5470SOL    HW227873   1.247   3.940  14.979  1.2026 -1.8870  1.6944
 5471SOL     OW27874   3.949   4.015   1.901  0.3361  0.5923  0.0786
 5471SOL    HW127875   3.932   3.944   1.839 -1.4660  0.0200  1.2252
 5471SOL    HW227876   3.994   4.082   1.850  2.6227 -0.4422  0.7302
 5472SOL     OW27877   4.237   0.224   2.920  0.5152 -0.1256 -0.1409
 5472SOL    HW127878   4.144   0.237   2.940  0.7851 -1.0034  1.6943
 5472SOL    HW227879   4.262   0.315   2.906  1.4617 -0.3180  0.3186
 5473SOL     OW27880   2.888   2.464  11.685 -0.1297  0.0297 -0.3364
 5473SOL    HW127881   2.814   2.524  11.690 -0.5441 -0.5864  0.9539
 5473SOL    HW227882   2.948   2.536  11.663 -0.1536 -0.8372 -3.1631
 5474SOL     OW27883   0.205   0.136   9.306 -0.0086 -0.1785 -0.0661
 5474SOL    HW127884   0.179   0.163   9.394  0.0772 -0.9317  0.1831
 5474SOL    HW227885   0.161   0.205   9.256  2.4768  0.8243 -0.8762
 5475SOL     OW27886   0.556   2.377   4.171 -0.1812 -0.1737  0.7703
 5475SOL    HW127887   0.527   2.323   4.245  0.9966  0.1552  1.4682
 5475SOL    HW227888   0.474   2.415   4.139  0.1899  0.7721  0.9589
 5476SOL     OW27889   3.297   2.870   7.513 -0.1771 -0.2145 -0.1393
 5476SOL    HW127890   3.279   2.817   7.436  1.0225 -0.1759 -0.4454
 5476SOL    HW227891   3.239   2.828   7.576 -0.6691 -1.2565 -1.3036
 5477SOL     OW27892   2.392   0.268   9.737  0.4690  0.0046 -0.1857
 5477SOL    HW127893   2.342   0.193   9.706  0.1567  0.0662  0.1726
 5477SOL    HW227894   2.475   0.225   9.759  0.1817 -1.0220 -1.1041
 5478SOL     OW27895   1.933   2.300  15.163  0.0492  0.3919  0.1733
 5478SOL    HW127896   2.003   2.237  15.146 -1.1910 -1.2633  1.2337
 5478SOL    HW227897   1.853   2.273  15.118  1.2314 -1.8259 -0.5781
 5479SOL     OW27898   4.252   1.441   8.034  0.0336  0.4074 -0.3900
 5479SOL    HW127899   4.311   1.512   8.009 -2.2061  2.0097 -1.2322
 5479SOL    HW227900   4.191   1.432   7.960  0.3703  2.5870 -0.9250
 5480SOL     OW27901   0.013   1.868  12.308  0.0236 -0.2824  0.4468
 5480SOL    HW127902   0.034   1.840  12.397  0.2118  1.2707  0.8818
 5480SOL    HW227903   4.659   1.915  12.316  0.5267  0.8333 -0.8315
 5481SOL     OW27904   2.372   2.194   2.902 -0.5199  0.1426  0.4965
 5481SOL    HW127905   2.282   2.160   2.894 -0.1826  0.2596 -3.9690
 5481SOL    HW227906   2.420   2.116   2.930  0.2106 -0.0801 -1.3779
 5482SOL     OW27907   1.923   3.759   9.238 -0.1386 -0.3492 -0.1440
 5482SOL    HW127908   2.013   3.749   9.268 -0.7620 -2.5631  0.9391
 5482SOL    HW227909   1.887   3.681   9.280  0.7022  0.7815  2.6869
 5483SOL     OW27910   2.636   3.751  16.608  0.1984  0.0836 -0.2044
 5483SOL    HW127911   2.604   3.737  16.697  1.8759  2.6977  0.8342
 5483SOL    HW227912   2.567   3.808  16.574  0.8141  1.9190  1.6260
 5484SOL     OW27913   3.469   0.766   3.686 -0.0990 -0.0497 -0.2775
 5484SOL    HW127914   3.526   0.840   3.708 -2.2164  1.9843 -1.6216
 5484SOL    HW227915   3.456   0.774   3.592 -0.4998 -0.6404 -0.2724
 5485SOL     OW27916   3.009   2.437   7.271 -0.4195 -0.3774 -0.0661
 5485SOL    HW127917   3.031   2.344   7.258  1.6062  0.1092 -0.1180
 5485SOL    HW227918   2.919   2.454   7.242 -0.3319 -0.7191 -0.5586
 5486SOL     OW27919   4.244   2.190  16.452 -0.0955 -0.4425 -0.7466
 5486SOL    HW127920   4.221   2.100  16.430  0.9937 -0.6747 -0.9119
 5486SOL    HW227921   4.185   2.218  16.522  0.2555 -0.4140 -0.4647
 5487SOL     OW27922   0.539   0.132   4.212  0.4874  0.8555 -0.9039
 5487SOL    HW127923   0.629   0.102   4.226 -0.4398 -1.1249  0.9954
 5487SOL    HW227924   0.555   0.219   4.177  0.9327  0.7765 -0.9087
 5488SOL     OW27925   2.562   0.496   2.661  0.1076 -0.4819 -0.0232
 5488SOL    HW127926   2.495   0.509   2.594  1.0101  1.2085 -0.6068
 5488SOL    HW227927   2.514   0.440   2.721 -0.7824 -1.9422 -2.0689
 5489SOL     OW27928   1.453   2.791   1.503 -0.3920  0.4770  0.4127
 5489SOL    HW127929   1.477   2.781   1.595  0.5315 -1.3907 -0.0299
 5489SOL    HW227930   1.408   2.710   1.479 -0.1386  0.1440  1.0687
 5490SOL     OW27931   3.605   2.624   6.110  0.3719 -0.0332 -0.3746
 5490SOL    HW127932   3.512   2.602   6.106  0.3646 -0.4274  1.9896
 5490SOL    HW227933   3.645   2.573   6.040  0.7205 -1.4146  0.8432
 5491SOL     OW27934   1.932   3.725   6.675 -0.6151 -0.3741  0.3357
 5491SOL    HW127935   1.894   3.788   6.735 -1.3753  0.8521 -1.4244
 5491SOL    HW227936   1.918   3.772   6.592 -0.8609 -0.2918  0.4219
 5492SOL     OW27937   0.001   2.279   2.831  0.2281  0.1752 -0.3290
 5492SOL    HW127938   4.637   2.268   2.809  0.3094  0.1378 -0.6609
 5492SOL    HW227939   4.721   2.332   2.910 -1.4518  1.8950 -1.6623
 5493SOL     OW27940   1.992   1.516   9.426  0.2452 -0.1756  0.3103
 5493SOL    HW127941   1.941   1.445   9.388  1.5693 -0.5483 -0.7724
 5493SOL    HW227942   2.021   1.569   9.352 -2.7177 -0.1146 -0.8129
 5494SOL     OW27943   2.197   1.638  13.986  0.4275  0.1786 -0.1503
 5494SOL    HW127944   2.108   1.663  14.010  0.2162 -1.1155  0.3807
 5494SOL    HW227945   2.246   1.706  14.032  0.1756 -0.2459  0.7468
 5495SOL     OW27946   0.993   3.833   6.170  0.1316 -0.1466  0.1974
 5495SOL    HW127947   0.901   3.849   6.188 -0.0179 -0.4182 -0.3421
 5495SOL    HW227948   0.990   3.763   6.105  1.6864 -1.0438  1.0608
 5496SOL     OW27949   1.899   1.890   2.233 -0.0252  0.3833 -0.3432
 5496SOL    HW127950   1.961   1.940   2.287  1.3074 -0.2323 -1.3151
 5496SOL    HW227951   1.825   1.948   2.214  0.1306  1.1940  1.5285
 5497SOL     OW27952   1.255   2.786   6.710  0.0722  0.2608  0.1058
 5497SOL    HW127953   1.221   2.853   6.651  2.2172 -0.1834 -1.6311
 5497SOL    HW227954   1.193   2.713   6.709  0.7458 -0.3058  0.2742
 5498SOL     OW27955   1.181   2.136   5.255  0.1207 -0.0899  0.5401
 5498SOL    HW127956   1.267   2.119   5.217 -0.2428 -0.9479  0.1071
 5498SOL    HW227957   1.169   2.222   5.216  0.0077  0.0200  0.8130
 5499SOL     OW27958   3.137   2.628   5.550  0.0370  0.6205  0.2859
 5499SOL    HW127959   3.216   2.576   5.556 -0.5902 -0.4583 -0.9166
 5499SOL    HW227960   3.076   2.589   5.612  1.8735 -1.8405  0.5149
 5500SOL     OW27961   2.036   2.108   2.881  0.7646 -0.1902 -0.1768
 5500SOL    HW127962   1.974   2.085   2.950  0.2012 -0.3339 -0.7299
 5500SOL    HW227963   2.035   2.204   2.875 -2.7710 -0.2772 -0.9042
 5501SOL     OW27964   2.157   0.246   5.513 -0.1535  0.5468 -0.1338
 5501SOL    HW127965   2.241   0.282   5.539  0.0007  0.1882 -0.1390
 5501SOL    HW227966   2.160   0.273   5.421  0.1754 -1.1802 -0.6360
 5502SOL     OW27967   3.549   4.263  15.639  0.7823  0.1130 -0.1285
 5502SOL    HW127968   3.522   4.234  15.726 -1.7328  0.6156 -0.7141
 5502SOL    HW227969   3.639   4.233  15.627  1.4159  3.1212 -2.7880
 5503SOL     OW27970   3.038   4.656  12.200 -0.1417  0.0031  0.1419
 5503SOL    HW127971   3.085   4.574  12.213 -1.4536 -0.7637  0.0927
 5503SOL    HW227972   3.059   4.700  12.118  3.2227 -1.3487  0.2941
 5504SOL     OW27973   3.483   3.724   8.855  0.1438  0.1768  0.0061
 5504SOL    HW127974   3.445   3.655   8.909  2.0843 -0.8484  0.0236
 5504SOL    HW227975   3.434   3.797   8.895  0.2720 -1.4124  3.0132
 5505SOL     OW27976   4.460   4.579   0.645 -0.3408 -0.2672  0.0144
 5505SOL    HW127977   4.371   4.597   0.616  0.9192  3.1423 -1.8392
 5505SOL    HW227978   4.520   4.610   0.576  2.2812 -1.6521  1.6788
 5506SOL     OW27979   0.062   1.407   3.516  0.2718  0.5099 -0.4934
 5506SOL    HW127980   0.093   1.407   3.426  0.9436  1.4513 -0.2584
 5506SOL    HW227981   4.705   1.441   3.491  1.0763  2.9178  0.0069
 5507SOL     OW27982   3.781   2.509  15.411  0.6873 -0.3669 -0.0486
 5507SOL    HW127983   3.807   2.545  15.327 -0.1625  0.1146 -0.1081
 5507SOL    HW227984   3.844   2.437  15.421 -0.3686 -1.0793  1.5679
 5508SOL     OW27985   3.329   3.322   5.254  0.2739 -0.3491 -0.5740
 5508SOL    HW127986   3.238   3.294   5.251  0.0820  0.3891 -1.6329
 5508SOL    HW227987   3.320   3.386   5.325  1.6995 -0.4064 -0.3432
 5509SOL     OW27988   0.903   2.726  12.351 -0.4101 -0.7128 -0.5977
 5509SOL    HW127989   0.910   2.786  12.425  0.0738  0.7095 -1.7706
 5509SOL    HW227990   0.832   2.670  12.382 -3.0150  2.6658 -0.4466
 5510SOL     OW27991   1.669   0.566  17.583  0.6081 -0.2558  0.0578
 5510SOL    HW127992   1.747   0.514  17.561  0.8469  0.3224 -0.4318
 5510SOL    HW227993   1.675   0.650  17.539  0.3230 -1.2936 -1.9522
 5511SOL     OW27994   0.369   2.295   6.280  0.3850  0.0939 -0.8108
 5511SOL    HW127995   0.456   2.268   6.311 -0.3856 -1.7259 -0.2798
 5511SOL    HW227996   0.391   2.287   6.187 -0.5230  3.4731 -1.3205
 5512SOL     OW27997   0.469   2.200  13.175  0.0936 -0.3114 -0.5554
 5512SOL    HW127998   0.530   2.194  13.248  1.1549  3.0838 -1.1652
 5512SOL    HW227999   0.403   2.135  13.198 -1.3602  1.1583 -0.5447
 5513SOL     OW28000   2.354   4.043   7.410  0.1996  0.2091  0.1930
 5513SOL    HW128001   2.295   4.069   7.339  0.2778 -0.7754 -0.2303
 5513SOL    HW228002   2.381   4.131   7.436  0.7479  0.1133 -0.0515
 5514SOL     OW28003   2.996   4.579   2.367  0.6102  0.2327  0.3678
 5514SOL    HW128004   2.951   4.664   2.362  0.6966  0.2357 -0.4025
 5514SOL    HW228005   2.958   4.546   2.448 -0.7413 -2.0366 -1.2148
 5515SOL     OW28006   1.545   1.814   8.590  0.1054 -0.1483  0.0545
 5515SOL    HW128007   1.563   1.908   8.598 -0.8510 -0.0285  0.8203
 5515SOL    HW228008   1.599   1.774   8.657 -0.6049  0.8366  1.2043
 5516SOL     OW28009   4.069   1.446   0.628  0.4560 -0.0049  0.0687
 5516SOL    HW128010   4.078   1.429   0.721  1.5215 -0.8426 -0.1850
 5516SOL    HW228011   4.002   1.383   0.603 -0.6717  1.2163  0.0236
 5517SOL     OW28012   0.892   1.679   9.131 -0.7419 -0.1157  0.3045
 5517SOL    HW128013   0.929   1.703   9.046 -0.7303  0.4420  0.4687
 5517SOL    HW228014   0.813   1.733   9.125 -0.9165 -0.0819  3.0051
 5518SOL     OW28015   4.171   2.326  13.204 -0.2548 -0.3160  0.7320
 5518SOL    HW128016   4.248   2.382  13.219 -0.1576 -0.0321 -0.7927
 5518SOL    HW228017   4.226   2.258  13.163 -0.4834  0.4190 -0.8193
 5519SOL     OW28018   3.587   1.136  15.624 -0.6703 -0.4473 -0.5048
 5519SOL    HW128019   3.510   1.146  15.680  0.2807  2.4832  0.2425
 5519SOL    HW228020   3.603   1.229  15.610  1.0159 -0.4432  1.4947
 5520SOL     OW28021   3.378   0.871   4.803  0.2777 -0.5322  0.1505
 5520SOL    HW128022   3.373   0.778   4.782  0.4029 -0.1353 -1.6083
 5520SOL    HW228023   3.421   0.870   4.889 -0.0507  0.7008  0.3310
 5521SOL     OW28024   3.340   2.956  10.229 -0.1384 -0.7827 -0.0712
 5521SOL    HW128025   3.310   2.923  10.313  0.4777 -1.4743 -0.1262
 5521SOL    HW228026   3.433   2.942  10.245 -0.3239  0.0046  1.6558
 5522SOL     OW28027   3.008   3.927  11.508  0.2554  0.4463  0.3941
 5522SOL    HW128028   2.991   3.943  11.601  0.0358 -0.6031  0.5344
 5522SOL    HW228029   2.991   4.006  11.456 -0.8548  0.1820  0.3515
 5523SOL     OW28030   0.794   1.290   1.714  0.4824 -0.2308  0.0514
 5523SOL    HW128031   0.838   1.206   1.701  0.2176 -0.0744 -1.9607
 5523SOL    HW228032   0.706   1.254   1.710 -0.4966  1.8537  2.8432
 5524SOL     OW28033   2.502   1.065  16.439  0.0252  0.3187 -0.4459
 5524SOL    HW128034   2.550   0.984  16.457  0.9657  0.8173 -0.7379
 5524SOL    HW228035   2.409   1.043  16.431  0.3288 -1.0458 -0.3391
 5525SOL     OW28036   2.760   0.849   8.055 -0.3768 -0.3475 -0.1269
 5525SOL    HW128037   2.853   0.830   8.069 -0.3826 -0.8568 -0.7889
 5525SOL    HW228038   2.766   0.920   7.991 -0.0731  0.9665  1.3428
 5526SOL     OW28039   3.560   2.723   5.689  0.1856 -0.5334  0.3202
 5526SOL    HW128040   3.504   2.790   5.726  1.5865  0.2331  1.0544
 5526SOL    HW228041   3.636   2.778   5.669  1.7913 -1.9139  2.5692
 5527SOL     OW28042   1.021   3.422   6.299  0.1068 -0.2248 -0.1939
 5527SOL    HW128043   0.937   3.467   6.291 -0.1614 -0.8035 -0.7336
 5527SOL    HW228044   1.068   3.458   6.373  0.4865  0.5857 -0.8345
 5528SOL     OW28045   3.297   3.060   3.086  0.1983 -0.0393  0.0588
 5528SOL    HW128046   3.345   3.019   3.158  0.5458  2.0969  1.0512
 5528SOL    HW228047   3.348   3.021   3.015  0.6284  0.8321 -0.1127
 5529SOL     OW28048   1.572   1.448   4.042 -0.0452 -0.4078 -0.2909
 5529SOL    HW128049   1.567   1.503   4.121 -1.3330 -1.5999  0.4550
 5529SOL    HW228050   1.625   1.384   4.089 -0.8071  0.5578  1.8927
 5530SOL     OW28051   1.322   0.108   4.758  0.2454 -0.2619 -0.2455
 5530SOL    HW128052   1.256   0.059   4.807  2.3991  0.0697  2.9177
 5530SOL    HW228053   1.284   0.194   4.741  0.1636  0.0885  1.7600
 5531SOL     OW28054   3.374   2.262  13.722 -0.0556 -0.3140 -0.1475
 5531SOL    HW128055   3.313   2.290  13.654 -0.6527 -0.7036  0.2278
 5531SOL    HW228056   3.425   2.195  13.677  0.3590 -1.7642  2.5057
 5532SOL     OW28057   0.377   3.541   8.793 -0.1983  0.0273 -0.6924
 5532SOL    HW128058   0.460   3.558   8.838 -2.0392  2.4848  1.7022
 5532SOL    HW228059   0.318   3.609   8.824 -0.5833 -0.5214 -0.2133
 5533SOL     OW28060   4.013   0.168   6.076  0.1571  0.4694 -0.0669
 5533SOL    HW128061   4.105   0.144   6.087 -0.2377 -1.6351 -1.3065
 5533SOL    HW228062   3.993   0.239   6.137 -1.5594  1.5233 -1.8605
 5534SOL     OW28063   1.969   0.408   5.023 -0.2012  0.1596 -0.1273
 5534SOL    HW128064   2.052   0.361   5.014 -0.5082 -0.6933  1.5627
 5534SOL    HW228065   1.975   0.470   5.095  2.1600 -0.4216  0.1840
 5535SOL     OW28066   3.944   1.556  13.399 -0.1389 -1.0833 -0.5188
 5535SOL    HW128067   3.951   1.537  13.305  3.7899 -0.3471 -0.3904
 5535SOL    HW228068   3.875   1.622  13.407 -2.7723 -3.5230 -3.2702
 5536SOL     OW28069   4.112   1.054   1.762 -0.5606 -0.4387 -0.4969
 5536SOL    HW128070   4.100   1.142   1.725 -0.6584  0.0704  0.7221
 5536SOL    HW228071   4.189   1.020   1.719 -2.2136 -3.0804 -1.3350
 5537SOL     OW28072   3.808   3.599   1.592 -0.2670 -0.2234 -0.4744
 5537SOL    HW128073   3.781   3.583   1.502  1.4280  0.3799 -1.1038
 5537SOL    HW228074   3.721   3.594   1.631  0.2660 -1.9260  0.5012
 5538SOL     OW28075   4.707   3.264   0.034  0.0163  0.2003  0.5842
 5538SOL    HW128076   4.687   3.171   0.046 -0.0737  0.2554  0.8611
 5538SOL    HW228077   4.623   3.302   0.007  0.4072 -0.4951 -1.6310
 5539SOL     OW28078   3.981   0.376   1.109  0.3224  0.4756  0.3776
 5539SOL    HW128079   3.990   0.304   1.171  0.0162 -1.3519 -1.6765
 5539SOL    HW228080   3.893   0.408   1.129 -0.4919  0.4341 -3.0372
 5540SOL     OW28081   1.897   1.075   6.437 -0.1650  0.2728 -0.1575
 5540SOL    HW128082   1.824   1.046   6.383 -0.5161  0.0931  0.4066
 5540SOL    HW228083   1.901   1.168   6.416  1.1121  0.7045  1.9595
 5541SOL     OW28084   4.297   1.486   4.747 -0.1046 -0.1604 -0.4448
 5541SOL    HW128085   4.383   1.496   4.706  0.1516  0.7752  0.3153
 5541SOL    HW228086   4.293   1.393   4.727 -0.3874  0.0460 -1.3277
 5542SOL     OW28087   2.694   0.157   6.635 -0.1567  0.1277  0.3081
 5542SOL    HW128088   2.600   0.157   6.650 -0.2860 -1.5966 -0.5044
 5542SOL    HW228089   2.718   0.241   6.675 -1.8474  0.4184  0.6977
 5543SOL     OW28090   1.585   2.534   2.050  0.2518  0.7221 -0.0899
 5543SOL    HW128091   1.580   2.448   2.008  1.6235 -0.3385  1.9227
 5543SOL    HW228092   1.656   2.578   2.004  0.0120 -0.0901 -1.2679
 5544SOL     OW28093   0.572   2.361   7.037  0.3692  0.2090 -0.1793
 5544SOL    HW128094   0.550   2.270   7.014  1.0167  0.2378 -0.8916
 5544SOL    HW228095   0.486   2.403   7.025 -0.8825 -1.4857  2.9636
 5545SOL     OW28096   4.709   4.037   2.444  0.2163 -0.0349 -0.5288
 5545SOL    HW128097   0.015   4.062   2.530 -0.6042  1.2208 -0.5663
 5545SOL    HW228098   4.635   4.097   2.438 -0.0761 -0.0803  2.4754
 5546SOL     OW28099   1.879   3.695   6.264 -0.3693  0.0541 -0.5182
 5546SOL    HW128100   1.845   3.710   6.176  0.0426 -2.2567 -1.0567
 5546SOL    HW228101   1.881   3.600   6.266  0.0467  0.0868  0.3976
 5547SOL     OW28102   3.573   4.466  14.582 -0.1688  0.1586  0.2209
 5547SOL    HW128103   3.666   4.455  14.563 -0.1521 -0.4194  0.6435
 5547SOL    HW228104   3.532   4.432  14.503 -1.1500 -0.1868  0.8709
 5548SOL     OW28105   0.824   0.118   5.032 -0.2923 -0.1388 -0.3105
 5548SOL    HW128106   0.839   0.208   5.060  2.8948 -1.0212  0.8937
 5548SOL    HW228107   0.880   0.075   5.098  0.2959 -0.1032 -0.7835
 5549SOL     OW28108   1.716   2.633   6.482 -0.2829  0.1255 -0.1991
 5549SOL    HW128109   1.721   2.551   6.432 -0.5011  1.7446 -2.8641
 5549SOL    HW228110   1.632   2.620   6.526  0.3487 -0.8095  0.7471
 5550SOL     OW28111   0.968   2.771   3.930 -0.0829  0.7558 -0.7255
 5550SOL    HW128112   1.027   2.734   3.996 -0.0423 -0.3924 -1.4169
 5550SOL    HW228113   0.973   2.864   3.951 -0.5057  0.2963  1.4446
 5551SOL     OW28114   3.182   4.643   4.952  0.4113  0.2743  0.7749
 5551SOL    HW128115   3.192   4.609   4.864 -0.7343 -0.1678  0.8184
 5551SOL    HW228116   3.221   0.000   4.938  0.2603  0.6566  2.6123
 5552SOL     OW28117   1.616   0.301   6.201 -0.1559 -0.5075 -0.6105
 5552SOL    HW128118   1.583   0.381   6.160 -0.2256  0.3187  1.0587
 5552SOL    HW228119   1.537   0.249   6.186 -0.0825 -0.7492 -0.1327
 5553SOL     OW28120   0.903   2.995   8.569  0.1304 -0.0889 -0.5512
 5553SOL    HW128121   0.995   3.014   8.589 -0.7297  2.8479  0.6471
 5553SOL    HW228122   0.865   3.001   8.657 -1.7370  0.9195 -1.4258
 5554SOL     OW28123   2.865   3.773   1.144 -0.6744 -0.3640 -0.2059
 5554SOL    HW128124   2.899   3.833   1.078  1.4180 -0.9247  0.3559
 5554SOL    HW228125   2.801   3.727   1.090 -1.3541 -2.3741  2.3016
 5555SOL     OW28126   4.233   0.412   5.589 -0.1154 -0.0760  0.4584
 5555SOL    HW128127   4.145   0.421   5.553  0.6118  2.2000 -0.7542
 5555SOL    HW228128   4.279   0.456   5.518  0.8492 -0.3045  0.9426
 5556SOL     OW28129   1.273   4.401   2.161 -0.3693  0.3142 -0.0369
 5556SOL    HW128130   1.291   4.371   2.072  1.2678  0.6325  0.1999
 5556SOL    HW228131   1.193   4.452   2.147  0.2076  1.0235 -0.7247
 5557SOL     OW28132   2.896   2.416   0.888  0.3593  0.4293  0.7149
 5557SOL    HW128133   2.854   2.500   0.908  0.6222  0.7057  0.1016
 5557SOL    HW228134   2.868   2.370   0.967  1.3096  0.5881  1.1529
 5558SOL     OW28135   3.627   1.735   5.866  0.0002  0.6174  0.0438
 5558SOL    HW128136   3.554   1.765   5.920 -0.2057  2.5177 -1.2728
 5558SOL    HW228137   3.670   1.815   5.833  1.5243 -0.1495  0.1508
 5559SOL     OW28138   0.219   3.860   2.700 -0.1622 -0.1831  0.2997
 5559SOL    HW128139   0.150   3.811   2.745 -0.9078  1.2142  0.6942
 5559SOL    HW228140   0.177   3.946   2.699 -0.9579 -0.5668  0.4163
 5560SOL     OW28141   1.920   0.779   8.531 -0.0750  0.4575  0.2289
 5560SOL    HW128142   1.972   0.826   8.597 -0.7393  1.3137  0.1394
 5560SOL    HW228143   1.990   0.717   8.507  1.3320  2.5409 -1.0345
 5561SOL     OW28144   1.069   4.304  12.216 -0.2300  0.4243  0.4415
 5561SOL    HW128145   1.125   4.300  12.138 -1.0631 -0.2102 -0.1307
 5561SOL    HW228146   1.039   4.213  12.212 -1.7064  0.8668  1.6853
 5562SOL     OW28147   3.919   3.010   7.218 -0.5225 -0.2389 -0.0814
 5562SOL    HW128148   3.951   3.068   7.287  0.4209 -0.1191 -0.6319
 5562SOL    HW228149   3.989   2.945   7.225 -0.0322  0.2270 -0.7617
 5563SOL     OW28150   1.601   2.583  15.641 -0.4893 -0.0455 -0.4340
 5563SOL    HW128151   1.619   2.565  15.548  0.9929  1.5393 -0.4502
 5563SOL    HW228152   1.613   2.498  15.684 -0.2870 -0.3795 -1.1367
 5564SOL     OW28153   3.401   2.291   4.218 -0.0495 -0.6389  1.1803
 5564SOL    HW128154   3.396   2.239   4.137  0.7941  0.3226  0.5140
 5564SOL    HW228155   3.323   2.265   4.268  0.5054 -4.3534  0.1751
 5565SOL     OW28156   0.039   0.956   8.071 -0.0148 -0.1179 -0.0288
 5565SOL    HW128157   0.047   0.987   8.161 -2.3024  0.3003  0.0237
 5565SOL    HW228158   0.013   0.865   8.082  1.0236 -0.0593  2.7694
 5566SOL     OW28159   0.485   4.624   1.999 -0.7617  0.5200  0.4443
 5566SOL    HW128160   0.474   4.529   1.992  1.5688  0.2516  0.4915
 5566SOL    HW228161   0.474   4.639   2.093 -0.5831 -0.9570  0.6977
 5567SOL     OW28162   1.955   3.991   8.373  0.2580 -0.2301  0.4013
 5567SOL    HW128163   1.925   4.072   8.332 -0.4091 -0.3433  0.6720
 5567SOL    HW228164   1.930   4.023   8.460 -0.9470  1.7122 -0.6662
 5568SOL     OW28165   0.993   0.908   6.797  0.0446 -0.0162 -0.0524
 5568SOL    HW128166   1.056   0.933   6.865  0.1801  0.3180 -0.3047
 5568SOL    HW228167   0.979   0.816   6.821  0.2154  0.1417  0.6554
 5569SOL     OW28168   0.363   3.588   6.402  0.6766  0.3625  0.7821
 5569SOL    HW128169   0.297   3.520   6.393  1.5665 -0.0748 -2.3745
 5569SOL    HW228170   0.313   3.666   6.428 -0.1080  0.2001 -0.2327
 5570SOL     OW28171   2.511   0.046   8.880 -0.4645 -0.2038  0.1636
 5570SOL    HW128172   2.430   0.087   8.911 -1.0677 -0.7544 -0.6723
 5570SOL    HW228173   2.487   4.706   8.818  1.5277 -0.2850 -0.5215
 5571SOL     OW28174   0.613   3.845   8.953  0.7336 -0.0113  0.3147
 5571SOL    HW128175   0.630   3.868   9.044  0.1111  0.0211  0.4203
 5571SOL    HW228176   0.597   3.933   8.919  2.5734  1.0188  2.1476
 5572SOL     OW28177   4.068   1.898   3.279 -0.0560  0.1728 -0.1086
 5572SOL    HW128178   4.071   1.872   3.371 -2.6029 -2.1627 -0.6869
 5572SOL    HW228179   4.129   1.837   3.239 -1.2315 -1.0387 -0.0554
 5573SOL     OW28180   2.987   1.650   7.260  0.4157  0.1491  0.3100
 5573SOL    HW128181   3.069   1.607   7.283  0.0353 -2.0217 -2.3495
 5573SOL    HW228182   2.939   1.653   7.343 -1.7961 -1.8495 -0.9017
 5574SOL     OW28183   2.258   3.768   9.330  0.0362 -0.1701 -0.2122
 5574SOL    HW128184   2.253   3.856   9.368 -3.0818 -0.1835 -0.5739
 5574SOL    HW228185   2.215   3.713   9.395 -0.3551  0.5857  0.1682
 5575SOL     OW28186   1.728   3.485   6.909  0.4461 -0.1700 -0.3869
 5575SOL    HW128187   1.785   3.560   6.926  2.8740 -2.3461  0.8899
 5575SOL    HW228188   1.738   3.429   6.985 -2.2359 -1.2489 -0.8381
 5576SOL     OW28189   2.591   0.701   9.770 -0.2568  0.5107 -0.8087
 5576SOL    HW128190   2.554   0.780   9.809 -1.9491 -0.6198 -0.1439
 5576SOL    HW228191   2.509   0.652   9.763  0.0278 -0.1426  0.3917
 5577SOL     OW28192   3.513   4.436  15.318 -0.2271 -0.1026 -1.0631
 5577SOL    HW128193   3.564   4.374  15.370 -1.0810 -0.8570 -1.1362
 5577SOL    HW228194   3.423   4.425  15.349 -0.5053  0.1118 -1.7968
 5578SOL     OW28195   2.783   0.369   2.278 -0.4228 -0.0420 -0.1733
 5578SOL    HW128196   2.704   0.334   2.237  0.2932  0.0462 -1.6177
 5578SOL    HW228197   2.847   0.366   2.207 -1.4821 -1.4319 -1.0718
 5579SOL     OW28198   0.296   3.764  10.975 -1.1110 -0.2659 -0.1905
 5579SOL    HW128199   0.255   3.678  10.982 -0.3616 -0.5326  0.9721
 5579SOL    HW228200   0.237   3.814  11.032  0.4895 -1.1741  2.2876
 5580SOL     OW28201   0.792   1.308   2.601  0.2388 -0.2697 -0.0817
 5580SOL    HW128202   0.886   1.290   2.603  0.0792 -1.1292 -0.3173
 5580SOL    HW228203   0.746   1.226   2.620  0.6391 -1.2792 -3.3898
 5581SOL     OW28204   2.315   0.481   0.905  0.1622  0.5142 -0.6095
 5581SOL    HW128205   2.236   0.525   0.937 -1.1325 -2.8101  0.7934
 5581SOL    HW228206   2.330   0.418   0.975  2.0486 -0.5047 -1.9247
 5582SOL     OW28207   2.480   0.370   8.577  0.8435 -0.0786  0.6414
 5582SOL    HW128208   2.396   0.325   8.581  1.8838 -2.0653 -0.2367
 5582SOL    HW228209   2.493   0.373   8.482 -1.8479 -0.2725  0.2636
 5583SOL     OW28210   0.439   1.422  10.356 -0.2099 -0.3842 -0.3966
 5583SOL    HW128211   0.421   1.400  10.448  2.6537 -0.9383  0.0337
 5583SOL    HW228212   0.532   1.404  10.344 -0.0792  0.6511 -0.8600
 5584SOL     OW28213   1.015   2.539   3.300 -0.0721 -0.4973  0.7863
 5584SOL    HW128214   0.986   2.454   3.333 -0.3112 -1.7188 -2.5271
 5584SOL    HW228215   0.955   2.569   3.231  1.9782  0.3703 -0.6114
 5585SOL     OW28216   4.305   0.028   2.553 -0.3763 -0.4900  0.2393
 5585SOL    HW128217   4.229   0.068   2.510  0.5106  2.0499  1.0101
 5585SOL    HW228218   4.383   0.070   2.515 -2.0551  0.3751 -2.2791
 5586SOL     OW28219   0.821   4.216   6.061 -0.4180 -0.2162  0.4122
 5586SOL    HW128220   0.799   4.125   6.043 -1.3544 -0.3381  2.1433
 5586SOL    HW228221   0.904   4.207   6.108 -0.8781 -0.4271  1.1782
 5587SOL     OW28222   3.826   0.277   9.637  0.3120 -0.3240  0.4008
 5587SOL    HW128223   3.757   0.342   9.647  0.6389  0.4585 -2.5592
 5587SOL    HW228224   3.893   0.337   9.605  0.7807 -0.6365  0.7836
 5588SOL     OW28225   0.353   3.288  13.202  0.0785  0.1373  0.0905
 5588SOL    HW128226   0.377   3.281  13.110  0.3072 -1.9975  0.3177
 5588SOL    HW228227   0.297   3.365  13.190 -2.3224 -1.8447 -1.4149
 5589SOL     OW28228   1.026   2.317  16.735 -0.2612  0.1033  0.6871
 5589SOL    HW128229   1.009   2.223  16.732  4.4760 -0.7721  1.0594
 5589SOL    HW228230   1.068   2.315  16.821 -3.0121 -1.2354  1.9982
 5590SOL     OW28231   4.377   2.816  10.441 -0.0563  0.6433  0.2617
 5590SOL    HW128232   4.405   2.799  10.530 -1.8488  2.5019  1.1908
 5590SOL    HW228233   4.321   2.739  10.431 -0.2598  0.5854  1.9505
 5591SOL     OW28234   3.126   2.919   4.090  0.0909 -0.0960  0.3296
 5591SOL    HW128235   3.191   2.950   4.153 -0.1999 -1.9221  1.5121
 5591SOL    HW228236   3.179   2.895   4.014  0.9469 -2.0718  1.5530
 5592SOL     OW28237   1.474   4.343   4.963  0.1730 -0.4001 -0.2152
 5592SOL    HW128238   1.506   4.393   5.037 -2.6598  0.9826  0.0729
 5592SOL    HW228239   1.387   4.380   4.947  1.5020  2.1266 -1.6186
 5593SOL     OW28240   3.253   2.394  15.278  0.0378 -0.0566 -0.3199
 5593SOL    HW128241   3.346   2.402  15.255 -0.4818 -1.4987 -2.8965
 5593SOL    HW228242   3.220   2.455  15.212  0.6916  0.4510 -0.1892
 5594SOL     OW28243   2.243   4.282  11.133 -0.3971 -0.5124  0.0052
 5594SOL    HW128244   2.156   4.305  11.166 -0.0639  2.1714 -1.0084
 5594SOL    HW228245   2.247   4.342  11.059  1.8466 -1.0072 -0.2697
 5595SOL     OW28246   2.365   1.442   6.561 -0.3890  0.2395  0.0862
 5595SOL    HW128247   2.415   1.367   6.594  1.6573  1.0203 -1.2477
 5595SOL    HW228248   2.358   1.491   6.642 -2.1283  1.0980 -0.5847
 5596SOL     OW28249   4.097   2.001   4.046 -0.3667 -0.4170 -0.0945
 5596SOL    HW128250   4.184   2.035   4.026  0.5531 -2.4630  0.4252
 5596SOL    HW228251   4.092   1.929   3.983 -1.8798  1.1166 -1.7480
 5597SOL     OW28252   0.871   0.675   6.457 -0.6747 -0.0906  0.3676
 5597SOL    HW128253   0.834   0.613   6.519 -2.5529 -1.2974 -1.9476
 5597SOL    HW228254   0.863   0.628   6.373 -0.3222  2.8957 -1.3243
 5598SOL     OW28255   2.945   3.424   8.300  0.2192 -0.3223  0.8159
 5598SOL    HW128256   2.897   3.388   8.375  1.5566 -1.5832  1.0799
 5598SOL    HW228257   2.911   3.513   8.292  1.8458  0.5396  3.4476
 5599SOL     OW28258   0.235   1.990   4.307 -0.4605  0.2313 -0.0366
 5599SOL    HW128259   0.174   1.973   4.235 -1.0328  1.2316  0.2168
 5599SOL    HW228260   0.185   2.057   4.354 -0.1499  0.0232  0.5926
 5600SOL     OW28261   2.245   0.062   3.340  0.5338 -0.0512  0.0685
 5600SOL    HW128262   2.174   0.020   3.388 -2.2942  1.4262 -2.7879
 5600SOL    HW228263   2.311   0.059   3.410 -0.0181 -0.4455  0.5707
 5601SOL     OW28264   0.867   1.297  10.096 -0.1769  0.0322  0.5470
 5601SOL    HW128265   0.834   1.214  10.062 -1.2780 -0.4831  2.8837
 5601SOL    HW228266   0.962   1.289  10.095 -0.2851 -0.6499 -2.6063
 5602SOL     OW28267   3.743   4.555  13.953  0.0440  0.2483 -0.3474
 5602SOL    HW128268   3.833   4.548  13.985  0.2626  4.4280 -0.0764
 5602SOL    HW228269   3.728   4.650  13.949 -0.0020  0.1629 -2.3513
 5603SOL     OW28270   0.199   2.447   9.458 -0.0962  0.0254  0.3680
 5603SOL    HW128271   0.207   2.454   9.363  0.0449  0.0791  0.3845
 5603SOL    HW228272   0.289   2.452   9.490 -0.1567  0.4684  0.4662
 5604SOL     OW28273   1.902   0.344   1.303 -0.0718  0.2555  0.4003
 5604SOL    HW128274   1.826   0.401   1.300  1.1732  1.8585 -0.9515
 5604SOL    HW228275   1.869   0.260   1.335 -0.5505  0.4159  0.3205
 5605SOL     OW28276   3.231   3.172  10.062  0.1671 -0.3164  0.4021
 5605SOL    HW128277   3.289   3.134   9.996 -0.3988  0.9739 -0.8314
 5605SOL    HW228278   3.227   3.088  10.109  0.8961 -0.6530 -0.1320
 5606SOL     OW28279   0.174   2.063   5.155 -0.1715 -0.2844  0.1932
 5606SOL    HW128280   0.232   2.127   5.196 -0.4005 -0.7030  1.1700
 5606SOL    HW228281   0.214   2.070   5.069 -2.2860 -0.9887 -0.8493
 5607SOL     OW28282   4.247   4.200   3.253  0.2300  0.3993  0.3409
 5607SOL    HW128283   4.305   4.124   3.264 -1.3549 -0.8614 -0.1201
 5607SOL    HW228284   4.273   4.241   3.336 -2.2635 -0.0905  1.3642
 5608SOL     OW28285   3.957   4.392  11.019  0.8801 -0.2179  0.2585
 5608SOL    HW128286   3.932   4.376  10.928  2.5155  0.2964 -0.2757
 5608SOL    HW228287   3.940   4.301  11.041  2.0121 -0.4769  0.0590
 5609SOL     OW28288   0.325   0.505   8.079 -0.2285  0.4756  0.4591
 5609SOL    HW128289   0.395   0.509   8.014  0.8317  2.5276  1.7433
 5609SOL    HW228290   0.325   0.414   8.110  1.8281  0.1671 -0.4280
 5610SOL     OW28291   1.839   2.134   8.809  0.0710  0.0673 -0.0352
 5610SOL    HW128292   1.903   2.203   8.793 -0.8387  0.3302 -2.4563
 5610SOL    HW228293   1.768   2.173   8.860  1.4310  1.6278  0.6736
 5611SOL     OW28294   1.039   2.176   1.813 -0.1451  0.4869 -0.2350
 5611SOL    HW128295   1.087   2.194   1.733  0.2183 -0.2471 -0.1797
 5611SOL    HW228296   0.964   2.137   1.768 -1.4397  0.9657  1.4852
 5612SOL     OW28297   4.169   3.675   8.217  0.1672 -0.2019 -0.2338
 5612SOL    HW128298   4.115   3.596   8.216  1.5682 -1.1678  0.4299
 5612SOL    HW228299   4.166   3.704   8.309  0.5815 -0.3008 -0.1879
 5613SOL     OW28300   1.719   0.601   5.854 -0.1000  0.6929 -0.8029
 5613SOL    HW128301   1.813   0.584   5.863 -0.5745 -1.3717  0.2521
 5613SOL    HW228302   1.688   0.652   5.928 -1.2350 -1.1539 -0.0324
 5614SOL     OW28303   4.697   0.288   4.170  0.2320  0.6282  0.4738
 5614SOL    HW128304   0.061   0.266   4.179  0.5830  1.2530 -1.7748
 5614SOL    HW228305   4.663   0.273   4.258  1.1992  1.0327  0.9134
 5615SOL     OW28306   3.651   1.719   3.632 -0.0741 -0.0862 -0.2879
 5615SOL    HW128307   3.677   1.644   3.578  1.1682  0.5426 -0.5587
 5615SOL    HW228308   3.656   1.794   3.573 -0.0174  0.1066 -0.0397
 5616SOL     OW28309   0.453   0.897   2.256 -0.0445 -0.3736  0.3089
 5616SOL    HW128310   0.516   0.962   2.229 -0.5191  0.2449  0.6821
 5616SOL    HW228311   0.379   0.923   2.201 -0.2912 -2.4987 -0.3671
 5617SOL     OW28312   1.666   4.338   4.750  0.5528  0.1567  0.7238
 5617SOL    HW128313   1.598   4.340   4.816  1.7336  0.2275  1.9404
 5617SOL    HW228314   1.648   4.419   4.702 -0.2567 -0.1960  0.4420
 5618SOL     OW28315   0.374   2.533  13.695  0.1917 -0.1736 -0.3068
 5618SOL    HW128316   0.284   2.557  13.715  0.6225  1.0750  0.1554
 5618SOL    HW228317   0.406   2.601  13.636 -1.5105  0.1412 -0.8574
 5619SOL     OW28318   1.224   0.567   7.277  0.5852  0.4315 -0.3794
 5619SOL    HW128319   1.163   0.638   7.257  0.5490  0.3762 -0.4701
 5619SOL    HW228320   1.192   0.541   7.363 -1.8865  0.9338 -1.1302
 5620SOL     OW28321   4.131   4.256   7.035 -0.2522  0.1898  0.2286
 5620SOL    HW128322   4.095   4.280   6.949  0.7098  0.9699  0.0497
 5620SOL    HW228323   4.152   4.165   7.013  2.0840 -0.5556  5.6069
 5621SOL     OW28324   0.683   2.255   8.372  0.1624 -0.4304 -0.1874
 5621SOL    HW128325   0.646   2.173   8.404 -1.8277 -0.6134 -2.8634
 5621SOL    HW228326   0.639   2.316   8.431  1.2740 -0.0341  0.2231
 5622SOL     OW28327   3.979   2.417   3.817  0.0660  0.1998  0.0202
 5622SOL    HW128328   4.023   2.370   3.888  1.5719 -1.6533 -2.1395
 5622SOL    HW228329   4.016   2.362   3.747 -3.5682  1.1412 -2.6227
 5623SOL     OW28330   3.243   0.567   4.852  0.3450 -0.2868 -0.2828
 5623SOL    HW128331   3.186   0.563   4.929 -0.1022  1.2925 -0.5296
 5623SOL    HW228332   3.311   0.504   4.872 -0.7230 -1.2747  0.2496
 5624SOL     OW28333   2.513   2.766   2.568 -0.4497 -0.0439  0.4034
 5624SOL    HW128334   2.577   2.715   2.618  0.0055 -1.3081 -1.4372
 5624SOL    HW228335   2.441   2.702   2.573  0.3912 -1.0881 -0.6983
 5625SOL     OW28336   0.949   1.083   4.991 -0.9951  0.3231 -0.3944
 5625SOL    HW128337   1.040   1.111   4.987 -1.2803  1.5575  1.7763
 5625SOL    HW228338   0.965   0.988   4.996 -0.1532  0.5680  1.4047
 5626SOL     OW28339   0.791   0.482   6.939  0.3025 -0.6393 -0.0060
 5626SOL    HW128340   0.825   0.409   6.990  1.7206  0.0889  0.0773
 5626SOL    HW228341   0.777   0.546   7.008 -0.6805 -1.8803  0.9474
 5627SOL     OW28342   2.960   0.324   9.017  0.0989 -0.3887 -0.0635
 5627SOL    HW128343   2.969   0.236   9.055  0.4352  0.3704  1.6428
 5627SOL    HW228344   2.870   0.355   9.033 -0.4526 -1.0859 -1.8958
 5628SOL     OW28345   3.984   0.447   8.796  0.4449 -0.8855  0.4367
 5628SOL    HW128346   4.063   0.438   8.848  0.0773  1.3694  1.3645
 5628SOL    HW228347   3.917   0.440   8.864 -1.1909 -0.2505 -1.1043
 5629SOL     OW28348   1.050   2.512  11.412  0.4679 -0.0041  0.0968
 5629SOL    HW128349   1.015   2.510  11.323  2.2745 -1.0442 -0.5866
 5629SOL    HW228350   0.971   2.509  11.466  0.1069 -1.6244 -0.5051
 5630SOL     OW28351   2.687   1.878   4.429  0.1163 -0.1816 -0.3589
 5630SOL    HW128352   2.736   1.958   4.408  1.3261 -0.7931  0.1437
 5630SOL    HW228353   2.634   1.872   4.349 -0.6894  2.6403 -0.0575
 5631SOL     OW28354   0.072   4.415   7.796  0.4981  0.5613  0.3272
 5631SOL    HW128355   0.084   4.495   7.848 -1.1618  1.2676 -0.3848
 5631SOL    HW228356   0.070   4.456   7.710 -0.0300  1.7892  0.9095
 5632SOL     OW28357   4.710   2.028   3.508 -0.2208  0.1238 -0.3953
 5632SOL    HW128358   4.633   1.991   3.466  1.2860 -2.9796 -0.3802
 5632SOL    HW228359   4.718   2.114   3.467  2.6227  0.0500 -0.0195
 5633SOL     OW28360   2.895   1.427   8.461 -0.9165 -0.2367  0.6135
 5633SOL    HW128361   2.892   1.332   8.455 -0.3877 -0.3697  2.4143
 5633SOL    HW228362   2.837   1.442   8.536 -0.2381 -0.3755  1.1682
 5634SOL     OW28363   3.426   0.369   0.522  0.7188 -0.2482 -0.1240
 5634SOL    HW128364   3.434   0.274   0.531 -0.0169 -0.0481  2.5852
 5634SOL    HW228365   3.417   0.373   0.427 -2.0838  0.6318  0.1776
 5635SOL     OW28366   2.231   2.123   4.314  0.1332 -0.9445 -0.3480
 5635SOL    HW128367   2.139   2.131   4.288 -0.2717  0.0794  1.3999
 5635SOL    HW228368   2.224   2.121   4.409  2.2350 -0.3189 -0.1868
 5636SOL     OW28369   4.442   2.838  15.273 -0.2638 -0.1754  0.3660
 5636SOL    HW128370   4.499   2.770  15.308  1.4195  1.0015 -0.0754
 5636SOL    HW228371   4.500   2.896  15.225  0.8482  0.3581  2.3453
 5637SOL     OW28372   2.416   3.049   2.832 -0.4069 -0.6410 -0.0493
 5637SOL    HW128373   2.406   3.114   2.901  0.2710  2.0271 -2.4534
 5637SOL    HW228374   2.416   3.100   2.751 -2.0977 -1.0857 -0.3216
 5638SOL     OW28375   1.084   4.633  13.046 -0.4678  0.0770 -0.2871
 5638SOL    HW128376   0.996   4.663  13.067  0.5639  3.5424 -0.8465
 5638SOL    HW228377   1.102   4.583  13.126 -1.5300  0.7029  0.3425
 5639SOL     OW28378   2.228   4.008   0.249 -0.2759  0.0798  0.7723
 5639SOL    HW128379   2.203   4.088   0.202 -1.8422 -0.9919 -0.2169
 5639SOL    HW228380   2.190   4.039   0.331  0.3120  1.7772  0.3981
 5640SOL     OW28381   3.094   3.544   4.292  0.2585  0.3881 -0.6198
 5640SOL    HW128382   3.169   3.597   4.317 -0.7215  2.5237 -2.1761
 5640SOL    HW228383   3.136   3.493   4.222 -2.5169 -2.6645 -0.0923
 5641SOL     OW28384   3.199   3.350   1.354  0.1624  0.0718 -0.0023
 5641SOL    HW128385   3.161   3.263   1.369 -1.1161  0.4967 -0.8121
 5641SOL    HW228386   3.222   3.359   1.261  1.2175 -0.8206  0.1694
 5642SOL     OW28387   0.484   2.074   6.125  0.4763 -0.0462  0.4039
 5642SOL    HW128388   0.411   2.060   6.064  1.9182  2.8716 -1.9783
 5642SOL    HW228389   0.460   2.011   6.192  0.0397  0.3139  0.5914
 5643SOL     OW28390   0.001   1.926   9.868 -0.4845 -0.0808 -0.2575
 5643SOL    HW128391   0.015   1.835   9.894 -5.5923 -0.1201  2.3666
 5643SOL    HW228392   0.011   1.977   9.949 -0.0855  1.1258 -1.0661
 5644SOL     OW28393   1.088   1.034  10.277 -0.3384  0.2348 -0.0495
 5644SOL    HW128394   1.060   1.122  10.251  0.3739  0.0766 -1.3751
 5644SOL    HW228395   1.035   1.030  10.356 -0.1793  1.4084  0.1239
 5645SOL     OW28396   0.065   2.656   1.760  0.2282  0.0066  0.6823
 5645SOL    HW128397   0.130   2.700   1.815  0.1080 -0.7685  1.4437
 5645SOL    HW228398   0.014   2.734   1.738  0.7929  0.1278 -0.1902
 5646SOL     OW28399   2.387   3.932  11.876 -0.5031  0.2907  0.1677
 5646SOL    HW128400   2.381   4.005  11.939 -1.1997 -0.0517  0.5052
 5646SOL    HW228401   2.399   3.854  11.930  1.1562 -0.3992 -1.2445
 5647SOL     OW28402   1.323   1.828   1.868  0.0380  0.3804 -0.2481
 5647SOL    HW128403   1.276   1.878   1.802 -1.4553 -0.4209  0.1785
 5647SOL    HW228404   1.245   1.780   1.899 -0.5410  1.1742 -0.4744
 5648SOL     OW28405   0.713   0.962  15.290 -0.3491 -0.4817 -0.0162
 5648SOL    HW128406   0.630   0.964  15.336 -0.2711 -2.1724  0.2020
 5648SOL    HW228407   0.707   0.878  15.244  0.5592 -0.7865  0.4207
 5649SOL     OW28408   3.931   1.665   8.766 -0.8730 -0.5341  0.6119
 5649SOL    HW128409   3.872   1.737   8.790 -0.0873  0.3234 -0.0365
 5649SOL    HW228410   4.003   1.686   8.826  0.2018 -0.0728 -0.8458
 5650SOL     OW28411   0.008   4.047   3.282 -0.2979 -0.2243  0.2271
 5650SOL    HW128412   0.068   3.978   3.308 -0.8955  0.0511  2.3957
 5650SOL    HW228413   0.036   4.055   3.191 -0.5554 -1.8954 -0.0052
 5651SOL     OW28414   1.050   2.710   9.577 -0.2834 -0.0903 -0.6184
 5651SOL    HW128415   1.128   2.762   9.598 -0.3451 -0.2688  0.0559
 5651SOL    HW228416   1.087   2.655   9.509 -1.7258 -0.8314 -0.8103
 5652SOL     OW28417   1.436   3.477   6.875  0.1225 -0.0585 -0.0976
 5652SOL    HW128418   1.525   3.497   6.847 -1.3592  3.1853 -2.4746
 5652SOL    HW228419   1.441   3.486   6.971 -2.1098 -0.4749  0.0656
 5653SOL     OW28420   0.989   0.675   7.560  0.3418 -0.3469  0.5298
 5653SOL    HW128421   1.001   0.766   7.587 -2.4882 -0.7449  3.0438
 5653SOL    HW228422   1.005   0.637   7.646 -0.5167 -3.6311 -0.7843
 5654SOL     OW28423   3.846   0.467   1.563  0.1712 -0.3010 -0.9601
 5654SOL    HW128424   3.763   0.499   1.597  1.6015  1.5300  0.8763
 5654SOL    HW228425   3.836   0.374   1.583  1.6948  0.2089  2.1376
 5655SOL     OW28426   2.465   2.101   5.995 -0.0981  0.3255 -0.1402
 5655SOL    HW128427   2.437   2.042   5.926  0.4080 -0.9484  0.7400
 5655SOL    HW228428   2.532   2.046   6.035  1.8795  0.6260 -3.0795
 5656SOL     OW28429   0.777   0.695  13.875 -0.0665 -0.1683 -0.4818
 5656SOL    HW128430   0.722   0.748  13.817 -0.3646 -1.4716 -1.3790
 5656SOL    HW228431   0.826   0.641  13.813  0.2888 -1.1475  0.6502
 5657SOL     OW28432   4.008   0.820  14.240  0.1641  0.6740  0.1450
 5657SOL    HW128433   4.020   0.892  14.302  2.1292  0.0044  0.5607
 5657SOL    HW228434   3.981   0.872  14.164 -0.4440 -2.6169 -1.9009
 5658SOL     OW28435   4.697   1.115   2.737 -0.0690 -0.2401 -0.0668
 5658SOL    HW128436   4.688   1.210   2.750 -0.4619 -0.3951  0.7724
 5658SOL    HW228437   4.704   1.112   2.642 -0.2375  0.9418 -0.1251
 5659SOL     OW28438   2.084   4.510   0.646 -0.4786  0.2000 -0.2177
 5659SOL    HW128439   2.033   4.571   0.699 -1.4263 -1.0714  0.3474
 5659SOL    HW228440   2.103   4.560   0.567  0.8172  0.8546  0.5066
 5660SOL     OW28441   2.957   2.893   4.847  0.3266  0.0393 -0.1398
 5660SOL    HW128442   3.008   2.819   4.814  0.6475  0.2309 -0.0693
 5660SOL    HW228443   2.931   2.861   4.933  0.5881 -0.3148 -0.1920
 5661SOL     OW28444   2.315   0.998   6.104  0.1756 -0.5519 -0.2004
 5661SOL    HW128445   2.270   1.079   6.079 -0.5607 -1.2450 -1.0973
 5661SOL    HW228446   2.255   0.933   6.069  0.5674  0.1093 -2.0752
 5662SOL     OW28447   4.660   1.272   2.076  0.0003 -0.2469 -0.2034
 5662SOL    HW128448   0.005   1.315   2.034 -1.7439  0.9039 -2.0659
 5662SOL    HW228449   4.629   1.335   2.141  1.1943 -1.8141  1.8810
 5663SOL     OW28450   0.780   3.523   3.545  0.0154 -0.3671  1.1118
 5663SOL    HW128451   0.756   3.504   3.455  1.1483 -0.6846  0.8670
 5663SOL    HW228452   0.742   3.611   3.551 -0.9236 -0.5578 -2.1666
 5664SOL     OW28453   2.770   3.581  15.782 -0.4456  0.2397 -0.7161
 5664SOL    HW128454   2.852   3.533  15.773  0.3848  1.6480 -0.6523
 5664SOL    HW228455   2.793   3.645  15.849 -0.0802 -0.4344 -0.1907
 5665SOL     OW28456   3.993   1.248   2.904 -0.0428 -0.3019  0.5331
 5665SOL    HW128457   3.911   1.225   2.948 -1.4224  0.0518 -1.8585
 5665SOL    HW228458   3.978   1.221   2.814  1.3846  1.7399 -0.3071
 5666SOL     OW28459   1.502   2.216  16.785 -0.2389  0.4659 -0.2293
 5666SOL    HW128460   1.408   2.221  16.766  0.1339  1.0741 -1.9418
 5666SOL    HW228461   1.539   2.214  16.697  0.8616 -1.2109  0.2871
 5667SOL     OW28462   0.667   3.258   2.073 -0.4918 -0.2588 -0.2804
 5667SOL    HW128463   0.641   3.344   2.104 -0.8345  0.4704 -2.5842
 5667SOL    HW228464   0.730   3.280   2.005 -0.8235  0.8342 -0.2259
 5668SOL     OW28465   3.232   1.919  14.319 -0.2899  0.5727  0.0021
 5668SOL    HW128466   3.296   1.913  14.248 -1.8202 -0.6512 -1.2746
 5668SOL    HW228467   3.284   1.943  14.396 -0.6150  1.1223  0.0424
 5669SOL     OW28468   4.325   0.479   6.860  0.2704 -0.2198 -0.3042
 5669SOL    HW128469   4.257   0.498   6.795 -0.2788 -1.7665 -0.1786
 5669SOL    HW228470   4.346   0.388   6.838 -0.7039 -0.0616 -1.8856
 5670SOL     OW28471   3.185   2.714   9.237 -0.3361 -0.3532 -0.0870
 5670SOL    HW128472   3.270   2.731   9.278 -0.6415 -0.1930  0.4711
 5670SOL    HW228473   3.134   2.787   9.272  0.3123 -0.1124  0.3635
 5671SOL     OW28474   2.042   4.310  16.192  0.2883 -0.2200 -0.1637
 5671SOL    HW128475   2.034   4.354  16.276 -0.1104 -0.7134  0.0534
 5671SOL    HW228476   1.975   4.242  16.190  0.7787 -0.6880 -0.9262
 5672SOL     OW28477   0.970   2.777   6.162  0.3174  0.0927  0.1324
 5672SOL    HW128478   0.973   2.767   6.257 -0.6882  0.8531  0.2408
 5672SOL    HW228479   0.879   2.759   6.137  1.1266  0.5104 -3.1867
 5673SOL     OW28480   0.278   0.653   9.355 -0.1242 -0.2482  0.2222
 5673SOL    HW128481   0.200   0.708   9.347  0.4692 -0.1159 -4.5837
 5673SOL    HW228482   0.344   0.709   9.315 -0.1510  0.2957  0.9551
 5674SOL     OW28483   2.403   2.761   5.879 -0.6635  0.3452 -0.2747
 5674SOL    HW128484   2.413   2.758   5.784 -2.7417  0.1648 -0.4763
 5674SOL    HW228485   2.309   2.747   5.878 -0.5285 -0.6212  0.3822
 5675SOL     OW28486   0.011   2.665   2.133 -0.6804 -0.1439  0.8361
 5675SOL    HW128487   0.022   2.760   2.123  0.9854 -0.3977  0.2036
 5675SOL    HW228488   0.051   2.660   2.219  1.8076 -0.4795 -0.3202
 5676SOL     OW28489   2.827   2.362   8.750 -0.0546 -0.8939  0.4521
 5676SOL    HW128490   2.899   2.325   8.802  1.2804  0.3666 -0.4921
 5676SOL    HW228491   2.780   2.412   8.818 -0.6510 -1.9971  0.8426
 5677SOL     OW28492   0.103   0.242  13.016 -0.3735  0.4260 -0.5306
 5677SOL    HW128493   0.130   0.212  12.929 -0.8433  1.4841 -1.0391
 5677SOL    HW228494   0.117   0.159  13.062 -0.3143 -1.1190 -3.3607
 5678SOL     OW28495   1.847   2.428   3.221 -0.1716 -0.1957  0.0287
 5678SOL    HW128496   1.784   2.370   3.264 -0.3517  1.5489  2.1105
 5678SOL    HW228497   1.922   2.414   3.279 -1.5157 -0.5970  1.6970
 5679SOL     OW28498   0.330   0.726   6.680 -0.3998 -0.4653 -0.1498
 5679SOL    HW128499   0.349   0.820   6.677 -1.8582 -0.0786  2.0598
 5679SOL    HW228500   0.405   0.680   6.645  1.0854  1.6735  0.2185
 5680SOL     OW28501   1.213   0.224   1.473  0.1112 -0.0938 -0.1114
 5680SOL    HW128502   1.262   0.157   1.522 -2.2870 -1.1024  0.9237
 5680SOL    HW228503   1.266   0.235   1.394 -1.0077 -3.4895 -1.3417
 5681SOL     OW28504   0.682   3.829   1.557 -0.1334  0.0618  0.7383
 5681SOL    HW128505   0.612   3.766   1.537  1.0944 -1.5324  1.4317
 5681SOL    HW228506   0.753   3.774   1.589  2.0038  1.6788 -1.2857
 5682SOL     OW28507   0.566   1.424   7.917  0.0007  0.9931  0.4282
 5682SOL    HW128508   0.610   1.424   7.832  1.3176 -1.8787  1.0882
 5682SOL    HW228509   0.571   1.328   7.918  1.0444  1.0074 -3.4548
 5683SOL     OW28510   3.814   1.366   3.777 -0.4571 -0.0824 -0.2102
 5683SOL    HW128511   3.898   1.319   3.781  0.9698  2.3283 -1.6597
 5683SOL    HW228512   3.823   1.416   3.696  0.6890 -0.7014 -0.4664
 5684SOL     OW28513   2.713   3.463  15.467 -0.1662  0.1912 -0.2457
 5684SOL    HW128514   2.624   3.440  15.442  0.1679 -0.6392 -0.6726
 5684SOL    HW228515   2.727   3.551  15.432  0.6980  0.5040  0.8636
 5685SOL     OW28516   2.105   0.711  12.641 -0.2071 -0.2058  0.5989
 5685SOL    HW128517   2.143   0.624  12.649  3.2241  1.1353 -1.0141
 5685SOL    HW228518   2.070   0.713  12.730 -0.2631 -0.4167  0.5800
 5686SOL     OW28519   3.561   4.473  10.502 -0.3736 -0.2820 -0.2840
 5686SOL    HW128520   3.562   4.539  10.571 -1.1731  0.3695 -0.8984
 5686SOL    HW228521   3.521   4.400  10.550  0.0982 -1.2762 -1.4187
 5687SOL     OW28522   0.415   2.998   0.629  0.3834 -0.0614 -0.2656
 5687SOL    HW128523   0.420   3.030   0.539 -0.3443  1.5774  0.2739
 5687SOL    HW228524   0.457   2.912   0.624 -0.8732 -0.5998 -1.8094
 5688SOL     OW28525   2.722   3.395  14.558 -0.4030  0.5270 -0.1944
 5688SOL    HW128526   2.668   3.466  14.592 -0.8344  0.1449 -0.0773
 5688SOL    HW228527   2.775   3.363  14.631 -0.0889  0.2403 -0.5447
 5689SOL     OW28528   3.734   3.240   3.826  0.7984 -0.2783 -0.2263
 5689SOL    HW128529   3.671   3.173   3.851  0.1679 -0.2106 -1.6738
 5689SOL    HW228530   3.679   3.317   3.842 -0.2236 -0.6888 -1.7895
 5690SOL     OW28531   2.170   1.366   5.414 -0.3710  0.0653 -0.2270
 5690SOL    HW128532   2.189   1.390   5.505  1.8698  1.2760 -1.0060
 5690SOL    HW228533   2.078   1.391   5.409 -0.7938 -1.6564 -0.7414
 5691SOL     OW28534   4.290   2.314  14.746 -0.0435  0.4646 -0.4872
 5691SOL    HW128535   4.221   2.295  14.683  0.9897 -2.8931 -0.6038
 5691SOL    HW228536   4.316   2.230  14.785 -0.3441  0.3794 -0.4732
 5692SOL     OW28537   1.342   3.206  12.516  0.0049 -0.1873  0.4006
 5692SOL    HW128538   1.414   3.230  12.576 -0.7455  0.1988  1.1476
 5692SOL    HW228539   1.298   3.290  12.523  0.3616  0.0147  0.2193
 5693SOL     OW28540   1.523   1.627   4.275 -0.6104  0.1039  0.0131
 5693SOL    HW128541   1.617   1.645   4.286 -0.7539  0.2859  0.9400
 5693SOL    HW228542   1.493   1.717   4.265 -1.0775 -0.0106  0.3893
 5694SOL     OW28543   2.939   1.545  10.502  0.0333  0.5298  0.5175
 5694SOL    HW128544   2.880   1.484  10.545  1.0920 -1.8000 -1.3143
 5694SOL    HW228545   3.026   1.509  10.521  0.8697  2.2117 -0.0433
 5695SOL     OW28546   0.089   0.115   7.457  0.1497 -0.8613 -0.1756
 5695SOL    HW128547   0.003   0.089   7.490 -0.6540  1.0507 -0.7678
 5695SOL    HW228548   0.151   0.079   7.521  0.6466 -0.3109 -0.3536
 5696SOL     OW28549   0.617   4.422   1.544  0.3642  0.3579 -0.0321
 5696SOL    HW128550   0.575   4.481   1.481  0.9700  1.6763  0.7983
 5696SOL    HW228551   0.562   4.434   1.622 -0.6756  2.7544 -1.1319
 5697SOL     OW28552   3.556   3.574  12.898 -0.2911 -0.4947  0.4806
 5697SOL    HW128553   3.518   3.601  12.814 -1.7376 -1.4643  0.8176
 5697SOL    HW228554   3.635   3.532  12.863 -0.2178  3.0155 -3.5952
 5698SOL     OW28555   0.291   2.929   9.444 -0.2202 -0.4646 -0.1542
 5698SOL    HW128556   0.325   3.018   9.446 -1.2140 -0.0847 -0.3812
 5698SOL    HW228557   0.321   2.901   9.530 -0.3099  1.8710  0.6378
 5699SOL     OW28558   1.094   0.057   5.901 -0.3210  0.6599  0.2498
 5699SOL    HW128559   1.043   4.706   5.884  1.8642 -0.5860 -0.4221
 5699SOL    HW228560   1.181   0.018   5.899 -0.2459  0.8175  0.4558
 5700SOL     OW28561   1.108   1.593  15.926  0.1418 -0.0383 -0.1698
 5700SOL    HW128562   1.027   1.615  15.881 -0.9217 -1.0825  1.2400
 5700SOL    HW228563   1.172   1.604  15.856 -0.7296  0.2694 -0.9097
 5701SOL     OW28564   4.575   0.095  16.818 -0.1510  0.1495 -0.1975
 5701SOL    HW128565   4.595   0.187  16.800 -1.5337  0.2605 -1.1281
 5701SOL    HW228566   4.659   0.051  16.802  0.0370 -0.3508  2.2181
 5702SOL     OW28567   2.304   0.718   3.463 -0.3068 -0.1224  0.3661
 5702SOL    HW128568   2.284   0.667   3.384  0.8923 -2.2035  1.3823
 5702SOL    HW228569   2.266   0.664   3.533  0.7962 -0.9055  0.3722
 5703SOL     OW28570   0.063   0.094   5.967  0.5196  0.2705  0.8909
 5703SOL    HW128571   0.041   0.028   5.901 -1.1003  1.2079  0.4828
 5703SOL    HW228572   0.147   0.059   5.996  0.0686 -0.5470  1.2016
 5704SOL     OW28573   3.112   1.304   0.983 -0.6421  0.3229  0.2248
 5704SOL    HW128574   3.200   1.325   0.952 -0.9900  1.7536  0.1885
 5704SOL    HW228575   3.094   1.222   0.938 -0.2482  0.3474  0.0234
 5705SOL     OW28576   1.083   1.495   5.561 -0.1941  0.1840  0.6420
 5705SOL    HW128577   1.169   1.489   5.520 -0.3482  0.2411  0.3115
 5705SOL    HW228578   1.059   1.404   5.579  0.0668  0.3156  1.6606
 5706SOL     OW28579   4.389   2.454  12.417 -0.0310  0.2203  0.3603
 5706SOL    HW128580   4.330   2.398  12.467 -0.1749  0.2690  0.2456
 5706SOL    HW228581   4.469   2.460  12.470 -1.0140 -0.1967  1.8950
 5707SOL     OW28582   2.992   0.014   4.367  0.2580 -0.2573  0.2351
 5707SOL    HW128583   3.029   0.069   4.436 -0.1843 -0.0213  0.2810
 5707SOL    HW228584   2.904   0.015   4.404  0.0206  2.0972 -0.4016
 5708SOL     OW28585   3.858   4.158   6.174  0.2634 -0.0720 -0.0875
 5708SOL    HW128586   3.837   4.191   6.087  0.4104  3.6722  1.2950
 5708SOL    HW228587   3.857   4.063   6.164  2.1123 -0.2892  1.7851
 5709SOL     OW28588   4.452   3.124   4.938  0.6173  0.7022 -0.4096
 5709SOL    HW128589   4.519   3.077   4.888  3.0394  1.4711  2.1602
 5709SOL    HW228590   4.440   3.059   5.007 -0.3063 -0.4323 -1.6299
 5710SOL     OW28591   2.768   2.193   1.663 -0.3079  0.5957  0.1996
 5710SOL    HW128592   2.694   2.160   1.714 -0.1290 -0.6490 -0.3558
 5710SOL    HW228593   2.759   2.284   1.691 -0.3069  0.4485  0.6874
 5711SOL     OW28594   3.035   2.497   3.297  0.1786  0.1886 -0.0522
 5711SOL    HW128595   3.012   2.544   3.217  1.8018  1.4211  0.1947
 5711SOL    HW228596   2.962   2.526   3.351 -1.0428  0.3421 -1.7836
 5712SOL     OW28597   4.411   3.824   9.243 -0.1858  0.2520  0.7165
 5712SOL    HW128598   4.384   3.747   9.194  2.3402  0.8902 -1.6269
 5712SOL    HW228599   4.497   3.798   9.275 -0.3928 -2.4223 -0.9032
 5713SOL     OW28600   0.928   4.556  12.217 -0.0479  0.2370  0.1973
 5713SOL    HW128601   0.998   4.610  12.180  0.8577 -1.0876 -0.0360
 5713SOL    HW228602   0.978   4.477  12.237 -1.2333 -1.3091 -2.8055
 5714SOL     OW28603   2.888   3.394   9.955 -0.8390  0.0852  0.5517
 5714SOL    HW128604   2.870   3.481   9.921 -0.4137 -0.6711 -1.6061
 5714SOL    HW228605   2.816   3.347   9.913 -1.0799 -1.2102  2.4057
 5715SOL     OW28606   0.711   4.197   8.194 -0.3929  0.1340  0.0130
 5715SOL    HW128607   0.632   4.213   8.247  1.0638  1.5431  1.7474
 5715SOL    HW228608   0.672   4.197   8.106 -0.6575 -1.5414  0.1255
 5716SOL     OW28609   1.638   0.582   5.591  0.1294  0.2233  0.1480
 5716SOL    HW128610   1.649   0.592   5.685 -0.7690 -1.0090  0.3938
 5716SOL    HW228611   1.564   0.522   5.594  1.4332 -1.4073 -0.6267
 5717SOL     OW28612   2.118   4.462   6.562  0.0410  0.1648 -0.1493
 5717SOL    HW128613   2.024   4.456   6.541 -0.2276  3.5142  0.0128
 5717SOL    HW228614   2.106   4.436   6.653  1.1288 -1.6193 -0.5307
 5718SOL     OW28615   1.803   2.597   9.877 -0.4402  0.4720 -0.2000
 5718SOL    HW128616   1.862   2.546   9.822  0.2668  0.7317  0.3143
 5718SOL    HW228617   1.867   2.627   9.942 -2.6586 -0.6395  2.4807
 5719SOL     OW28618   1.558   3.902   8.887  0.4898 -0.0750  0.4504
 5719SOL    HW128619   1.610   3.884   8.965 -1.0277 -0.3617  1.3958
 5719SOL    HW228620   1.623   3.903   8.816  0.4676 -3.0132  0.3897
 5720SOL     OW28621   1.404   4.366   1.705  0.2928 -0.1160  0.4860
 5720SOL    HW128622   1.375   4.328   1.788 -1.0404  1.7344  0.8502
 5720SOL    HW228623   1.491   4.329   1.686 -0.3575 -1.3596 -0.0734
 5721SOL     OW28624   4.653   0.229   6.629  0.3830  0.3064 -0.2124
 5721SOL    HW128625   4.710   0.306   6.625 -0.2920  0.8585  0.6794
 5721SOL    HW228626   4.620   0.236   6.540  2.6953  0.5269 -1.0478
 5722SOL     OW28627   2.692   0.891  11.939  0.2981  0.2146  0.8843
 5722SOL    HW128628   2.767   0.871  11.884  0.6353  1.8298  0.7519
 5722SOL    HW228629   2.638   0.813  11.924  3.2233 -1.4120 -1.2557
 5723SOL     OW28630   1.261   2.933   4.598 -0.6941 -0.2126  0.5394
 5723SOL    HW128631   1.283   2.978   4.516 -0.7945  0.1158  0.6936
 5723SOL    HW228632   1.243   2.844   4.567  2.6068 -0.0562 -1.8127
 5724SOL     OW28633   3.599   2.058  11.074  0.0748 -0.0164 -0.5649
 5724SOL    HW128634   3.690   2.048  11.104 -0.1374 -0.0847  0.0552
 5724SOL    HW228635   3.611   2.105  10.991 -0.2823 -1.2262 -1.2953
 5725SOL     OW28636   1.905   4.298   0.043 -0.1911 -0.2783 -0.2359
 5725SOL    HW128637   1.983   4.244   0.034  0.5986  1.1689 -2.1332
 5725SOL    HW228638   1.871   4.293  17.669  0.3279 -0.4999 -0.4198
 5726SOL     OW28639   1.899   4.699   8.431 -0.1644 -0.0960  0.3121
 5726SOL    HW128640   1.861   0.048   8.473 -0.1177  0.1210 -0.0445
 5726SOL    HW228641   1.898   4.714   8.336 -0.1644  1.3678  0.5328
 5727SOL     OW28642   0.405   0.047   5.315  0.6283 -0.4518  0.6185
 5727SOL    HW128643   0.418   0.120   5.255  2.4618 -0.3860  1.1091
 5727SOL    HW228644   0.310   0.045   5.303  0.8794 -0.3875 -1.4568
 5728SOL     OW28645   0.836   0.390  15.567 -0.0570  0.5293  0.5305
 5728SOL    HW128646   0.816   0.317  15.509 -0.7284  2.2735 -1.4394
 5728SOL    HW228647   0.897   0.434  15.508  0.0969 -1.4634 -0.7798
 5729SOL     OW28648   1.522   1.502   0.197  0.4885 -0.4481  0.3103
 5729SOL    HW128649   1.599   1.506   0.254 -1.4675  1.9060  2.7542
 5729SOL    HW228650   1.493   1.411   0.195 -2.2332  0.3696  1.6776
 5730SOL     OW28651   3.178   0.884   4.989  0.4070 -0.1746  0.2465
 5730SOL    HW128652   3.240   0.899   4.918  0.3631  0.4555  0.3363
 5730SOL    HW228653   3.117   0.818   4.956 -1.1450  0.6300  1.4864
 5731SOL     OW28654   2.020   0.967   8.688 -0.4292  0.4034  0.2282
 5731SOL    HW128655   2.024   1.057   8.721 -1.1883  0.5031  0.0515
 5731SOL    HW228656   2.105   0.948   8.729  0.3246 -1.5248 -2.2439
 5732SOL     OW28657   2.367   2.647   8.044 -0.2211 -0.5074 -0.0577
 5732SOL    HW128658   2.372   2.614   8.134  1.7332 -0.6125 -0.2159
 5732SOL    HW228659   2.325   2.733   8.050  0.2778 -0.1238 -2.1738
 5733SOL     OW28660   2.706   0.954   3.555 -0.4991  0.0746  0.0016
 5733SOL    HW128661   2.645   0.965   3.482 -1.0389 -3.2069 -0.0404
 5733SOL    HW228662   2.771   1.022   3.536 -1.7163  1.5666  1.0738
 5734SOL     OW28663   2.684   2.238   9.509  0.9781 -0.2704 -0.2516
 5734SOL    HW128664   2.629   2.195   9.575  0.1353  0.9807 -0.1272
 5734SOL    HW228665   2.769   2.233   9.552  0.1705  0.4054  1.4656
 5735SOL     OW28666   0.985   4.179   5.750 -0.3759  0.1128 -0.3549
 5735SOL    HW128667   0.984   4.127   5.830  1.7178  0.1740 -0.2859
 5735SOL    HW228668   1.046   4.134   5.691 -2.1366 -0.3208 -1.8488
 5736SOL     OW28669   3.959   3.751   2.029  0.6067  0.4845  0.6210
 5736SOL    HW128670   4.045   3.734   2.066 -0.3464  1.6552  3.3550
 5736SOL    HW228671   3.955   3.846   2.034  0.0826  0.5779 -1.3481
 5737SOL     OW28672   3.463   4.540  16.912  0.1788 -0.1865 -0.7761
 5737SOL    HW128673   3.497   4.614  16.962  0.1903  0.8646 -2.3453
 5737SOL    HW228674   3.409   4.497  16.979  1.5638 -1.2147 -0.2909
 5738SOL     OW28675   1.205   0.979   7.874  0.5099  0.1632  0.0969
 5738SOL    HW128676   1.265   1.007   7.943  1.0826 -0.0312 -0.3167
 5738SOL    HW228677   1.119   0.999   7.910  0.2040  1.9509 -1.6087
 5739SOL     OW28678   3.451   3.660  16.333  0.1160  0.0582 -0.3546
 5739SOL    HW128679   3.537   3.650  16.292  0.8318  1.3121  0.8031
 5739SOL    HW228680   3.470   3.659  16.427  2.5864 -0.4848 -0.8699
 5740SOL     OW28681   3.941   2.092   6.719  0.2499  0.1489 -0.4813
 5740SOL    HW128682   4.002   2.043   6.775 -0.1017 -1.4124 -1.4756
 5740SOL    HW228683   3.991   2.167   6.685  0.2077  0.4663  0.1478
 5741SOL     OW28684   0.241   4.219   5.653  0.1988  0.5328 -0.1253
 5741SOL    HW128685   0.330   4.191   5.675 -0.3179 -0.5065  0.6401
 5741SOL    HW228686   0.189   4.139   5.644 -1.2826  1.8590 -3.5208
 5742SOL     OW28687   1.353   2.967   5.804  0.4653 -0.5902  0.5524
 5742SOL    HW128688   1.328   3.059   5.812 -0.2243 -0.7681  0.3892
 5742SOL    HW228689   1.422   2.955   5.869  2.2013  0.7135 -1.0355
 5743SOL     OW28690   4.346   3.865   5.699 -1.0537 -0.2846 -0.1273
 5743SOL    HW128691   4.373   3.773   5.694 -0.6368 -0.0701 -1.8854
 5743SOL    HW228692   4.426   3.918   5.693 -2.6688  2.0919 -0.9813
 5744SOL     OW28693   0.551   2.198   1.208 -0.8748 -0.0319  0.0710
 5744SOL    HW128694   0.490   2.145   1.259 -1.3407 -1.4334 -1.9401
 5744SOL    HW228695   0.496   2.242   1.143  0.4708  1.3831 -0.1117
 5745SOL     OW28696   4.123   2.665  14.921  0.7560  0.1703 -0.2789
 5745SOL    HW128697   4.051   2.611  14.888 -0.2263  1.5093 -0.2855
 5745SOL    HW228698   4.206   2.634  14.884  0.7897  1.7571 -1.5196
 5746SOL     OW28699   2.755   3.561  11.330 -0.0002 -0.1319 -0.2449
 5746SOL    HW128700   2.689   3.556  11.399 -0.2304  2.0706 -0.2964
 5746SOL    HW228701   2.825   3.501  11.358  1.7308  1.3100 -1.5047
 5747SOL     OW28702   1.106   0.282   6.518 -0.4068 -0.1567 -0.6138
 5747SOL    HW128703   1.106   0.286   6.613  1.0742 -1.5179 -0.5489
 5747SOL    HW228704   1.029   0.229   6.502 -0.4439 -0.3577  0.2345
 5748SOL     OW28705   0.362   3.041   8.627 -0.2340 -0.0187  0.5977
 5748SOL    HW128706   0.267   3.048   8.621 -0.2343  0.1138  0.7543
 5748SOL    HW228707   0.392   3.127   8.657  0.5341 -0.2369  0.4518
 5749SOL     OW28708   0.624   1.550   7.632 -0.6124 -0.3143  0.1682
 5749SOL    HW128709   0.531   1.570   7.618 -0.9240 -0.4266  2.1008
 5749SOL    HW228710   0.670   1.619   7.586 -2.7170  1.1482  0.2621
 5750SOL     OW28711   2.871   3.991   8.594 -0.7260 -0.5562 -0.2909
 5750SOL    HW128712   2.810   4.040   8.648 -1.2989 -1.6002  0.0149
 5750SOL    HW228713   2.837   3.906   8.623  0.8357 -0.2238  2.5122
 5751SOL     OW28714   3.697   1.100   5.087  0.1154 -0.0879  0.1580
 5751SOL    HW128715   3.687   1.062   5.000  2.4527  1.5146 -0.8205
 5751SOL    HW228716   3.740   1.184   5.067 -1.0658  0.1472 -1.4306
 5752SOL     OW28717   0.328   1.768   6.792 -0.0820 -0.1746  0.0101
 5752SOL    HW128718   0.400   1.784   6.731 -0.4337  2.2878  0.2058
 5752SOL    HW228719   0.373   1.713   6.856  0.5208 -0.0909 -0.3449
 5753SOL     OW28720   3.530   1.438  14.935  0.3086  0.0746 -0.0039
 5753SOL    HW128721   3.449   1.392  14.956  0.2527 -0.3195 -1.0563
 5753SOL    HW228722   3.547   1.398  14.849 -1.1488 -0.9438  0.1922
 5754SOL     OW28723   1.957   1.737   7.776 -0.0736 -0.1009  0.0031
 5754SOL    HW128724   1.888   1.779   7.724 -1.1448 -0.6006  1.0200
 5754SOL    HW228725   1.992   1.682   7.706 -0.4843 -0.7779  0.3317
 5755SOL     OW28726   0.652   2.937  15.262 -0.7919  0.2710  0.7533
 5755SOL    HW128727   0.723   2.877  15.288 -0.1235  1.6056  1.9907
 5755SOL    HW228728   0.691   3.022  15.286 -0.1970 -0.6133  2.9826
 5756SOL     OW28729   1.908   3.559  13.533 -0.3140  0.2345  0.3396
 5756SOL    HW128730   1.983   3.613  13.557  0.1749 -1.3221  2.3794
 5756SOL    HW228731   1.936   3.474  13.500  1.3098  0.5665  0.8546
 5757SOL     OW28732   0.191   3.981   1.567 -0.1342  0.4920  0.1759
 5757SOL    HW128733   0.175   4.074   1.579 -2.2784 -0.3011  3.3557
 5757SOL    HW228734   0.110   3.960   1.521  0.9963 -1.3855 -0.9392
 5758SOL     OW28735   1.706   2.181   3.309  0.3139 -0.4579  0.1322
 5758SOL    HW128736   1.704   2.162   3.403 -0.2108  0.7058  0.3569
 5758SOL    HW228737   1.614   2.165   3.291  0.2278  1.9063 -1.4933
 5759SOL     OW28738   0.959   1.573   3.660 -0.4422 -0.8670  0.4211
 5759SOL    HW128739   0.879   1.624   3.645  0.2115 -0.1027 -0.4688
 5759SOL    HW228740   1.038   1.625   3.647 -0.7225 -0.5042  0.1846
 5760SOL     OW28741   1.277   3.497   5.977 -0.2698 -0.4307 -0.3643
 5760SOL    HW128742   1.337   3.464   5.910 -1.2348 -1.3543 -0.7721
 5760SOL    HW228743   1.318   3.452   6.050  0.7995  1.5428  0.2491
 5761SOL     OW28744   0.958   2.857   7.598  0.1566  0.2382  0.0235
 5761SOL    HW128745   1.037   2.857   7.652 -0.4150 -1.6059  0.8751
 5761SOL    HW228746   0.920   2.772   7.622  0.1127  0.2515  0.0003
 5762SOL     OW28747   0.995   3.837   0.871  0.4676  0.0106  0.3711
 5762SOL    HW128748   0.992   3.826   0.776  0.4971 -0.1454  0.3866
 5762SOL    HW228749   1.083   3.798   0.877  0.6811  0.7546  2.1289
 5763SOL     OW28750   1.905   0.315  10.154 -0.0977 -0.9017 -0.1236
 5763SOL    HW128751   1.938   0.345  10.069 -2.1364  1.8802  0.0877
 5763SOL    HW228752   1.832   0.374  10.172  0.5752  0.3226 -1.4048
 5764SOL     OW28753   2.289   0.229   0.726 -0.3505 -0.2579 -0.1803
 5764SOL    HW128754   2.256   0.180   0.802  0.4501 -0.8450 -0.2073
 5764SOL    HW228755   2.330   0.154   0.682  0.2167 -0.2989  0.4260
 5765SOL     OW28756   0.657   1.074   7.456 -0.0319 -0.8716  0.2050
 5765SOL    HW128757   0.627   1.146   7.511  2.9417 -0.1942  0.9457
 5765SOL    HW228758   0.739   1.106   7.419  0.1603 -0.3860  1.0442
 5766SOL     OW28759   2.270   0.290   4.359  0.3313  0.0091 -0.6724
 5766SOL    HW128760   2.362   0.300   4.381  0.8330 -2.9300 -1.4697
 5766SOL    HW228761   2.237   0.225   4.421 -0.6761  1.2858  0.1333
 5767SOL     OW28762   1.860   1.303   6.933 -0.0420  0.0523  0.2492
 5767SOL    HW128763   1.858   1.346   6.847  0.0967 -0.5831 -0.0726
 5767SOL    HW228764   1.766   1.303   6.945 -0.3525 -1.2549 -2.1360
 5768SOL     OW28765   4.395   3.464   1.540 -0.5789 -0.5037  0.0615
 5768SOL    HW128766   4.336   3.392   1.518 -1.1989  0.0596 -0.1227
 5768SOL    HW228767   4.401   3.514   1.459  1.6984  0.5921  0.9032
 5769SOL     OW28768   0.346   2.807   6.688  0.1839  0.0274  0.4241
 5769SOL    HW128769   0.265   2.844   6.724 -0.6236 -0.1351 -1.2251
 5769SOL    HW228770   0.354   2.722   6.731  1.5484 -0.1982 -0.2789
 5770SOL     OW28771   0.251   3.922   0.013  0.2248  0.0637 -0.4670
 5770SOL    HW128772   0.285   3.883   0.093 -3.1758  2.0472  1.9233
 5770SOL    HW228773   0.337   3.945  17.694  0.7945 -1.4909 -0.0899
 5771SOL     OW28774   3.855   0.801  13.255 -0.3340  0.0753 -0.2294
 5771SOL    HW128775   3.875   0.725  13.310  2.5550  1.6014  0.8602
 5771SOL    HW228776   3.784   0.764  13.202  0.2864 -1.7508  0.1895
 5772SOL     OW28777   4.410   4.683   8.680  0.5812 -0.6436  0.0474
 5772SOL    HW128778   4.359   4.696   8.600 -0.6869  1.4958  1.1956
 5772SOL    HW228779   4.376   4.607   8.727 -0.1116 -0.1566  0.3500
 5773SOL     OW28780   0.100   4.013   7.199 -0.6238 -0.1238 -0.2618
 5773SOL    HW128781   0.142   4.097   7.181 -1.1797  0.3392  0.6156
 5773SOL    HW228782   0.024   4.020   7.142  0.6166 -1.4451 -2.1043
 5774SOL     OW28783   2.928   2.592   9.064 -0.1658  0.0766 -0.1312
 5774SOL    HW128784   3.012   2.554   9.037 -0.0029  1.8189 -2.0998
 5774SOL    HW228785   2.937   2.593   9.159 -0.1391  1.4673 -0.1548
 5775SOL     OW28786   1.034   3.786  11.856  0.1483 -0.2229  0.5504
 5775SOL    HW128787   1.092   3.825  11.790 -0.0188  0.2256  0.6688
 5775SOL    HW228788   0.979   3.745  11.789 -1.8186  0.6184  1.6792
 5776SOL     OW28789   1.197   3.266   2.149  0.0142 -0.1769 -0.4080
 5776SOL    HW128790   1.181   3.193   2.208 -1.2543  1.3791  1.1707
 5776SOL    HW228791   1.153   3.339   2.193 -2.2222 -1.1561 -1.0487
 5777SOL     OW28792   2.330   3.886   1.629 -0.1773  0.4590 -0.8607
 5777SOL    HW128793   2.367   3.799   1.646 -0.6071  0.3237 -0.6189
 5777SOL    HW228794   2.377   3.914   1.551  0.9506 -0.0203 -0.3466
 5778SOL     OW28795   4.365   0.380   3.889 -0.1432 -0.3102  0.3561
 5778SOL    HW128796   4.395   0.289   3.890 -0.3373 -0.3842 -0.4487
 5778SOL    HW228797   4.276   0.377   3.924 -1.6154 -0.7484 -3.3940
 5779SOL     OW28798   0.286   2.413   3.293  0.1713 -0.1554  0.0792
 5779SOL    HW128799   0.349   2.419   3.365 -0.4488  1.0178  0.5315
 5779SOL    HW228800   0.222   2.359   3.339 -1.4413  1.7975  0.1684
 5780SOL     OW28801   3.485   4.212  15.900  0.4129  0.5188  0.0717
 5780SOL    HW128802   3.540   4.144  15.938 -0.4656 -0.8960 -1.1682
 5780SOL    HW228803   3.401   4.186  15.938  0.8911 -1.7552 -0.4144
 5781SOL     OW28804   2.821   0.146   9.515 -0.1020  0.6000 -0.0815
 5781SOL    HW128805   2.805   0.094   9.594  1.2631  2.8303  1.6432
 5781SOL    HW228806   2.738   0.129   9.470  0.6339 -0.4568 -1.0282
 5782SOL     OW28807   0.390   2.483   6.487  0.2345  0.3747  0.1628
 5782SOL    HW128808   0.362   2.434   6.411 -1.7264 -1.4532  2.0654
 5782SOL    HW228809   0.310   2.535   6.494 -0.6472 -0.6765 -2.1257
 5783SOL     OW28810   0.189   1.254   8.200  0.0367 -0.3164  0.0768
 5783SOL    HW128811   0.181   1.341   8.239  2.4222  0.4056 -1.0033
 5783SOL    HW228812   0.256   1.207   8.249  0.2652  0.6296  0.6739
 5784SOL     OW28813   0.104   1.396   9.265 -0.5453  0.5161 -0.1120
 5784SOL    HW128814   0.144   1.396   9.352 -1.7511  1.5223  0.4491
 5784SOL    HW228815   0.173   1.350   9.218 -1.9672  1.0518 -2.7119
 5785SOL     OW28816   1.588   3.996  11.645  0.2472  0.8142 -0.0117
 5785SOL    HW128817   1.564   3.969  11.734  2.4227 -0.5020  0.1651
 5785SOL    HW228818   1.635   4.077  11.664  1.5471  0.1301 -0.3320
 5786SOL     OW28819   3.572   4.426  14.102  0.4607 -0.5434 -0.4887
 5786SOL    HW128820   3.491   4.464  14.069 -1.0572 -1.0571  2.5957
 5786SOL    HW228821   3.637   4.435  14.033  1.1140  0.9175  0.3156
 5787SOL     OW28822   0.108   0.214   2.647 -0.3952  0.0993  0.0963
 5787SOL    HW128823   0.045   0.242   2.714 -1.0070 -2.3405  0.5435
 5787SOL    HW228824   0.143   0.287   2.597  0.7261 -0.4418  0.0871
 5788SOL     OW28825   0.024   4.469   2.931  0.4971 -0.2201  0.7978
 5788SOL    HW128826   4.699   4.545   2.955  1.2423  0.8655 -1.0320
 5788SOL    HW228827   0.099   4.528   2.927  0.5862 -0.5605 -2.2113
 5789SOL     OW28828   2.305   2.868   6.848 -0.1229  0.4456  0.5445
 5789SOL    HW128829   2.373   2.808   6.818  0.7555 -0.3042  4.0961
 5789SOL    HW228830   2.294   2.933   6.778 -0.2304 -0.1367  0.0244
 5790SOL     OW28831   2.510   1.166   2.920 -0.1032 -0.5643 -0.2676
 5790SOL    HW128832   2.577   1.133   2.860  0.5050  2.6428 -1.3426
 5790SOL    HW228833   2.474   1.240   2.870  0.4019  1.9777  3.1635
 5791SOL     OW28834   4.711   1.273   6.932 -0.3325  0.0217  0.4211
 5791SOL    HW128835   4.625   1.313   6.946 -0.2909  0.7530 -1.4202
 5791SOL    HW228836   0.022   1.277   7.019  1.5220  0.2362 -0.4415
 5792SOL     OW28837   3.724   4.564   3.218  0.4850 -0.1724 -0.0890
 5792SOL    HW128838   3.720   4.485   3.271 -0.1935 -0.3813 -0.4556
 5792SOL    HW228839   3.804   4.604   3.255  0.9533 -1.1621 -0.0358
 5793SOL     OW28840   0.954   2.179   7.123  1.6671 -0.1481  0.3231
 5793SOL    HW128841   0.896   2.255   7.124  0.7753 -0.8133 -0.1440
 5793SOL    HW228842   0.980   2.181   7.031  0.9689 -0.5041  0.1125
 5794SOL     OW28843   4.493   1.287   7.283 -0.3588 -0.0155  0.6319
 5794SOL    HW128844   4.581   1.261   7.254  0.1553 -0.0078  2.1456
 5794SOL    HW228845   4.454   1.200   7.274 -0.5846 -0.0130  1.5358
 5795SOL     OW28846   1.279   1.100  12.735  0.4039 -0.4550 -0.3719
 5795SOL    HW128847   1.319   1.163  12.675 -0.9964 -0.1869 -1.0219
 5795SOL    HW228848   1.359   1.090  12.787  1.0989  1.5092 -1.0534
 5796SOL     OW28849   0.718   1.080   3.852 -0.2955 -0.3089  0.1499
 5796SOL    HW128850   0.786   1.088   3.785 -0.1646 -0.4211  0.2709
 5796SOL    HW228851   0.639   1.056   3.803 -0.3066  2.1116 -1.0307
 5797SOL     OW28852   2.655   0.323   7.603 -0.1687  0.1722  0.2587
 5797SOL    HW128853   2.732   0.346   7.656 -0.0847 -2.0888  1.1285
 5797SOL    HW228854   2.699   0.309   7.520 -0.2473  0.4755  0.1665
 5798SOL     OW28855   0.036   1.567  13.084 -0.6035 -0.2736 -0.0659
 5798SOL    HW128856   0.033   1.558  12.989  0.4898  0.7981 -0.2072
 5798SOL    HW228857   0.103   1.504  13.109 -1.2176 -1.0796 -0.4384
 5799SOL     OW28858   2.505   2.700  14.990  0.5907 -0.2034 -0.1899
 5799SOL    HW128859   2.558   2.625  14.962 -0.7358 -0.7471 -1.2467
 5799SOL    HW228860   2.542   2.722  15.075 -1.2864  1.0243  0.2846
 5800SOL     OW28861   1.620   0.584   3.834  0.2114 -0.2671  0.3267
 5800SOL    HW128862   1.645   0.501   3.876 -1.0182 -0.6102  0.3589
 5800SOL    HW228863   1.696   0.604   3.779 -1.2227 -1.9022 -2.2530
 5801SOL     OW28864   0.113   3.730   6.574 -0.2501 -0.3614  0.0491
 5801SOL    HW128865   0.189   3.787   6.584 -0.3304 -0.5716  1.9323
 5801SOL    HW228866   0.094   3.727   6.481  2.2081  0.6866 -0.4887
 5802SOL     OW28867   3.126   3.614  13.082 -0.2119  0.3530 -0.1189
 5802SOL    HW128868   3.047   3.608  13.028 -1.6863 -0.3403  2.1047
 5802SOL    HW228869   3.129   3.526  13.118  0.4508  0.7529  0.8024
 5803SOL     OW28870   3.006   4.327   4.745 -0.3542 -0.0791 -0.1231
 5803SOL    HW128871   2.983   4.406   4.794 -0.3897 -1.0015  1.3576
 5803SOL    HW228872   2.917   4.291   4.744 -1.0596  1.6335  1.4702
 5804SOL     OW28873   0.916   0.581   7.806  0.3351 -0.5078  0.8670
 5804SOL    HW128874   0.915   0.641   7.882 -0.5330  1.7685 -0.9391
 5804SOL    HW228875   0.843   0.618   7.757 -1.6180 -2.3299  2.4282
 5805SOL     OW28876   0.904   0.091  11.888  0.8499  0.2338 -0.2283
 5805SOL    HW128877   0.945   0.077  11.973  2.6441 -2.2025 -1.4923
 5805SOL    HW228878   0.855   0.172  11.903  0.2409 -0.0652 -0.5954
 5806SOL     OW28879   2.839   0.757   5.791  0.6869 -0.4836 -0.5300
 5806SOL    HW128880   2.921   0.708   5.800  0.0389 -0.9269  2.8442
 5806SOL    HW228881   2.783   0.704   5.848 -0.3754  1.2765  0.0841
 5807SOL     OW28882   4.722   3.536   5.016 -0.1308 -0.3215 -0.2887
 5807SOL    HW128883   4.668   3.478   4.963 -0.0985 -1.4625  0.9486
 5807SOL    HW228884   4.693   3.500   5.100  1.2252  0.8943  0.7228
 5808SOL     OW28885   4.552   4.370   7.357 -0.1143 -0.0703  0.0726
 5808SOL    HW128886   4.561   4.466   7.360 -1.0011  0.0250 -0.2220
 5808SOL    HW228887   4.636   4.352   7.316 -0.1547 -1.1167  0.4703
 5809SOL     OW28888   3.103   0.985   6.786 -0.3982  0.1793 -0.3499
 5809SOL    HW128889   3.087   0.898   6.750  2.7376 -0.5503 -0.0288
 5809SOL    HW228890   3.176   0.962   6.844 -0.0326  0.2520 -0.7751
 5810SOL     OW28891   4.711   4.375   1.654 -0.4976  0.1048  0.2261
 5810SOL    HW128892   0.052   4.339   1.600  0.5692  1.0653  0.9694
 5810SOL    HW228893   4.673   4.449   1.606 -0.9268 -0.8426 -0.9040
 5811SOL     OW28894   0.695   4.666   6.803 -0.2084  0.1085 -0.4898
 5811SOL    HW128895   0.757   4.595   6.821 -0.6660 -0.0810  0.3377
 5811SOL    HW228896   0.689   4.702   6.892 -1.9007  0.0444 -0.5749
 5812SOL     OW28897   4.286   3.991  15.626 -0.0827 -0.7001  0.5745
 5812SOL    HW128898   4.372   4.015  15.661  0.0013  0.2749 -0.2868
 5812SOL    HW228899   4.226   4.032  15.689 -1.7764 -1.0050 -0.8323
 5813SOL     OW28900   1.635   3.104   5.121  0.0885 -0.2388 -0.1115
 5813SOL    HW128901   1.621   3.186   5.072 -0.8022  0.3297  1.1178
 5813SOL    HW228902   1.660   3.145   5.204  1.1872 -1.4376  0.1485
 5814SOL     OW28903   0.999   3.684  16.904  0.7439  0.2484 -0.0291
 5814SOL    HW128904   0.975   3.632  16.828 -2.0097  1.2520  0.1867
 5814SOL    HW228905   0.914   3.684  16.947  0.3993  0.3590 -0.7196
 5815SOL     OW28906   2.739   2.953   0.059 -0.1018 -0.9426 -0.0567
 5815SOL    HW128907   2.695   2.869   0.044  1.2065 -1.5997 -0.1754
 5815SOL    HW228908   2.662   3.010   0.056 -0.3006 -1.2011  0.1429
 5816SOL     OW28909   1.321   2.364   9.853 -0.0343  0.0334 -0.0018
 5816SOL    HW128910   1.361   2.308   9.920 -0.1535  1.9753  1.6969
 5816SOL    HW228911   1.367   2.336   9.773  0.8582 -3.3991  1.7424
 5817SOL     OW28912   2.891   1.755   4.674  0.0196 -0.1717 -0.4604
 5817SOL    HW128913   2.970   1.742   4.726  0.0217 -3.2237 -1.2481
 5817SOL    HW228914   2.856   1.667   4.681 -0.5241  0.0070 -0.8927
 5818SOL     OW28915   0.691   0.507   8.086 -0.0101  0.7101 -0.4980
 5818SOL    HW128916   0.737   0.424   8.098  0.7774  0.7155 -3.4083
 5818SOL    HW228917   0.632   0.467   8.022  1.5560  0.4475 -1.7785
 5819SOL     OW28918   0.545   3.682  15.385 -0.3482 -0.2102 -0.2402
 5819SOL    HW128919   0.557   3.633  15.303  3.1255  0.0375  0.1147
 5819SOL    HW228920   0.460   3.717  15.359 -0.0506  1.0221  0.4489
 5820SOL     OW28921   4.260   4.200  12.894  0.2642  0.3666  0.1019
 5820SOL    HW128922   4.342   4.191  12.944  0.5351  1.6025 -0.1054
 5820SOL    HW228923   4.188   4.222  12.952 -0.8569 -0.6147 -0.9303
 5821SOL     OW28924   2.254   4.642   5.539  0.4322  0.0140 -0.6998
 5821SOL    HW128925   2.274   4.723   5.492  0.4090 -0.2345 -1.1388
 5821SOL    HW228926   2.198   4.680   5.607 -0.3471  0.0492 -1.3556
 5822SOL     OW28927   0.109   1.492   2.071  0.1333  0.2761  0.1847
 5822SOL    HW128928   0.126   1.538   1.989 -2.9414  1.0479 -0.0372
 5822SOL    HW228929   0.097   1.568   2.129  1.6974  2.1469 -1.9233
 5823SOL     OW28930   0.302   2.800   1.314  0.4201 -0.1775  0.3453
 5823SOL    HW128931   0.207   2.804   1.315  0.5226  2.6658  0.7496
 5823SOL    HW228932   0.325   2.722   1.263 -0.7861 -0.4803  0.2766
 5824SOL     OW28933   2.842   1.762  13.122 -0.0161  0.2962 -0.1966
 5824SOL    HW128934   2.840   1.753  13.027  1.1855 -2.1247  0.0096
 5824SOL    HW228935   2.934   1.758  13.147 -0.6386  2.0511  2.4159
 5825SOL     OW28936   0.857   0.833   5.608  0.2908 -0.4299  0.2359
 5825SOL    HW128937   0.783   0.786   5.645 -1.7794  1.2789 -1.7782
 5825SOL    HW228938   0.848   0.923   5.639 -0.3294 -0.8114  1.1527
 5826SOL     OW28939   0.203   4.496   4.544  0.4477  0.0250  0.1502
 5826SOL    HW128940   0.132   4.449   4.587  0.0400  1.4058  0.9939
 5826SOL    HW228941   0.161   4.504   4.458  1.7508  2.5323 -0.2653
 5827SOL     OW28942   3.308   0.694   7.346 -0.5601  0.2384 -0.2120
 5827SOL    HW128943   3.255   0.622   7.311  0.9099 -1.4599  1.0404
 5827SOL    HW228944   3.242   0.759   7.368  0.8886  1.1011  1.5300
 5828SOL     OW28945   1.737   2.816   0.268  0.6841  1.0052  0.2709
 5828SOL    HW128946   1.704   2.846   0.352 -0.3949 -0.5709  0.4146
 5828SOL    HW228947   1.661   2.813   0.209  1.4143 -0.6106 -0.6100
 5829SOL     OW28948   1.813   3.054   9.084  0.4319  0.7039 -0.1831
 5829SOL    HW128949   1.758   3.004   9.145 -1.2776  0.0711 -2.2429
 5829SOL    HW228950   1.763   3.135   9.080 -1.2490 -0.2239  2.1709
 5830SOL     OW28951   3.898   4.675  14.826 -0.2615  0.2255  0.9526
 5830SOL    HW128952   3.985   4.702  14.797 -0.0073  1.3896  2.8528
 5830SOL    HW228953   3.909   4.580  14.824  0.7188  0.3857 -1.5854
 5831SOL     OW28954   1.788   2.674   8.583  0.3025 -0.3881  0.1775
 5831SOL    HW128955   1.715   2.729   8.552 -0.6751 -0.9574  1.4751
 5831SOL    HW228956   1.745   2.589   8.586  0.0763 -0.3162 -0.9554
 5832SOL     OW28957   2.880   4.405   6.208  0.0249 -0.3854 -0.1439
 5832SOL    HW128958   2.816   4.458   6.161  0.1042 -0.6698 -0.5683
 5832SOL    HW228959   2.856   4.397   6.300 -2.3175  0.3638 -0.6936
 5833SOL     OW28960   4.373   2.482   2.779 -0.4620  0.2109 -0.1914
 5833SOL    HW128961   4.410   2.395   2.767 -0.5664  0.2957 -1.1638
 5833SOL    HW228962   4.368   2.496   2.873 -1.8261  1.2478 -0.4190
 5834SOL     OW28963   3.353   0.559  10.951  0.0011  0.2473 -0.0347
 5834SOL    HW128964   3.274   0.525  10.992  0.3690 -1.5340 -0.8136
 5834SOL    HW228965   3.356   0.646  10.991 -0.0542  1.5267 -2.7754
 5835SOL     OW28966   0.933   2.083   9.447  0.4449 -0.2098  0.1197
 5835SOL    HW128967   0.883   2.052   9.523  0.1680 -1.6173 -0.6325
 5835SOL    HW228968   1.015   2.102   9.492  0.3625  0.5778 -0.0670
 5836SOL     OW28969   0.468   1.622   1.407 -0.4740 -1.0877  0.3220
 5836SOL    HW128970   0.523   1.697   1.386 -0.4839 -1.3630 -0.6798
 5836SOL    HW228971   0.523   1.574   1.469  1.2071  1.6151  0.9133
 5837SOL     OW28972   2.092   4.606   2.150 -0.0847 -0.6553 -0.7400
 5837SOL    HW128973   2.100   4.511   2.138 -2.1706 -0.9061 -0.0888
 5837SOL    HW228974   2.008   4.614   2.194 -0.9207 -2.4680 -1.9824
 5838SOL     OW28975   4.229   1.944   7.060  0.5586  0.7950  0.2217
 5838SOL    HW128976   4.271   1.911   7.140 -2.2759 -1.1325  0.9301
 5838SOL    HW228977   4.190   2.027   7.086  3.2579  2.4432 -1.0749
 5839SOL     OW28978   2.630   3.221   5.065 -0.3770 -0.0136  0.0982
 5839SOL    HW128979   2.574   3.298   5.052 -2.5922 -1.6336  0.0550
 5839SOL    HW228980   2.631   3.203   5.159 -1.9051 -2.5190 -0.3844
 5840SOL     OW28981   1.961   0.818   9.262  0.3840  0.5456  0.1967
 5840SOL    HW128982   1.963   0.872   9.341 -0.2236 -0.1588  0.6951
 5840SOL    HW228983   1.910   0.883   9.213 -5.3460 -2.4645  2.2217
 5841SOL     OW28984   2.021   2.515   5.811  0.0569  0.0120  0.0895
 5841SOL    HW128985   2.000   2.441   5.868  1.3072 -0.8826 -0.6124
 5841SOL    HW228986   2.020   2.479   5.723  0.3854 -2.0618  0.9249
 5842SOL     OW28987   1.988   0.854   4.593 -0.0526 -0.2523  0.0568
 5842SOL    HW128988   1.994   0.814   4.506  3.5752 -1.5407  0.8848
 5842SOL    HW228989   2.067   0.908   4.601 -0.9664  1.1931 -0.7786
 5843SOL     OW28990   4.648   1.640   0.108 -0.1102 -0.2998 -0.1550
 5843SOL    HW128991   4.554   1.633   0.126  0.3083  1.4558  2.6238
 5843SOL    HW228992   4.668   1.575   0.041 -2.2643  0.0868 -1.1858
 5844SOL     OW28993   1.210   0.693   3.478 -0.3620  0.2021 -0.4878
 5844SOL    HW128994   1.183   0.747   3.404 -1.8450  1.0713  0.6927
 5844SOL    HW228995   1.253   0.622   3.430 -1.1027 -1.0142  0.6474
 5845SOL     OW28996   0.752   3.532   9.257 -0.7223 -0.4464 -0.1308
 5845SOL    HW128997   0.721   3.599   9.318 -1.2576 -2.0155  1.3319
 5845SOL    HW228998   0.724   3.444   9.282  1.0263 -0.3083  2.2746
 5846SOL     OW28999   1.456   2.388   3.428  0.9485 -0.5244  0.4986
 5846SOL    HW129000   1.431   2.315   3.484  0.8128  0.3941  1.6491
 5846SOL    HW229001   1.533   2.421   3.476  0.6799 -0.8538  1.1595
 5847SOL     OW29002   4.409   1.778   8.743 -0.0357  0.7244  0.3321
 5847SOL    HW129003   4.393   1.820   8.828  0.2706 -1.0842  1.2705
 5847SOL    HW229004   4.471   1.711   8.772 -0.9814 -0.4181 -0.2831
 5848SOL     OW29005   2.697   4.065   9.167 -0.6647  0.3769 -0.7511
 5848SOL    HW129006   2.658   3.978   9.160  0.1909 -0.0892  0.2978
 5848SOL    HW229007   2.730   4.067   9.256 -0.8792 -0.1402 -0.6586
 5849SOL     OW29008   3.101   1.059   2.436 -0.2460  0.4069 -0.0653
 5849SOL    HW129009   3.181   1.032   2.481 -0.9415  0.3111  1.0944
 5849SOL    HW229010   3.058   0.974   2.424  1.4083 -0.8306  2.8861
 5850SOL     OW29011   1.702   2.286  12.987  0.4806  0.4531 -0.6997
 5850SOL    HW129012   1.725   2.318  12.900 -0.7407  1.9311 -0.4659
 5850SOL    HW229013   1.715   2.368  13.035  0.0935 -0.3518  0.7908
 5851SOL     OW29014   0.600   2.693   5.511 -0.2464 -0.1476  0.4513
 5851SOL    HW129015   0.618   2.612   5.559  0.2765 -1.5604 -2.1395
 5851SOL    HW229016   0.607   2.756   5.583 -3.0262  3.0272 -2.0792
 5852SOL     OW29017   2.171   2.980   6.184  0.1087 -0.1810  0.0782
 5852SOL    HW129018   2.078   2.969   6.204 -0.1216  0.0810 -0.8597
 5852SOL    HW229019   2.171   2.994   6.090 -0.9546 -1.6882 -0.1562
 5853SOL     OW29020   3.479   3.881   7.415  0.2436 -0.3678 -0.1864
 5853SOL    HW129021   3.522   3.805   7.375 -0.7292 -0.5475 -0.8994
 5853SOL    HW229022   3.557   3.926   7.446 -0.7962  0.3758  1.3706
 5854SOL     OW29023   1.119   3.218   1.747 -0.1828 -0.3484  0.3313
 5854SOL    HW129024   1.188   3.173   1.797  0.8688  1.8727  0.8768
 5854SOL    HW229025   1.145   3.201   1.657 -0.3133 -1.0585  0.4307
 5855SOL     OW29026   1.898   3.393   4.610  0.4845 -0.1481  0.6673
 5855SOL    HW129027   1.874   3.457   4.678  0.7945 -2.2769  2.7854
 5855SOL    HW229028   1.859   3.439   4.535 -0.0003  0.4858  1.3016
 5856SOL     OW29029   1.018   1.412   1.746  0.2771 -0.2307  0.2792
 5856SOL    HW129030   0.934   1.367   1.745  1.1396 -1.8763  0.7197
 5856SOL    HW229031   1.056   1.376   1.666  0.0346 -1.5713  0.7746
 5857SOL     OW29032   0.669   0.370  15.231  0.3374  0.0290  0.0299
 5857SOL    HW129033   0.594   0.316  15.206  1.2855 -1.0663 -0.4528
 5857SOL    HW229034   0.710   0.310  15.293 -2.5892  0.6246  2.5227
 5858SOL     OW29035   2.347   4.364   0.467  0.1720  0.7031 -0.4917
 5858SOL    HW129036   2.398   4.326   0.538 -0.4514 -3.2951 -2.1876
 5858SOL    HW229037   2.415   4.409   0.417 -0.4662  1.1874 -0.9288
 5859SOL     OW29038   3.278   3.575   3.949 -0.5505  1.0851 -1.0697
 5859SOL    HW129039   3.192   3.603   3.979 -0.1098  1.8495 -0.5406
 5859SOL    HW229040   3.253   3.495   3.902  0.3865  1.4806 -2.2619
 5860SOL     OW29041   2.732   1.606   6.675 -0.7968 -0.4629 -0.0926
 5860SOL    HW129042   2.677   1.583   6.750 -1.8738  0.1625 -0.6871
 5860SOL    HW229043   2.684   1.675   6.629 -2.1635 -0.2675  1.5861
 5861SOL     OW29044   1.808   3.454   2.056  0.3301  0.2662  1.0433
 5861SOL    HW129045   1.861   3.400   1.997  0.7188 -1.0725  2.6285
 5861SOL    HW229046   1.823   3.411   2.140 -1.8141  2.3267  2.4826
 5862SOL     OW29047   3.106   1.836   7.496 -0.1411 -0.0518  0.0374
 5862SOL    HW129048   3.012   1.824   7.510 -0.4463  0.3303 -1.6730
 5862SOL    HW229049   3.110   1.844   7.401  1.4979  1.5208  0.2341
 5863SOL     OW29050   2.064   4.148  11.985  0.2638  0.3050  0.0364
 5863SOL    HW129051   2.051   4.239  12.011 -0.0877  0.4932 -0.7919
 5863SOL    HW229052   2.128   4.160  11.915 -0.5436  2.1781 -0.3792
 5864SOL     OW29053   2.622   2.325   2.862  0.2388 -0.0856 -0.6306
 5864SOL    HW129054   2.599   2.390   2.929 -0.0699  0.6984 -1.5096
 5864SOL    HW229055   2.544   2.270   2.854 -0.5523  0.7438  1.1744
 5865SOL     OW29056   1.444   2.037   0.468 -0.4511 -0.4597  0.1598
 5865SOL    HW129057   1.443   1.968   0.534 -0.4669 -0.9813 -0.3877
 5865SOL    HW229058   1.532   2.071   0.483 -0.7558  0.7397 -0.7682
 5866SOL     OW29059   0.247   0.721  11.010 -0.7191 -0.3614  0.2169
 5866SOL    HW129060   0.301   0.714  11.089  1.2588 -0.5729 -1.1484
 5866SOL    HW229061   0.316   0.690  10.952  1.2338  0.8031  1.9009
 5867SOL     OW29062   4.152   2.892   6.969  0.5478 -0.2795 -0.4058
 5867SOL    HW129063   4.090   2.826   6.937 -1.7141  1.2925  0.7365
 5867SOL    HW229064   4.139   2.882   7.063 -3.1287 -1.6281 -1.0533
 5868SOL     OW29065   2.267   0.838   4.427 -0.2076  0.1487 -0.0346
 5868SOL    HW129066   2.308   0.859   4.510  0.4362 -2.6314  0.3592
 5868SOL    HW229067   2.283   0.743   4.427  0.7389  0.3063  2.3145
 5869SOL     OW29068   0.337   2.445   5.088 -0.1055 -0.4540  0.0677
 5869SOL    HW129069   0.301   2.451   5.176 -1.2826  0.2601 -0.4665
 5869SOL    HW229070   0.261   2.455   5.031 -0.1047 -2.1453 -0.2312
 5870SOL     OW29071   3.619   0.514   4.593 -0.4974  0.2074 -0.0203
 5870SOL    HW129072   3.711   0.489   4.602 -0.7506 -0.7903 -0.1539
 5870SOL    HW229073   3.627   0.589   4.534  2.2309  0.7891  1.0797
 5871SOL     OW29074   3.197   3.892  13.299  0.4283 -0.1449  0.4540
 5871SOL    HW129075   3.105   3.908  13.320 -0.1081 -2.0232 -0.4753
 5871SOL    HW229076   3.184   3.810  13.252 -0.0731  0.9023 -1.2257
 5872SOL     OW29077   2.897   3.136   2.113 -0.0723  0.2122  0.0187
 5872SOL    HW129078   2.972   3.076   2.118  0.6416  1.1559  0.7197
 5872SOL    HW229079   2.836   3.087   2.058  1.0800 -1.4182  0.1747
 5873SOL     OW29080   4.410   2.588  10.896  0.8351  0.9048 -0.0293
 5873SOL    HW129081   4.372   2.528  10.832  2.4770  0.1084 -0.2565
 5873SOL    HW229082   4.344   2.584  10.965  2.0172  1.8259  1.1443
 5874SOL     OW29083   1.995   1.486   3.049 -0.1753  0.0370  0.0928
 5874SOL    HW129084   2.039   1.497   3.133 -1.2409  0.2258  0.6174
 5874SOL    HW229085   1.908   1.507   3.080 -0.8862 -0.8425 -1.2954
 5875SOL     OW29086   3.315   1.332   3.006 -0.3545 -0.2139 -0.2780
 5875SOL    HW129087   3.237   1.333   2.950 -0.2745  0.5626 -0.3762
 5875SOL    HW229088   3.283   1.399   3.067  1.6647  0.8421 -0.3902
 5876SOL     OW29089   2.647   0.498   2.978 -0.2175 -0.1462 -0.5659
 5876SOL    HW129090   2.687   0.462   2.898 -0.9942  1.2378 -1.5750
 5876SOL    HW229091   2.563   0.454   2.977 -0.1409 -0.3171  2.2908
 5877SOL     OW29092   3.733   2.375   3.933  0.0446 -0.1347  0.1332
 5877SOL    HW129093   3.823   2.393   3.904 -0.2729 -0.7820 -1.2062
 5877SOL    HW229094   3.739   2.298   3.989 -0.7310  1.3619  2.3137
 5878SOL     OW29095   3.645   0.657   6.080  0.3408 -0.5151  0.2255
 5878SOL    HW129096   3.555   0.639   6.109  0.2079  1.3382  0.9573
 5878SOL    HW229097   3.667   0.598   6.008  1.9270 -2.2484  2.1442
 5879SOL     OW29098   0.682   2.656  10.354  0.1313 -0.0973 -0.3327
 5879SOL    HW129099   0.723   2.584  10.403  0.5093  0.8774  0.7818
 5879SOL    HW229100   0.611   2.606  10.313  0.8722 -1.5789  0.1941
 5880SOL     OW29101   1.286   2.962   3.428 -0.3624 -0.0005  0.6070
 5880SOL    HW129102   1.319   2.989   3.514  0.2693 -0.7144  0.5928
 5880SOL    HW229103   1.204   2.919   3.452 -0.8611  0.9877  0.6750
 5881SOL     OW29104   1.403   3.979   4.171 -0.3477  0.3344 -0.0563
 5881SOL    HW129105   1.457   4.010   4.244 -1.9757 -0.9216  1.6835
 5881SOL    HW229106   1.456   4.005   4.096  0.2182 -1.5834 -0.3134
 5882SOL     OW29107   3.752   1.587  12.403 -0.1183  0.2259  0.3190
 5882SOL    HW129108   3.749   1.520  12.471  1.0357  0.4731  0.6119
 5882SOL    HW229109   3.661   1.593  12.374 -0.1452  0.7963  0.5171
 5883SOL     OW29110   1.046   0.777   3.028  0.0686 -0.5521  0.5706
 5883SOL    HW129111   1.119   0.767   2.967 -1.3562 -0.4417 -1.1835
 5883SOL    HW229112   1.092   0.828   3.095  2.1595 -1.9007  0.1444
 5884SOL     OW29113   4.716   0.344   5.747 -0.6095 -0.7008 -0.3826
 5884SOL    HW129114   4.632   0.364   5.788 -0.8542 -0.8908 -0.7897
 5884SOL    HW229115   4.725   0.411   5.679 -1.3761 -2.1472 -1.9187
 5885SOL     OW29116   2.620   0.234   6.297 -0.4594 -0.2914  0.3086
 5885SOL    HW129117   2.534   0.207   6.330 -0.5101 -0.7033 -0.1628
 5885SOL    HW229118   2.651   0.159   6.247 -0.1108  0.5872 -0.7970
 5886SOL     OW29119   3.491   3.867  14.121 -0.2505  0.2156  0.4071
 5886SOL    HW129120   3.543   3.819  14.186  0.5319 -1.3636 -1.3807
 5886SOL    HW229121   3.412   3.891  14.169 -1.0576  1.4612 -1.5594
 5887SOL     OW29122   0.216   2.137   6.826 -0.0898  0.1294  0.2776
 5887SOL    HW129123   0.311   2.142   6.820 -0.2955 -0.3023 -3.1744
 5887SOL    HW229124   0.181   2.169   6.743 -0.2154 -1.2091 -0.1714
 5888SOL     OW29125   3.354   1.547   4.463 -0.1421  0.1107  0.3729
 5888SOL    HW129126   3.408   1.558   4.384 -0.0368 -0.7136  0.3283
 5888SOL    HW229127   3.406   1.509   4.533  0.7927 -0.2481 -0.5195
 5889SOL     OW29128   1.601   1.214   4.183 -0.0489  0.0456 -0.7118
 5889SOL    HW129129   1.652   1.142   4.146 -2.0427 -2.0614  0.6145
 5889SOL    HW229130   1.509   1.186   4.176 -0.7101  1.9308  0.4466
 5890SOL     OW29131   1.409   1.033   5.445 -0.1659 -0.2598  0.5730
 5890SOL    HW129132   1.469   0.963   5.422 -1.7638 -1.2826 -0.4957
 5890SOL    HW229133   1.427   1.045   5.538 -1.7859 -0.0054  0.8628
 5891SOL     OW29134   1.239   2.791  12.837 -0.7166 -0.2363 -0.3077
 5891SOL    HW129135   1.301   2.796  12.765 -1.3704  0.7640 -0.8043
 5891SOL    HW229136   1.298   2.797  12.913 -0.0740  1.7795 -0.9760
 5892SOL     OW29137   0.299   0.076   1.592  0.6742  0.1151  0.6854
 5892SOL    HW129138   0.280   0.125   1.512  0.4256 -1.5210 -0.2739
 5892SOL    HW229139   0.251   0.120   1.662 -0.3184 -0.1324  0.1769
 5893SOL     OW29140   4.138   4.081  15.829  0.4195 -0.4513 -0.3413
 5893SOL    HW129141   4.059   4.134  15.835 -0.6314 -2.0561  0.0770
 5893SOL    HW229142   4.105   3.998  15.865 -0.8897  0.0795 -0.3282
 5894SOL     OW29143   2.915   4.344   9.599 -0.3140  0.7827  0.1110
 5894SOL    HW129144   2.958   4.394   9.530 -2.3813 -0.9003 -2.3796
 5894SOL    HW229145   2.931   4.399   9.676  1.2721  1.2119 -0.5285
 5895SOL     OW29146   3.066   3.329  13.126  0.1603 -0.1125 -0.3474
 5895SOL    HW129147   3.058   3.345  13.032  0.5538  1.5395 -0.1064
 5895SOL    HW229148   2.984   3.281  13.138  0.8495 -0.9482  0.9879
 5896SOL     OW29149   4.405   4.141   7.985  0.1323  0.4780 -0.0424
 5896SOL    HW129150   4.447   4.225   7.966  1.4151 -0.0810  0.3185
 5896SOL    HW229151   4.465   4.097   8.044  1.6158  0.7734 -1.3299
 5897SOL     OW29152   1.801   3.099   3.963 -0.0806 -0.5322  0.2062
 5897SOL    HW129153   1.841   3.072   3.881  1.8119  0.7651  0.7032
 5897SOL    HW229154   1.768   3.183   3.931  1.1707 -0.2597 -0.3620
 5898SOL     OW29155   0.925   4.623   7.243  0.3893 -0.4859 -0.8062
 5898SOL    HW129156   0.957   4.676   7.316  0.1414  1.8987 -2.4390
 5898SOL    HW229157   0.927   4.536   7.283  0.1125 -1.0286 -1.9984
 5899SOL     OW29158   1.922   2.055   6.599 -1.0707 -0.5950  0.3215
 5899SOL    HW129159   2.008   2.094   6.587 -1.3122 -0.1952 -0.0891
 5899SOL    HW229160   1.929   2.005   6.681  1.6812  0.3208  0.6291
 5900SOL     OW29161   2.589   1.627   9.542 -0.2498 -0.0216 -0.1148
 5900SOL    HW129162   2.660   1.676   9.499  0.3708  0.7322  1.7449
 5900SOL    HW229163   2.526   1.615   9.471  1.0549  0.5359 -1.3705
 5901SOL     OW29164   3.638   1.896   3.428  0.2863  0.0971  0.2551
 5901SOL    HW129165   3.595   1.979   3.449 -1.0560 -0.9398  1.6128
 5901SOL    HW229166   3.695   1.926   3.357  0.5499  1.3768  1.0085
 5902SOL     OW29167   2.562   2.589   5.546 -0.1565  0.1329  0.6102
 5902SOL    HW129168   2.610   2.605   5.627  0.8305  2.4851 -0.4668
 5902SOL    HW229169   2.534   2.498   5.550 -0.1758  0.1320  0.4512
 5903SOL     OW29170   0.182   1.500   2.571 -0.2226 -0.7500 -0.1284
 5903SOL    HW129171   0.264   1.451   2.566  1.0167  0.9806  2.9437
 5903SOL    HW229172   0.218   1.588   2.566 -0.3619 -0.6728  0.1788
 5904SOL     OW29173   3.577   3.887   4.665  0.5938 -0.0540 -0.0346
 5904SOL    HW129174   3.609   3.825   4.731 -0.3661 -1.4858 -0.9351
 5904SOL    HW229175   3.603   3.834   4.590  2.2777 -2.0424  1.9414
 5905SOL     OW29176   0.497   4.483   8.208  0.2457  0.0585  0.1529
 5905SOL    HW129177   0.453   4.407   8.170 -0.3255 -0.5152  1.9916
 5905SOL    HW229178   0.433   4.551   8.189 -0.9886 -1.3891 -0.8915
 5906SOL     OW29179   1.465   2.624   6.549 -0.4679 -0.2160 -0.3460
 5906SOL    HW129180   1.431   2.667   6.471 -1.2493  0.0023  0.1161
 5906SOL    HW229181   1.388   2.607   6.603 -0.4764 -2.7208 -1.1550
 5907SOL     OW29182   2.838   1.213   9.074  0.1999 -0.1365  0.0062
 5907SOL    HW129183   2.815   1.290   9.126  3.0430  2.7754 -3.0738
 5907SOL    HW229184   2.847   1.143   9.139 -0.4311 -1.5347 -1.3920
 5908SOL     OW29185   1.801   3.505   6.659 -0.3698  0.0089  0.3176
 5908SOL    HW129186   1.777   3.484   6.749  0.8308  2.8090  1.2848
 5908SOL    HW229187   1.863   3.578   6.668  0.4740 -0.9443  2.2485
 5909SOL     OW29188   0.635   1.522   8.274  0.2359  0.0829 -0.0024
 5909SOL    HW129189   0.693   1.515   8.350 -0.4211 -0.1196  0.4788
 5909SOL    HW229190   0.602   1.438   8.243 -0.0125  0.4049 -0.6214
 5910SOL     OW29191   3.355   3.669   9.321  0.6229 -0.4769 -0.3776
 5910SOL    HW129192   3.341   3.576   9.303  0.2421 -0.8734  2.0365
 5910SOL    HW229193   3.359   3.661   9.416  0.1630 -1.2542 -0.4239
 5911SOL     OW29194   1.794   0.627  13.387 -0.2963 -0.0853  0.0513
 5911SOL    HW129195   1.785   0.550  13.442 -1.4083  1.3064  1.8234
 5911SOL    HW229196   1.716   0.679  13.407 -1.6020 -1.9133 -0.3218
 5912SOL     OW29197   3.742   2.900   4.010  0.6500 -0.3716 -0.4242
 5912SOL    HW129198   3.700   2.816   4.029  2.9707 -1.5491 -0.5610
 5912SOL    HW229199   3.672   2.941   3.959  0.4418 -0.2228 -0.0225
 5913SOL     OW29200   1.168   1.883  12.286 -0.4374  0.5153  0.0904
 5913SOL    HW129201   1.127   1.898  12.201 -1.3926  0.3023  0.5201
 5913SOL    HW229202   1.148   1.970  12.320  1.0291  0.5095  0.9339
 5914SOL     OW29203   3.382   0.741   3.421  0.2122  0.0376  0.2801
 5914SOL    HW129204   3.286   0.735   3.422  0.0185  2.4201 -2.2482
 5914SOL    HW229205   3.397   0.808   3.354  1.8135 -2.3391 -1.7584
 5915SOL     OW29206   2.025   4.332  14.428  0.3357  0.1981 -0.6325
 5915SOL    HW129207   2.028   4.321  14.333  0.6362 -1.0833 -0.4824
 5915SOL    HW229208   2.044   4.241  14.452  1.2771  0.4856 -0.2872
 5916SOL     OW29209   3.753   2.945   6.969  0.4086  0.2630  0.6538
 5916SOL    HW129210   3.680   2.901   7.012  0.8539 -0.3015  0.8391
 5916SOL    HW229211   3.817   2.955   7.040  1.2838 -0.6699 -0.0033
 5917SOL     OW29212   1.099   3.142  15.464  0.0314 -0.1039  0.1243
 5917SOL    HW129213   1.156   3.066  15.450  0.0413 -0.0415 -0.1854
 5917SOL    HW229214   1.119   3.173  15.552  0.9261 -0.5882  0.0927
 5918SOL     OW29215   1.774   0.387   3.964  0.1840  0.1076 -0.0096
 5918SOL    HW129216   1.735   0.400   4.051 -1.3260  1.3523 -0.8797
 5918SOL    HW229217   1.847   0.447   3.977 -0.1386  0.4819  0.1004
 5919SOL     OW29218   0.542   2.131   5.331  0.4351 -0.1304 -0.0063
 5919SOL    HW129219   0.543   2.079   5.251 -0.1252 -0.2699  0.0720
 5919SOL    HW229220   0.512   2.062   5.390 -1.3442  0.7001  0.0675
 5920SOL     OW29221   1.528   1.977  10.098  0.3410 -0.2705  0.6303
 5920SOL    HW129222   1.459   1.917  10.070  0.1019  1.0429 -1.6137
 5920SOL    HW229223   1.547   1.955  10.189  0.1386 -3.0031  0.0248
 5921SOL     OW29224   4.659   2.591   6.784  0.0647 -0.1668  0.0978
 5921SOL    HW129225   4.652   2.673   6.735  1.6787  0.0211  0.1633
 5921SOL    HW229226   4.639   2.521   6.722  0.4589 -0.9573  0.8606
 5922SOL     OW29227   1.230   3.962   7.664 -0.1721  0.3969 -0.2279
 5922SOL    HW129228   1.316   3.970   7.704 -0.0396  0.5411 -0.5454
 5922SOL    HW229229   1.249   3.985   7.573 -2.2832  2.4920 -0.1528
 5923SOL     OW29230   4.502   3.686   8.998 -0.2437  0.0556  0.4351
 5923SOL    HW129231   4.425   3.716   8.951  0.3295  0.3183 -0.3311
 5923SOL    HW229232   4.485   3.594   9.014  1.0472 -0.0210  1.4161
 5924SOL     OW29233   3.224   4.710   3.776 -0.2664  0.2274  0.1912
 5924SOL    HW129234   3.133   4.723   3.802  0.5107 -1.0062  3.4295
 5924SOL    HW229235   3.275   0.057   3.803 -1.8425  0.9995  0.9686
 5925SOL     OW29236   4.017   0.499   5.371 -0.2785 -0.1986  0.5605
 5925SOL    HW129237   4.051   0.582   5.404 -0.4216  0.3088 -0.5746
 5925SOL    HW229238   4.009   0.527   5.280  1.5297  0.3105  0.5701
 5926SOL     OW29239   2.991   0.718   8.181 -0.0995  1.0383 -0.6191
 5926SOL    HW129240   3.028   0.650   8.238 -2.1434  2.0925  2.0095
 5926SOL    HW229241   3.047   0.793   8.199  2.3287 -0.9611  0.2838
 5927SOL     OW29242   2.748   3.483   6.648 -0.4939 -0.0318  0.1959
 5927SOL    HW129243   2.659   3.507   6.672 -1.2799 -1.0439 -1.7026
 5927SOL    HW229244   2.798   3.552   6.691 -1.0114  2.1321 -2.6288
 5928SOL     OW29245   1.957   3.289  10.684  0.4792  0.0885  0.2714
 5928SOL    HW129246   2.050   3.308  10.676  0.1994  0.7485 -1.3646
 5928SOL    HW229247   1.945   3.245  10.600  0.0319  0.5835  0.0807
 5929SOL     OW29248   0.302   3.314   2.909 -0.2490  0.2547  0.0204
 5929SOL    HW129249   0.231   3.270   2.864  1.7734 -2.2011 -0.7664
 5929SOL    HW229250   0.372   3.252   2.888 -1.2486  0.1240 -2.9110
 5930SOL     OW29251   1.820   3.922   6.866  0.0924 -0.3457  0.1260
 5930SOL    HW129252   1.802   4.000   6.814 -2.4401  0.5542  2.3438
 5930SOL    HW229253   1.743   3.918   6.923  0.9188  2.0004  1.4170
 5931SOL     OW29254   3.075   2.656   5.280 -0.2379  0.1836 -0.0557
 5931SOL    HW129255   3.006   2.610   5.327  0.3613 -0.5857  0.0575
 5931SOL    HW229256   3.132   2.670   5.356  0.7695  1.5287 -1.0573
 5932SOL     OW29257   1.665   2.428   8.864  0.5668  0.1413 -0.3790
 5932SOL    HW129258   1.653   2.446   8.770  0.2144  0.7296 -0.2199
 5932SOL    HW229259   1.588   2.372   8.874  0.7240 -0.1637 -0.8650
 5933SOL     OW29260   4.652   0.679   4.824  0.0557  0.1328 -0.0898
 5933SOL    HW129261   4.708   0.625   4.881  0.3862  0.1331 -0.4138
 5933SOL    HW229262   4.708   0.716   4.756  0.3162  1.4025  0.8063
 5934SOL     OW29263   2.689   3.444   4.280  0.0732 -0.4691 -0.2195
 5934SOL    HW129264   2.617   3.418   4.221  0.8893 -0.7925 -1.0784
 5934SOL    HW229265   2.721   3.354   4.289  1.5960  0.0207 -0.8395
 5935SOL     OW29266   2.556   4.065   6.081 -0.1181 -0.3889  0.5271
 5935SOL    HW129267   2.478   4.090   6.032 -0.1561 -0.4301  0.5659
 5935SOL    HW229268   2.616   4.111   6.022  1.8830 -0.7511  2.2495
 5936SOL     OW29269   3.316   4.510  11.944  0.1232  0.4616 -0.2277
 5936SOL    HW129270   3.338   4.553  11.862  1.1403  1.2447  0.4426
 5936SOL    HW229271   3.355   4.422  11.943 -2.1221 -0.6024  2.8635
 5937SOL     OW29272   1.256   3.184   8.103  0.2089  0.2953  0.0772
 5937SOL    HW129273   1.186   3.212   8.162  0.3372 -0.6469  0.6719
 5937SOL    HW229274   1.283   3.271   8.071  1.3479 -0.6152 -1.4258
 5938SOL     OW29275   4.623   0.730   8.178  0.4796 -0.3416  0.0718
 5938SOL    HW129276   4.695   0.668   8.183  0.3204 -0.4184  1.3926
 5938SOL    HW229277   4.579   0.725   8.263 -2.2597 -0.0509 -1.3236
 5939SOL     OW29278   4.182   0.075   9.018  0.1718 -0.0325  0.0534
 5939SOL    HW129279   4.249   0.057   8.952  0.5447  4.1493 -0.7544
 5939SOL    HW229280   4.177   0.171   9.018 -0.6307 -0.0754  0.0669
 5940SOL     OW29281   2.679   0.627   9.530  0.0835  0.2286  0.1890
 5940SOL    HW129282   2.633   0.545   9.550 -1.4729  0.8021 -1.0401
 5940SOL    HW229283   2.640   0.689   9.593  1.7021  1.6972 -0.2707
 5941SOL     OW29284   0.650   2.127   9.395  0.3849 -0.2762  0.6504
 5941SOL    HW129285   0.668   2.193   9.462 -1.9116  0.5045  0.4930
 5941SOL    HW229286   0.734   2.092   9.365  0.7488  0.8987  0.2912
 5942SOL     OW29287   1.818   3.637   8.364 -0.0182 -0.2020  0.1845
 5942SOL    HW129288   1.753   3.675   8.424  0.1695  0.5393 -0.0907
 5942SOL    HW229289   1.764   3.584   8.305  1.2126 -2.0372  0.6955
 5943SOL     OW29290   3.510   2.625   4.608 -0.5420 -0.6050  0.4244
 5943SOL    HW129291   3.462   2.701   4.575 -0.1327 -0.6426 -0.2586
 5943SOL    HW229292   3.474   2.557   4.551 -1.3684  0.5251 -0.4163
 5944SOL     OW29293   3.468   1.880  15.436 -0.0535  0.2171 -0.0287
 5944SOL    HW129294   3.450   1.808  15.376  1.0692  0.3988 -0.5659
 5944SOL    HW229295   3.417   1.850  15.512 -0.6898  1.1521 -0.0743
 5945SOL     OW29296   3.209   0.649  16.514  0.1389 -0.8307  0.1170
 5945SOL    HW129297   3.204   0.557  16.488  0.3870 -1.4072  2.0684
 5945SOL    HW229298   3.291   0.681  16.478 -0.3082  0.4462  0.2254
 5946SOL     OW29299   3.313   4.113  16.101  0.2531  0.2753 -0.0162
 5946SOL    HW129300   3.249   4.048  16.072  0.9775  0.2599 -1.5699
 5946SOL    HW229301   3.338   4.081  16.187  0.1801 -0.4301 -0.2542
 5947SOL     OW29302   3.175   4.141  14.950  0.4226  0.0983  0.4195
 5947SOL    HW129303   3.139   4.225  14.979  1.2141  1.1557 -1.6719
 5947SOL    HW229304   3.225   4.158  14.870 -0.8946  1.1922 -0.1683
 5948SOL     OW29305   3.976   3.257   8.641  0.1005 -0.4541  0.3109
 5948SOL    HW129306   3.980   3.170   8.601  1.0860 -0.1150 -0.3284
 5948SOL    HW229307   3.957   3.232   8.732 -2.2669  3.8648  0.9980
 5949SOL     OW29308   1.321   1.692   8.340 -0.2150 -0.0379  0.1300
 5949SOL    HW129309   1.231   1.718   8.323  0.6321  1.5637 -1.8843
 5949SOL    HW229310   1.313   1.649   8.425  0.9388 -0.4196  0.0580
 5950SOL     OW29311   1.886   0.416   7.711  0.1281 -0.5498 -0.0804
 5950SOL    HW129312   1.976   0.442   7.692 -0.0663 -0.1433 -0.4413
 5950SOL    HW229313   1.842   0.429   7.627 -0.4256  1.1566  0.4699
 5951SOL     OW29314   1.605   3.506  10.175  0.5358  0.3306 -0.6578
 5951SOL    HW129315   1.593   3.421  10.218 -0.1351 -0.4950 -2.4779
 5951SOL    HW229316   1.516   3.537  10.157  0.9933  0.7146 -2.2682
 5952SOL     OW29317   1.844   3.633   7.571  0.1146  0.0901 -0.9065
 5952SOL    HW129318   1.906   3.577   7.525  0.1411 -1.3798  0.9097
 5952SOL    HW229319   1.785   3.664   7.503 -1.2591 -2.3130 -0.7768
 5953SOL     OW29320   2.894   1.676   9.868  0.0695 -0.0070 -0.3309
 5953SOL    HW129321   2.888   1.592   9.913 -0.7510  0.3617  0.2609
 5953SOL    HW229322   2.844   1.722   9.935  0.9633  0.8941 -0.2862
 5954SOL     OW29323   2.690   2.924   4.109 -0.1078  0.4732 -0.3172
 5954SOL    HW129324   2.674   2.848   4.165 -0.7291  1.0688  0.3180
 5954SOL    HW229325   2.602   2.936   4.074  0.0619  0.4018 -0.7697
 5955SOL     OW29326   3.006   1.887   5.043 -0.2509 -0.1160  0.5332
 5955SOL    HW129327   3.058   1.889   5.123  2.8563 -2.8992 -1.3929
 5955SOL    HW229328   2.950   1.965   5.045  0.6083  0.5058  0.3739
 5956SOL     OW29329   4.491   2.922   4.184 -0.8710  0.7603  0.2637
 5956SOL    HW129330   4.444   2.840   4.193  0.7539  0.1018  2.6507
 5956SOL    HW229331   4.417   2.982   4.191  0.1155  2.1261 -0.7414
 5957SOL     OW29332   0.160   1.031   7.299  0.1503 -0.3844  0.1592
 5957SOL    HW129333   0.140   0.949   7.255 -1.3420  0.0273  0.0529
 5957SOL    HW229334   0.191   0.996   7.383  1.7425  0.3145 -0.1467
 5958SOL     OW29335   3.456   0.928   7.389 -0.5390 -0.3344 -0.2383
 5958SOL    HW129336   3.465   1.008   7.336 -0.6941  0.6871  1.2852
 5958SOL    HW229337   3.371   0.890   7.366 -0.1286 -0.0278 -2.2595
 5959SOL     OW29338   2.791   0.300   2.816 -0.0873 -0.6222 -0.4096
 5959SOL    HW129339   2.704   0.280   2.783  0.3653 -1.0724 -1.3169
 5959SOL    HW229340   2.851   0.267   2.750 -1.1279 -1.1130 -1.1142
 5960SOL     OW29341   3.872   1.566   7.777 -0.1212 -0.0557 -0.2441
 5960SOL    HW129342   3.922   1.648   7.774 -2.2562  1.2027 -1.2679
 5960SOL    HW229343   3.946   1.509   7.758 -0.0902  0.0967 -0.5841
 5961SOL     OW29344   0.343   4.528   3.443  0.0868  0.7557 -0.3951
 5961SOL    HW129345   0.341   4.620   3.419 -0.6744  0.4101 -1.6972
 5961SOL    HW229346   0.400   4.496   3.373  3.1062 -0.6356  2.7282
 5962SOL     OW29347   0.700   4.339   1.930 -0.4561 -0.0095 -0.0829
 5962SOL    HW129348   0.612   4.339   1.894 -0.7710  0.5636  0.6870
 5962SOL    HW229349   0.731   4.420   1.891 -0.7424 -0.4650 -1.2555
 5963SOL     OW29350   3.559   2.404   9.415 -0.8678 -0.6503  0.0994
 5963SOL    HW129351   3.554   2.310   9.395  0.9621 -0.8705  0.6170
 5963SOL    HW229352   3.641   2.417   9.462 -1.0365  1.3547 -0.1865
 5964SOL     OW29353   2.418   2.725   9.370  0.0225  0.3222 -0.3781
 5964SOL    HW129354   2.476   2.728   9.447  0.8597 -1.8591 -0.9335
 5964SOL    HW229355   2.417   2.630   9.358  0.5561  0.2142  0.4324
 5965SOL     OW29356   3.393   0.765   8.806  0.1403  0.2408 -0.1579
 5965SOL    HW129357   3.412   0.837   8.865 -0.3708 -0.7834  1.2530
 5965SOL    HW229358   3.300   0.750   8.822 -0.0871  0.9712 -0.8238
 5966SOL     OW29359   1.617   0.193   1.350  0.5317  0.0285 -0.1264
 5966SOL    HW129360   1.623   0.186   1.445 -0.7284  1.7975  0.0890
 5966SOL    HW229361   1.638   0.104   1.323 -1.9377 -0.0548 -1.7862
 5967SOL     OW29362   0.713   0.285   7.690 -0.1840  0.0541  0.1413
 5967SOL    HW129363   0.809   0.280   7.696 -0.0629  2.7163  0.1442
 5967SOL    HW229364   0.692   0.196   7.662  0.4007  0.1024 -0.4525
 5968SOL     OW29365   3.713   3.774  13.010  0.2081 -0.1350  0.2818
 5968SOL    HW129366   3.677   3.863  13.020  0.1513 -0.2563  1.1471
 5968SOL    HW229367   3.639   3.723  12.975  1.7067 -1.5001 -0.8847
 5969SOL     OW29368   3.854   0.090   1.805  0.3130  0.2572  0.1168
 5969SOL    HW129369   3.795   0.031   1.852 -1.0197  0.5298 -1.2252
 5969SOL    HW229370   3.921   0.031   1.769 -1.3475 -2.3841  1.3541
 5970SOL     OW29371   4.114   0.576  14.356  0.1893 -0.3159  0.2538
 5970SOL    HW129372   4.163   0.580  14.274 -1.5035 -3.1341 -0.9002
 5970SOL    HW229373   4.116   0.668  14.382  0.1305 -0.6380  1.4373
 5971SOL     OW29374   1.012   0.808   5.027 -0.1792 -0.7245 -0.4404
 5971SOL    HW129375   0.953   0.762   5.087  1.5982 -0.0855  1.7876
 5971SOL    HW229376   1.095   0.803   5.073  0.7028  0.2045 -1.9255
 5972SOL     OW29377   2.717   2.170   9.907  0.1167  0.4439  0.2598
 5972SOL    HW129378   2.665   2.152   9.986 -0.0747  0.8402  0.2226
 5972SOL    HW229379   2.796   2.123   9.932 -0.8036 -1.3644 -0.2434
 5973SOL     OW29380   2.369   3.088  14.009  0.4840  0.1929  0.1009
 5973SOL    HW129381   2.387   3.109  14.101 -0.1716  0.8590  0.0763
 5973SOL    HW229382   2.421   3.007  14.010  0.3232  0.0603 -3.6210
 5974SOL     OW29383   2.280   4.414   0.004 -0.3538 -0.0923 -0.2766
 5974SOL    HW129384   2.236   4.357   0.067 -1.8889 -1.0900 -2.2522
 5974SOL    HW229385   2.348   4.466   0.047 -0.8339 -1.2327  1.8606
 5975SOL     OW29386   2.910   0.781   6.969 -0.6401  0.3059  0.1252
 5975SOL    HW129387   2.925   0.875   6.981 -0.1964 -0.1294  2.9971
 5975SOL    HW229388   2.824   0.786   6.928 -0.5360 -2.5654 -0.4067
 5976SOL     OW29389   2.036   1.201   8.825  0.3992  0.2412 -0.0138
 5976SOL    HW129390   2.022   1.225   8.917 -0.9182  2.7696 -0.8801
 5976SOL    HW229391   2.131   1.208   8.838  0.2337  3.3521 -0.5051
 5977SOL     OW29392   3.469   4.547   4.190  0.0286 -0.2920 -0.0146
 5977SOL    HW129393   3.387   4.510   4.157 -0.2487  0.7082 -0.4439
 5977SOL    HW229394   3.471   4.630   4.142  1.2814 -0.3273 -0.0451
 5978SOL     OW29395   3.849   3.394  13.384  0.0675  0.1952  0.0062
 5978SOL    HW129396   3.875   3.480  13.418  0.9603 -0.5685  1.2608
 5978SOL    HW229397   3.796   3.420  13.308  0.1677 -3.1186 -1.2163
 5979SOL     OW29398   4.305   4.365   7.747  0.4758  0.2155 -0.4111
 5979SOL    HW129399   4.370   4.354   7.816 -1.7706 -1.2535  1.4565
 5979SOL    HW229400   4.318   4.459   7.739 -0.2767  0.2812 -0.8501
 5980SOL     OW29401   0.947   3.032   8.868 -0.3215 -0.5091  0.0681
 5980SOL    HW129402   1.026   3.083   8.852 -2.2742  1.9155 -1.7219
 5980SOL    HW229403   0.900   3.097   8.919  0.7994  1.1525 -1.0181
 5981SOL     OW29404   0.017   0.232   1.727  0.1532 -0.2348 -0.0064
 5981SOL    HW129405   4.695   0.167   1.776  2.8756 -2.1214  0.3300
 5981SOL    HW229406   0.100   0.219   1.773 -0.1000  1.1352  0.8173
 5982SOL     OW29407   2.775   3.281  10.531 -0.2968  0.5761 -1.3511
 5982SOL    HW129408   2.729   3.197  10.531  1.6284 -0.4788 -3.2212
 5982SOL    HW229409   2.826   3.268  10.611 -0.8310 -3.4920 -1.6520
 5983SOL     OW29410   1.547   0.857   1.389 -0.0872  0.3629  0.1171
 5983SOL    HW129411   1.546   0.783   1.449  0.1020  0.9411  0.8247
 5983SOL    HW229412   1.619   0.914   1.417 -1.6888  2.2835  0.3748
 5984SOL     OW29413   1.670   4.236   8.003 -0.8792  0.1629 -0.0033
 5984SOL    HW129414   1.635   4.206   8.087 -0.5317  1.9193  0.7669
 5984SOL    HW229415   1.697   4.154   7.960  0.5638 -0.0240  1.2464
 5985SOL     OW29416   1.394   1.122   2.060  0.2753 -0.5820  0.4410
 5985SOL    HW129417   1.406   1.191   1.994  0.0324 -1.0818 -0.1248
 5985SOL    HW229418   1.445   1.057   2.012  0.1906 -0.7350  0.5605
 5986SOL     OW29419   2.149   2.516   3.076  0.0015  0.0641  0.4701
 5986SOL    HW129420   2.142   2.610   3.090  0.8032  0.4554 -1.8336
 5986SOL    HW229421   2.100   2.511   2.994  0.8150 -0.8964  0.0498
 5987SOL     OW29422   4.651   4.188   2.144 -0.0266 -0.8676  0.1275
 5987SOL    HW129423   4.598   4.133   2.086 -0.9504  0.6608 -0.4729
 5987SOL    HW229424   0.011   4.186   2.107 -0.3694  0.9803 -0.8079
 5988SOL     OW29425   2.306   2.692   6.411 -0.2324  0.2001 -0.2617
 5988SOL    HW129426   2.334   2.784   6.420 -3.1719  1.1416 -0.7702
 5988SOL    HW229427   2.390   2.645   6.410  1.1256  2.6226 -1.5381
 5989SOL     OW29428   0.763   2.121   4.194 -0.1629 -0.6862 -0.4697
 5989SOL    HW129429   0.843   2.069   4.198  0.5743  0.5727  1.3696
 5989SOL    HW229430   0.714   2.074   4.261 -1.2430 -0.5440 -1.1633
 5990SOL     OW29431   1.199   2.971  12.253  0.9226  0.3075 -0.7706
 5990SOL    HW129432   1.113   3.010  12.263  1.4685  1.1486  0.6280
 5990SOL    HW229433   1.193   2.887  12.299 -0.5915  0.4278 -0.7541
 5991SOL     OW29434   2.491   1.825  15.187  0.3177  0.2503  0.2790
 5991SOL    HW129435   2.546   1.834  15.266 -1.6355  1.0294  1.5461
 5991SOL    HW229436   2.522   1.738  15.162 -0.1609  0.6925 -1.8687
 5992SOL     OW29437   0.654   1.181   9.362 -0.0113  0.5218 -0.1659
 5992SOL    HW129438   0.660   1.116   9.432  0.9939  0.8208  0.0260
 5992SOL    HW229439   0.733   1.234   9.367 -0.8695  1.7613  0.3367
 5993SOL     OW29440   1.547   2.174   5.855 -0.2645  0.5191 -0.4865
 5993SOL    HW129441   1.473   2.229   5.881 -0.3725  0.2668 -0.2649
 5993SOL    HW229442   1.505   2.089   5.850  0.6900  0.1392 -2.2706
 5994SOL     OW29443   1.426   0.613   7.115  1.1046  0.7488 -0.0631
 5994SOL    HW129444   1.354   0.592   7.176 -1.1484 -0.8737 -3.2627
 5994SOL    HW229445   1.395   0.695   7.076  1.7347  1.5548  1.1579
 5995SOL     OW29446   2.945   2.978   7.412  0.4482 -0.1843 -0.4050
 5995SOL    HW129447   2.858   2.993   7.373  0.3735  0.9190  0.1865
 5995SOL    HW229448   2.992   2.941   7.337  2.3373 -1.6150  1.4921
 5996SOL     OW29449   2.863   3.091   4.653  0.5405 -0.0882  0.3934
 5996SOL    HW129450   2.883   3.025   4.720  0.5046 -0.3520  0.1472
 5996SOL    HW229451   2.937   3.151   4.656 -0.6569  1.4182  0.0355
 5997SOL     OW29452   3.277   0.781   9.836 -0.0938  0.2528 -0.1775
 5997SOL    HW129453   3.272   0.686   9.826  4.1681 -0.0726  0.7399
 5997SOL    HW229454   3.209   0.806   9.897  2.7363  2.8025  1.9281
 5998SOL     OW29455   3.752   2.388   5.546  0.0445 -0.3439 -0.3447
 5998SOL    HW129456   3.723   2.443   5.473  1.3500 -2.0751 -2.1663
 5998SOL    HW229457   3.798   2.454   5.598  2.7118 -2.0624 -0.5097
 5999SOL     OW29458   0.687   2.282   0.719  0.3149  0.3946  0.2886
 5999SOL    HW129459   0.659   2.191   0.714 -1.2205  0.8488  0.5284
 5999SOL    HW229460   0.768   2.278   0.770  0.1139 -1.7159  0.4429
 6000SOL     OW29461   1.453   3.223  14.359 -0.0681  0.3724  0.6364
 6000SOL    HW129462   1.493   3.235  14.272 -0.1584 -0.5082  0.4678
 6000SOL    HW229463   1.379   3.166  14.338 -2.5171  3.8738 -0.1930
 6001SOL     OW29464   0.026   1.707   3.746 -0.3903 -0.0676  0.2488
 6001SOL    HW129465   0.090   1.730   3.814  0.4522 -0.1819 -0.5077
 6001SOL    HW229466   0.047   1.771   3.678  1.4134 -0.8411  0.0655
 6002SOL     OW29467   4.645   4.312   0.665 -0.3482  0.3011 -0.4928
 6002SOL    HW129468   4.571   4.317   0.604  0.0998  0.6317 -1.0049
 6002SOL    HW229469   4.703   4.378   0.630  1.3020 -1.3024 -0.7483
 6003SOL     OW29470   2.236   4.707  14.747 -0.0935 -0.2421 -0.1026
 6003SOL    HW129471   2.198   0.050  14.797 -0.1839 -0.0060 -0.5139
 6003SOL    HW229472   2.180   4.632  14.770 -1.9446  0.8644 -0.9461
 6004SOL     OW29473   2.643   0.470   5.059 -0.4709 -0.6483 -0.2048
 6004SOL    HW129474   2.674   0.545   5.009 -0.1952 -0.8102 -0.2743
 6004SOL    HW229475   2.607   0.414   4.989  0.7499 -0.1666 -1.2261
 6005SOL     OW29476   4.647   2.414  10.990  0.0603 -0.1506  0.5589
 6005SOL    HW129477   4.636   2.488  11.051  0.5545 -0.7233  1.3425
 6005SOL    HW229478   4.584   2.440  10.923  1.5585 -0.2186 -0.8580
 6006SOL     OW29479   0.918   2.128  12.613  0.4101 -0.2305  0.1245
 6006SOL    HW129480   0.834   2.124  12.567  2.0081 -1.3253 -2.7620
 6006SOL    HW229481   0.964   2.048  12.587  0.3073 -0.0471 -0.6209
 6007SOL     OW29482   4.154   1.429   3.043  0.1528 -0.0525 -0.0747
 6007SOL    HW129483   4.093   1.357   3.031 -0.0822  0.2598 -0.7542
 6007SOL    HW229484   4.233   1.379   3.065  0.0322  0.7727  2.1994
 6008SOL     OW29485   0.791   4.335   5.687  0.0142  0.4099 -0.0418
 6008SOL    HW129486   0.851   4.262   5.701  0.6012  1.2419  1.8075
 6008SOL    HW229487   0.814   4.384   5.766  2.9535  0.0476 -0.6596
 6009SOL     OW29488   2.039   4.327   2.108  0.2250 -0.3565  0.2103
 6009SOL    HW129489   2.074   4.294   2.026  2.9836  0.4575  1.0636
 6009SOL    HW229490   2.064   4.252   2.163  0.5854 -0.5753 -0.2570
 6010SOL     OW29491   4.477   1.897   4.833 -0.3875 -0.4459 -0.4030
 6010SOL    HW129492   4.559   1.849   4.839 -0.5203 -0.6472 -0.1941
 6010SOL    HW229493   4.500   1.987   4.855 -1.6860 -0.1832 -0.1090
 6011SOL     OW29494   3.272   4.638   3.510  0.5982  0.6007  0.4167
 6011SOL    HW129495   3.263   4.696   3.585  2.3856  0.4389  0.7444
 6011SOL    HW229496   3.294   4.702   3.442  0.5007 -0.7000 -0.8247
 6012SOL     OW29497   1.718   3.078  13.432 -0.3145  0.1133 -0.0106
 6012SOL    HW129498   1.803   3.035  13.435 -0.2675  0.2473  0.5266
 6012SOL    HW229499   1.717   3.086  13.336 -2.0311  0.7279  0.0489
 6013SOL     OW29500   1.462   4.024   8.613 -0.9505  0.1325 -0.1821
 6013SOL    HW129501   1.514   3.963   8.664  0.8807  2.4353  0.7050
 6013SOL    HW229502   1.459   4.102   8.669  0.8777  0.9375 -1.2268
 6014SOL     OW29503   0.732   1.347  10.367 -0.0751  0.1122 -0.1530
 6014SOL    HW129504   0.785   1.355  10.287 -0.8283 -3.7194 -1.0238
 6014SOL    HW229505   0.780   1.287  10.425 -0.8055  1.0997  1.4667
 6015SOL     OW29506   1.017   3.140  13.842 -0.2574 -0.6333  0.6469
 6015SOL    HW129507   0.945   3.190  13.881  1.0724  1.3236  0.5543
 6015SOL    HW229508   1.097   3.192  13.845 -1.1074  0.8101 -1.4722
 6016SOL     OW29509   0.409   2.717   3.504 -0.5076  0.2725  0.0006
 6016SOL    HW129510   0.415   2.628   3.540  0.2778  0.1197 -0.5128
 6016SOL    HW229511   0.491   2.749   3.542  0.4732 -2.6718  0.3350
 6017SOL     OW29512   2.787   4.555   0.366 -0.2369  0.4112  0.2324
 6017SOL    HW129513   2.739   4.474   0.384 -0.5135  0.5878  0.2718
 6017SOL    HW229514   2.788   4.552   0.270 -1.3231  1.7291  0.1784
 6018SOL     OW29515   0.207   4.085   2.306  0.5520 -0.2893  0.2910
 6018SOL    HW129516   0.252   4.001   2.320 -0.9479 -1.3050 -0.9621
 6018SOL    HW229517   0.119   4.065   2.340  0.3890  1.8635  1.1067
 6019SOL     OW29518   0.486   4.277   6.992 -0.2188 -0.0722 -0.2116
 6019SOL    HW129519   0.476   4.238   6.905  0.1689 -0.3608 -0.1294
 6019SOL    HW229520   0.548   4.215   7.030  1.8865  1.1743 -1.5659
 6020SOL     OW29521   2.106   4.518   1.000 -0.0137 -0.0115 -0.0146
 6020SOL    HW129522   2.070   4.592   0.953 -0.7349 -0.5758 -0.3526
 6020SOL    HW229523   2.177   4.500   0.938  1.6926  0.4650  1.7943
 6021SOL     OW29524   3.728   1.927   4.985 -1.0474  0.3244 -0.5465
 6021SOL    HW129525   3.821   1.915   4.967 -1.6303 -0.2782 -3.0860
 6021SOL    HW229526   3.704   1.857   5.047  1.0836  2.4567  2.6878
 6022SOL     OW29527   2.552   4.641   6.440  0.0047  0.3863  0.4192
 6022SOL    HW129528   2.572   4.672   6.528  0.9924 -0.9879  0.6890
 6022SOL    HW229529   2.501   4.709   6.396  1.1255  1.5047  0.8504
 6023SOL     OW29530   0.431   0.842   4.350  0.0096  0.7050 -0.2601
 6023SOL    HW129531   0.449   0.847   4.256  1.0299 -1.6386 -0.2068
 6023SOL    HW229532   0.514   0.824   4.395 -0.5326  0.3279  0.5962
 6024SOL     OW29533   0.025   0.898   1.310 -0.1841 -0.5547 -0.5331
 6024SOL    HW129534   4.719   0.847   1.383  1.9563 -1.6898 -0.2997
 6024SOL    HW229535   0.115   0.866   1.315  0.6073  1.8894  0.7294
 6025SOL     OW29536   3.470   3.962  13.789 -0.0018 -0.5552 -0.0908
 6025SOL    HW129537   3.508   3.892  13.738  1.0007  0.5984 -0.9119
 6025SOL    HW229538   3.383   3.955  13.750  0.4102  1.1366 -1.3014
 6026SOL     OW29539   2.440   1.702   6.678 -0.0750 -0.1845 -0.0800
 6026SOL    HW129540   2.347   1.724   6.675 -0.0826 -0.2201 -0.1161
 6026SOL    HW229541   2.489   1.781   6.701 -0.1190 -0.5171  1.1482
 6027SOL     OW29542   2.221   0.803   7.710  0.0909 -0.3148  0.2949
 6027SOL    HW129543   2.284   0.875   7.704 -0.1572 -0.2028 -0.9604
 6027SOL    HW229544   2.238   0.757   7.628 -1.0905 -1.3642  0.6424
 6028SOL     OW29545   0.553   3.072  13.491  0.2546  0.1366  0.2944
 6028SOL    HW129546   0.585   3.162  13.504  2.1433 -0.4809 -0.1355
 6028SOL    HW229547   0.457   3.077  13.495  0.4520  2.5139  2.2853
 6029SOL     OW29548   0.016   3.262   3.035  0.3658  0.6803  0.7644
 6029SOL    HW129549   0.069   3.244   3.112 -0.0033  0.6595  1.0114
 6029SOL    HW229550   4.677   3.200   3.058  1.0528  0.6367  2.6414
 6030SOL     OW29551   4.574   4.123   1.748 -0.2566 -0.0754  0.5852
 6030SOL    HW129552   4.560   4.200   1.692  0.2710 -0.9457 -0.7426
 6030SOL    HW229553   4.668   4.120   1.763 -0.4548 -0.0499  1.7784
 6031SOL     OW29554   3.118   1.681   7.710  0.2517  0.2019  0.2956
 6031SOL    HW129555   3.125   1.594   7.670 -0.2792  1.0609 -1.6222
 6031SOL    HW229556   3.113   1.736   7.632  0.6544 -0.5441 -0.2587
 6032SOL     OW29557   2.523   1.419   4.478 -0.5476 -0.3768  0.2931
 6032SOL    HW129558   2.572   1.405   4.397 -0.4315 -0.9219  0.4598
 6032SOL    HW229559   2.440   1.430   4.431  0.7701 -0.6435 -2.0750
 6033SOL     OW29560   0.746   0.623   5.131 -0.4491 -0.4406  0.0610
 6033SOL    HW129561   0.765   0.675   5.052  3.4406 -2.5013 -0.3423
 6033SOL    HW229562   0.689   0.671   5.191  1.4887  3.3654 -1.1521
 6034SOL     OW29563   1.552   1.245   6.025 -0.1295  0.4686  0.2714
 6034SOL    HW129564   1.483   1.235   5.960  1.9702  0.2264 -1.9027
 6034SOL    HW229565   1.619   1.221   5.962  0.1181 -1.7642  1.3737
 6035SOL     OW29566   3.544   3.973   7.981 -0.5354  0.2243  0.2062
 6035SOL    HW129567   3.637   3.972   8.005  1.0300  1.4091 -5.9039
 6035SOL    HW229568   3.520   3.881   7.989 -0.1135  0.1073  0.1280
 6036SOL     OW29569   2.176   1.204   3.516 -0.0592  0.4867 -0.0938
 6036SOL    HW129570   2.172   1.197   3.421 -0.5227 -0.6091  0.0118
 6036SOL    HW229571   2.100   1.260   3.529 -0.0375  0.1338  1.5303
 6037SOL     OW29572   4.003   3.140   1.782 -0.4069  0.3812 -0.0421
 6037SOL    HW129573   3.973   3.223   1.743  0.0316  0.6798  0.2602
 6037SOL    HW229574   4.018   3.091   1.701 -1.4710  0.7521 -0.4739
 6038SOL     OW29575   2.324   4.341   3.301  0.4652 -0.7068  0.3610
 6038SOL    HW129576   2.320   4.248   3.324  3.5777 -0.6620  1.0922
 6038SOL    HW229577   2.231   4.360   3.296  1.0081  1.8379 -0.2274
 6039SOL     OW29578   1.934   0.913   7.822  0.0184 -0.0938  0.6663
 6039SOL    HW129579   2.000   0.864   7.871  0.0228 -0.2944  0.4591
 6039SOL    HW229580   1.972   0.910   7.735  0.8567 -1.6370  1.0767
 6040SOL     OW29581   1.972   0.320  13.828 -0.2584 -0.3263 -0.0013
 6040SOL    HW129582   1.892   0.300  13.781 -0.1464  1.6168 -1.0419
 6040SOL    HW229583   1.960   0.258  13.900 -0.0146  0.1726  0.4708
 6041SOL     OW29584   4.722   3.288   6.013  0.1373  0.2050 -0.7964
 6041SOL    HW129585   4.702   3.381   6.019 -1.8339 -0.2489 -0.5269
 6041SOL    HW229586   0.070   3.272   6.069 -1.1012 -1.6822  0.3710
 6042SOL     OW29587   4.063   3.387   2.994  0.6081  0.2714 -0.1580
 6042SOL    HW129588   4.066   3.455   3.061 -0.5107 -1.4127  1.6017
 6042SOL    HW229589   3.972   3.356   3.002  1.0553 -0.9160  0.3494
 6043SOL     OW29590   4.657   3.242  11.145 -0.3961 -0.1080  0.2133
 6043SOL    HW129591   4.601   3.172  11.110 -0.6127  0.5361 -0.7184
 6043SOL    HW229592   4.606   3.270  11.221  1.2620 -0.1180  1.3312
 6044SOL     OW29593   2.331   1.425   4.084  0.2464 -0.5841  0.0778
 6044SOL    HW129594   2.336   1.507   4.034  1.7973 -0.7441 -0.0284
 6044SOL    HW229595   2.297   1.365   4.018  0.4175 -0.8202  0.2053
 6045SOL     OW29596   0.275   4.656  13.405 -0.2094 -0.3229 -0.7482
 6045SOL    HW129597   0.325   4.702  13.472 -1.6423  0.2874 -0.0937
 6045SOL    HW229598   0.327   4.684  13.329  0.2789 -0.4389 -0.4551
 6046SOL     OW29599   3.509   4.582  17.656 -0.1905 -0.4795 -0.3739
 6046SOL    HW129600   3.592   4.629  17.648  0.1979 -0.9471  0.9576
 6046SOL    HW229601   3.469   4.608   0.022 -1.4682  0.1747 -1.1988
 6047SOL     OW29602   2.155   3.763   8.472 -0.2251 -0.3177  0.3393
 6047SOL    HW129603   2.087   3.828   8.491  0.2641  0.5482 -0.8468
 6047SOL    HW229604   2.118   3.720   8.395 -2.3635 -1.1379  1.8482
 6048SOL     OW29605   1.950   1.083   1.629 -0.5064  0.2633 -0.2139
 6048SOL    HW129606   1.944   1.076   1.725 -2.0206  0.1663 -0.3177
 6048SOL    HW229607   2.029   1.033   1.608  0.3937  1.5489  0.0612
 6049SOL     OW29608   4.431   2.473   8.153 -0.1473 -0.0671 -0.1007
 6049SOL    HW129609   4.498   2.513   8.208  0.4876  0.1710 -1.0282
 6049SOL    HW229610   4.393   2.412   8.216 -0.9607  0.8768  0.3153
 6050SOL     OW29611   0.262   4.125   5.178  0.1826  0.1489  0.2170
 6050SOL    HW129612   0.325   4.085   5.239 -0.6645 -0.8106  0.4678
 6050SOL    HW229613   0.239   4.207   5.220  0.6939 -0.9562  2.6710
 6051SOL     OW29614   1.581   3.775   0.345 -0.1110 -0.2495 -0.1900
 6051SOL    HW129615   1.536   3.694   0.320  0.7325 -1.7299  3.1233
 6051SOL    HW229616   1.648   3.736   0.401  0.7315  1.2142 -0.1871
 6052SOL     OW29617   2.759   1.629   3.457 -0.0748  0.0408 -0.7733
 6052SOL    HW129618   2.680   1.617   3.404 -0.6465  0.2304  0.0376
 6052SOL    HW229619   2.818   1.659   3.388  1.2568 -0.3507  0.1949
 6053SOL     OW29620   0.362   0.146  13.240  0.1658 -0.2050  0.1676
 6053SOL    HW129621   0.453   0.158  13.213 -0.1466  1.8866  0.0729
 6053SOL    HW229622   0.320   0.107  13.163 -0.8237 -1.3522  1.2832
 6054SOL     OW29623   2.067   4.588   6.023 -0.1460  1.0151  0.2570
 6054SOL    HW129624   2.110   4.589   6.109  0.2964 -0.0558  0.0485
 6054SOL    HW229625   2.126   4.612   5.951  3.3102 -0.0849  2.7306
 6055SOL     OW29626   3.368   0.249   6.566 -0.0974  0.2332 -0.4671
 6055SOL    HW129627   3.415   0.215   6.642 -0.0956  1.2886 -0.0032
 6055SOL    HW229628   3.300   0.183   6.555  0.5020 -0.4758  0.0933
 6056SOL     OW29629   4.068   0.759   3.932  0.0900 -0.4309 -0.2150
 6056SOL    HW129630   3.988   0.794   3.971  0.7045  1.4849 -0.6873
 6056SOL    HW229631   4.027   0.677   3.902 -1.2315 -0.3781  1.4564
 6057SOL     OW29632   3.745   4.012   7.110  0.2918  0.8298 -0.0705
 6057SOL    HW129633   3.700   3.940   7.065  0.0134  0.3242  1.0174
 6057SOL    HW229634   3.821   4.018   7.052 -0.3784  1.0870 -0.9209
 6058SOL     OW29635   1.003   3.304   7.936  0.3078 -0.3611  0.2638
 6058SOL    HW129636   0.959   3.223   7.912 -1.1083  0.6425 -0.5852
 6058SOL    HW229637   0.987   3.304   8.030  1.8819 -0.7821  0.5286
 6059SOL     OW29638   2.990   3.347   2.242 -0.3206  0.1376  0.1546
 6059SOL    HW129639   3.070   3.295   2.253  0.2158  0.9201 -0.0327
 6059SOL    HW229640   2.934   3.271   2.226 -1.3831  1.2029 -1.0893
 6060SOL     OW29641   2.156   2.029  13.029 -0.0788 -0.3206 -0.3359
 6060SOL    HW129642   2.173   2.030  12.935 -2.0490 -0.1728 -0.7037
 6060SOL    HW229643   2.093   2.101  13.034  2.9259  2.2943 -0.7710
 6061SOL     OW29644   4.022   1.914  15.044  0.0352  0.0651 -0.4408
 6061SOL    HW129645   4.010   1.991  14.989 -0.2219 -0.3999 -1.0263
 6061SOL    HW229646   4.077   1.854  14.994 -0.0474  0.0822 -0.5506
 6062SOL     OW29647   2.436   0.086   4.054 -0.1104  0.0450 -0.3101
 6062SOL    HW129648   2.476   0.008   4.015  1.7750 -0.4271  2.5776
 6062SOL    HW229649   2.358   0.058   4.101  0.7391 -1.1517  0.3795
 6063SOL     OW29650   0.963   3.573  10.010  0.6232  0.2840  0.0213
 6063SOL    HW129651   0.946   3.545   9.920 -0.9748  1.4761 -0.0610
 6063SOL    HW229652   0.984   3.487  10.048 -0.9531  0.3915  1.1475
 6064SOL     OW29653   4.238   1.990  15.641  0.1530 -0.2970 -0.0469
 6064SOL    HW129654   4.219   1.998  15.547  3.2369 -3.2434 -0.9142
 6064SOL    HW229655   4.332   1.972  15.641 -0.0003 -1.0784 -2.5604
 6065SOL     OW29656   0.915   0.303   7.088  0.4587  0.1618  0.2278
 6065SOL    HW129657   0.985   0.278   7.149  0.1347  0.0052  0.5319
 6065SOL    HW229658   0.914   0.229   7.028 -1.8839  0.4952 -0.1375
 6066SOL     OW29659   0.735   3.529   5.604 -0.1681 -0.6620 -0.0175
 6066SOL    HW129660   0.653   3.520   5.652 -0.0456  0.7566  0.4598
 6066SOL    HW229661   0.800   3.571   5.661 -0.7498  0.0355  0.1316
 6067SOL     OW29662   3.911   3.384  15.883 -0.0123 -0.2621  0.2433
 6067SOL    HW129663   3.866   3.333  15.951 -1.8378  0.2025 -0.6143
 6067SOL    HW229664   3.993   3.335  15.888  1.3183  1.9144 -0.6165
 6068SOL     OW29665   1.593   0.383  11.914 -0.0460  0.0819  0.3869
 6068SOL    HW129666   1.509   0.429  11.904 -0.1473 -0.0438  0.6773
 6068SOL    HW229667   1.600   0.360  12.006 -0.5517  1.1255  0.6825
 6069SOL     OW29668   3.504   0.416   5.055  0.6603  0.0501  0.0581
 6069SOL    HW129669   3.474   0.471   5.127 -0.7853  0.3852 -0.7948
 6069SOL    HW229670   3.592   0.453   5.044  0.8374 -0.2000  0.6723
 6070SOL     OW29671   4.705   3.906   5.423  0.2133 -0.1978  0.0656
 6070SOL    HW129672   0.065   3.877   5.406 -0.1451 -0.7464 -0.9453
 6070SOL    HW229673   4.644   3.831   5.425 -0.1832  0.1001 -0.6546
 6071SOL     OW29674   4.678   1.898   8.606 -0.3505  0.7391  0.4356
 6071SOL    HW129675   4.720   1.814   8.620 -1.5548  0.5419  2.8382
 6071SOL    HW229676   0.022   1.947   8.570 -0.0795 -0.6816 -0.9444
 6072SOL     OW29677   0.821   3.397   4.574  0.6398  0.4235  0.4944
 6072SOL    HW129678   0.840   3.476   4.523 -0.8769  0.6651  0.2956
 6072SOL    HW229679   0.854   3.431   4.657  0.7802 -0.7650  0.9216
 6073SOL     OW29680   1.810   1.479   5.008 -0.1036  0.0937  0.2362
 6073SOL    HW129681   1.843   1.488   5.098  3.3847  5.7070 -1.6011
 6073SOL    HW229682   1.718   1.505   5.012 -0.7438 -2.1854  0.6069
 6074SOL     OW29683   2.401   4.423   6.505  0.0464  0.1509  0.6196
 6074SOL    HW129684   2.317   4.466   6.491 -0.4411 -1.4861 -1.5784
 6074SOL    HW229685   2.461   4.491   6.473  0.3676 -0.6039 -0.3834
 6075SOL     OW29686   1.924   4.265   1.084  0.0987  0.1741 -0.3166
 6075SOL    HW129687   2.000   4.209   1.071 -0.0841 -0.4937  1.4538
 6075SOL    HW229688   1.930   4.327   1.012  0.3560 -0.8098 -1.1419
 6076SOL     OW29689   4.366   1.018   8.628 -0.0696 -0.0299 -0.1348
 6076SOL    HW129690   4.347   1.109   8.605 -0.1019  0.2951  1.1755
 6076SOL    HW229691   4.459   1.016   8.650  0.3624  1.1340 -1.8255
 6077SOL     OW29692   2.416   2.584   4.862  0.1574 -0.4931 -0.5765
 6077SOL    HW129693   2.339   2.563   4.808 -0.4229 -2.0909  0.8595
 6077SOL    HW229694   2.479   2.514   4.840  0.1548 -0.9608  0.9341
 6078SOL     OW29695   3.726   0.196   4.002 -0.3196  0.1037 -0.4573
 6078SOL    HW129696   3.775   0.260   4.053 -1.9618  1.9188 -1.1622
 6078SOL    HW229697   3.673   0.169   4.078 -0.4282 -1.8993 -1.2577
 6079SOL     OW29698   0.568   0.189   8.689 -0.4345  0.0391 -0.4237
 6079SOL    HW129699   0.543   0.235   8.609 -1.3463  0.0679 -0.1226
 6079SOL    HW229700   0.492   0.193   8.747  0.2002  0.8916  0.3407
 6080SOL     OW29701   0.712   2.721   7.939 -0.1325 -0.2731 -0.4777
 6080SOL    HW129702   0.761   2.739   8.019 -0.7339  0.5167 -0.2900
 6080SOL    HW229703   0.752   2.638   7.914  0.8483 -0.2246  0.9525
 6081SOL     OW29704   4.395   1.681   0.931 -0.0448 -0.3617 -0.1747
 6081SOL    HW129705   4.435   1.623   0.866  1.7167 -1.0534  1.5143
 6081SOL    HW229706   4.452   1.654   1.004 -0.9868 -3.0735 -0.4449
 6082SOL     OW29707   0.191   2.147   7.199 -0.0483 -0.1009 -0.5532
 6082SOL    HW129708   0.139   2.196   7.136  1.6387  1.6119 -0.5980
 6082SOL    HW229709   0.187   2.204   7.275  0.3971 -1.3093  0.3891
 6083SOL     OW29710   3.612   0.727   7.662  0.1433 -0.1546 -0.0104
 6083SOL    HW129711   3.585   0.662   7.598  2.0950  0.5399 -1.5248
 6083SOL    HW229712   3.622   0.810   7.616  0.6208  0.3733  1.0236
 6084SOL     OW29713   2.665   4.704   0.960  0.3839  0.4805  0.6306
 6084SOL    HW129714   2.575   4.703   0.927  0.5171  1.1937  0.2520
 6084SOL    HW229715   2.681   0.065   0.988  3.8634 -0.0417  0.3231
 6085SOL     OW29716   0.539   1.158  12.633 -0.1211 -0.1047  0.6019
 6085SOL    HW129717   0.614   1.118  12.677 -1.3739 -2.5119  0.5368
 6085SOL    HW229718   0.491   1.083  12.598 -2.0666  1.3497  0.1365
 6086SOL     OW29719   4.207   3.016   1.984 -0.5229 -0.0524 -0.1433
 6086SOL    HW129720   4.223   3.100   2.025  1.3883 -1.0019  1.0473
 6086SOL    HW229721   4.142   3.046   1.920 -2.5333 -1.9110  1.0062
 6087SOL     OW29722   2.225   3.718   7.987 -0.4492  0.2146 -0.7496
 6087SOL    HW129723   2.162   3.649   8.009  0.5594  0.0635  1.6501
 6087SOL    HW229724   2.191   3.791   8.040  2.8248  0.8433  0.4660
 6088SOL     OW29725   0.531   2.625  16.497 -0.0064  0.2198  0.3659
 6088SOL    HW129726   0.512   2.671  16.415  2.0831 -0.6280 -0.5739
 6088SOL    HW229727   0.442   2.620  16.532 -0.2973 -0.3884 -0.4630
 6089SOL     OW29728   3.426   1.130   7.975 -0.1393  0.2895 -0.2380
 6089SOL    HW129729   3.480   1.100   8.048 -0.3795 -1.3877 -0.7372
 6089SOL    HW229730   3.467   1.210   7.942 -0.9794  0.8963  0.1633
 6090SOL     OW29731   2.591   3.557  16.908  1.0522  0.3932 -0.2567
 6090SOL    HW129732   2.499   3.569  16.928  0.3260  1.2244 -3.9737
 6090SOL    HW229733   2.593   3.467  16.875 -3.5383  0.7130 -1.4617
 6091SOL     OW29734   0.999   0.972  10.948  0.6536 -0.2734 -0.2548
 6091SOL    HW129735   0.993   1.067  10.953 -1.3215 -0.4180  0.2261
 6091SOL    HW229736   1.084   0.952  10.986  0.0717  0.0417  1.1964
 6092SOL     OW29737   0.961   4.328   4.740 -0.3224  0.4513 -0.3741
 6092SOL    HW129738   0.869   4.342   4.720  0.0200  0.2017 -2.1952
 6092SOL    HW229739   0.979   4.392   4.809 -1.5038 -0.3805  0.7062
 6093SOL     OW29740   2.000   3.779   4.407 -0.6195 -0.0689  0.5669
 6093SOL    HW129741   1.930   3.838   4.379 -1.1555 -0.7159  0.5457
 6093SOL    HW229742   2.019   3.820   4.491 -0.5332  1.5702 -0.2573
 6094SOL     OW29743   2.588   2.762   9.129 -0.0362 -0.4849  0.0370
 6094SOL    HW129744   2.670   2.793   9.168  0.0276  1.2893 -1.4367
 6094SOL    HW229745   2.523   2.771   9.198 -0.2999  0.2658 -0.3062
 6095SOL     OW29746   0.046   3.712   3.576  0.8075 -0.0623 -0.1122
 6095SOL    HW129747   4.721   3.776   3.530 -0.8375 -1.8289 -0.6285
 6095SOL    HW229748   0.012   3.627   3.548 -2.1913  0.8170  0.8812
 6096SOL     OW29749   2.341   1.639   3.924  0.3527  0.1856  0.7643
 6096SOL    HW129750   2.331   1.676   3.837  0.5605 -2.2813 -0.3078
 6096SOL    HW229751   2.257   1.656   3.967 -0.3983 -1.3513 -0.1141
 6097SOL     OW29752   1.773   3.603  16.233 -0.3826  0.5437  0.0871
 6097SOL    HW129753   1.749   3.677  16.178  1.3132  0.9445 -0.1103
 6097SOL    HW229754   1.827   3.545  16.179 -0.3534 -0.4391  1.1644
 6098SOL     OW29755   3.381   4.100  15.128  0.1162 -0.5700  0.1420
 6098SOL    HW129756   3.314   4.113  15.061  1.3999  2.2607 -0.5540
 6098SOL    HW229757   3.365   4.165  15.196  0.5841 -0.1201 -0.1782
 6099SOL     OW29758   4.452   0.652   4.224  1.0262 -0.4796  0.5912
 6099SOL    HW129759   4.367   0.618   4.195  0.6190 -1.0969  2.5296
 6099SOL    HW229760   4.510   0.614   4.159  0.0002 -1.8516  0.4730
 6100SOL     OW29761   1.127   3.807   2.650 -0.0065 -0.4660 -0.3924
 6100SOL    HW129762   1.042   3.766   2.669 -1.2885  1.4801 -1.9173
 6100SOL    HW229763   1.165   3.824   2.737 -1.8457 -0.9192  0.5128
 6101SOL     OW29764   0.847   3.310   9.017  0.4196 -0.4239  0.6099
 6101SOL    HW129765   0.801   3.387   9.050  0.1586 -0.7065  0.9027
 6101SOL    HW229766   0.785   3.286   8.948 -0.3332  1.9931  0.4368
 6102SOL     OW29767   0.579   0.369  12.195 -0.4718 -0.0450  0.7572
 6102SOL    HW129768   0.559   0.462  12.198 -0.7268 -0.0292 -1.4800
 6102SOL    HW229769   0.491   0.334  12.185  0.4554 -1.6324 -1.9130
 6103SOL     OW29770   1.794   2.985   3.716  0.7696  0.3658 -0.2519
 6103SOL    HW129771   1.812   3.059   3.658 -0.1157 -0.0726 -1.1036
 6103SOL    HW229772   1.701   2.966   3.703  0.7098  0.0398  0.6527
 6104SOL     OW29773   4.061   4.413   3.264 -0.0541  0.2973 -0.4478
 6104SOL    HW129774   3.994   4.360   3.222  0.4703  0.1186 -1.0584
 6104SOL    HW229775   4.124   4.347   3.293 -1.4069 -1.4377 -1.4900
 6105SOL     OW29776   2.722   3.206   6.530  0.1800  0.4859 -0.0564
 6105SOL    HW129777   2.744   3.299   6.527  0.4826  0.4168  0.0328
 6105SOL    HW229778   2.655   3.211   6.598  0.4847  0.6924  0.2309
 6106SOL     OW29779   2.466   0.745  13.986  0.6539  0.3241  0.7253
 6106SOL    HW129780   2.545   0.696  14.010 -0.0598 -1.3370 -0.3133
 6106SOL    HW229781   2.427   0.776  14.068 -0.0258 -0.4031  0.6742
 6107SOL     OW29782   1.841   4.065   5.815  0.0066  0.1654 -0.0308
 6107SOL    HW129783   1.806   4.023   5.894  1.4229 -0.4075  0.2874
 6107SOL    HW229784   1.935   4.047   5.817  0.4704  2.7553  1.4997
 6108SOL     OW29785   1.142   2.222   8.445  0.1945 -0.3073  0.4390
 6108SOL    HW129786   1.204   2.226   8.518  0.2250 -1.4238  0.4747
 6108SOL    HW229787   1.093   2.303   8.459  1.1932  0.2104  0.9662
 6109SOL     OW29788   2.135   4.170   3.866 -0.3200 -0.2270 -0.1456
 6109SOL    HW129789   2.102   4.163   3.955 -0.8736 -0.7075 -0.3916
 6109SOL    HW229790   2.163   4.082   3.838  2.5297  0.5356  0.3510
 6110SOL     OW29791   2.301   2.193   4.879 -0.0251  0.0593  0.1721
 6110SOL    HW129792   2.305   2.158   4.968  1.7610 -3.3197 -1.2449
 6110SOL    HW229793   2.364   2.265   4.874 -0.2947  0.0716 -2.7759
 6111SOL     OW29794   3.026   1.232   5.354 -0.1511 -0.2940 -0.1534
 6111SOL    HW129795   2.954   1.296   5.357  0.5221  0.4665 -0.2323
 6111SOL    HW229796   2.986   1.146   5.340 -2.5371  0.8523 -0.4890
 6112SOL     OW29797   4.120   1.436   7.776 -0.1242 -0.2195  0.1699
 6112SOL    HW129798   4.213   1.420   7.760  0.2414  2.1353 -0.0862
 6112SOL    HW229799   4.073   1.361   7.741  0.3354 -0.0833 -0.7320
 6113SOL     OW29800   2.296   2.935   3.194  0.2898  0.5181 -0.4285
 6113SOL    HW129801   2.373   2.925   3.137  0.0405 -2.0502 -0.3067
 6113SOL    HW229802   2.272   3.023   3.165  1.5210  0.6531 -1.0655
 6114SOL     OW29803   3.178   4.548   6.505  0.1391 -0.2641 -0.3030
 6114SOL    HW129804   3.210   4.571   6.418 -0.5969 -0.4780 -0.6295
 6114SOL    HW229805   3.178   4.635   6.546 -0.4982  0.3577 -1.6098
 6115SOL     OW29806   0.222   4.293   8.631 -0.4156  0.0966  1.0542
 6115SOL    HW129807   0.275   4.300   8.551 -1.4818  3.0525  0.6309
 6115SOL    HW229808   0.194   4.202   8.635  0.5414 -0.2673 -0.4601
 6116SOL     OW29809   2.381   1.448   5.224  0.4530 -0.3573 -0.4794
 6116SOL    HW129810   2.307   1.417   5.277  2.4391 -0.8670  2.0276
 6116SOL    HW229811   2.364   1.537   5.255 -0.0055  0.4827 -3.2077
 6117SOL     OW29812   1.048   4.094   0.681  0.0447  0.0104 -0.0661
 6117SOL    HW129813   0.987   4.133   0.618  2.0864  0.5779 -1.6825
 6117SOL    HW229814   1.057   4.004   0.652 -1.2980 -0.4719  1.0138
 6118SOL     OW29815   0.031   2.277   3.405  0.1255  0.2261 -0.2885
 6118SOL    HW129816   0.018   2.371   3.417  1.0281  0.3711 -0.4136
 6118SOL    HW229817   4.725   2.277   3.316  0.0452 -1.7593 -0.2543
 6119SOL     OW29818   2.244   3.558   9.763 -0.0035  0.6066 -0.0844
 6119SOL    HW129819   2.339   3.562   9.748 -0.4011  3.4982 -1.9043
 6119SOL    HW229820   2.241   3.558   9.859 -0.2442  0.1922 -0.0943
 6120SOL     OW29821   4.225   0.528   4.166  0.0846  0.1569 -0.2987
 6120SOL    HW129822   4.164   0.481   4.108  0.0697  1.3912 -1.2946
 6120SOL    HW229823   4.236   0.461   4.233  1.4197 -0.9337 -1.6048
 6121SOL     OW29824   4.505   2.772   7.017 -0.1873 -0.4285  0.4753
 6121SOL    HW129825   4.466   2.836   6.957 -0.3542 -0.0746  0.9681
 6121SOL    HW229826   4.534   2.705   6.955  0.7735 -0.8440  1.3727
 6122SOL     OW29827   0.301   3.159  13.433  0.3843  0.0179  0.4955
 6122SOL    HW129828   0.219   3.184  13.474  0.5589  0.4461  0.5858
 6122SOL    HW229829   0.303   3.215  13.355  1.3176 -0.6654  0.0274
 6123SOL     OW29830   0.174   2.874   0.710  0.3106  0.0792  0.1390
 6123SOL    HW129831   0.139   2.801   0.659  1.4088 -1.0440  0.9850
 6123SOL    HW229832   0.257   2.887   0.664  0.2845 -0.8494 -0.1565
 6124SOL     OW29833   0.210   1.438   8.833 -0.5060  0.1040  0.0235
 6124SOL    HW129834   0.186   1.367   8.774 -2.3354 -0.8681  1.9333
 6124SOL    HW229835   0.278   1.390   8.880 -1.9797 -1.2168  0.7665
 6125SOL     OW29836   0.986   0.040   1.245 -0.1920 -0.0933  0.1284
 6125SOL    HW129837   0.931   4.711   1.299 -1.9931  1.4643 -0.0296
 6125SOL    HW229838   0.928   0.058   1.171 -0.1891  1.9852  0.6226
 6126SOL     OW29839   2.284   1.461   8.867  0.3798 -0.6084  0.3249
 6126SOL    HW129840   2.281   1.552   8.839  1.7724 -0.2741  1.2274
 6126SOL    HW229841   2.303   1.419   8.783 -0.0669 -1.5517  0.6916
 6127SOL     OW29842   3.431   0.092   2.343  0.8023  0.4862 -0.4993
 6127SOL    HW129843   3.366   0.022   2.347  2.1846 -0.7582  0.3322
 6127SOL    HW229844   3.476   0.065   2.424 -0.0766  0.0123 -0.1630
 6128SOL     OW29845   2.961   3.119  10.006  0.4250  0.4531 -0.5682
 6128SOL    HW129846   3.055   3.131  10.019  0.2811  1.6950 -0.5991
 6128SOL    HW229847   2.948   3.211   9.980 -1.3855  0.3592 -0.0179
 6129SOL     OW29848   1.775   0.801   6.427 -0.0354  0.1125  0.8008
 6129SOL    HW129849   1.865   0.800   6.459  0.1010  0.1757  0.4225
 6129SOL    HW229850   1.725   0.790   6.508 -0.9804  0.6121  0.2877
 6130SOL     OW29851   2.307   2.639   2.407  0.3646  0.5108  0.0838
 6130SOL    HW129852   2.375   2.681   2.353  2.0547 -1.3428  0.7910
 6130SOL    HW229853   2.297   2.558   2.358 -0.4999  0.0396  1.0573
 6131SOL     OW29854   2.665   2.126   6.426 -0.8161 -0.2644 -0.1431
 6131SOL    HW129855   2.609   2.083   6.489  2.2255 -0.6726  2.2951
 6131SOL    HW229856   2.686   2.207   6.471  0.7837 -1.0054  0.4734
 6132SOL     OW29857   4.448   0.199   1.235 -0.0006 -0.1483 -0.5897
 6132SOL    HW129858   4.361   0.208   1.274 -0.1924 -0.4119 -0.9580
 6132SOL    HW229859   4.518   0.236   1.288 -0.6196  0.1937 -0.0163
 6133SOL     OW29860   3.631   2.630   2.586 -0.2942  0.2310  0.1698
 6133SOL    HW129861   3.630   2.726   2.588  0.1627  0.2789 -2.9905
 6133SOL    HW229862   3.547   2.620   2.540  0.4492 -0.1154 -1.1054
 6134SOL     OW29863   1.127   0.325  15.121 -0.2463  0.2168 -0.1988
 6134SOL    HW129864   1.073   0.405  15.119 -1.5452 -0.6526  0.3461
 6134SOL    HW229865   1.141   0.325  15.215  3.4034  0.9236 -0.7525
 6135SOL     OW29866   1.705   0.780   0.646  0.3864 -0.1990 -0.0847
 6135SOL    HW129867   1.630   0.795   0.588 -0.7510 -0.2615  1.3700
 6135SOL    HW229868   1.665   0.798   0.731  1.0961  0.6759  0.0708
 6136SOL     OW29869   3.871   1.780  17.160  0.4433 -0.1221 -0.6741
 6136SOL    HW129870   3.892   1.843  17.230 -0.3205 -0.0041 -0.5523
 6136SOL    HW229871   3.935   1.795  17.091  0.3140 -1.6499 -1.1126
 6137SOL     OW29872   3.578   4.546  14.975  0.2762 -0.2037  0.4826
 6137SOL    HW129873   3.605   4.456  14.991  2.5037  0.8529  2.6612
 6137SOL    HW229874   3.499   4.538  14.921  0.9091 -0.4183 -0.4185
 6138SOL     OW29875   3.349   0.438   7.575 -0.5080 -0.4218 -0.1851
 6138SOL    HW129876   3.278   0.483   7.529 -1.3347 -1.4737  0.0377
 6138SOL    HW229877   3.429   0.476   7.539  0.5414 -1.2020  1.3224
 6139SOL     OW29878   4.152   3.582   2.333 -0.2174 -0.5222  0.4898
 6139SOL    HW129879   4.222   3.619   2.279 -1.2312  1.9994  0.8839
 6139SOL    HW229880   4.204   3.568   2.412 -0.8201  2.3303  1.3976
 6140SOL     OW29881   1.166   4.443   6.934  0.2993  0.4735  0.4012
 6140SOL    HW129882   1.138   4.352   6.944  1.3854 -0.0226 -1.0877
 6140SOL    HW229883   1.200   4.461   6.847 -0.5573  0.0153 -0.0248
 6141SOL     OW29884   0.202   3.267   5.602 -0.0257 -0.5867 -0.3220
 6141SOL    HW129885   0.242   3.256   5.516  0.8391 -0.0948  0.0157
 6141SOL    HW229886   0.235   3.190   5.648 -0.8220 -0.2837  0.7842
 6142SOL     OW29887   3.827   3.408   5.549  0.3243 -0.2978 -0.1871
 6142SOL    HW129888   3.819   3.499   5.578 -1.6778 -0.4987 -0.1226
 6142SOL    HW229889   3.905   3.421   5.496  0.3480  0.5436  0.0526
 6143SOL     OW29890   1.980   4.324  14.141  0.3924 -0.7814  0.2559
 6143SOL    HW129891   1.908   4.385  14.125  0.1760 -1.1210 -0.0603
 6143SOL    HW229892   2.045   4.348  14.075  1.6056 -0.9223  1.3965
 6144SOL     OW29893   2.057   3.402   5.636 -0.1568 -0.5902  0.1403
 6144SOL    HW129894   2.113   3.455   5.578 -1.0748 -1.3961 -1.4904
 6144SOL    HW229895   2.117   3.368   5.702  1.4194  2.2395  0.1608
 6145SOL     OW29896   0.911   3.126   4.552 -0.4068 -0.0499  0.0553
 6145SOL    HW129897   0.882   3.214   4.530  1.5239  0.4195 -0.6418
 6145SOL    HW229898   0.951   3.144   4.637  1.7690  2.6204 -1.5469
 6146SOL     OW29899   0.771   3.097   1.410 -0.0658 -0.2271  0.5504
 6146SOL    HW129900   0.770   3.039   1.487  2.7539 -0.8015  0.1516
 6146SOL    HW229901   0.683   3.083   1.375 -1.8936  2.1072  4.1255
 6147SOL     OW29902   2.934   0.820   2.434 -0.1334 -0.2403  0.2293
 6147SOL    HW129903   2.853   0.841   2.479  0.2955 -1.0235  1.3623
 6147SOL    HW229904   2.896   0.776   2.357 -0.8986  1.1443 -0.1739
 6148SOL     OW29905   2.176   0.083  15.570  0.3445 -0.0951 -0.2333
 6148SOL    HW129906   2.124   0.008  15.600  1.7583 -1.6946 -1.7844
 6148SOL    HW229907   2.105   0.144  15.549 -0.4775 -0.6573  0.9139
 6149SOL     OW29908   3.824   0.281   3.386  0.3702 -0.1707 -0.9193
 6149SOL    HW129909   3.877   0.263   3.464 -0.9152  0.3351  0.0742
 6149SOL    HW229910   3.883   0.254   3.316  3.0024  0.9292  0.8858
 6150SOL     OW29911   4.638   4.040   7.009  1.2400  0.5269  0.1671
 6150SOL    HW129912   4.552   4.072   7.036  0.9165 -0.4519  0.2712
 6150SOL    HW229913   4.615   3.978   6.940  0.2516  0.5921  0.4411
 6151SOL     OW29914   1.326   2.858   9.621 -0.0322 -0.3754 -0.0647
 6151SOL    HW129915   1.410   2.895   9.594 -1.2021  0.4741 -2.5625
 6151SOL    HW229916   1.356   2.782   9.672 -1.0575 -2.2742 -2.2787
 6152SOL     OW29917   3.081   0.508   6.401  0.0586  0.6378 -0.5073
 6152SOL    HW129918   3.094   0.485   6.493  1.1461 -0.0696 -0.8333
 6152SOL    HW229919   3.004   0.457   6.375 -0.0592 -0.1883  1.5065
 6153SOL     OW29920   4.174   1.290   4.042  0.0414  0.2406  0.0582
 6153SOL    HW129921   4.120   1.247   3.976 -1.2554  3.2461 -0.8528
 6153SOL    HW229922   4.255   1.240   4.044 -1.6292 -2.4139  1.6623
 6154SOL     OW29923   2.559   0.900   6.159  0.1417  0.0479  0.0510
 6154SOL    HW129924   2.473   0.939   6.147 -1.3811 -3.5988 -0.8301
 6154SOL    HW229925   2.613   0.971   6.123 -0.0648  0.1022 -0.1493
 6155SOL     OW29926   1.101   4.522  17.506  0.1075 -0.0999 -0.4197
 6155SOL    HW129927   1.052   4.446  17.538 -0.4198  0.1980 -0.5167
 6155SOL    HW229928   1.042   4.539  17.433 -2.1868  0.7375  1.5899
 6156SOL     OW29929   1.253   4.686   7.072  0.1369 -0.7794 -0.2983
 6156SOL    HW129930   1.226   4.602   7.035 -1.2891  0.5121 -2.1655
 6156SOL    HW229931   1.344   4.670   7.099 -0.4894 -0.2276  2.1208
 6157SOL     OW29932   2.121   1.571  10.418  0.2502 -0.1450 -0.3761
 6157SOL    HW129933   2.055   1.539  10.357 -2.1399  0.7735  1.7332
 6157SOL    HW229934   2.204   1.538  10.383  0.1664 -0.2859 -0.4402
 6158SOL     OW29935   1.601   0.970   6.914 -0.3625  0.1693  0.1194
 6158SOL    HW129936   1.661   0.897   6.931  3.1087  2.5661 -2.0734
 6158SOL    HW229937   1.658   1.019   6.856 -0.9358  0.3001 -0.3339
 6159SOL     OW29938   2.221   2.276   3.411 -0.3219  0.3878  0.4816
 6159SOL    HW129939   2.279   2.345   3.442 -1.5995  1.2285  1.0038
 6159SOL    HW229940   2.141   2.306   3.454 -2.2075 -0.3525 -2.5003
 6160SOL     OW29941   0.647   3.880   1.278  0.4798 -0.0513 -0.3086
 6160SOL    HW129942   0.665   3.863   1.370 -0.9489 -0.8961 -0.1870
 6160SOL    HW229943   0.680   3.799   1.239  1.0289 -0.5422  1.1666
 6161SOL     OW29944   0.548   4.130   6.319 -0.7361 -0.3022 -0.0613
 6161SOL    HW129945   0.475   4.180   6.355 -1.4448 -1.1012 -0.3835
 6161SOL    HW229946   0.575   4.191   6.251  3.2158 -0.9132  0.9585
 6162SOL     OW29947   0.436   3.165  12.626 -0.1787  0.3134 -0.0479
 6162SOL    HW129948   0.355   3.135  12.668 -0.0211  1.8064  1.2922
 6162SOL    HW229949   0.454   3.252  12.661 -1.5174  0.8176 -0.5903
 6163SOL     OW29950   1.095   3.919   1.684 -0.0123  0.3819  0.3938
 6163SOL    HW129951   1.118   3.949   1.596  2.1696 -0.1949  0.7706
 6163SOL    HW229952   1.174   3.868   1.702  0.6796  1.0354 -0.7874
 6164SOL     OW29953   3.914   4.424   4.642  0.1612  0.0870  0.1839
 6164SOL    HW129954   3.963   4.345   4.617 -0.4142  0.4653 -2.1654
 6164SOL    HW229955   3.910   4.426   4.737  1.9373  0.6237  0.2399
 6165SOL     OW29956   1.127   3.256  10.336  0.4230 -0.0991 -0.5537
 6165SOL    HW129957   1.088   3.216  10.413 -0.4012 -0.3490 -1.1032
 6165SOL    HW229958   1.108   3.190  10.270  1.3663  0.7805 -1.7043
 6166SOL     OW29959   1.572   1.788   8.331 -0.0331 -0.2627  0.2816
 6166SOL    HW129960   1.480   1.761   8.337  0.2578 -1.5911 -1.3221
 6166SOL    HW229961   1.592   1.785   8.425 -0.2488 -1.6000  0.2891
 6167SOL     OW29962   1.286   1.462   5.166  0.7984  0.4686 -0.1018
 6167SOL    HW129963   1.251   1.373   5.155 -0.0503  0.9309 -1.0855
 6167SOL    HW229964   1.379   1.449   5.145  0.8595 -0.0205  0.4560
 6168SOL     OW29965   4.511   0.893  17.645 -0.1371 -0.9343 -0.4310
 6168SOL    HW129966   4.514   0.957  17.574 -0.1639 -0.7005 -0.2209
 6168SOL    HW229967   4.592   0.908  17.694 -1.4989  1.9317  0.9554
 6169SOL     OW29968   0.056   0.632   4.264 -0.2630  0.0797  0.1312
 6169SOL    HW129969   0.137   0.584   4.249  0.2148  1.2651 -1.0611
 6169SOL    HW229970   0.039   0.569   4.334  2.0938  0.7037  1.2760
 6170SOL     OW29971   2.535   2.228   2.086 -0.4582  0.2027  0.0335
 6170SOL    HW129972   2.506   2.250   2.175  0.2610 -0.4316  0.4139
 6170SOL    HW229973   2.457   2.261   2.040 -0.9633 -3.1499 -1.5072
 6171SOL     OW29974   0.894   2.629   8.984  0.0331 -0.0792  0.3691
 6171SOL    HW129975   0.954   2.652   9.055 -0.2732  0.0644  0.5787
 6171SOL    HW229976   0.880   2.536   8.999 -0.8704  0.1562  0.9571
 6172SOL     OW29977   0.652   3.276   1.642 -0.2893 -0.9417 -0.3919
 6172SOL    HW129978   0.674   3.185   1.663  1.3602 -0.6976 -1.0719
 6172SOL    HW229979   0.710   3.319   1.706  0.7244 -1.5924 -0.8613
 6173SOL     OW29980   0.089   4.402   5.523 -0.3367 -0.3474  0.0766
 6173SOL    HW129981   0.133   4.445   5.450  0.7530  0.8907  1.4734
 6173SOL    HW229982   0.158   4.349   5.562 -0.5123  2.0173  3.6857
 6174SOL     OW29983   4.124   3.648  15.646 -0.0403 -0.6367 -0.0305
 6174SOL    HW129984   4.204   3.663  15.698  0.3037  0.6820 -0.9500
 6174SOL    HW229985   4.063   3.716  15.674  0.0741 -0.4133 -0.3256
 6175SOL     OW29986   3.463   4.345  12.152  0.0267  0.3311 -0.0681
 6175SOL    HW129987   3.508   4.296  12.221 -0.4923  0.1896  0.1724
 6175SOL    HW229988   3.371   4.337  12.178  0.4549  1.4188  1.7808
 6176SOL     OW29989   3.588   0.652   1.881  0.8169  0.0937  0.1903
 6176SOL    HW129990   3.597   0.660   1.976 -2.2701  0.3445  0.4516
 6176SOL    HW229991   3.610   0.560   1.871  0.0578  0.1946 -2.3941
 6177SOL     OW29992   1.644   3.051   2.881 -0.2800  0.2801 -0.1173
 6177SOL    HW129993   1.637   2.960   2.911 -1.9492  0.9115  1.3317
 6177SOL    HW229994   1.646   3.087   2.969 -1.5653 -1.4003  0.5952
 6178SOL     OW29995   0.165   0.237  10.978 -0.2816  0.0515  0.1511
 6178SOL    HW129996   0.115   0.315  10.954  0.7633  0.1768 -1.5816
 6178SOL    HW229997   0.220   0.221  10.901  0.0909 -0.1962  0.4640
 6179SOL     OW29998   3.921   3.642  13.477  0.1037  0.0835  0.1692
 6179SOL    HW129999   3.889   3.686  13.556 -1.1916  1.5884 -1.1931
 6179SOL    HW230000   3.884   3.687  13.401 -3.1353  0.1438  1.7673
 6180SOL     OW30001   2.548   1.565   5.488  0.0938 -0.5285 -0.1965
 6180SOL    HW130002   2.483   1.571   5.558 -0.2554 -3.0681 -0.2957
 6180SOL    HW230003   2.530   1.481   5.445  2.1399 -1.9721  1.8329
 6181SOL     OW30004   1.496   1.149   0.762  0.3154 -0.0643 -0.2248
 6181SOL    HW130005   1.408   1.131   0.729  0.5213  1.2676 -1.5196
 6181SOL    HW230006   1.524   1.070   0.808  0.9757  1.2617  1.6393
 6182SOL     OW30007   0.468   4.455   8.497 -0.2023 -0.1318 -0.2224
 6182SOL    HW130008   0.475   4.471   8.403  1.0277 -1.4635 -0.3621
 6182SOL    HW230009   0.512   4.529   8.538 -1.0153  0.8634 -1.1681
 6183SOL     OW30010   0.031   3.460   2.852  0.3583 -0.6508  0.1906
 6183SOL    HW130011   0.062   3.396   2.788  0.4216  0.7317 -1.1640
 6183SOL    HW230012   0.010   3.405   2.927 -0.1885  0.9791  1.2418
 6184SOL     OW30013   4.658   0.851   4.256  0.3047  0.4298 -0.7004
 6184SOL    HW130014   4.565   0.828   4.255  0.3154  0.4053 -2.4844
 6184SOL    HW230015   4.698   0.764   4.260 -1.9985 -0.6537 -1.4195
 6185SOL     OW30016   0.761   4.115   4.673 -0.3946 -0.0565  0.1026
 6185SOL    HW130017   0.683   4.063   4.652 -0.5339  0.0611  0.3324
 6185SOL    HW230018   0.729   4.205   4.678 -0.5375  0.0491 -2.5465
 6186SOL     OW30019   2.368   4.271   4.720  0.7884  0.2745 -0.5775
 6186SOL    HW130020   2.402   4.253   4.808  1.6664  1.5653 -0.6505
 6186SOL    HW230021   2.449   4.279   4.670  0.8993  0.6327 -0.3409
 6187SOL     OW30022   3.820   1.931   8.854  0.1651 -0.1495 -0.2291
 6187SOL    HW130023   3.914   1.946   8.843 -0.0748  0.4616 -1.4507
 6187SOL    HW230024   3.796   2.010   8.901 -2.1290 -0.8852 -0.1567
 6188SOL     OW30025   0.295   2.988   3.066 -0.2677  0.5395 -0.1768
 6188SOL    HW130026   0.388   3.005   3.082 -0.0680  0.0276 -0.7780
 6188SOL    HW230027   0.258   3.060   3.117  0.4001  0.7543 -0.0018
 6189SOL     OW30028   4.667   3.867   9.581 -0.4672  0.2357 -0.0034
 6189SOL    HW130029   4.664   3.803   9.652 -2.4415 -0.4478 -0.7072
 6189SOL    HW230030   4.655   3.809   9.505  0.3577 -0.5929  0.4915
 6190SOL     OW30031   3.008   3.863  13.995  0.3418  0.5395 -0.4713
 6190SOL    HW130032   2.964   3.778  13.999  0.5563  0.5222  1.7864
 6190SOL    HW230033   3.102   3.842  13.991  0.0960 -0.4176 -1.2580
 6191SOL     OW30034   3.888   2.048   2.858 -0.7377 -0.3083 -0.2500
 6191SOL    HW130035   3.889   2.077   2.767 -0.4570 -2.0178 -0.7861
 6191SOL    HW230036   3.981   2.037   2.876 -0.5804 -0.9328 -1.4863
 6192SOL     OW30037   2.841   4.364   9.287  0.7906 -0.3140 -0.2468
 6192SOL    HW130038   2.901   4.423   9.243 -0.8519  1.9467  0.5539
 6192SOL    HW230039   2.881   4.283   9.256 -0.1180 -0.2958 -1.4144
 6193SOL     OW30040   0.328   4.658   2.435 -0.2708 -0.2628  1.2208
 6193SOL    HW130041   0.421   4.672   2.418 -0.5541 -1.6800 -1.5157
 6193SOL    HW230042   0.309   4.586   2.375 -2.0784  1.5264 -0.3683
 6194SOL     OW30043   2.167   4.633  14.310  0.1186 -0.2912 -0.8195
 6194SOL    HW130044   2.170   4.579  14.389  1.4386  1.4114  0.2708
 6194SOL    HW230045   2.259   4.642  14.283 -0.0796  2.1792 -0.5995
 6195SOL     OW30046   4.561   0.146  13.651  0.3756 -0.0003 -0.2038
 6195SOL    HW130047   4.655   0.157  13.662  0.5706 -2.1778  0.3761
 6195SOL    HW230048   4.526   0.228  13.685 -0.0853  0.3904 -1.6475
 6196SOL     OW30049   3.285   3.410  14.388 -0.1483 -0.2555  0.2472
 6196SOL    HW130050   3.355   3.463  14.425  1.0393 -1.0168 -0.9261
 6196SOL    HW230051   3.213   3.418  14.451  0.0074  0.2943  0.3569
 6197SOL     OW30052   0.848   3.877   8.636  0.3926 -0.1390  0.0386
 6197SOL    HW130053   0.830   3.957   8.587  1.7769  0.5421  0.6437
 6197SOL    HW230054   0.923   3.898   8.691 -0.3938 -0.6849  1.3284
 6198SOL     OW30055   3.282   2.691   4.345 -0.4737 -0.5533 -0.3447
 6198SOL    HW130056   3.288   2.601   4.376 -0.4143 -1.2413 -2.3590
 6198SOL    HW230057   3.201   2.717   4.387 -1.0643 -0.1793 -1.7126
 6199SOL     OW30058   0.880   0.104   6.578  0.0469  0.3777 -0.1943
 6199SOL    HW130059   0.923   0.019   6.570 -0.3731  0.1329  0.1334
 6199SOL    HW230060   0.799   0.074   6.620 -0.3545  1.8239  0.0460
 6200SOL     OW30061   1.103   1.527   8.663  0.5188  0.0503 -0.0411
 6200SOL    HW130062   1.066   1.548   8.577 -0.0094  1.8416  0.6150
 6200SOL    HW230063   1.196   1.537   8.641  0.2492 -0.0281 -1.2154
 6201SOL     OW30064   0.794   1.452   5.149  0.1780  0.3839  0.3408
 6201SOL    HW130065   0.866   1.476   5.090  0.8666 -0.8608  0.6797
 6201SOL    HW230066   0.790   1.541   5.185  0.5703  1.5155 -2.3432
 6202SOL     OW30067   1.744   1.343   7.769  0.2063  0.5186  0.2625
 6202SOL    HW130068   1.691   1.274   7.809 -2.1397  1.9216 -0.4092
 6202SOL    HW230069   1.778   1.390   7.846 -1.6619  0.1416  1.3169
 6203SOL     OW30070   0.823   0.037   9.862  0.2206 -0.6686  0.0311
 6203SOL    HW130071   0.879   4.691   9.844  0.6714 -0.4144  0.3941
 6203SOL    HW230072   0.775   0.008   9.939 -1.5230 -0.2459 -0.9034
 6204SOL     OW30073   3.933   1.410   8.616 -0.4342 -0.0136  0.2950
 6204SOL    HW130074   3.955   1.486   8.670  1.1264  0.7392 -1.3786
 6204SOL    HW230075   3.965   1.452   8.536 -1.9803 -0.3510 -0.4941
 6205SOL     OW30076   0.038   3.777   5.952  0.1381 -0.2823  0.1337
 6205SOL    HW130077   0.109   3.729   5.995  0.9844 -0.5118 -1.5384
 6205SOL    HW230078   0.095   3.821   5.889  0.6779 -1.7960 -0.4363
 6206SOL     OW30079   2.514   1.661   5.939  0.7482  0.3783 -0.1954
 6206SOL    HW130080   2.590   1.662   5.997  2.9359 -0.6429 -3.0589
 6206SOL    HW230081   2.444   1.647   6.003 -1.4237  0.8317 -2.4366
 6207SOL     OW30082   2.164   2.840   1.549  0.2881  0.5327  0.4778
 6207SOL    HW130083   2.069   2.851   1.546  0.0840 -1.0534  0.9825
 6207SOL    HW230084   2.188   2.853   1.458  2.2869 -0.7269  0.8260
 6208SOL     OW30085   2.722   3.647   2.658 -0.1717  0.1396  0.4214
 6208SOL    HW130086   2.782   3.689   2.720 -0.1151  0.3880  0.1946
 6208SOL    HW230087   2.718   3.559   2.697 -0.3487  1.2099  2.8040
 6209SOL     OW30088   3.378   3.508  15.900 -0.2355 -0.5957  0.0072
 6209SOL    HW130089   3.457   3.541  15.942 -0.4645 -1.0067  0.7602
 6209SOL    HW230090   3.397   3.414  15.891  1.8873 -0.2162  0.5018
 6210SOL     OW30091   4.308   3.948   8.313 -0.4886  0.4088 -0.1249
 6210SOL    HW130092   4.343   3.892   8.382 -2.7456  1.0148  1.5405
 6210SOL    HW230093   4.236   3.995   8.356 -0.5905 -0.1366  0.3001
 6211SOL     OW30094   4.512   0.661  16.124 -0.0998  0.4156 -0.1227
 6211SOL    HW130095   4.586   0.714  16.153 -0.6976  0.6118  1.0361
 6211SOL    HW230096   4.457   0.722  16.076  0.2067  0.8069  0.0229
 6212SOL     OW30097   0.838   0.989   9.922 -0.5431  0.1880  0.5918
 6212SOL    HW130098   0.771   1.053   9.899 -1.4162 -0.8793  0.1581
 6212SOL    HW230099   0.795   0.905   9.906  1.5607 -0.3687 -2.2754
 6213SOL     OW30100   4.308   4.687  17.593  0.3226  0.4923  0.1691
 6213SOL    HW130101   4.244   4.690  17.663 -0.9551  2.9228 -1.1075
 6213SOL    HW230102   4.262   4.725  17.518  0.6528  0.8851  0.1649
 6214SOL     OW30103   2.856   0.049   8.752  0.2354  0.0828 -0.1088
 6214SOL    HW130104   2.808   0.079   8.829 -0.0267  1.3900 -0.7740
 6214SOL    HW230105   2.806   0.098   8.686  1.1228  0.1600 -0.7323
 6215SOL     OW30106   4.554   0.680  10.182  0.1913  0.0228  0.6500
 6215SOL    HW130107   4.492   0.713  10.117 -0.3640  0.6825  1.5087
 6215SOL    HW230108   4.606   0.760  10.190 -0.3131  0.6069 -1.8838
 6216SOL     OW30109   2.990   0.524  14.517  0.0993 -0.3849 -0.0470
 6216SOL    HW130110   3.013   0.543  14.426 -0.7338  1.1163  0.0509
 6216SOL    HW230111   3.049   0.588  14.557 -1.5335  0.9593  0.2519
 6217SOL     OW30112   2.236   2.867  15.219  0.7843 -0.3859  0.1127
 6217SOL    HW130113   2.309   2.847  15.277 -0.7694  2.2035  2.9577
 6217SOL    HW230114   2.274   2.939  15.169  0.7618  0.2464  1.0104
 6218SOL     OW30115   4.067   2.243  16.648 -0.5744  0.2744  0.1202
 6218SOL    HW130116   4.081   2.209  16.737 -0.3988  0.7254  0.2633
 6218SOL    HW230117   4.027   2.170  16.601  0.7245 -0.8831  0.8034
 6219SOL     OW30118   1.535   1.768  17.621 -0.3428 -0.0737  0.1391
 6219SOL    HW130119   1.580   1.791  17.703  3.5819 -1.8847 -1.5069
 6219SOL    HW230120   1.443   1.792  17.635 -0.2772 -0.8601  1.9843
 6220SOL     OW30121   0.141   4.015   9.300  0.3471  0.3913  0.0738
 6220SOL    HW130122   0.101   3.962   9.231 -0.1500  2.1111 -0.9687
 6220SOL    HW230123   0.087   4.093   9.295  1.4404  1.1172 -0.4019
 6221SOL     OW30124   0.014   4.631  15.750 -0.4006 -0.0301 -0.1125
 6221SOL    HW130125   4.724   4.723  15.767  2.4393  0.8234 -1.5203
 6221SOL    HW230126   0.003   4.629  15.655 -0.0814 -0.9885 -0.1304
 6222SOL     OW30127   3.340   0.165   4.411  0.2413  0.5697  0.9566
 6222SOL    HW130128   3.258   0.155   4.459  0.7744 -2.6657  1.2150
 6222SOL    HW230129   3.399   0.124   4.474  2.0583  1.4444 -0.1811
 6223SOL     OW30130   3.722   4.570   8.768  0.2597  0.0797 -0.3519
 6223SOL    HW130131   3.753   4.573   8.678 -0.7751  0.0848 -0.7073
 6223SOL    HW230132   3.647   4.510   8.760 -1.8475  2.4613  1.1735
 6224SOL     OW30133   2.285   2.283   1.935 -0.2013 -0.7907 -0.1825
 6224SOL    HW130134   2.317   2.344   1.869  2.1041 -1.5121  0.2636
 6224SOL    HW230135   2.287   2.204   1.881 -1.2241 -1.0146  0.1004
 6225SOL     OW30136   1.686   2.914   7.540  0.2366  0.0566  0.1079
 6225SOL    HW130137   1.625   2.966   7.488 -1.0633  1.7414  3.3365
 6225SOL    HW230138   1.666   2.821   7.530  2.9525 -0.5969  0.5730
 6226SOL     OW30139   1.156   4.401   1.027  0.5992  0.1849 -0.3230
 6226SOL    HW130140   1.078   4.349   1.006  0.4627 -0.5613  2.1090
 6226SOL    HW230141   1.207   4.382   0.948 -0.3868  2.1899 -1.4506
 6227SOL     OW30142   1.603   3.963   7.916 -0.6894 -0.4605  0.1704
 6227SOL    HW130143   1.639   3.877   7.896  0.4093 -0.6949  3.2154
 6227SOL    HW230144   1.541   3.935   7.983  0.3277 -0.3261  1.1588
 6228SOL     OW30145   1.801   4.577  14.316  0.5791  0.6192 -0.0885
 6228SOL    HW130146   1.858   4.572  14.393 -1.1617 -0.8867  1.1106
 6228SOL    HW230147   1.732   4.513  14.334  0.8960  0.2803 -0.0595
 6229SOL     OW30148   0.709   4.434   4.687 -0.3176 -0.0023 -0.0146
 6229SOL    HW130149   0.659   4.471   4.614 -0.6691  1.1372  0.8031
 6229SOL    HW230150   0.708   4.508   4.748  1.5109  0.6732 -0.7823
 6230SOL     OW30151   3.650   0.095   8.413  0.3783 -0.1718 -0.4032
 6230SOL    HW130152   3.597   0.082   8.492 -1.1738  0.8161 -1.2641
 6230SOL    HW230153   3.717   0.030   8.433  0.1667 -0.6620 -1.2730
 6231SOL     OW30154   0.891   3.363   4.000  0.4262 -1.0594 -0.2875
 6231SOL    HW130155   0.808   3.371   3.953  0.1425 -0.4064  0.3190
 6231SOL    HW230156   0.928   3.450   3.985 -1.7546 -0.2286 -0.8017
 6232SOL     OW30157   2.567   1.572   2.611  0.1321 -0.1120  0.0331
 6232SOL    HW130158   2.560   1.667   2.598 -0.1752  0.3385  3.2986
 6232SOL    HW230159   2.660   1.555   2.598  0.4479  0.5255  1.4219
 6233SOL     OW30160   1.458   3.465   7.152 -0.2544  0.1726  0.0009
 6233SOL    HW130161   1.519   3.410   7.201  1.1807  1.5650 -0.2256
 6233SOL    HW230162   1.457   3.543   7.208  1.1624 -0.4608  0.9092
 6234SOL     OW30163   2.788   2.422   6.250 -0.3883  0.0871 -0.1732
 6234SOL    HW130164   2.841   2.361   6.199 -1.9192  0.2484 -1.9561
 6234SOL    HW230165   2.722   2.458   6.191 -0.5730  0.3021  0.1648
 6235SOL     OW30166   3.676   0.219   2.427  0.5230 -0.1895 -0.2648
 6235SOL    HW130167   3.648   0.304   2.393  2.2254 -0.3803 -2.1903
 6235SOL    HW230168   3.704   0.180   2.344 -0.8118  0.8066 -1.1965
 6236SOL     OW30169   2.537   2.805   4.531 -0.4293  0.4589  0.4585
 6236SOL    HW130170   2.450   2.766   4.525 -1.1408  2.1018 -0.0103
 6236SOL    HW230171   2.570   2.784   4.618  0.8895  0.6839  0.0114
 6237SOL     OW30172   1.753   3.780  16.002  0.0312 -0.1889  0.0920
 6237SOL    HW130173   1.764   3.837  15.926 -0.0819 -0.7661 -0.3616
 6237SOL    HW230174   1.844   3.751  16.013  0.2770  1.0588  1.3178
 6238SOL     OW30175   0.441   0.433   8.502  0.1794 -0.2058 -0.4464
 6238SOL    HW130176   0.466   0.510   8.450 -3.0245  1.2677  0.1884
 6238SOL    HW230177   0.479   0.362   8.450  4.9931  1.2439  1.1507
 6239SOL     OW30178   2.320   1.259   2.013 -0.1914  0.5441  0.6975
 6239SOL    HW130179   2.265   1.324   1.969  1.2248  0.8401 -0.6318
 6239SOL    HW230180   2.403   1.281   1.971 -0.9831 -0.9032 -1.6715
 6240SOL     OW30181   0.479   3.662   1.515  0.0728  0.2224 -0.9484
 6240SOL    HW130182   0.466   3.569   1.532  2.1347 -0.0732 -0.9682
 6240SOL    HW230183   0.392   3.679   1.480  0.1038  1.2066 -0.5529
 6241SOL     OW30184   3.560   3.871   1.816  0.3924 -0.2523 -0.0057
 6241SOL    HW130185   3.499   3.921   1.870  1.7143 -1.2926  2.4637
 6241SOL    HW230186   3.524   3.785   1.841 -1.5248  0.8896  1.1689
 6242SOL     OW30187   1.421   3.973   0.781  0.6288  0.2996  0.5485
 6242SOL    HW130188   1.407   3.929   0.697  0.6214 -1.7065  1.5969
 6242SOL    HW230189   1.384   3.916   0.849  1.0904  1.1141  1.4662
 6243SOL     OW30190   0.340   0.914   3.684  0.4511 -0.1947  0.0657
 6243SOL    HW130191   0.333   0.950   3.773 -0.2266  0.9141 -0.4281
 6243SOL    HW230192   0.257   0.868   3.672 -0.0674  0.8697 -0.4300
 6244SOL     OW30193   1.554   1.310  14.730 -0.0384  0.3435  0.3787
 6244SOL    HW130194   1.583   1.400  14.711 -0.5882  0.1149 -1.5415
 6244SOL    HW230195   1.548   1.311  14.826 -2.2637  2.9844  0.2250
 6245SOL     OW30196   0.669   1.246  11.810  0.0152 -0.1562  0.5368
 6245SOL    HW130197   0.671   1.334  11.773  0.0771 -0.3099  0.1720
 6245SOL    HW230198   0.724   1.267  11.885 -0.4058  1.4064  0.4059
 6246SOL     OW30199   1.319   1.689   2.567 -0.0179 -0.7324  0.1692
 6246SOL    HW130200   1.225   1.670   2.569 -0.0365 -0.5987  0.5420
 6246SOL    HW230201   1.331   1.696   2.472 -0.1259 -1.8615  0.0708
 6247SOL     OW30202   1.174   0.158   3.925 -0.7156 -0.4903 -0.0219
 6247SOL    HW130203   1.239   0.111   3.874  0.6748  0.9271  0.4438
 6247SOL    HW230204   1.108   0.095   3.952 -1.7825  0.2978 -0.7933
 6248SOL     OW30205   1.472   3.043   2.239  0.1409  0.2986  0.6780
 6248SOL    HW130206   1.519   2.960   2.231  0.7395  0.9373 -2.1437
 6248SOL    HW230207   1.517   3.097   2.174  1.2871  1.1359  2.1615
 6249SOL     OW30208   2.708   3.797   3.378  0.0412  0.4369  0.5222
 6249SOL    HW130209   2.654   3.723   3.407 -0.8048  1.4829  1.5998
 6249SOL    HW230210   2.786   3.746   3.401  0.5327  1.4673  1.1033
 6250SOL     OW30211   0.942   3.249   5.866  0.1741 -0.0922 -0.7730
 6250SOL    HW130212   1.003   3.322   5.856 -2.9954  2.8948  1.9824
 6250SOL    HW230213   0.961   3.212   5.953 -1.9051 -0.0875 -0.3143
 6251SOL     OW30214   4.021   2.763   4.096 -0.6205  0.4048 -0.4143
 6251SOL    HW130215   4.065   2.752   4.012 -1.8276 -0.7547 -0.8929
 6251SOL    HW230216   3.941   2.810   4.071 -1.7138 -0.7379  0.8821
 6252SOL     OW30217   3.010   4.212  12.313  0.3493 -0.1771  0.1159
 6252SOL    HW130218   3.077   4.274  12.283  1.0755 -2.4319 -2.9147
 6252SOL    HW230219   3.034   4.139  12.257  0.3612  0.2027 -0.3781
 6253SOL     OW30220   1.182   0.587  13.195  0.8282  0.4186 -0.5858
 6253SOL    HW130221   1.163   0.676  13.226 -1.1452 -0.2182 -0.0109
 6253SOL    HW230222   1.277   0.575  13.205  0.3784 -2.3723  0.2714
 6254SOL     OW30223   0.611   1.179   7.035  0.2724 -0.7215 -0.1174
 6254SOL    HW130224   0.619   1.255   6.976  2.3411 -1.3987 -0.6802
 6254SOL    HW230225   0.648   1.107   6.984 -0.5905 -2.7138  2.0620
 6255SOL     OW30226   0.198   4.170  14.182 -0.7848  0.2310 -0.2627
 6255SOL    HW130227   0.246   4.248  14.209 -0.7596  0.4828 -1.0478
 6255SOL    HW230228   0.121   4.182  14.238 -1.4189 -2.8200 -0.4882
 6256SOL     OW30229   4.229   2.253   9.704 -0.2113 -0.0955  0.3660
 6256SOL    HW130230   4.311   2.297   9.729  0.8169 -0.8181 -1.7086
 6256SOL    HW230231   4.213   2.225   9.794  0.6502 -1.1624  0.1799
 6257SOL     OW30232   1.207   2.041   9.539  0.0996 -0.0987  0.0570
 6257SOL    HW130233   1.210   1.969   9.602  0.4835  1.1215  1.4337
 6257SOL    HW230234   1.276   2.099   9.570  0.1164 -0.1395  0.0953
 6258SOL     OW30235   1.700   3.116  15.411 -0.3029  0.1233 -0.3107
 6258SOL    HW130236   1.708   3.177  15.338 -0.0666  2.0582  1.3336
 6258SOL    HW230237   1.757   3.147  15.481 -1.0681  2.5518 -0.7580
 6259SOL     OW30238   2.910   1.313   6.976  0.0069  0.6599 -0.1815
 6259SOL    HW130239   2.921   1.290   7.068 -3.0663  0.2498  0.1002
 6259SOL    HW230240   2.932   1.406   6.984 -0.7035  0.7567  0.6775
 6260SOL     OW30241   2.548   3.318   6.254  0.3858 -0.2107 -0.3516
 6260SOL    HW130242   2.461   3.325   6.292  0.3941  1.3193 -0.6013
 6260SOL    HW230243   2.525   3.259   6.183 -1.4875 -0.6072  0.5847
 6261SOL     OW30244   2.477   0.261   2.829  0.4335  0.4845  0.3001
 6261SOL    HW130245   2.398   0.229   2.787  1.5209 -1.5189 -0.2370
 6261SOL    HW230246   2.498   0.200   2.900 -0.0531  1.1255  0.9939
 6262SOL     OW30247   4.374   0.241  17.297 -0.3636  0.1638 -0.1148
 6262SOL    HW130248   4.309   0.311  17.290  2.0161  2.2751 -1.3831
 6262SOL    HW230249   4.427   0.249  17.217  0.1311  1.5768  0.3475
 6263SOL     OW30250   0.032   3.359   4.044 -0.8085  0.2808  0.6073
 6263SOL    HW130251   0.085   3.328   4.118 -0.5810  1.0847  0.7758
 6263SOL    HW230252   4.705   3.283   4.059 -0.2135 -0.2308  0.2610
 6264SOL     OW30253   0.504   1.068  16.890  0.8788  0.7495  0.2268
 6264SOL    HW130254   0.595   1.049  16.866  0.3346  0.4689 -1.6150
 6264SOL    HW230255   0.509   1.162  16.907  1.3610  0.8741 -0.5657
 6265SOL     OW30256   2.803   0.261   3.186  0.0416  0.1392  0.0535
 6265SOL    HW130257   2.712   0.234   3.201  0.2213 -1.4728 -1.8834
 6265SOL    HW230258   2.809   0.333   3.124  1.6744  2.6388  3.0803
 6266SOL     OW30259   3.689   2.223   1.240 -0.1750  0.1885  0.2426
 6266SOL    HW130260   3.726   2.300   1.283  0.4005  1.3663 -2.3474
 6266SOL    HW230261   3.743   2.155   1.281  2.0713  1.1739 -1.0302
 6267SOL     OW30262   2.881   4.700   7.750  0.4855  0.7866  0.4823
 6267SOL    HW130263   2.904   4.638   7.819  0.1745  0.5359  0.3641
 6267SOL    HW230264   2.970   4.729   7.731  0.7178 -0.4909 -0.2881
 6268SOL     OW30265   3.121   4.624  15.962 -0.0176  0.2883 -0.1318
 6268SOL    HW130266   3.071   4.615  16.043 -1.9715 -0.1314 -1.3988
 6268SOL    HW230267   3.209   4.644  15.995 -0.0446  0.6912 -0.3093
 6269SOL     OW30268   1.052   1.876   6.664 -0.1319 -0.7630  0.1774
 6269SOL    HW130269   1.101   1.843   6.740  0.6791 -0.4912 -0.2300
 6269SOL    HW230270   0.985   1.914   6.720 -0.4841 -2.6816  1.0728
 6270SOL     OW30271   1.506   3.680  14.655 -0.3231 -0.1840 -0.2103
 6270SOL    HW130272   1.411   3.673  14.660 -0.0637 -1.6325  2.5222
 6270SOL    HW230273   1.509   3.776  14.653  0.5334 -0.1988  0.0593
 6271SOL     OW30274   2.101   3.570   8.280 -0.2256  0.1503  0.2725
 6271SOL    HW130275   2.009   3.594   8.294 -0.3280 -0.0030 -0.1367
 6271SOL    HW230276   2.102   3.547   8.187 -0.1771  1.1942  0.0068
 6272SOL     OW30277   0.204   1.815   6.461  0.2756  0.4625 -0.5134
 6272SOL    HW130278   0.211   1.721   6.449 -0.1140  0.2059  1.2845
 6272SOL    HW230279   0.282   1.851   6.418  0.1445  2.5175  0.9297
 6273SOL     OW30280   2.283   2.247   8.605  0.4219 -0.3358 -0.0633
 6273SOL    HW130281   2.265   2.233   8.512 -2.3809  0.8576  0.2850
 6273SOL    HW230282   2.358   2.190   8.620  1.2978  0.7256 -0.4527
 6274SOL     OW30283   3.437   2.883   6.722 -0.3260  0.2768 -0.7105
 6274SOL    HW130284   3.387   2.899   6.802 -2.2598 -1.0122 -1.6588
 6274SOL    HW230285   3.523   2.922   6.739  0.2951 -1.3274 -0.1672
 6275SOL     OW30286   0.295   3.086   7.329  0.1810 -0.0015  0.4812
 6275SOL    HW130287   0.314   2.996   7.354 -1.5787 -0.2688  0.8885
 6275SOL    HW230288   0.381   3.124   7.312  0.2656  0.8142  2.7669
 6276SOL     OW30289   0.473   3.162   3.315 -0.1174 -0.5903  0.6078
 6276SOL    HW130290   0.514   3.210   3.387 -0.2818  2.2607 -1.1973
 6276SOL    HW230291   0.524   3.082   3.308 -0.5475 -0.6971 -1.2958
 6277SOL     OW30292   1.111   3.783   6.731 -0.0767  0.6262 -0.6786
 6277SOL    HW130293   1.142   3.696   6.755  0.0356  1.0806  0.8806
 6277SOL    HW230294   1.052   3.805   6.803 -1.0735 -1.4037 -0.8963
 6278SOL     OW30295   1.139   3.291  10.028  0.4490  0.0856  0.0580
 6278SOL    HW130296   1.186   3.301   9.945  0.4981 -1.9112 -0.1669
 6278SOL    HW230297   1.091   3.209  10.015 -1.9336  1.6500 -0.9615
 6279SOL     OW30298   1.179   3.536   7.252  0.2533 -0.0910 -0.4031
 6279SOL    HW130299   1.104   3.515   7.196 -0.3317  1.8938 -0.3682
 6279SOL    HW230300   1.249   3.550   7.188 -1.3008  1.2529 -1.7940
 6280SOL     OW30301   3.026   1.203  15.579  0.2292 -0.3689 -0.4537
 6280SOL    HW130302   3.045   1.296  15.569 -4.4855  0.7179  0.5383
 6280SOL    HW230303   3.081   1.167  15.510  3.5386  2.0405  0.9281
 6281SOL     OW30304   0.153   0.521  13.074  0.5658  0.0263  0.0206
 6281SOL    HW130305   0.117   0.433  13.085 -1.3401  0.6643 -1.1659
 6281SOL    HW230306   0.093   0.570  13.130 -0.8673 -0.4952 -1.0636
 6282SOL     OW30307   0.965   0.977   0.426 -0.1892  0.7355 -0.0835
 6282SOL    HW130308   0.899   1.045   0.433 -0.4788  0.3947  0.5292
 6282SOL    HW230309   0.963   0.936   0.513  0.6490 -0.7710 -0.7660
 6283SOL     OW30310   1.225   1.742   3.953  0.1924 -0.3884  0.3355
 6283SOL    HW130311   1.201   1.724   3.863 -0.3929  2.5276 -0.1002
 6283SOL    HW230312   1.256   1.660   3.990  0.6168  0.4807  1.9182
 6284SOL     OW30313   1.608   0.305   2.747  0.0132  0.4235  0.4066
 6284SOL    HW130314   1.582   0.389   2.786 -1.6579 -0.1696  0.5649
 6284SOL    HW230315   1.647   0.329   2.664 -1.9299 -1.0528 -0.9384
 6285SOL     OW30316   4.160   3.852   7.591 -0.8079  0.3364 -0.0924
 6285SOL    HW130317   4.104   3.826   7.664 -1.1549  0.6357 -0.2497
 6285SOL    HW230318   4.214   3.922   7.628 -0.1808 -0.0266 -0.3223
 6286SOL     OW30319   4.644   2.208   4.735  0.1079 -0.0386  0.0456
 6286SOL    HW130320   4.581   2.247   4.796 -1.1100 -0.0104 -1.2312
 6286SOL    HW230321   4.629   2.269   4.663  0.3148 -0.7269 -0.5710
 6287SOL     OW30322   2.352   1.736   0.475  0.0535  0.1210  0.6508
 6287SOL    HW130323   2.409   1.810   0.451  0.4302  0.3169  2.1654
 6287SOL    HW230324   2.283   1.783   0.521 -0.4972 -0.1437  0.0939
 6288SOL     OW30325   0.552   4.177   9.340 -0.0418  0.0570  0.4444
 6288SOL    HW130326   0.481   4.195   9.402  0.8843  0.8336  1.2726
 6288SOL    HW230327   0.499   4.191   9.261  1.7162  3.2077 -0.1752
 6289SOL     OW30328   2.844   4.335  13.545  0.1711  0.2213  0.0612
 6289SOL    HW130329   2.916   4.390  13.515 -0.2242 -0.7036 -2.5956
 6289SOL    HW230330   2.883   4.249  13.559 -1.6359 -0.8216 -1.2981
 6290SOL     OW30331   3.788   2.294   2.924  0.8126  0.1669  0.0586
 6290SOL    HW130332   3.740   2.285   2.841  1.7429 -0.8386 -0.3545
 6290SOL    HW230333   3.816   2.204   2.939  0.5199 -0.1145 -1.0986
 6291SOL     OW30334   2.618   3.142  16.411  0.5104 -0.4440 -0.3096
 6291SOL    HW130335   2.649   3.157  16.500  1.1379 -0.2642 -0.5605
 6291SOL    HW230336   2.681   3.203  16.373  1.5924 -1.0303  0.5292
 6292SOL     OW30337   4.119   2.547   8.656  0.9330 -0.2531 -0.5736
 6292SOL    HW130338   4.073   2.463   8.653 -1.1541  0.8182  1.9368
 6292SOL    HW230339   4.200   2.527   8.608  0.2970  0.4559 -1.9503
 6293SOL     OW30340   2.282   0.576   4.405  0.1710  0.0717 -0.4419
 6293SOL    HW130341   2.342   0.574   4.331 -2.4211  0.7582 -2.5506
 6293SOL    HW230342   2.225   0.504   4.382 -0.3531 -0.2998  1.9592
 6294SOL     OW30343   3.176   2.519   0.270  0.0351 -0.6279  0.0698
 6294SOL    HW130344   3.098   2.525   0.215  1.0238 -0.1688 -1.2833
 6294SOL    HW230345   3.220   2.604   0.267 -1.5950  0.2322  0.3775
 6295SOL     OW30346   1.217   4.564  13.274  0.3180  0.2977 -0.3306
 6295SOL    HW130347   1.172   4.499  13.328 -1.7533  0.7497 -1.4938
 6295SOL    HW230348   1.280   4.509  13.227  0.6072  1.5102 -1.3604
 6296SOL     OW30349   3.055   2.837   7.114 -0.6858  0.6207 -0.1613
 6296SOL    HW130350   3.055   2.787   7.032  2.2472 -1.9574  1.4121
 6296SOL    HW230351   3.099   2.771   7.168 -1.1450 -1.4505 -2.2980
 6297SOL     OW30352   0.137   4.038   3.035  0.0486  0.2651  0.1472
 6297SOL    HW130353   0.207   3.973   3.035 -0.1434  0.0595  0.2752
 6297SOL    HW230354   0.064   3.981   3.011  0.6658 -0.2309 -0.5315
 6298SOL     OW30355   2.592   2.274   5.286  0.1124 -0.0829  0.2411
 6298SOL    HW130356   2.603   2.195   5.234 -2.3998 -0.2535 -0.0551
 6298SOL    HW230357   2.614   2.334   5.215 -2.8633 -0.0426 -0.6533
 6299SOL     OW30358   2.406   1.518   1.728 -0.3733  0.3237 -0.1867
 6299SOL    HW130359   2.439   1.475   1.806 -1.4754  0.0063  0.1032
 6299SOL    HW230360   2.364   1.590   1.774 -0.2678 -0.0133  0.4350
 6300SOL     OW30361   1.276   1.783  16.017 -0.2224  0.2524  0.4271
 6300SOL    HW130362   1.228   1.712  15.975  0.2076 -0.0615  0.4616
 6300SOL    HW230363   1.315   1.825  15.941 -1.3915 -0.4476 -0.5679
 6301SOL     OW30364   1.434   1.509   5.782  0.1520  0.8452  0.2897
 6301SOL    HW130365   1.399   1.420   5.790  1.1811  0.5923  1.9218
 6301SOL    HW230366   1.486   1.510   5.702 -1.8458  1.1078 -1.0097
 6302SOL     OW30367   0.535   2.764   4.936  0.2831 -0.1764 -0.2459
 6302SOL    HW130368   0.601   2.792   4.873 -0.2693 -0.7782 -1.0985
 6302SOL    HW230369   0.529   2.669   4.925 -0.9606 -0.1297  0.0519
 6303SOL     OW30370   0.682   2.024   3.249  0.4749  0.5312  0.7667
 6303SOL    HW130371   0.676   1.931   3.227 -1.1762  1.0698 -1.0406
 6303SOL    HW230372   0.591   2.053   3.248  0.5039  0.5376 -1.2495
 6304SOL     OW30373   4.483   2.580   3.334  0.6757  0.0461  0.4993
 6304SOL    HW130374   4.573   2.580   3.364 -0.0080  1.6168  2.5452
 6304SOL    HW230375   4.504   2.607   3.245  1.2641  1.6888  1.1486
 6305SOL     OW30376   0.890   2.023   6.158 -0.1099  0.2702 -0.5020
 6305SOL    HW130377   0.910   2.040   6.250  0.2671  0.2883 -0.5849
 6305SOL    HW230378   0.895   1.928   6.165  1.6305  0.6560  3.3251
 6306SOL     OW30379   1.320   0.047   1.710  0.3999  0.3784  0.2200
 6306SOL    HW130380   1.311   4.721   1.632  0.6561 -0.4956  0.8165
 6306SOL    HW230381   1.229   0.055   1.739 -0.4567 -0.3338 -2.2984
 6307SOL     OW30382   1.126   1.445  15.329  0.2804 -0.4788  0.2992
 6307SOL    HW130383   1.049   1.392  15.309  0.2165 -0.1118 -0.4203
 6307SOL    HW230384   1.199   1.385  15.314 -2.4186 -3.6371 -0.1804
 6308SOL     OW30385   2.239   2.922   9.285 -0.6307 -0.6875 -0.2978
 6308SOL    HW130386   2.215   2.898   9.195 -1.3360 -0.0815 -0.2750
 6308SOL    HW230387   2.304   2.857   9.311  1.0097  0.6189 -1.0966
 6309SOL     OW30388   4.595   3.335   4.888 -0.4365  0.1263 -0.9733
 6309SOL    HW130389   4.528   3.267   4.894 -0.6272  0.5819  1.9703
 6309SOL    HW230390   4.668   3.283   4.920 -0.2078  0.7168 -0.5228
 6310SOL     OW30391   2.247   0.418  14.874  0.2624  0.3725  0.4021
 6310SOL    HW130392   2.173   0.443  14.819  0.4770 -0.8012 -0.4341
 6310SOL    HW230393   2.260   0.491  14.934 -0.5072 -0.5640  1.7030
 6311SOL     OW30394   0.453   0.456   3.775 -0.1392 -0.6525  0.5244
 6311SOL    HW130395   0.502   0.515   3.718 -1.3908  0.0102  0.1476
 6311SOL    HW230396   0.524   0.401   3.808 -1.1245 -2.5846 -0.5741
 6312SOL     OW30397   1.415   2.535   9.543 -0.4169 -0.0134  0.7637
 6312SOL    HW130398   1.454   2.608   9.592  1.0347 -0.8085  0.7748
 6312SOL    HW230399   1.386   2.576   9.461  1.6048 -0.1233 -0.0226
 6313SOL     OW30400   2.460   3.443   5.041  0.1725  0.2254 -0.1872
 6313SOL    HW130401   2.421   3.523   5.006 -1.2561  0.0810  1.1014
 6313SOL    HW230402   2.388   3.381   5.040  1.8058 -1.6711  2.4877
 6314SOL     OW30403   3.881   0.415   7.497  0.3811 -0.5411 -0.2334
 6314SOL    HW130404   3.968   0.380   7.517  0.4624  0.6402  1.4410
 6314SOL    HW230405   3.895   0.504   7.527 -3.0329  0.9220 -2.9987
 6315SOL     OW30406   0.813   4.348   2.880  0.0272  0.1364 -0.1736
 6315SOL    HW130407   0.875   4.410   2.841  0.2361 -0.5306 -0.9064
 6315SOL    HW230408   0.740   4.353   2.819 -0.7528 -0.1193  0.7369
 6316SOL     OW30409   3.397   2.592  11.507 -0.1948 -0.2649  0.2706
 6316SOL    HW130410   3.460   2.593  11.579  1.2451  1.0421 -1.0269
 6316SOL    HW230411   3.459   2.561  11.441 -0.8672 -2.9830  0.9156
 6317SOL     OW30412   1.008   3.428   2.760 -0.8454  0.4627  0.3698
 6317SOL    HW130413   1.031   3.392   2.845 -1.4957 -0.7489  0.0357
 6317SOL    HW230414   1.053   3.510   2.781 -0.6029  0.6680 -0.9381
 6318SOL     OW30415   0.940   2.365   2.428  0.0478  0.2462  0.2356
 6318SOL    HW130416   0.852   2.387   2.397 -0.0588 -0.9517 -0.2941
 6318SOL    HW230417   0.991   2.442   2.401  0.8006 -0.2965  0.1002
 6319SOL     OW30418   4.287   4.547   8.253 -0.0116 -0.3904  0.0485
 6319SOL    HW130419   4.323   4.527   8.340  1.3241 -1.5968 -0.7791
 6319SOL    HW230420   4.287   4.455   8.224 -0.5580 -0.1029 -0.8322
 6320SOL     OW30421   1.715   0.474   8.051 -0.1016  0.2740 -0.3976
 6320SOL    HW130422   1.782   0.542   8.053  0.5760 -0.3779 -1.1128
 6320SOL    HW230423   1.691   0.470   8.144  1.8943  0.8025  0.1457
 6321SOL     OW30424   1.430   3.642   2.892  0.6016 -0.7363  0.6709
 6321SOL    HW130425   1.430   3.576   2.823  0.5069  1.1339 -1.1458
 6321SOL    HW230426   1.475   3.713   2.846 -1.4536  0.1354 -0.0179
 6322SOL     OW30427   0.236   4.278  11.981 -0.0905 -0.4639  0.3908
 6322SOL    HW130428   0.195   4.280  11.894 -0.5672  1.0387  0.6522
 6322SOL    HW230429   0.311   4.224  11.953  0.9637  0.5563  1.2876
 6323SOL     OW30430   1.870   3.075   7.370  0.3303 -0.8618 -0.1646
 6323SOL    HW130431   1.812   3.010   7.331  0.7786 -0.6871 -1.1228
 6323SOL    HW230432   1.950   3.024   7.357  0.6972  0.4562 -3.0289
 6324SOL     OW30433   3.398   4.050   8.248 -0.4399 -0.0345  0.1182
 6324SOL    HW130434   3.461   4.016   8.185 -0.6026  3.3756 -1.9080
 6324SOL    HW230435   3.378   4.141   8.225  0.7027 -0.0182 -0.8244
 6325SOL     OW30436   3.670   1.856   9.240 -0.3120  0.5410  0.0230
 6325SOL    HW130437   3.740   1.857   9.175  0.1480 -1.1429  0.4890
 6325SOL    HW230438   3.601   1.797   9.211 -1.3872  1.7772  0.0788
 6326SOL     OW30439   3.725   1.518   8.025  0.1424 -0.2484 -0.4821
 6326SOL    HW130440   3.819   1.535   8.018  0.3807  0.0608  3.2250
 6326SOL    HW230441   3.688   1.606   8.024  0.7296  0.0329  1.0391
 6327SOL     OW30442   1.005   2.528   5.911  0.6455 -0.4278  0.2845
 6327SOL    HW130443   1.023   2.464   5.979 -0.6126  0.0505  1.0701
 6327SOL    HW230444   0.935   2.485   5.861 -0.9260  2.7732 -0.3058
 6328SOL     OW30445   1.023   4.565  11.874  0.4170  0.1193  0.7904
 6328SOL    HW130446   1.096   4.608  11.830 -0.5414 -0.0033 -0.9330
 6328SOL    HW230447   0.949   4.623  11.855  0.1665 -0.6320 -0.5227
 6329SOL     OW30448   1.765   1.627   6.524 -0.0413 -0.1913  0.5941
 6329SOL    HW130449   1.730   1.681   6.595  0.6109 -0.2016  0.9179
 6329SOL    HW230450   1.830   1.676   6.473 -0.8025  0.8659  0.6330
 6330SOL     OW30451   0.838   4.061   3.163 -0.5060  0.1501 -0.5176
 6330SOL    HW130452   0.792   4.069   3.079 -0.8268  0.9926 -0.2547
 6330SOL    HW230453   0.773   4.001   3.200 -0.3864  0.1739 -0.2703
 6331SOL     OW30454   2.912   1.674   2.692  0.4159 -0.1598  0.2092
 6331SOL    HW130455   2.898   1.671   2.597  0.1200  0.8930  0.2284
 6331SOL    HW230456   3.004   1.644   2.694  0.5682  0.1392 -2.7986
 6332SOL     OW30457   4.209   2.102   7.494  0.4050  0.2282 -0.0395
 6332SOL    HW130458   4.191   2.150   7.414  1.3486  0.7529  0.0623
 6332SOL    HW230459   4.251   2.170   7.546 -1.0123  2.4886 -1.8526
 6333SOL     OW30460   2.459   4.565  11.252 -0.0888  0.5505 -0.2669
 6333SOL    HW130461   2.383   4.622  11.240 -0.8287 -0.8818 -2.5088
 6333SOL    HW230462   2.519   4.600  11.186  0.5735 -0.4373 -0.1811
 6334SOL     OW30463   3.855   0.288   8.325  0.4548 -0.0381 -0.3455
 6334SOL    HW130464   3.785   0.230   8.355 -0.6249  1.1988 -0.4696
 6334SOL    HW230465   3.890   0.290   8.414  1.6436  1.4824 -0.8397
 6335SOL     OW30466   4.554   2.815  10.794 -0.4796  0.0281  0.4760
 6335SOL    HW130467   4.481   2.771  10.838  0.1829  0.2642  1.8148
 6335SOL    HW230468   4.523   2.894  10.750 -2.3866 -0.5050  0.8426
 6336SOL     OW30469   4.271   3.319   4.641  0.0625  0.2217 -0.0942
 6336SOL    HW130470   4.206   3.387   4.627 -0.8448 -0.4880  0.6542
 6336SOL    HW230471   4.227   3.292   4.722 -0.5562  0.0008 -0.5086
 6337SOL     OW30472   3.669   2.698   0.316  0.1472  0.2047  0.1696
 6337SOL    HW130473   3.742   2.753   0.344 -0.2762  2.6254 -3.4248
 6337SOL    HW230474   3.699   2.613   0.347  1.8586  0.6713 -0.2323
 6338SOL     OW30475   1.674   2.182   6.665  0.0389  0.0684 -0.3663
 6338SOL    HW130476   1.679   2.130   6.745 -1.9341 -1.8457 -1.4922
 6338SOL    HW230477   1.726   2.122   6.612  1.1225 -3.3311  4.5352
 6339SOL     OW30478   4.715   0.571   6.252  1.0992  0.3000  0.1000
 6339SOL    HW130479   0.037   0.645   6.285 -1.6901  2.5693 -0.6452
 6339SOL    HW230480   4.628   0.587   6.287  1.1349 -0.2219  0.4193
 6340SOL     OW30481   2.583   2.268   3.781 -0.4473 -0.2591 -0.2379
 6340SOL    HW130482   2.676   2.261   3.762 -0.0550  2.4796  0.6034
 6340SOL    HW230483   2.577   2.263   3.877 -0.5236 -1.7649 -0.3317
 6341SOL     OW30484   1.197   2.612   4.040  0.5753 -0.0375 -0.0895
 6341SOL    HW130485   1.288   2.587   4.050 -0.6780 -3.3384  2.9939
 6341SOL    HW230486   1.169   2.537   3.987  0.2478  0.3265 -0.4329
 6342SOL     OW30487   2.242   2.601  11.430  0.4566  0.2360  0.1877
 6342SOL    HW130488   2.326   2.557  11.440 -0.3916 -1.5541 -0.6500
 6342SOL    HW230489   2.202   2.549  11.360 -1.9622  2.2895  0.0373
 6343SOL     OW30490   0.727   0.942  11.011  0.2904  0.2677 -0.2230
 6343SOL    HW130491   0.693   0.988  10.934  1.2934 -1.5478 -1.7422
 6343SOL    HW230492   0.819   0.953  10.988  0.4586  1.0835  0.8370
 6344SOL     OW30493   4.522   2.212   8.418 -0.2787  0.3896 -0.0792
 6344SOL    HW130494   4.528   2.152   8.343  1.5998  0.1711  0.2453
 6344SOL    HW230495   4.461   2.163   8.473 -0.2924  0.5791  0.0731
 6345SOL     OW30496   2.016   2.867   3.433 -0.1692  0.5135 -0.3952
 6345SOL    HW130497   2.023   2.809   3.357 -2.5979  0.7602 -0.7945
 6345SOL    HW230498   2.103   2.867   3.473  0.5512 -1.7091 -1.9496
 6346SOL     OW30499   0.834   3.758   4.172  0.3290  0.2519  0.0668
 6346SOL    HW130500   0.873   3.810   4.242  0.9187  0.9510 -0.7731
 6346SOL    HW230501   0.793   3.683   4.215  1.8556 -1.7560 -1.9641
 6347SOL     OW30502   0.704   1.786   7.921  0.4750  0.0062 -0.3470
 6347SOL    HW130503   0.629   1.733   7.948  0.2553  0.2847 -0.4096
 6347SOL    HW230504   0.716   1.843   7.997  1.0080  1.5185 -1.5671
 6348SOL     OW30505   1.919   3.422   6.170  0.1136  0.7581  0.1711
 6348SOL    HW130506   1.933   3.349   6.111 -0.4127 -0.4921  1.5820
 6348SOL    HW230507   1.948   3.382   6.252  0.9348  0.0889 -0.4453
 6349SOL     OW30508   2.571   2.755   3.124  0.0913 -0.4008  0.3107
 6349SOL    HW130509   2.563   2.775   3.030 -1.3545 -0.0466  0.5110
 6349SOL    HW230510   2.657   2.794   3.140  0.2317 -0.9440  0.8418
 6350SOL     OW30511   4.667   1.305   8.115  0.2400  0.0045 -0.8738
 6350SOL    HW130512   4.659   1.398   8.137  0.6971  0.0779 -1.0102
 6350SOL    HW230513   0.022   1.283   8.157  0.0184  0.1493 -0.3542
 6351SOL     OW30514   2.229   4.028   2.855 -0.0413 -0.5138  0.1553
 6351SOL    HW130515   2.202   4.032   2.763  0.5105  0.8127  0.0559
 6351SOL    HW230516   2.143   3.999   2.886 -1.1482  1.5592 -0.9689
 6352SOL     OW30517   4.107   2.672   3.818 -0.3150  0.2156  0.4137
 6352SOL    HW130518   4.053   2.596   3.797  0.3659 -0.0315 -0.4627
 6352SOL    HW230519   4.193   2.629   3.822  0.4609  1.5660 -1.3130
 6353SOL     OW30520   2.438   1.115   9.239 -0.2424 -0.0380 -0.0270
 6353SOL    HW130521   2.516   1.060   9.233  0.6522  1.1459  0.6996
 6353SOL    HW230522   2.453   1.173   9.315  0.1312  0.9720 -0.8739
 6354SOL     OW30523   0.338   3.641  14.011  0.1994 -0.7839 -0.1333
 6354SOL    HW130524   0.425   3.644  13.973  0.7498  0.9772  1.3293
 6354SOL    HW230525   0.292   3.672  13.933  0.1932  3.0313  1.4094
 6355SOL     OW30526   4.498   0.613   9.104  0.4200  0.2090 -0.3836
 6355SOL    HW130527   4.571   0.625   9.164 -0.0761 -1.4726  0.5641
 6355SOL    HW230528   4.501   0.520   9.084 -2.4154 -0.2419  1.1612
 6356SOL     OW30529   2.231   2.002   3.592  0.3548  0.2541 -0.7148
 6356SOL    HW130530   2.271   2.045   3.667  1.4749 -0.8812 -0.6675
 6356SOL    HW230531   2.241   2.076   3.532  0.2409  0.6278 -0.2703
 6357SOL     OW30532   1.782   1.726   8.030 -0.0451  0.2894 -0.1364
 6357SOL    HW130533   1.729   1.740   7.951 -1.1091 -0.7140  0.4126
 6357SOL    HW230534   1.853   1.675   7.989  0.8459  0.4455  1.2152
 6358SOL     OW30535   3.481   0.780   5.044  0.1209  0.0343  0.0309
 6358SOL    HW130536   3.567   0.749   5.070 -0.0359  1.1590  1.8784
 6358SOL    HW230537   3.436   0.770   5.127  2.3427  0.7975  1.3202
 6359SOL     OW30538   1.894   3.898   3.488 -0.4018  0.3322  0.4311
 6359SOL    HW130539   1.897   3.910   3.583 -0.1301 -2.1843  0.7615
 6359SOL    HW230540   1.971   3.841   3.481 -0.1398  0.4488  2.3288
 6360SOL     OW30541   0.955   4.088   4.885  0.2939 -0.9496  0.0762
 6360SOL    HW130542   0.974   4.180   4.868  0.6727 -1.1692 -0.6885
 6360SOL    HW230543   0.901   4.079   4.806 -1.1689  2.5329  0.7008
 6361SOL     OW30544   2.271   2.930   5.242  0.1738 -0.4063  0.0610
 6361SOL    HW130545   2.346   2.878   5.272  0.2558 -1.3963 -1.8666
 6361SOL    HW230546   2.262   2.983   5.321 -1.1752 -0.8873  0.2241
 6362SOL     OW30547   4.477   4.664   4.046 -0.2956  0.2350 -0.4859
 6362SOL    HW130548   4.461   4.571   4.063 -1.0880  0.3203 -0.7755
 6362SOL    HW230549   4.519   4.690   4.128 -0.8452 -1.2815  0.2829
 6363SOL     OW30550   0.805   3.160   0.372  0.1529  0.2284 -0.2352
 6363SOL    HW130551   0.747   3.087   0.393  0.9268  0.1208  1.4849
 6363SOL    HW230552   0.868   3.121   0.311 -1.9145 -2.8331 -0.4167
 6364SOL     OW30553   2.634   2.864   2.874  0.0686 -0.1214  0.4587
 6364SOL    HW130554   2.556   2.907   2.839  0.1889  2.1837  3.0443
 6364SOL    HW230555   2.697   2.932   2.850  0.6748 -0.3739  1.3483
 6365SOL     OW30556   0.761   1.181   4.791 -0.1971  0.3284  0.2823
 6365SOL    HW130557   0.704   1.106   4.810  0.8296 -1.1720 -2.6042
 6365SOL    HW230558   0.828   1.153   4.853  1.8331  1.3771 -1.4302
 6366SOL     OW30559   1.602   2.414   7.376 -0.2502  0.0670 -0.0221
 6366SOL    HW130560   1.519   2.376   7.402 -0.7971  1.3033  0.0485
 6366SOL    HW230561   1.635   2.358   7.306  0.7203  0.4301  0.1394
 6367SOL     OW30562   3.284   1.463   7.535  0.5858 -0.0516 -0.1628
 6367SOL    HW130563   3.212   1.408   7.566  0.0005  0.8484  0.0819
 6367SOL    HW230564   3.348   1.444   7.604  0.1215 -1.7115 -0.1953
 6368SOL     OW30565   2.781   4.136   4.146  0.5632  0.4596 -0.3772
 6368SOL    HW130566   2.691   4.105   4.146  1.5042 -2.3356 -1.4086
 6368SOL    HW230567   2.820   4.066   4.198  0.0574  0.5003  0.0449
 6369SOL     OW30568   4.012   1.456   3.540  0.7723  0.1877 -0.1883
 6369SOL    HW130569   4.098   1.463   3.580  0.5264 -0.9317  0.5593
 6369SOL    HW230570   3.992   1.546   3.515  3.9255  1.3427  1.4365
 6370SOL     OW30571   1.820   0.037  10.985  0.4883 -0.0811 -0.7092
 6370SOL    HW130572   1.821   0.130  10.960  1.5299  0.4299  1.2367
 6370SOL    HW230573   1.726   0.022  10.995  0.2101  0.9868 -1.7777
 6371SOL     OW30574   4.467   1.135   2.554 -0.6071  0.0887 -0.3464
 6371SOL    HW130575   4.475   1.057   2.499 -0.4715 -1.0179  1.2117
 6371SOL    HW230576   4.526   1.193   2.507  0.2954 -0.9855 -0.5518
 6372SOL     OW30577   3.269   1.746   3.078 -0.6383 -0.1527 -0.1660
 6372SOL    HW130578   3.227   1.685   3.018  2.1563 -1.3668 -0.8964
 6372SOL    HW230579   3.277   1.821   3.018  1.2103  1.3271  1.9497
 6373SOL     OW30580   2.629   2.294   7.833  0.0653 -0.1945 -0.2421
 6373SOL    HW130581   2.681   2.364   7.871 -2.0472  0.7125  0.9184
 6373SOL    HW230582   2.656   2.298   7.741 -0.0351 -1.4258 -0.3295
 6374SOL     OW30583   2.618   3.542   8.265 -0.0749 -0.0435  0.0432
 6374SOL    HW130584   2.543   3.577   8.314  0.7357 -0.3469  1.4762
 6374SOL    HW230585   2.693   3.601   8.266 -0.2347  0.1489  0.6727
 6375SOL     OW30586   3.312   3.036  13.036 -0.3138  0.6214  0.1907
 6375SOL    HW130587   3.222   3.067  13.023 -1.2867 -0.7274  3.7805
 6375SOL    HW230588   3.297   2.964  13.096 -0.9747  0.5906 -0.0179
 6376SOL     OW30589   3.145   3.900  16.073  0.3647 -0.0171  0.1052
 6376SOL    HW130590   3.069   3.935  16.120  0.6967  1.9073 -0.7847
 6376SOL    HW230591   3.140   3.807  16.094 -3.2309  0.2939  0.7267
 6377SOL     OW30592   3.820   0.179  15.591  0.7374 -0.5527  0.4884
 6377SOL    HW130593   3.770   0.144  15.664 -1.0124 -0.1316 -0.5049
 6377SOL    HW230594   3.869   0.245  15.639 -0.7125  0.2317  0.8847
 6378SOL     OW30595   2.362   2.775   8.391 -0.1041  0.4213  0.1797
 6378SOL    HW130596   2.431   2.711   8.372  0.0126  0.4161  0.6300
 6378SOL    HW230597   2.327   2.783   8.302  1.9237  1.8852 -0.4960
 6379SOL     OW30598   3.356   2.897   8.677 -0.3250  0.0202 -0.3688
 6379SOL    HW130599   3.352   2.927   8.768  2.3511 -0.0319 -0.2455
 6379SOL    HW230600   3.324   2.806   8.678  0.8662 -0.3900  0.7967
 6380SOL     OW30601   2.804   0.403   6.774 -0.0282 -0.1823 -0.0417
 6380SOL    HW130602   2.852   0.367   6.848 -0.1585 -0.1318  0.0680
 6380SOL    HW230603   2.831   0.494   6.762  2.5938 -0.9319  0.2729
 6381SOL     OW30604   3.704   3.219   5.368  0.1788  0.6086 -0.5488
 6381SOL    HW130605   3.754   3.283   5.418 -0.2709 -1.0343  2.0159
 6381SOL    HW230606   3.777   3.164   5.340 -2.4141 -2.5147 -1.2344
 6382SOL     OW30607   2.039   0.738   4.320 -0.6495  0.5430 -0.4075
 6382SOL    HW130608   2.126   0.766   4.351 -0.8235  0.7178 -0.0797
 6382SOL    HW230609   2.034   0.643   4.326  1.9378  0.2946 -1.7533
 6383SOL     OW30610   0.694   2.020  14.168 -0.2603 -0.0101 -0.0286
 6383SOL    HW130611   0.628   2.087  14.185 -1.4911 -1.4165  0.7242
 6383SOL    HW230612   0.686   1.955  14.237 -0.3581  0.5351  0.4701
 6384SOL     OW30613   4.224   4.510   6.876  0.1377  0.6701 -0.3076
 6384SOL    HW130614   4.177   4.444   6.825 -0.4714  0.7378  0.1581
 6384SOL    HW230615   4.156   4.555   6.927  0.3419  1.1674 -0.4752
 6385SOL     OW30616   3.215   0.366   2.626  0.3294 -0.3644  0.2586
 6385SOL    HW130617   3.307   0.340   2.621 -0.0691 -1.6113 -0.7310
 6385SOL    HW230618   3.210   0.362   2.531 -2.0299  0.6307  0.3521
 6386SOL     OW30619   3.560   2.431  15.275 -0.3656 -0.1600 -0.8553
 6386SOL    HW130620   3.645   2.468  15.297 -0.8055  0.6829 -0.5632
 6386SOL    HW230621   3.552   2.369  15.348 -1.9156  1.7291  0.5558
 6387SOL     OW30622   3.045   3.037   3.199 -0.2254  0.2315 -0.3575
 6387SOL    HW130623   3.069   3.063   3.288 -0.7613 -0.3541 -0.0440
 6387SOL    HW230624   3.126   3.054   3.152 -1.6059  2.1940 -2.0405
 6388SOL     OW30625   3.341   3.593   6.107 -0.0847  0.0966 -0.2750
 6388SOL    HW130626   3.343   3.651   6.183  4.0292  0.9109 -1.0430
 6388SOL    HW230627   3.248   3.595   6.083 -0.6901 -1.0110  1.9127
 6389SOL     OW30628   2.330   1.048   6.735 -0.4104 -0.1858 -0.0417
 6389SOL    HW130629   2.314   1.105   6.660 -2.2384 -0.0999  0.4273
 6389SOL    HW230630   2.413   1.004   6.717 -1.4706 -1.4637 -1.8098
 6390SOL     OW30631   4.203   4.290   8.639 -0.2009  0.4220 -0.0778
 6390SOL    HW130632   4.113   4.266   8.615  0.0932 -0.6665 -0.1019
 6390SOL    HW230633   4.236   4.214   8.687 -1.7662  1.3153  2.3735
 6391SOL     OW30634   0.233   0.834  10.646 -0.2219 -0.1731 -0.1054
 6391SOL    HW130635   0.191   0.913  10.611 -2.7090 -0.9244  1.1986
 6391SOL    HW230636   0.185   0.818  10.726  3.5564 -2.6495  1.6731
 6392SOL     OW30637   3.813   4.529   5.997 -0.1599 -0.1886  0.5435
 6392SOL    HW130638   3.816   4.614   5.953 -2.4531  0.5063  1.7689
 6392SOL    HW230639   3.742   4.487   5.948  0.6075 -2.3328  1.2823
 6393SOL     OW30640   2.931   0.711   4.137  0.8266 -0.0483  0.5219
 6393SOL    HW130641   2.954   0.626   4.100 -1.1724 -1.1254  1.7222
 6393SOL    HW230642   2.997   0.760   4.089 -0.8152  2.0534  0.4216
 6394SOL     OW30643   2.838   0.828   4.651  0.3134 -0.3168  0.4279
 6394SOL    HW130644   2.863   0.742   4.617 -1.4806 -1.8129  2.8650
 6394SOL    HW230645   2.832   0.873   4.567  1.0025  0.4556  0.7981
 6395SOL     OW30646   1.138   4.409   5.291 -0.2673 -0.0028  0.5095
 6395SOL    HW130647   1.043   4.420   5.294 -0.1634  0.6875  1.1170
 6395SOL    HW230648   1.171   4.498   5.301 -2.7711  1.0737 -0.9310
 6396SOL     OW30649   2.836   0.079   3.860 -0.0803 -0.6806  0.4704
 6396SOL    HW130650   2.811   4.716   3.862  0.5733 -0.8468  0.9603
 6396SOL    HW230651   2.874   0.090   3.947  0.4628  1.8405 -0.0679
 6397SOL     OW30652   3.448   1.372   4.956 -0.3611  0.1408  0.1787
 6397SOL    HW130653   3.378   1.436   4.971 -0.8348  0.3887 -2.9972
 6397SOL    HW230654   3.410   1.294   4.997  0.9723 -0.5232  0.1509
 6398SOL     OW30655   1.028   0.633   2.449 -0.1641  0.2977  0.5781
 6398SOL    HW130656   0.963   0.677   2.395  0.5510  1.4772  0.6845
 6398SOL    HW230657   1.046   0.697   2.517 -1.9263  1.0410  0.3288
 6399SOL     OW30658   3.280   2.301   3.550  0.0195  0.1142  0.4810
 6399SOL    HW130659   3.275   2.380   3.497  1.0693  0.7187  1.2884
 6399SOL    HW230660   3.255   2.232   3.489  1.0515  0.4076 -0.2640
 6400SOL     OW30661   3.683   3.718   4.498  0.1657 -0.1521 -0.3070
 6400SOL    HW130662   3.736   3.703   4.420  0.4792 -0.3513 -0.0599
 6400SOL    HW230663   3.638   3.634   4.499  0.9134 -0.5428  0.3813
 6401SOL     OW30664   0.981   3.556   2.047 -1.0129 -0.0642 -0.3786
 6401SOL    HW130665   0.956   3.645   2.022  1.0331  1.2237  2.1054
 6401SOL    HW230666   1.074   3.564   2.067 -0.6826 -0.9177 -1.5271
 6402SOL     OW30667   1.964   4.697  15.216 -0.2868 -0.2726  0.0966
 6402SOL    HW130668   1.968   0.037  15.283  1.4490 -0.6130  0.3363
 6402SOL    HW230669   2.054   4.697  15.184 -0.0141 -1.3238  0.8626
 6403SOL     OW30670   3.430   3.733   8.069  0.0257  0.7915 -0.2698
 6403SOL    HW130671   3.459   3.657   8.019 -2.2081 -0.4366  0.2907
 6403SOL    HW230672   3.369   3.701   8.136 -0.7922  1.1838 -0.8301
 6404SOL     OW30673   3.263   0.818   3.059  0.0804 -0.6368  0.0005
 6404SOL    HW130674   3.169   0.816   3.042  0.5540  2.5962 -3.0118
 6404SOL    HW230675   3.273   0.901   3.105  0.1101 -0.8321  0.3515
 6405SOL     OW30676   1.049   3.794   7.765  0.2643  0.5935  0.1356
 6405SOL    HW130677   1.102   3.856   7.714  0.5099  0.3900  0.1431
 6405SOL    HW230678   1.104   3.716   7.766 -0.3473  0.1052 -2.2678
 6406SOL     OW30679   2.710   1.155   2.065 -0.0391 -0.5683 -0.2620
 6406SOL    HW130680   2.800   1.121   2.066  0.3909  0.5793  0.4681
 6406SOL    HW230681   2.657   1.076   2.074  2.4353 -2.3553 -1.5244
 6407SOL     OW30682   3.660   3.227   4.578 -0.1712 -0.0536 -0.4978
 6407SOL    HW130683   3.721   3.153   4.575 -0.7728 -0.5690  0.1594
 6407SOL    HW230684   3.670   3.256   4.669  2.4422  1.1641 -1.1692
 6408SOL     OW30685   2.494   1.007  14.603  0.1503 -0.1546 -0.3972
 6408SOL    HW130686   2.400   1.006  14.617  0.5694  0.8936  2.4613
 6408SOL    HW230687   2.511   1.087  14.652 -2.3092  0.8071 -1.1457
 6409SOL     OW30688   4.634   3.960  11.395 -0.0186  0.0016 -0.4091
 6409SOL    HW130689   4.679   4.009  11.464 -0.3916 -1.1364  0.6445
 6409SOL    HW230690   4.550   4.006  11.392 -0.4021 -0.6908 -0.2030
 6410SOL     OW30691   4.153   3.971   1.168  0.0980 -0.7253  0.2423
 6410SOL    HW130692   4.113   3.971   1.255  1.0673  1.1879  0.7103
 6410SOL    HW230693   4.213   3.897   1.168  1.2622  0.2037  0.1534
 6411SOL     OW30694   2.873   2.504   4.995  0.0864  0.1823  0.1258
 6411SOL    HW130695   2.956   2.462   5.019  0.2323 -0.7764 -2.0530
 6411SOL    HW230696   2.847   2.467   4.911  0.4803  0.5392 -0.1507
 6412SOL     OW30697   0.343   0.469   9.546 -0.1366  0.0036  0.6421
 6412SOL    HW130698   0.406   0.431   9.485  1.1456  4.0889 -0.5929
 6412SOL    HW230699   0.332   0.549   9.494 -1.9124 -1.5867 -1.3933
 6413SOL     OW30700   4.040   3.247   9.643  0.2068 -0.0655 -0.6849
 6413SOL    HW130701   4.009   3.331   9.676 -0.7469 -0.6448 -0.1151
 6413SOL    HW230702   4.080   3.283   9.564  1.6624 -0.4719 -0.1219
 6414SOL     OW30703   0.004   2.768  11.396  0.1465 -0.2107 -0.8421
 6414SOL    HW130704   0.060   2.844  11.409 -1.0221  0.5481 -0.2039
 6414SOL    HW230705   4.645   2.807  11.395  0.2651  0.1143  1.0484
 6415SOL     OW30706   3.201   1.340   5.908  0.2482 -0.1583  0.0594
 6415SOL    HW130707   3.215   1.348   6.002 -0.5331  0.7056  0.1015
 6415SOL    HW230708   3.106   1.325   5.906  0.4250 -1.1066 -1.3736
 6416SOL     OW30709   3.089   3.731   1.870  0.3572  0.8134 -0.5014
 6416SOL    HW130710   2.994   3.748   1.870  0.3529  0.7885 -1.0117
 6416SOL    HW230711   3.096   3.682   1.788 -1.1331 -3.6367  2.0675
 6417SOL     OW30712   0.389   1.801  16.725  0.4288  0.7304  0.1275
 6417SOL    HW130713   0.375   1.809  16.631 -0.6134 -1.3406  0.1106
 6417SOL    HW230714   0.341   1.875  16.762  0.0133  1.1827 -1.3200
 6418SOL     OW30715   3.926   1.001   9.186  0.1807  0.1314 -0.0824
 6418SOL    HW130716   3.855   1.000   9.251 -0.7424 -0.1686 -1.1088
 6418SOL    HW230717   4.002   0.996   9.245 -0.6206  2.5583  1.1536
 6419SOL     OW30718   1.144   0.485   6.343  0.5552 -0.1058 -0.2576
 6419SOL    HW130719   1.055   0.520   6.342  0.6257  0.0933  0.5596
 6419SOL    HW230720   1.138   0.405   6.396  2.1625 -0.2784 -0.3136
 6420SOL     OW30721   0.350   4.541  15.370  0.0442  0.9337  0.3922
 6420SOL    HW130722   0.342   4.577  15.458 -0.4900 -0.4403  0.8989
 6420SOL    HW230723   0.382   4.620  15.326  0.2536  1.5609  1.6774
 6421SOL     OW30724   2.168   1.111   7.541 -0.2554 -0.4219  0.4708
 6421SOL    HW130725   2.157   1.038   7.481 -2.7958 -0.0043  0.4118
 6421SOL    HW230726   2.190   1.188   7.489 -1.7013 -0.2701  0.0646
 6422SOL     OW30727   3.501   3.163   1.959  0.2162  0.1703  0.5754
 6422SOL    HW130728   3.463   3.197   1.879  1.7978  2.8601  0.9630
 6422SOL    HW230729   3.580   3.217   1.964 -0.6604  1.4051  1.0963
 6423SOL     OW30730   4.545   0.382   8.256 -0.2308 -0.0697 -0.1202
 6423SOL    HW130731   4.494   0.438   8.199  0.6278  0.1452 -0.6754
 6423SOL    HW230732   4.603   0.328   8.201 -0.0493 -0.8211  0.7979
 6424SOL     OW30733   3.377   0.090   0.610  0.2238 -0.2456 -0.0471
 6424SOL    HW130734   3.411   0.001   0.608  1.6693  0.2854  1.1271
 6424SOL    HW230735   3.387   0.120   0.700 -0.0900 -0.1676 -0.0376
 6425SOL     OW30736   2.206   3.545  12.007 -0.0533  0.4979  0.1633
 6425SOL    HW130737   2.228   3.466  12.057 -1.5853  1.3780  2.1632
 6425SOL    HW230738   2.110   3.542  12.005 -0.0876  0.9493  1.9393
 6426SOL     OW30739   3.652   3.160   7.327  0.1741  0.2674  0.6790
 6426SOL    HW130740   3.645   3.252   7.303  0.7442  0.0453 -0.3471
 6426SOL    HW230741   3.619   3.125   7.244  1.1896  1.3623 -0.1912
 6427SOL     OW30742   2.774   0.084   4.535  0.5093 -0.5647  0.1257
 6427SOL    HW130743   2.698   0.031   4.511  0.3299  1.0332 -2.9075
 6427SOL    HW230744   2.791   0.065   4.627 -0.6835  1.7097  0.8109
 6428SOL     OW30745   2.689   0.726   4.009  0.6916  0.3952 -0.0486
 6428SOL    HW130746   2.718   0.725   3.917 -0.1413  2.6216 -0.3534
 6428SOL    HW230747   2.768   0.736   4.062 -0.3367  0.5491  1.4424
 6429SOL     OW30748   1.092   4.002   7.328  0.4943 -0.2270 -0.2004
 6429SOL    HW130749   1.007   4.039   7.352  0.8151  0.8230 -0.6840
 6429SOL    HW230750   1.120   4.080   7.279 -0.0029  2.0811  3.1526
 6430SOL     OW30751   1.314   3.427  10.180 -0.0163 -0.3706  0.1945
 6430SOL    HW130752   1.324   3.367  10.254  0.3276 -0.6681 -0.0903
 6430SOL    HW230753   1.246   3.381  10.132 -0.0921 -1.9389  1.8119
 6431SOL     OW30754   3.827   3.542   7.381 -0.4412 -0.6168 -0.3754
 6431SOL    HW130755   3.909   3.588   7.362 -1.4246  1.1255 -0.4393
 6431SOL    HW230756   3.856   3.458   7.417  1.4070 -1.1149 -2.9811
 6432SOL     OW30757   4.366   3.959  11.269 -0.4367  0.4690 -0.0074
 6432SOL    HW130758   4.282   3.915  11.280 -0.0317  0.1696  1.7487
 6432SOL    HW230759   4.346   4.017  11.195  1.0576 -0.6413 -1.2934
 6433SOL     OW30760   3.493   0.706   4.379 -0.1311 -0.4651 -0.8206
 6433SOL    HW130761   3.423   0.771   4.382 -1.2747 -1.6614 -1.6502
 6433SOL    HW230762   3.563   0.765   4.351  1.4054 -1.2898  1.2860
 6434SOL     OW30763   4.454   1.843   5.635  0.4093  0.0505  0.1208
 6434SOL    HW130764   4.546   1.837   5.611 -0.1447  0.4012 -2.1001
 6434SOL    HW230765   4.419   1.827   5.547  0.9371  0.2256 -0.1185
 6435SOL     OW30766   3.876   4.665   8.450  0.1470  0.1374  0.6898
 6435SOL    HW130767   3.884   4.574   8.422 -2.7773  0.6646 -1.9148
 6435SOL    HW230768   3.944   4.693   8.388  1.0293 -0.3843  1.4175
 6436SOL     OW30769   1.409   3.274  15.636  0.5498 -0.2777  0.3078
 6436SOL    HW130770   1.327   3.241  15.674 -1.1195  0.8971 -2.3208
 6436SOL    HW230771   1.385   3.359  15.600 -1.3586 -1.4117 -1.1269
 6437SOL     OW30772   3.697   1.597   4.433  0.0196  0.0129 -0.4860
 6437SOL    HW130773   3.672   1.659   4.501 -0.4619 -1.0793  0.3305
 6437SOL    HW230774   3.777   1.560   4.471 -0.2783 -0.2034 -0.0787
 6438SOL     OW30775   3.715   2.639  16.558  0.7692  0.2852  0.6026
 6438SOL    HW130776   3.793   2.584  16.559  0.4296 -0.2151 -0.8340
 6438SOL    HW230777   3.726   2.672  16.647 -0.2101  2.1149  0.0484
 6439SOL     OW30778   3.741   1.194   2.985 -0.4612 -0.4481  0.0216
 6439SOL    HW130779   3.700   1.149   2.911  2.5453 -2.2723 -0.4996
 6439SOL    HW230780   3.679   1.264   3.008  2.3669  1.9116  0.4205
 6440SOL     OW30781   3.116   3.962   1.097 -0.2198 -0.4585  0.1841
 6440SOL    HW130782   3.206   3.978   1.071 -0.4389  0.5821  0.0621
 6440SOL    HW230783   3.070   3.965   1.013  0.3244  0.0837 -0.0925
 6441SOL     OW30784   0.860   1.760   6.242  0.4571  0.3237  0.4305
 6441SOL    HW130785   0.828   1.743   6.331  1.1431  0.5385  0.7200
 6441SOL    HW230786   0.897   1.678   6.212  0.7526  1.0165 -1.1052
 6442SOL     OW30787   2.132   3.352   6.889 -0.0501  0.2050  0.2285
 6442SOL    HW130788   2.200   3.344   6.956 -0.7198 -0.2777  0.8594
 6442SOL    HW230789   2.163   3.425   6.836  0.8424  1.6051  2.6801
 6443SOL     OW30790   0.530   2.623   2.979 -0.4875  0.0949 -0.2700
 6443SOL    HW130791   0.459   2.621   2.915 -1.4308  1.9143  0.7125
 6443SOL    HW230792   0.498   2.682   3.048  0.6159 -1.4095  1.5491
 6444SOL     OW30793   3.556   2.243   0.651  0.1801  0.0462  0.2944
 6444SOL    HW130794   3.497   2.268   0.722 -1.4070 -1.7573 -0.4067
 6444SOL    HW230795   3.594   2.162   0.686  0.1155  0.2790  0.9006
 6445SOL     OW30796   4.289   0.210   7.280  0.0706  0.0384 -0.3488
 6445SOL    HW130797   4.370   0.254   7.305 -0.8345  0.6314  1.5732
 6445SOL    HW230798   4.311   0.167   7.197  0.0669  2.1744 -1.4773
 6446SOL     OW30799   1.698   0.272   5.281 -0.2168  0.4497 -0.6458
 6446SOL    HW130800   1.751   0.210   5.331  0.0132  0.3004 -1.0719
 6446SOL    HW230801   1.614   0.231   5.261 -0.0216 -0.1746 -0.1795
 6447SOL     OW30802   4.070   1.298  16.107  0.4674 -0.5562  0.2772
 6447SOL    HW130803   3.990   1.346  16.087  0.4593 -0.1053  1.4170
 6447SOL    HW230804   4.088   1.279  16.014  0.2706  0.6142  0.0087
 6448SOL     OW30805   1.848   3.859   3.748  0.1349  0.2976 -0.5838
 6448SOL    HW130806   1.773   3.887   3.800  0.3822 -0.6515  0.2883
 6448SOL    HW230807   1.833   3.764   3.754 -0.5659  0.6033  2.4842
 6449SOL     OW30808   2.402   2.726   7.778  0.7988  0.5256  0.3071
 6449SOL    HW130809   2.332   2.790   7.766  1.4204  1.0735 -0.3921
 6449SOL    HW230810   2.377   2.687   7.862 -0.3501 -2.5318 -1.4440
 6450SOL     OW30811   2.453   1.319   9.442 -0.1782 -0.1972 -0.5685
 6450SOL    HW130812   2.536   1.334   9.487  0.1751  0.6851 -1.5292
 6450SOL    HW230813   2.456   1.406   9.402 -0.8129  0.4828  0.8727
 6451SOL     OW30814   2.150   4.087   4.575 -0.2690 -0.2761  0.2140
 6451SOL    HW130815   2.224   4.058   4.522 -1.1805 -2.5299  0.1970
 6451SOL    HW230816   2.192   4.145   4.639  0.1542  0.1793 -0.4798
 6452SOL     OW30817   1.307   0.618   5.035  0.0707  0.5015  0.0264
 6452SOL    HW130818   1.374   0.684   5.017  1.7801 -0.5340  2.4550
 6452SOL    HW230819   1.334   0.572   5.115 -1.6824  1.1730  1.0101
 6453SOL     OW30820   3.271   3.914   0.427 -0.4695 -0.6431 -0.0930
 6453SOL    HW130821   3.361   3.945   0.418 -0.7690  0.1857 -0.2100
 6453SOL    HW230822   3.227   3.979   0.373  1.0893  2.5714  2.5362
 6454SOL     OW30823   3.165   0.928   8.229 -0.3342 -0.3779 -0.8257
 6454SOL    HW130824   3.255   0.897   8.213 -0.7425 -2.5657  1.1914
 6454SOL    HW230825   3.181   0.994   8.296 -1.4143  0.9855 -1.9123
 6455SOL     OW30826   2.518   3.872   7.225 -0.3492 -0.2902 -0.0235
 6455SOL    HW130827   2.582   3.842   7.290 -0.3294  2.5715  1.2478
 6455SOL    HW230828   2.463   3.917   7.287 -0.5303 -0.9706  0.3129
 6456SOL     OW30829   2.008   2.907   4.400  0.3035  0.4568 -0.1855
 6456SOL    HW130830   1.941   2.937   4.338 -0.4064  0.3211  0.5300
 6456SOL    HW230831   1.974   2.973   4.460  1.7212  1.1877 -0.1700
 6457SOL     OW30832   4.162   4.319   2.973 -0.2381  0.4409 -0.0011
 6457SOL    HW130833   4.189   4.232   3.003 -1.3104  0.3496  0.7073
 6457SOL    HW230834   4.099   4.297   2.904  1.0149 -2.8740 -0.1160
 6458SOL     OW30835   4.153   2.118   7.918 -0.2312 -0.1955  0.1966
 6458SOL    HW130836   4.186   2.065   7.991 -0.6637 -0.6069  0.0928
 6458SOL    HW230837   4.227   2.175   7.900 -1.3102  0.0924 -3.1926
 6459SOL     OW30838   1.114   2.793  10.507 -0.9905 -0.6184  0.1438
 6459SOL    HW130839   1.045   2.852  10.475 -0.8975  0.1471  1.3454
 6459SOL    HW230840   1.101   2.793  10.602  2.4949 -2.9516  0.6036
 6460SOL     OW30841   1.996   2.923  15.581 -0.1602 -0.0902 -0.0665
 6460SOL    HW130842   1.981   2.830  15.561  0.8367  0.4699 -3.3544
 6460SOL    HW230843   2.087   2.930  15.553 -0.0851 -2.2258 -0.3569
 6461SOL     OW30844   0.089   0.481   2.202 -0.3531 -0.0476  0.2273
 6461SOL    HW130845   0.083   0.431   2.284  0.6353  2.0722  1.5951
 6461SOL    HW230846   0.062   0.412   2.142 -1.8454  0.1249  0.7011
 6462SOL     OW30847   0.377   1.331  14.961 -0.3648 -0.1280 -0.1576
 6462SOL    HW130848   0.445   1.373  14.909 -2.1117  0.2010 -2.1753
 6462SOL    HW230849   0.436   1.274  15.011 -0.4768  0.0265  0.1558
 6463SOL     OW30850   2.399   0.799   8.433  0.8242 -0.1334  0.1321
 6463SOL    HW130851   2.419   0.857   8.507  1.3039  2.3717 -1.9541
 6463SOL    HW230852   2.484   0.760   8.413 -0.0140 -2.1336  0.4999
 6464SOL     OW30853   1.862   0.238   7.449  0.2779 -0.8203 -0.1179
 6464SOL    HW130854   1.957   0.240   7.453  0.2000  2.0432  0.0245
 6464SOL    HW230855   1.834   0.326   7.423 -1.0858 -1.3646 -0.5110
 6465SOL     OW30856   1.615   2.058   8.658 -0.0010 -0.1043  0.1796
 6465SOL    HW130857   1.683   2.080   8.721 -0.7062 -1.3598  1.3677
 6465SOL    HW230858   1.656   2.103   8.584 -1.3580  2.7338  1.1729
 6466SOL     OW30859   1.198   2.940   2.658 -0.5444  0.8211 -0.8605
 6466SOL    HW130860   1.208   3.030   2.687 -0.1550  0.7410 -0.7574
 6466SOL    HW230861   1.113   2.924   2.699  0.9577  0.2056  1.9302
 6467SOL     OW30862   3.398   2.852  11.667 -0.0945  0.5040 -0.1476
 6467SOL    HW130863   3.367   2.886  11.750 -0.0058 -1.7861  0.8270
 6467SOL    HW230864   3.472   2.795  11.690 -0.5403  0.7963  1.9320
 6468SOL     OW30865   0.891   3.263   9.755 -0.6617  0.2481 -0.1937
 6468SOL    HW130866   0.916   3.201   9.823 -0.2210 -2.7272 -3.0618
 6468SOL    HW230867   0.836   3.321   9.807 -2.0448 -0.4515 -0.8798
 6469SOL     OW30868   1.790   1.756   3.256 -0.3606  0.0310  0.0247
 6469SOL    HW130869   1.816   1.738   3.346 -1.5630  0.7957  0.5225
 6469SOL    HW230870   1.723   1.687   3.251 -0.9705  0.7307 -1.3148
 6470SOL     OW30871   0.449   3.176  13.822 -0.1816 -0.1907  0.3592
 6470SOL    HW130872   0.460   3.234  13.747  1.3248 -0.5843  0.2801
 6470SOL    HW230873   0.386   3.229  13.871  0.0193 -1.2158  1.7147
 6471SOL     OW30874   0.932   2.444  13.547 -0.5915  0.2155  0.1592
 6471SOL    HW130875   0.960   2.373  13.604 -1.0288  1.6796  2.2227
 6471SOL    HW230876   0.840   2.422  13.562 -0.5844 -0.8946 -1.5173
 6472SOL     OW30877   4.403   2.553  16.287  0.3870  0.0554 -0.3014
 6472SOL    HW130878   4.438   2.540  16.199  1.6782 -0.1724  0.2457
 6472SOL    HW230879   4.487   2.538  16.331  0.4475 -1.4920 -0.9358
 6473SOL     OW30880   3.344   4.211   3.063 -0.1449 -0.3931 -0.6883
 6473SOL    HW130881   3.287   4.161   3.004 -0.7266  0.3196 -0.7273
 6473SOL    HW230882   3.287   4.210   3.140  1.0398 -1.0999  0.1759
 6474SOL     OW30883   2.534   4.707  17.350 -0.2732  0.3997 -0.0918
 6474SOL    HW130884   2.626   0.001  17.364  0.2404 -2.7045  1.5291
 6474SOL    HW230885   2.495   0.025  17.424  2.1814  0.1651  1.3605
 6475SOL     OW30886   1.366   3.152   6.718 -0.0613  0.2176 -0.5188
 6475SOL    HW130887   1.423   3.085   6.681  0.8256  1.1199 -0.8031
 6475SOL    HW230888   1.401   3.146   6.806  0.3932  1.2355 -0.6324
 6476SOL     OW30889   2.354   0.997  10.414  0.0819  0.3938  0.1335
 6476SOL    HW130890   2.409   1.074  10.421 -2.4265  2.2131 -0.1611
 6476SOL    HW230891   2.268   1.035  10.394 -1.0751 -1.2791  1.9622
 6477SOL     OW30892   0.470   0.076  13.519  0.1402  0.1706  0.8527
 6477SOL    HW130893   0.559   0.107  13.539 -0.0851  1.4021 -0.0382
 6477SOL    HW230894   0.448   0.143  13.454  0.8738 -1.4421 -1.0565
 6478SOL     OW30895   2.431   0.752   1.595  0.4242  0.1534 -0.1119
 6478SOL    HW130896   2.416   0.695   1.670  2.1956 -0.1686 -0.0106
 6478SOL    HW230897   2.456   0.683   1.535 -1.6722  0.5080 -1.4031
 6479SOL     OW30898   3.882   4.224  10.463  0.1264 -0.3077 -0.1773
 6479SOL    HW130899   3.959   4.253  10.511  0.6165  0.1961 -1.2743
 6479SOL    HW230900   3.882   4.292  10.397  1.2407  1.2252  1.4138
 6480SOL     OW30901   3.330   1.844  16.838 -0.1391 -0.4044  0.2781
 6480SOL    HW130902   3.355   1.935  16.825 -1.0890 -0.0935  0.6479
 6480SOL    HW230903   3.313   1.849  16.932  1.5352  0.6291  0.5370
 6481SOL     OW30904   3.887   4.006   2.215  0.1105  0.2529 -0.4701
 6481SOL    HW130905   3.891   4.082   2.273 -1.8467 -0.1836  0.2495
 6481SOL    HW230906   3.834   4.044   2.145  1.0575  0.6994 -0.9430
 6482SOL     OW30907   2.562   1.882   0.402 -0.8257  0.3468  0.4032
 6482SOL    HW130908   2.655   1.903   0.412 -1.1752  1.3646  1.5540
 6482SOL    HW230909   2.566   1.820   0.330 -1.7218  0.6913  0.0533
 6483SOL     OW30910   4.093   2.508   5.826 -0.3670 -0.0276  0.5504
 6483SOL    HW130911   4.181   2.472   5.817 -0.8282 -0.4366 -2.1054
 6483SOL    HW230912   4.073   2.438   5.889  0.4409 -0.6824  0.0830
 6484SOL     OW30913   1.970   2.573   7.224 -0.3724  0.4740  0.1995
 6484SOL    HW130914   1.919   2.501   7.186 -0.2057 -0.4837  1.8315
 6484SOL    HW230915   1.958   2.640   7.156  0.8079  0.2701 -0.2088
 6485SOL     OW30916   3.118   3.959   0.660 -0.4675 -0.6613 -0.3357
 6485SOL    HW130917   3.175   3.919   0.595  0.8265  0.2772  0.1995
 6485SOL    HW230918   3.033   3.969   0.617 -0.6417  1.7113  0.5391
 6486SOL     OW30919   3.902   0.749   6.935  0.8948 -0.0044  0.0922
 6486SOL    HW130920   3.832   0.785   6.990 -0.9056 -0.8682 -1.6131
 6486SOL    HW230921   3.924   0.663   6.972 -3.2609 -0.3431  1.7061
 6487SOL     OW30922   2.011   4.621   7.158 -0.9093  0.3172 -0.1989
 6487SOL    HW130923   2.015   4.664   7.072 -2.7435  0.4156 -0.2282
 6487SOL    HW230924   1.978   4.686   7.219 -2.6397 -0.8477  0.0943
 6488SOL     OW30925   3.558   1.686  11.967  0.9172 -0.5975  0.0370
 6488SOL    HW130926   3.617   1.635  12.023  0.5365 -0.4808  0.5448
 6488SOL    HW230927   3.589   1.686  11.877  4.3871  2.1649  1.2048
 6489SOL     OW30928   0.597   0.831   6.000  0.1595 -0.5150  0.1634
 6489SOL    HW130929   0.629   0.785   6.078 -1.9038  0.7757  1.7582
 6489SOL    HW230930   0.531   0.886   6.042  0.3284  1.1056 -1.6922
 6490SOL     OW30931   2.379   2.422   6.600 -0.2173 -0.0271 -0.0641
 6490SOL    HW130932   2.455   2.393   6.651  1.2203  2.6573 -0.6784
 6490SOL    HW230933   2.323   2.419   6.677 -2.7582 -1.5459 -1.9487
 6491SOL     OW30934   3.277   0.052   5.492  0.2548 -0.5433 -0.5745
 6491SOL    HW130935   3.288   0.128   5.435 -1.8531  0.6737  0.6152
 6491SOL    HW230936   3.323   0.088   5.567 -1.0732  1.0810 -0.5333
 6492SOL     OW30937   0.481   0.215  17.390 -0.7617 -0.9133 -0.2987
 6492SOL    HW130938   0.563   0.257  17.366 -0.4598 -0.9380  0.6990
 6492SOL    HW230939   0.427   0.241  17.315 -1.3690 -0.6016  0.2450
 6493SOL     OW30940   0.348   4.358   7.852  0.0467 -0.4459 -0.0320
 6493SOL    HW130941   0.401   4.435   7.829  1.8199 -1.2067  1.5860
 6493SOL    HW230942   0.292   4.355   7.774 -2.1049  1.3127  1.4746
 6494SOL     OW30943   2.387   1.211  13.485  0.0207  0.6856  1.0094
 6494SOL    HW130944   2.422   1.240  13.570  0.0605  2.4457  0.3707
 6494SOL    HW230945   2.399   1.290  13.433 -1.5240 -0.5393 -1.2189
 6495SOL     OW30946   1.406   0.407   6.419  0.1235  0.0025 -0.0601
 6495SOL    HW130947   1.318   0.424   6.385  0.2282 -0.9412 -0.8030
 6495SOL    HW230948   1.423   0.474   6.484  1.1063 -0.3020  0.0009
 6496SOL     OW30949   3.487   0.185   0.098  0.3459  0.2563 -0.7979
 6496SOL    HW130950   3.398   0.167   0.068 -0.2023 -0.9557  1.5673
 6496SOL    HW230951   3.461   0.245   0.168  0.0159 -1.0266  0.1734
 6497SOL     OW30952   3.253   0.010   2.623 -0.0866  0.2772  0.5243
 6497SOL    HW130953   3.259   4.702   2.535  0.5826  1.3871  0.1053
 6497SOL    HW230954   3.342   4.713   2.649  0.1511 -0.8393 -1.3704
 6498SOL     OW30955   4.305   0.334   8.604 -0.0385 -0.0846 -0.2207
 6498SOL    HW130956   4.273   0.249   8.636  1.4828 -0.0248  1.5162
 6498SOL    HW230957   4.228   0.371   8.563 -0.3670 -0.3115  0.1924
 6499SOL     OW30958   2.653   3.770   4.934 -0.1300 -0.4622 -0.4831
 6499SOL    HW130959   2.586   3.826   4.893  1.2166  2.9068  1.8591
 6499SOL    HW230960   2.717   3.838   4.956  0.6056 -1.9138  1.8677
 6500SOL     OW30961   3.434   2.261   2.515  0.1001  0.2682 -0.1021
 6500SOL    HW130962   3.512   2.238   2.465 -1.3599 -3.1756 -0.7964
 6500SOL    HW230963   3.369   2.267   2.445 -0.1763  0.3168  0.1559
 6501SOL     OW30964   1.447   0.563   6.653 -0.2686  0.2508  0.6300
 6501SOL    HW130965   1.400   0.646   6.657  0.1416  0.6202 -1.8960
 6501SOL    HW230966   1.443   0.526   6.741 -0.1914  1.8437  1.2983
 6502SOL     OW30967   0.908   0.920   6.555 -0.5926 -0.6500 -0.5237
 6502SOL    HW130968   0.897   0.826   6.545  1.0099 -0.8351 -0.5150
 6502SOL    HW230969   0.944   0.922   6.643  0.8364 -3.6247 -1.0417
 6503SOL     OW30970   2.356   1.481  12.191 -0.8789  1.0582 -0.4586
 6503SOL    HW130971   2.308   1.402  12.217  0.2989  1.5259  3.1269
 6503SOL    HW230972   2.411   1.450  12.118 -1.0509 -0.8445  0.2273
 6504SOL     OW30973   3.957   3.907   0.062 -0.3293 -0.1403 -0.2362
 6504SOL    HW130974   4.002   3.953   0.133  0.6784  0.7553 -1.4575
 6504SOL    HW230975   3.952   3.969  17.705  2.2462  1.6582  1.1164
 6505SOL     OW30976   2.605   0.921   2.005 -0.3816 -0.3173 -0.1761
 6505SOL    HW130977   2.654   0.839   2.017  1.0296  0.3971 -1.1315
 6505SOL    HW230978   2.601   0.921   1.909 -0.0227 -2.8712 -0.2156
 6506SOL     OW30979   0.072   3.759  11.340  0.0536  0.1116 -0.2028
 6506SOL    HW130980   4.728   3.818  11.358 -0.3282 -1.2413  2.5821
 6506SOL    HW230981   0.119   3.811  11.274  0.6740  1.2763  1.1570
 6507SOL     OW30982   2.009   1.652   6.197  0.3945 -0.5654 -0.0460
 6507SOL    HW130983   2.077   1.652   6.265 -0.6192 -0.6557  0.9693
 6507SOL    HW230984   1.971   1.738   6.215  0.9311 -0.2873 -0.2331
 6508SOL     OW30985   3.671   0.038  12.953 -0.4329  0.1116  0.2236
 6508SOL    HW130986   3.671   0.026  12.858 -0.2613  1.1644  0.0893
 6508SOL    HW230987   3.749   0.090  12.973  0.8771 -1.1198 -1.6487
 6509SOL     OW30988   2.559   4.258  10.894  0.1335  0.0662 -0.1810
 6509SOL    HW130989   2.550   4.326  10.827  0.0674  1.9193  1.7235
 6509SOL    HW230990   2.594   4.302  10.972  2.0594  0.5105 -1.2695
 6510SOL     OW30991   4.045   1.196   3.824 -0.3398  0.1342  0.7512
 6510SOL    HW130992   4.116   1.199   3.759 -0.4637  0.0579  0.6119
 6510SOL    HW230993   4.000   1.119   3.790 -0.2873  0.0960  0.7674
 6511SOL     OW30994   4.611   1.020   1.979 -0.3458 -0.4358  0.0642
 6511SOL    HW130995   4.643   1.100   2.020  1.7541 -1.1841 -0.1192
 6511SOL    HW230996   4.517   1.036   1.987 -0.3583 -0.0688 -0.8295
 6512SOL     OW30997   4.145   1.098   0.669  0.8207 -0.8259  0.0764
 6512SOL    HW130998   4.180   1.023   0.717 -0.4360 -1.5542 -0.1526
 6512SOL    HW230999   4.051   1.084   0.667  0.0402  4.6732 -0.3892
 6513SOL     OW31000   0.347   0.615   5.365 -0.2725 -0.0812  0.2098
 6513SOL    HW131001   0.256   0.592   5.386  0.0872 -1.1982  0.5566
 6513SOL    HW231002   0.349   0.612   5.269  0.8410  0.9517  0.1877
 6514SOL     OW31003   1.857   2.897   4.751 -0.0014 -0.4471  0.2253
 6514SOL    HW131004   1.939   2.945   4.735 -0.1611 -0.2916 -0.1213
 6514SOL    HW231005   1.807   2.941   4.682  0.3372 -1.7864 -0.8728
 6515SOL     OW31006   4.454   3.592   8.522 -0.0854  0.3440 -0.7751
 6515SOL    HW131007   4.519   3.532   8.557  1.3770  0.1672 -3.7312
 6515SOL    HW231008   4.376   3.537   8.513  0.8284 -1.2624  1.1805
 6516SOL     OW31009   4.309   2.320   5.031  0.3988 -0.2523  0.4673
 6516SOL    HW131010   4.291   2.252   5.096 -0.5266 -0.6652 -0.2193
 6516SOL    HW231011   4.218   2.346   5.020  0.8123  0.0256 -2.3251
 6517SOL     OW31012   1.697   0.410   6.462  0.4547  0.2846 -0.0972
 6517SOL    HW131013   1.712   0.360   6.382 -3.8397  0.4760 -1.0094
 6517SOL    HW231014   1.602   0.412   6.471  0.6244  0.1352  1.6429
 6518SOL     OW31015   4.638   0.839   6.980 -0.1427 -0.2945  0.7277
 6518SOL    HW131016   4.668   0.762   6.932  1.1242 -0.1611  1.3021
 6518SOL    HW231017   4.687   0.822   7.061  0.3280 -1.2025  0.2539
 6519SOL     OW31018   4.296   0.486   2.811 -0.2547 -0.4043  0.1100
 6519SOL    HW131019   4.202   0.499   2.802  0.1229  0.4633 -2.5466
 6519SOL    HW231020   4.325   0.555   2.871  2.3659 -0.7957 -0.6856
 6520SOL     OW31021   3.931   4.607  14.501 -0.5645  0.4500  0.0498
 6520SOL    HW131022   4.007   4.615  14.560  0.9869  0.2667 -1.9156
 6520SOL    HW231023   3.870   4.672  14.535 -1.2568  0.2447 -0.7934
 6521SOL     OW31024   2.199   4.179   8.097 -0.0112 -0.0644  0.0416
 6521SOL    HW131025   2.247   4.250   8.140  0.5682 -0.1486 -0.4471
 6521SOL    HW231026   2.190   4.217   8.009  3.7420  0.5606 -0.0931
 6522SOL     OW31027   0.283   4.621   3.919  0.2176 -0.0327 -0.0730
 6522SOL    HW131028   0.318   4.710   3.921 -1.1704  0.4910  0.7121
 6522SOL    HW231029   0.321   4.588   3.838  0.8709 -2.2251  1.1226
 6523SOL     OW31030   4.409   0.600   3.726  0.4259 -0.1789 -0.8483
 6523SOL    HW131031   4.397   0.528   3.788 -2.7347  0.8635 -0.2690
 6523SOL    HW231032   4.398   0.681   3.774 -1.8336  0.5992 -2.6647
 6524SOL     OW31033   1.811   0.230   8.191  0.1787  0.4287 -0.0416
 6524SOL    HW131034   1.803   0.245   8.285 -1.5291  3.0324 -0.5753
 6524SOL    HW231035   1.817   0.135   8.197  0.0833  0.4213 -0.0671
 6525SOL     OW31036   3.675   1.650   8.617 -0.3379  0.3900 -0.0964
 6525SOL    HW131037   3.748   1.631   8.676 -0.7287 -0.4049  0.1427
 6525SOL    HW231038   3.624   1.569   8.610  0.5294 -0.2905  1.4949
 6526SOL     OW31039   4.511   3.261  11.384 -0.2045 -0.1317 -0.1967
 6526SOL    HW131040   4.546   3.205  11.454 -0.3113  0.6620  0.4971
 6526SOL    HW231041   4.419   3.271  11.409  0.1547 -1.1595  1.5780
 6527SOL     OW31042   2.092   0.040   7.784 -0.1617  0.0686  0.3130
 6527SOL    HW131043   2.100   4.711   7.860 -1.2781  1.5492  1.5441
 6527SOL    HW231044   2.184   0.066   7.777  0.4610 -1.5881  2.3240
 6528SOL     OW31045   4.634   0.537   5.996  0.4932 -0.0605 -0.1053
 6528SOL    HW131046   4.724   0.516   5.970  0.6915  1.1124 -0.4162
 6528SOL    HW231047   4.650   0.543   6.090 -2.3196 -1.0327  0.4038
 6529SOL     OW31048   3.819   2.027   3.248  0.2038  0.0912  0.4453
 6529SOL    HW131049   3.900   1.976   3.241  1.1560  1.5247  1.1568
 6529SOL    HW231050   3.840   2.113   3.212 -1.7955  0.1881 -0.4785
 6530SOL     OW31051   4.020   2.961  11.925 -0.1179  0.3123 -0.0037
 6530SOL    HW131052   4.089   2.918  11.975 -0.1279 -1.5564 -1.6152
 6530SOL    HW231053   3.969   2.992  12.001 -0.5742  0.5508 -0.4050
 6531SOL     OW31054   2.230   0.754   1.373 -0.3415  0.3848 -0.7640
 6531SOL    HW131055   2.166   0.740   1.303 -1.2466  1.6540 -0.1892
 6531SOL    HW231056   2.213   0.676   1.426 -0.2575  3.2079  3.3935
 6532SOL     OW31057   3.131   1.946   7.154 -0.1442  0.2461 -0.2328
 6532SOL    HW131058   3.057   1.896   7.119 -0.3896 -1.2617  2.4979
 6532SOL    HW231059   3.210   1.895   7.139  0.6879  0.2064  4.4321
 6533SOL     OW31060   1.799   2.662   9.207 -0.5556 -0.5931  0.2911
 6533SOL    HW131061   1.749   2.580   9.209  0.8363 -1.5236 -2.2683
 6533SOL    HW231062   1.728   2.725   9.215 -1.5416 -2.0239  2.7893
 6534SOL     OW31063   3.001   1.752   3.569  0.0874 -0.4449  0.2466
 6534SOL    HW131064   3.016   1.845   3.585 -0.6526 -0.8421  3.1965
 6534SOL    HW231065   3.091   1.727   3.549 -0.3931 -0.3584 -2.0511
 6535SOL     OW31066   0.370   0.951  11.660 -0.3129 -0.2419 -0.1131
 6535SOL    HW131067   0.330   1.012  11.723  0.9548 -0.5134  0.9638
 6535SOL    HW231068   0.307   0.879  11.662 -1.7574  1.0137 -0.5091
 6536SOL     OW31069   4.339   2.816   9.517 -0.5090 -0.8777 -0.2495
 6536SOL    HW131070   4.396   2.860   9.580 -0.9148  0.5714 -0.8922
 6536SOL    HW231071   4.261   2.791   9.567  0.9069 -2.0228  1.3473
 6537SOL     OW31072   0.242   2.757   4.956  0.3246 -0.1205 -0.5379
 6537SOL    HW131073   0.334   2.729   4.957  0.9688  2.0853  1.5684
 6537SOL    HW231074   0.225   2.738   5.048 -3.5342 -0.3294 -1.3299
 6538SOL     OW31075   2.778   4.039   8.305  0.3205 -0.0960 -0.4414
 6538SOL    HW131076   2.836   4.017   8.378 -2.1061  0.1020  1.5474
 6538SOL    HW231077   2.754   3.951   8.277 -1.9791 -0.1806  1.7896
 6539SOL     OW31078   4.381   2.380   3.989  0.6177  0.6769 -0.2152
 6539SOL    HW131079   4.330   2.364   4.069 -2.2776  1.4692 -1.8949
 6539SOL    HW231080   4.385   2.292   3.951 -3.7980  0.0942  0.5679
 6540SOL     OW31081   1.154   1.314  10.146  0.1043 -0.3894 -0.5768
 6540SOL    HW131082   1.228   1.336  10.203 -2.0711  0.4829  1.9499
 6540SOL    HW231083   1.209   1.252  10.099 -0.2837 -0.2910 -1.1542
 6541SOL     OW31084   0.845   1.518   4.125 -0.2625 -0.5217  0.4100
 6541SOL    HW131085   0.890   1.433   4.132 -0.0979 -0.5192 -0.5916
 6541SOL    HW231086   0.833   1.522   4.030  0.8823 -0.5086  0.2649
 6542SOL     OW31087   3.984   2.148   7.646  0.1240  0.4687  0.5410
 6542SOL    HW131088   4.065   2.102   7.623 -1.1381 -1.8267  0.7030
 6542SOL    HW231089   3.946   2.151   7.559  0.7364  1.7795  0.3228
 6543SOL     OW31090   2.156   4.132   6.471 -0.2556 -0.0411  0.1514
 6543SOL    HW131091   2.099   4.101   6.401 -1.2210 -0.9840  1.3567
 6543SOL    HW231092   2.234   4.160   6.422 -0.0096 -0.8885  0.0504
 6544SOL     OW31093   4.666   3.808   8.800  0.1855  0.0900  0.2366
 6544SOL    HW131094   4.604   3.869   8.760 -1.6497 -2.3795 -0.7163
 6544SOL    HW231095   4.611   3.764   8.865  0.6491 -0.9981 -0.1065
 6545SOL     OW31096   2.647   3.849   4.073  0.2394  0.0841 -0.5089
 6545SOL    HW131097   2.621   3.867   4.164  0.3969  1.2543 -0.6999
 6545SOL    HW231098   2.567   3.817   4.030 -0.1794 -0.2374  0.5011
 6546SOL     OW31099   1.060   3.622   2.443  0.1273  0.2946  0.2896
 6546SOL    HW131100   1.099   3.699   2.485 -1.8288  1.7836 -0.6805
 6546SOL    HW231101   1.133   3.591   2.388 -2.7474 -0.8976 -2.8521
 6547SOL     OW31102   2.724   0.377   3.529 -0.1130  0.0975 -0.5392
 6547SOL    HW131103   2.787   0.417   3.468 -0.7812 -0.1691 -1.4137
 6547SOL    HW231104   2.786   0.316   3.571 -1.1338 -0.0057  0.7978
 6548SOL     OW31105   1.188   0.805   8.072  0.3684 -0.0834 -0.0054
 6548SOL    HW131106   1.122   0.872   8.090  1.0018 -0.0488  2.2358
 6548SOL    HW231107   1.209   0.826   7.981  1.2388 -1.4407 -0.1227
 6549SOL     OW31108   1.077   0.568  12.503 -0.3971  0.3451 -0.3652
 6549SOL    HW131109   1.026   0.611  12.572 -4.4862 -1.4059 -2.3113
 6549SOL    HW231110   1.158   0.618  12.497 -0.1637  0.0021 -0.0270
 6550SOL     OW31111   1.786   3.578   4.800 -0.2363  0.3475 -0.6315
 6550SOL    HW131112   1.817   3.655   4.848  0.4129 -0.8203  0.8005
 6550SOL    HW231113   1.704   3.560   4.846 -0.5895 -1.1349 -1.8493
 6551SOL     OW31114   3.151   1.222   9.573  0.1117  0.7595  0.7368
 6551SOL    HW131115   3.118   1.144   9.530 -1.4661  2.0796 -0.4260
 6551SOL    HW231116   3.168   1.285   9.503 -0.9404 -0.2690 -0.4283
 6552SOL     OW31117   3.022   0.452   4.076 -0.1740 -0.3972 -0.4174
 6552SOL    HW131118   3.036   0.444   3.982  2.1182  0.0844 -0.1153
 6552SOL    HW231119   3.091   0.389   4.098  0.3447 -0.2206 -1.5497
 6553SOL     OW31120   0.606   0.771  15.520 -0.2359 -0.0662 -0.2628
 6553SOL    HW131121   0.549   0.842  15.490  0.3406  0.6904  0.3965
 6553SOL    HW231122   0.537   0.705  15.514 -0.1115  0.0984 -3.4328
 6554SOL     OW31123   2.628   3.397   0.090  0.0030  0.2020  0.5529
 6554SOL    HW131124   2.630   3.312   0.046  0.3660  0.8711 -0.7142
 6554SOL    HW231125   2.644   3.360   0.177 -0.3814 -0.4780  0.3407
 6555SOL     OW31126   3.976   4.156   7.852  0.1856 -0.4555 -0.0643
 6555SOL    HW131127   4.026   4.194   7.780  0.9327  0.4221  0.9124
 6555SOL    HW231128   3.887   4.177   7.824 -0.0282  0.1189  1.0243
 6556SOL     OW31129   1.248   2.770  16.909 -0.5250 -0.1254 -0.2454
 6556SOL    HW131130   1.166   2.721  16.900 -0.7905  0.1970  0.4917
 6556SOL    HW231131   1.216   2.847  16.863 -0.0985  1.4258  2.1061
 6557SOL     OW31132   4.274   1.486   3.686 -0.1393 -0.0729  0.7199
 6557SOL    HW131133   4.300   1.395   3.700  1.4691  0.1040 -1.2045
 6557SOL    HW231134   4.235   1.507   3.771  0.7401  0.8180  0.8928
 6558SOL     OW31135   2.233   2.613  16.292  0.1557  0.1055 -0.3132
 6558SOL    HW131136   2.321   2.648  16.278  1.1881 -1.0699  3.3669
 6558SOL    HW231137   2.233   2.561  16.211  1.8404 -3.0515  1.7360
 6559SOL     OW31138   1.149   1.722  16.533  0.0116 -0.0559  0.2521
 6559SOL    HW131139   1.087   1.795  16.523  0.7027  0.3324 -1.3353
 6559SOL    HW231140   1.220   1.782  16.557  1.6827 -2.4806  1.3159
 6560SOL     OW31141   4.382   3.479   6.546  0.0644  0.1209  0.3601
 6560SOL    HW131142   4.327   3.469   6.469 -3.1231  0.2597  2.5863
 6560SOL    HW231143   4.412   3.568   6.527  3.1331 -0.5526  2.0811
 6561SOL     OW31144   4.161   0.013   3.591  0.3700  0.0866 -0.1518
 6561SOL    HW131145   4.222   0.071   3.545 -0.6604  0.9045 -0.4715
 6561SOL    HW231146   4.089   0.075   3.602  0.3594  0.0391  0.0496
 6562SOL     OW31147   3.814   2.950   1.415 -0.0186  0.4902  0.2728
 6562SOL    HW131148   3.743   3.009   1.439 -0.6029 -0.1776  0.1679
 6562SOL    HW231149   3.798   2.947   1.320 -0.4780  2.4155  0.2944
 6563SOL     OW31150   4.383   2.072  10.422  0.2543 -0.1595 -0.4885
 6563SOL    HW131151   4.373   2.146  10.481  2.3497 -0.0040 -0.3590
 6563SOL    HW231152   4.307   2.019  10.447  0.4973  1.2431  3.1733
 6564SOL     OW31153   0.217   4.424  12.982 -0.3332  0.7202  0.6646
 6564SOL    HW131154   0.271   4.347  12.966 -0.0135  0.6985  1.8815
 6564SOL    HW231155   0.173   4.394  13.062  0.1341 -1.1961  0.1949
 6565SOL     OW31156   4.368   3.061   3.836 -0.1983  0.0478  0.3128
 6565SOL    HW131157   4.312   3.031   3.765 -0.6253  1.0054  0.2403
 6565SOL    HW231158   4.305   3.069   3.908  0.5683 -0.5762  1.0510
 6566SOL     OW31159   4.406   2.769   1.092 -0.1085  0.5508  0.9291
 6566SOL    HW131160   4.337   2.745   1.155  1.3464 -4.3708  0.6040
 6566SOL    HW231161   4.478   2.729   1.141 -0.5516 -2.1018 -0.5791
 6567SOL     OW31162   1.700   0.457  12.609 -0.2449 -0.1976 -0.5439
 6567SOL    HW131163   1.731   0.435  12.521  2.6735 -0.4776  0.5465
 6567SOL    HW231164   1.715   0.371  12.648 -1.1687 -0.0726  0.0792
 6568SOL     OW31165   0.326   0.288   2.970  0.4167 -0.1944  0.3227
 6568SOL    HW131166   0.418   0.267   2.981  0.6041 -0.7532 -2.4163
 6568SOL    HW231167   0.353   0.379   2.956  0.7996 -0.4685 -0.7022
 6569SOL     OW31168   1.463   3.864  15.561 -0.0224  0.1283 -0.0401
 6569SOL    HW131169   1.480   3.869  15.467  0.7898 -2.4361 -0.0424
 6569SOL    HW231170   1.553   3.849  15.590 -0.0116 -0.6843 -0.4968
 6570SOL     OW31171   1.609   4.505   8.354  0.8877  0.4752  0.5261
 6570SOL    HW131172   1.546   4.569   8.389  1.0068  0.1873  1.2465
 6570SOL    HW231173   1.691   4.553   8.344  1.8471 -1.2285  0.3132
 6571SOL     OW31174   2.651   0.938   5.205 -0.3950  0.7468  0.4157
 6571SOL    HW131175   2.675   1.020   5.161 -0.3846  0.0875 -0.8149
 6571SOL    HW231176   2.671   0.879   5.132 -0.3195  0.8840  0.3257
 6572SOL     OW31177   3.092   4.376   7.646  0.0705 -0.0706  0.1010
 6572SOL    HW131178   3.145   4.307   7.606 -1.5145 -1.5320  0.5171
 6572SOL    HW231179   3.160   4.429   7.687 -0.4330  1.6030 -1.2293
 6573SOL     OW31180   0.149   4.381  14.551 -0.1134 -0.6178  0.1473
 6573SOL    HW131181   0.189   4.455  14.505 -0.2621 -0.0117  0.9792
 6573SOL    HW231182   0.060   4.392  14.517  0.5467 -1.4296 -1.8617
 6574SOL     OW31183   0.648   1.216   5.367 -0.0551 -0.9716  0.1491
 6574SOL    HW131184   0.636   1.158   5.292 -2.9456  1.2892 -1.1475
 6574SOL    HW231185   0.666   1.296   5.319 -0.0995  0.5663  2.6866
 6575SOL     OW31186   2.642   3.175   8.293 -0.6840  0.5337 -0.0855
 6575SOL    HW131187   2.562   3.133   8.326  1.0485 -1.9330  1.0047
 6575SOL    HW231188   2.656   3.237   8.365  1.0757 -0.8351  0.7670
 6576SOL     OW31189   0.949   1.036   5.841 -0.6611 -0.2061  0.6755
 6576SOL    HW131190   0.974   0.998   5.925 -1.7061 -0.4894  0.8633
 6576SOL    HW231191   1.033   1.028   5.797  0.1475 -2.6246  2.6988
 6577SOL     OW31192   3.099   3.222   4.919  0.3557  0.1772  0.5172
 6577SOL    HW131193   3.087   3.150   4.858  2.3395  0.0803  0.2401
 6577SOL    HW231194   3.016   3.269   4.920 -0.0504 -0.5491  0.1645
 6578SOL     OW31195   0.488   1.908   2.653 -0.2139  0.1924  0.3698
 6578SOL    HW131196   0.447   1.869   2.730 -0.7570 -0.7951 -0.4117
 6578SOL    HW231197   0.482   1.829   2.598  1.4573 -0.8591  1.6647
 6579SOL     OW31198   3.396   4.278  10.647  0.9538 -0.0495 -0.6067
 6579SOL    HW131199   3.338   4.300  10.574  2.7127  2.5009 -1.2505
 6579SOL    HW231200   3.407   4.183  10.644  2.3139  0.0543  1.0675
 6580SOL     OW31201   1.509   2.253   3.898  0.1573  0.1315  0.2825
 6580SOL    HW131202   1.506   2.169   3.852 -1.5980  0.4379 -0.1550
 6580SOL    HW231203   1.461   2.306   3.834 -0.1232 -1.9907 -1.2677
 6581SOL     OW31204   1.260   4.004  17.122 -0.2940 -0.5093 -0.4080
 6581SOL    HW131205   1.204   3.988  17.046 -0.1784  1.9897 -1.0115
 6581SOL    HW231206   1.293   4.090  17.096  0.2877 -0.5747  0.1285
 6582SOL     OW31207   2.603   1.718   1.622 -0.0848  0.6223 -0.2850
 6582SOL    HW131208   2.520   1.741   1.664 -0.1701 -2.2236  1.1168
 6582SOL    HW231209   2.664   1.720   1.696  0.5301 -1.3348 -0.7511
 6583SOL     OW31210   0.089   3.618   7.066 -0.2260 -0.6709  0.1123
 6583SOL    HW131211   0.042   3.666   7.134 -0.6643 -0.4420 -0.3482
 6583SOL    HW231212   0.093   3.691   7.004 -1.7688 -1.2038 -0.6009
 6584SOL     OW31213   2.788   4.201  16.221 -0.0138 -0.0625 -1.0977
 6584SOL    HW131214   2.858   4.265  16.210  0.5133 -0.4383 -0.0200
 6584SOL    HW231215   2.757   4.188  16.132 -1.2491  2.0330 -0.9969
 6585SOL     OW31216   0.622   3.660   8.051 -0.1037  0.2269 -0.0051
 6585SOL    HW131217   0.679   3.666   7.975  1.2836 -1.0717  0.9231
 6585SOL    HW231218   0.572   3.581   8.033 -1.0946  0.8548  0.0414
 6586SOL     OW31219   4.714   3.506  17.241  0.2078 -0.2830 -0.2273
 6586SOL    HW131220   4.662   3.440  17.287  0.9021 -0.5955  0.1021
 6586SOL    HW231221   4.724   3.563  17.318  1.5964 -0.2560 -0.4226
 6587SOL     OW31222   1.970   1.790  16.554  0.0378 -0.1319  0.0586
 6587SOL    HW131223   2.049   1.825  16.593 -0.4266  2.1223 -1.0317
 6587SOL    HW231224   1.950   1.735  16.630 -1.6296 -0.0679 -0.3313
 6588SOL     OW31225   1.505   1.245   3.880  0.0034  0.1781  0.1054
 6588SOL    HW131226   1.485   1.188   3.955  1.3312  0.8017  0.9305
 6588SOL    HW231227   1.506   1.327   3.929  2.2846  0.4906 -0.4624
 6589SOL     OW31228   1.528   1.495  13.121 -0.0647 -0.0751 -0.2609
 6589SOL    HW131229   1.517   1.538  13.036  1.1312  0.2363 -0.2541
 6589SOL    HW231230   1.451   1.526  13.168  0.5318  0.7420  0.1674
 6590SOL     OW31231   2.370   3.054   8.391 -0.0156 -0.1121  0.0972
 6590SOL    HW131232   2.280   3.084   8.379 -0.5012 -0.5485  2.7549
 6590SOL    HW231233   2.373   2.959   8.384  0.8101 -0.1627  1.0745
 6591SOL     OW31234   1.307   0.443  11.095  0.4962  0.6401  0.4941
 6591SOL    HW131235   1.251   0.401  11.161 -0.4324  2.5350  0.9246
 6591SOL    HW231236   1.377   0.474  11.153  0.0301  0.0092  1.3965
 6592SOL     OW31237   1.580   2.593  10.044 -0.1421 -0.3159  0.5288
 6592SOL    HW131238   1.628   2.543   9.979 -2.5343  0.1735 -1.6216
 6592SOL    HW231239   1.593   2.678  10.001 -1.5928 -1.2256 -1.7365
 6593SOL     OW31240   3.433   3.373   7.241 -0.4341 -0.6127 -0.5510
 6593SOL    HW131241   3.338   3.358   7.246 -0.1768 -2.4498 -1.2042
 6593SOL    HW231242   3.453   3.354   7.150  1.2643  0.6169 -0.4317
 6594SOL     OW31243   3.238   1.286  13.594 -0.8806 -0.0551 -0.2362
 6594SOL    HW131244   3.244   1.213  13.532  1.3828 -0.6266  0.6645
 6594SOL    HW231245   3.152   1.272  13.634 -0.1710 -1.5216  0.7927
 6595SOL     OW31246   0.899   0.395   5.002  0.3022 -0.1912 -0.7780
 6595SOL    HW131247   0.874   0.483   4.972  4.8218  0.9192 -1.2771
 6595SOL    HW231248   0.933   0.363   4.918 -1.5691  0.8549 -1.9376
 6596SOL     OW31249   2.660   0.693  17.483  0.2826  0.3787 -0.4321
 6596SOL    HW131250   2.633   0.743  17.559 -0.9931  0.3212 -0.8554
 6596SOL    HW231251   2.715   0.629  17.528 -2.0933 -2.3280 -1.3744
 6597SOL     OW31252   3.691   2.021   2.434 -0.6674  0.3496 -0.4486
 6597SOL    HW131253   3.764   2.067   2.476 -0.8533 -0.6176  0.9354
 6597SOL    HW231254   3.717   2.014   2.342 -1.2790 -2.1259 -0.4439
 6598SOL     OW31255   3.622   4.414  10.805  0.2896 -0.1708 -0.3677
 6598SOL    HW131256   3.604   4.479  10.873  1.0878 -1.0404  0.6790
 6598SOL    HW231257   3.534   4.385  10.783  1.0057 -1.5058 -1.4718
 6599SOL     OW31258   0.212   1.549   6.474  0.6219  0.2769 -0.1221
 6599SOL    HW131259   0.146   1.484   6.451 -0.2069  0.6294  1.2679
 6599SOL    HW231260   0.282   1.484   6.482 -0.4355 -0.8512 -0.1091
 6600SOL     OW31261   0.928   4.719   8.122  0.4773 -0.0624  0.1679
 6600SOL    HW131262   0.997   0.020   8.063 -0.2686 -0.7584 -1.0567
 6600SOL    HW231263   0.971   4.674   8.194  1.4686  0.0602 -0.3555
 6601SOL     OW31264   4.553   0.526  16.457  0.2920  0.6086 -0.5043
 6601SOL    HW131265   4.607   0.572  16.521 -1.3092  0.2536  1.1170
 6601SOL    HW231266   4.531   0.603  16.406 -1.2361  0.8995  0.5994
 6602SOL     OW31267   3.194   1.578   2.801 -0.0530 -0.1395 -0.1800
 6602SOL    HW131268   3.288   1.580   2.786 -0.5590  0.1606 -3.3666
 6602SOL    HW231269   3.176   1.484   2.788 -0.3981  0.0679 -1.2204
 6603SOL     OW31270   1.850   4.464  17.193  0.2311 -0.4743 -0.2532
 6603SOL    HW131271   1.774   4.420  17.156 -0.1594  2.3039 -2.8119
 6603SOL    HW231272   1.919   4.402  17.217  1.1458  0.3126 -0.8081
 6604SOL     OW31273   0.021   2.360   1.075 -0.0493 -0.0280  0.0068
 6604SOL    HW131274   4.696   2.290   1.039  0.8334  0.9583 -3.2638
 6604SOL    HW231275   4.719   2.433   1.021  1.7306  1.6030  1.1798
 6605SOL     OW31276   1.759   2.514   8.301  0.4141  0.2666 -0.2528
 6605SOL    HW131277   1.819   2.444   8.275 -0.8904 -2.1021  2.9949
 6605SOL    HW231278   1.672   2.476   8.283 -1.4291  3.8932  1.0516
 6606SOL     OW31279   3.730   4.207   5.947 -0.3771  0.7914  0.2583
 6606SOL    HW131280   3.749   4.254   5.866 -0.1504  0.0010 -0.1423
 6606SOL    HW231281   3.635   4.199   5.940 -0.4008  2.3394 -1.1881
 6607SOL     OW31282   1.316   4.331   3.581 -0.3675 -0.2449  0.1436
 6607SOL    HW131283   1.258   4.397   3.619  1.4342  1.5008 -0.1519
 6607SOL    HW231284   1.337   4.270   3.651  0.6530  0.9181  0.8463
 6608SOL     OW31285   1.593   0.734   1.147 -0.1308  0.1720 -0.0584
 6608SOL    HW131286   1.591   0.792   1.223 -0.2789 -0.7011  0.5961
 6608SOL    HW231287   1.611   0.652   1.193  1.8420  0.7907  0.3067
 6609SOL     OW31288   0.280   1.000  11.014  0.3932  0.0979  0.5933
 6609SOL    HW131289   0.234   0.917  10.999 -0.7567  0.9606 -0.7055
 6609SOL    HW231290   0.287   0.995  11.109 -1.2880 -0.6564  0.6737
 6610SOL     OW31291   0.250   0.551   7.709 -0.6051  0.4232 -0.2155
 6610SOL    HW131292   0.271   0.458   7.699  3.9909  1.2731  2.0130
 6610SOL    HW231293   0.164   0.559   7.666 -0.4547  2.2098 -0.1771
 6611SOL     OW31294   0.779   0.120   2.342  0.1770 -0.1732 -0.0645
 6611SOL    HW131295   0.850   0.063   2.371  0.5285 -0.7019 -1.9659
 6611SOL    HW231296   0.830   0.195   2.310 -0.1634  1.2006  2.6091
 6612SOL     OW31297   0.188   3.319   7.986  0.0696 -0.4670  0.3754
 6612SOL    HW131298   0.254   3.389   7.983  0.4715 -0.8093  1.1943
 6612SOL    HW231299   0.108   3.371   7.977 -0.6483 -1.8785 -1.4047
 6613SOL     OW31300   0.175   0.855   2.170  0.1591 -0.2225 -0.4498
 6613SOL    HW131301   0.147   0.784   2.228 -4.1065  0.8325 -1.1512
 6613SOL    HW231302   0.125   0.927   2.208  0.5862  0.2552 -0.7952
 6614SOL     OW31303   3.532   4.684   7.456  0.2948  0.0403  0.2730
 6614SOL    HW131304   3.552   4.704   7.365  0.1920 -0.0780  0.2236
 6614SOL    HW231305   3.566   0.037   7.491 -0.1777  1.3471 -2.3949
 6615SOL     OW31306   0.226   2.731   8.501  0.0142  0.9385  0.0185
 6615SOL    HW131307   0.274   2.716   8.582  2.3956 -0.1605 -1.6086
 6615SOL    HW231308   0.141   2.754   8.538 -1.4625 -0.1659 -2.6614
 6616SOL     OW31309   0.078   3.073   4.753  0.1920 -0.3487  0.6912
 6616SOL    HW131310   0.109   3.097   4.841 -1.3812 -0.4010  1.2632
 6616SOL    HW231311   0.000   3.026   4.784  0.2877 -0.2913  1.0210
 6617SOL     OW31312   2.320   3.694   5.959  0.0667 -0.0374  0.4907
 6617SOL    HW131313   2.254   3.709   6.027  0.2474  2.3318  0.1420
 6617SOL    HW231314   2.384   3.665   6.023 -0.3221  0.8443  1.2817
 6618SOL     OW31315   2.152   0.478   2.505  0.0628 -0.0004  0.2805
 6618SOL    HW131316   2.090   0.411   2.475  0.2945 -1.2105  2.5444
 6618SOL    HW231317   2.111   0.564   2.498 -1.8458 -0.8167  1.4550
 6619SOL     OW31318   0.649   2.403  15.809 -0.4320 -0.0169  0.3153
 6619SOL    HW131319   0.648   2.365  15.721  0.5478  1.6902 -0.4146
 6619SOL    HW231320   0.742   2.405  15.829  0.0354 -0.0110 -1.8793
 6620SOL     OW31321   4.104   1.368   9.015 -0.4908  0.4826 -0.4403
 6620SOL    HW131322   4.068   1.297   8.962 -0.3452 -1.2509  1.8021
 6620SOL    HW231323   4.197   1.346   9.023 -0.0242  2.7736  0.6366
 6621SOL     OW31324   1.971   3.831   5.262  0.0410 -0.3767 -0.8616
 6621SOL    HW131325   1.998   3.846   5.353  0.7893  0.7328 -1.2678
 6621SOL    HW231326   1.902   3.898   5.258  0.6709  0.3442  0.1680
 6622SOL     OW31327   0.058   1.028   5.978 -0.3997  0.2879 -0.0799
 6622SOL    HW131328   0.091   1.112   5.946  3.1201  0.3413  3.6692
 6622SOL    HW231329   0.110   1.011   6.056 -1.5997 -2.4695  0.1434
 6623SOL     OW31330   3.195   2.550   8.989  0.2007  0.2076  0.1586
 6623SOL    HW131331   3.257   2.605   9.036 -1.5180 -0.2891  3.0090
 6623SOL    HW231332   3.252   2.483   8.952  0.7971  1.2086 -0.7044
 6624SOL     OW31333   2.361   2.227   6.377  0.3395 -0.6363 -0.3595
 6624SOL    HW131334   2.368   2.291   6.448 -0.6634  0.8969 -1.6231
 6624SOL    HW231335   2.432   2.169   6.403  0.5322 -0.1669  0.1499
 6625SOL     OW31336   0.946   0.264   1.484  0.5979 -0.0915 -0.2236
 6625SOL    HW131337   0.912   0.176   1.503  3.2886 -1.4070 -1.5209
 6625SOL    HW231338   1.037   0.250   1.458  0.7152  0.2159  0.0292
 6626SOL     OW31339   0.209   2.661  10.953  0.4474  0.5082 -0.5210
 6626SOL    HW131340   0.126   2.660  10.906  1.8364 -1.5986 -2.8878
 6626SOL    HW231341   0.191   2.672  11.047  0.8318  1.3889 -0.5448
 6627SOL     OW31342   3.622   3.405  16.174  0.4053  0.0343 -0.3370
 6627SOL    HW131343   3.659   3.490  16.152 -1.9726  0.5260 -2.4516
 6627SOL    HW231344   3.651   3.403  16.265 -1.3690  2.6621  0.2700
 6628SOL     OW31345   1.414   2.793   1.997 -0.8459  0.1850 -0.4428
 6628SOL    HW131346   1.469   2.737   2.051  1.7733  0.2616 -3.0097
 6628SOL    HW231347   1.338   2.735   1.997  0.3447 -1.3742  0.1488
 6629SOL     OW31348   3.585   2.423   1.729  0.4440 -0.7712  0.1567
 6629SOL    HW131349   3.660   2.465   1.687  1.2150  0.1938  2.5308
 6629SOL    HW231350   3.514   2.415   1.664 -0.8725  2.5327  1.1706
 6630SOL     OW31351   2.693   3.188  16.661 -0.2477 -0.6107  0.1900
 6630SOL    HW131352   2.786   3.190  16.683 -0.2398  0.2127  0.1023
 6630SOL    HW231353   2.655   3.235  16.734  0.0854 -1.2540  0.7741
 6631SOL     OW31354   1.660   0.787   5.183  0.1377 -0.2274 -0.1452
 6631SOL    HW131355   1.659   0.692   5.176 -0.3865 -0.3005  0.8629
 6631SOL    HW231356   1.751   0.811   5.163  0.1140  0.9659  1.2049
 6632SOL     OW31357   1.674   4.445  15.010 -0.6260 -0.1985 -0.4771
 6632SOL    HW131358   1.725   4.386  14.955  1.7015  0.4045  1.0706
 6632SOL    HW231359   1.640   4.507  14.945  0.4028  0.9633  0.1175
 6633SOL     OW31360   0.288   0.279   1.385 -0.0184 -0.4034 -0.3496
 6633SOL    HW131361   0.213   0.313   1.335 -1.2233 -0.6363  1.2949
 6633SOL    HW231362   0.358   0.336   1.354 -1.1702  0.7555 -0.8328
 6634SOL     OW31363   0.214   4.220   2.091  0.3204 -0.7637 -0.5198
 6634SOL    HW131364   0.222   4.163   2.168 -2.1342 -2.9830 -1.9346
 6634SOL    HW231365   0.265   4.290   2.132  1.8919 -0.5618 -2.8176
 6635SOL     OW31366   0.800   4.309   7.405  0.0359  0.2313 -0.4541
 6635SOL    HW131367   0.893   4.322   7.389  0.3170  0.1010  0.9919
 6635SOL    HW231368   0.796   4.219   7.438  0.6468  0.7145  0.9748
 6636SOL     OW31369   1.933   2.109   4.561  0.1527 -0.5822  0.2199
 6636SOL    HW131370   2.021   2.078   4.582 -0.4901 -1.1130  2.1595
 6636SOL    HW231371   1.917   2.165   4.637  4.6955  0.4125  0.3988
 6637SOL     OW31372   1.482   2.566  11.654 -0.3550  0.3089  0.2509
 6637SOL    HW131373   1.412   2.506  11.631  0.4196 -0.4658 -0.0771
 6637SOL    HW231374   1.560   2.524  11.618  0.0009  0.8926  0.3327
 6638SOL     OW31375   0.499   4.681  14.166 -0.1745 -0.1154 -0.1574
 6638SOL    HW131376   0.532   0.039  14.147  0.3742 -0.1583  0.5730
 6638SOL    HW231377   0.440   4.658  14.094  0.5690  0.1686 -0.8560
 6639SOL     OW31378   0.306   4.403   2.321  0.0789  0.2698  0.1145
 6639SOL    HW131379   0.360   4.347   2.377  0.2612  3.1304  2.8043
 6639SOL    HW231380   0.217   4.379   2.345  0.6427 -1.5351  0.3499
 6640SOL     OW31381   2.129   4.249   0.679  0.1183 -0.3367 -0.5468
 6640SOL    HW131382   2.216   4.257   0.719  0.7659 -2.8479 -1.4832
 6640SOL    HW231383   2.118   4.337   0.642  1.1748  0.1975  0.3879
 6641SOL     OW31384   1.522   1.960   5.463  0.6724  0.0476 -0.3737
 6641SOL    HW131385   1.518   1.998   5.375 -0.1126 -1.6349 -1.0638
 6641SOL    HW231386   1.434   1.985   5.492  0.7484  1.6055 -1.5377
 6642SOL     OW31387   4.219   1.222   6.576  1.0567  0.2478 -0.0875
 6642SOL    HW131388   4.282   1.211   6.505  0.5854 -0.6661 -0.3658
 6642SOL    HW231389   4.207   1.317   6.579 -0.3518  0.0647  0.0288
 6643SOL     OW31390   3.294   3.020   5.354  0.0214  0.1632  0.2320
 6643SOL    HW131391   3.219   3.048   5.302 -0.8258  0.4130  1.5883
 6643SOL    HW231392   3.248   2.970   5.421  1.5269  0.4138  1.4544
 6644SOL     OW31393   1.479   3.953  10.017  0.1979 -0.0808  0.0803
 6644SOL    HW131394   1.550   3.957   9.953  0.6873 -0.9633  0.5812
 6644SOL    HW231395   1.415   4.012   9.976  0.1928 -1.1571 -1.4545
 6645SOL     OW31396   0.446   0.964   8.885  0.0628  1.0457 -0.0072
 6645SOL    HW131397   0.492   1.025   8.943 -0.9690  2.3573 -0.5716
 6645SOL    HW231398   0.472   0.880   8.923  0.1795  1.3065  0.4903
 6646SOL     OW31399   3.406   3.902   6.565 -0.0307 -0.2967  0.5260
 6646SOL    HW131400   3.348   3.978   6.563 -0.4481 -0.6271  0.1562
 6646SOL    HW231401   3.428   3.903   6.658  3.0475  0.4812 -0.2285
 6647SOL     OW31402   3.005   4.070   7.111  0.0766  0.5378  0.2297
 6647SOL    HW131403   3.024   4.137   7.177  1.7845 -0.4394  0.7214
 6647SOL    HW231404   2.910   4.060   7.124  0.2382  0.8986  1.7179
 6648SOL     OW31405   0.522   1.609   1.873  0.5958  0.0997  0.5210
 6648SOL    HW131406   0.441   1.630   1.920  0.6682 -0.0764  0.7245
 6648SOL    HW231407   0.535   1.680   1.810  1.2301 -0.1630  0.3536
 6649SOL     OW31408   2.626   4.569   4.423 -0.6564 -0.1003 -0.0965
 6649SOL    HW131409   2.646   4.497   4.362 -0.4582  0.1411 -0.3149
 6649SOL    HW231410   2.558   4.522   4.471 -1.8385  0.6706 -1.0172
 6650SOL     OW31411   2.490   2.730   6.717 -0.3295  0.1081 -0.0975
 6650SOL    HW131412   2.450   2.698   6.636  0.1396  1.0650 -0.6915
 6650SOL    HW231413   2.580   2.745   6.690  0.4938 -1.7886  1.6013
 6651SOL     OW31414   1.515   1.482  13.700  0.7572 -0.4699 -0.3249
 6651SOL    HW131415   1.548   1.571  13.712  0.5781 -0.7462  2.3062
 6651SOL    HW231416   1.576   1.456  13.632  2.0929 -0.5993  0.9363
 6652SOL     OW31417   0.758   1.004   3.578  0.2593  0.1232 -0.5384
 6652SOL    HW131418   0.812   0.951   3.519  2.1916  0.0330  1.3026
 6652SOL    HW231419   0.691   0.944   3.610  0.9640  0.1346  0.9664
 6653SOL     OW31420   2.324   0.625  17.637  0.5887  0.3676 -0.8524
 6653SOL    HW131421   2.357   0.563  17.703  1.3123 -0.9919 -2.4809
 6653SOL    HW231422   2.358   0.704  17.677 -0.5447  0.1586  0.5146
 6654SOL     OW31423   3.898   2.267   1.576 -0.6973 -0.4221 -0.0416
 6654SOL    HW131424   3.893   2.309   1.490 -2.4664 -0.1108  0.2120
 6654SOL    HW231425   3.982   2.299   1.609 -0.4492 -0.4238 -0.6687
 6655SOL     OW31426   4.037   0.993   8.192  0.3333 -1.0545  0.1729
 6655SOL    HW131427   4.032   0.924   8.259  0.2915 -0.8201  0.4109
 6655SOL    HW231428   3.999   1.067   8.239  1.2246 -0.4105 -0.1152
 6656SOL     OW31429   0.860   1.689  15.134  0.0208 -0.0321 -0.4700
 6656SOL    HW131430   0.818   1.725  15.212 -1.3985  0.1369 -1.3199
 6656SOL    HW231431   0.935   1.746  15.118  0.8089 -0.5325  1.3934
 6657SOL     OW31432   2.376   2.717   8.973  0.0741 -0.1490  0.4902
 6657SOL    HW131433   2.406   2.735   8.884 -0.1030 -0.2309  0.4156
 6657SOL    HW231434   2.454   2.677   9.011 -0.1313 -0.3587  0.6854
 6658SOL     OW31435   4.528   1.170  13.573 -0.6456 -0.0010  0.1370
 6658SOL    HW131436   4.507   1.077  13.571  2.0452 -0.6187  0.7413
 6658SOL    HW231437   4.507   1.194  13.664 -0.3669 -0.8971  0.4358
 6659SOL     OW31438   0.425   3.578   2.255 -0.2437  0.1396 -0.3687
 6659SOL    HW131439   0.503   3.586   2.200 -0.4042  0.6406 -0.5287
 6659SOL    HW231440   0.366   3.544   2.189  0.7013 -0.6220 -0.8164
 6660SOL     OW31441   4.210   4.480   9.073 -0.5461  0.0407  0.6067
 6660SOL    HW131442   4.299   4.450   9.054 -1.1766  0.6005 -3.2475
 6660SOL    HW231443   4.166   4.395   9.070 -1.5283  0.6025 -0.4351
 6661SOL     OW31444   2.026   4.217   9.715  0.8182  0.0811 -0.3319
 6661SOL    HW131445   2.024   4.269   9.796  0.8896 -0.6310  0.1296
 6661SOL    HW231446   2.119   4.200   9.702  1.1362  0.1121  1.9494
 6662SOL     OW31447   2.808   0.112  14.196  0.3391  0.2344 -0.6453
 6662SOL    HW131448   2.787   0.204  14.178 -2.4357 -0.0456  1.0543
 6662SOL    HW231449   2.882   0.128  14.253  0.7797  0.1816 -1.2013
 6663SOL     OW31450   2.581   0.382   9.526  0.6263  0.6008  0.1610
 6663SOL    HW131451   2.646   0.315   9.546  1.0375  0.7268 -0.7855
 6663SOL    HW231452   2.499   0.342   9.555  0.9144 -0.1120 -0.0098
 6664SOL     OW31453   2.087   0.960   3.548 -0.4357  0.2667 -0.4451
 6664SOL    HW131454   2.119   1.050   3.551 -0.3439  0.2378 -0.5651
 6664SOL    HW231455   2.131   0.928   3.469  0.1185 -0.6314  0.2336
 6665SOL     OW31456   1.962   2.116   7.195  0.1675 -0.1706 -0.1988
 6665SOL    HW131457   2.036   2.161   7.236 -0.0326  1.0129 -1.1572
 6665SOL    HW231458   1.900   2.111   7.268  1.4353 -1.0534  0.8267
 6666SOL     OW31459   3.051   3.386  12.863 -0.1152  0.0250  0.1379
 6666SOL    HW131460   3.006   3.304  12.844  0.2586 -0.4157  1.1639
 6666SOL    HW231461   3.133   3.393  12.815  0.8354  1.8820  2.0077
 6667SOL     OW31462   1.173   1.030   8.412 -0.6156  0.1178 -0.6266
 6667SOL    HW131463   1.135   0.998   8.330 -2.4527 -0.4556  0.4446
 6667SOL    HW231464   1.092   1.050   8.458  0.5144  3.6389 -0.1896
 6668SOL     OW31465   4.006   0.147   3.232 -0.4248 -0.5535 -0.0750
 6668SOL    HW131466   3.962   0.080   3.285 -1.0800  0.2175  0.3600
 6668SOL    HW231467   4.082   0.098   3.201  0.6557  3.5328 -3.9853
 6669SOL     OW31468   0.305   1.488   4.314 -0.4194 -0.2032 -0.4683
 6669SOL    HW131469   0.390   1.461   4.350  0.7322 -0.3426 -3.2828
 6669SOL    HW231470   0.314   1.582   4.332 -0.0879 -0.2682 -0.2879
 6670SOL     OW31471   2.983   2.361   1.245  1.2098  0.3601  0.0121
 6670SOL    HW131472   2.925   2.306   1.193  2.3716 -0.0131 -0.8822
 6670SOL    HW231473   2.921   2.419   1.289  1.1690  0.6786 -0.4605
 6671SOL     OW31474   1.948   1.188   4.674  0.0601 -0.0681  0.2022
 6671SOL    HW131475   2.032   1.143   4.668  1.1860  2.4124 -2.8808
 6671SOL    HW231476   1.949   1.191   4.769 -1.3640 -0.7343  0.2433
 6672SOL     OW31477   2.717   3.915   5.620  0.0420 -0.4168 -0.2686
 6672SOL    HW131478   2.654   3.964   5.568 -0.0112 -0.2579 -0.0517
 6672SOL    HW231479   2.651   3.869   5.672  0.3052  0.1385  0.5706
 6673SOL     OW31480   3.870   0.336   4.835 -0.3575 -1.0874 -0.3238
 6673SOL    HW131481   3.907   0.371   4.754 -2.7756  0.8652 -0.5807
 6673SOL    HW231482   3.833   0.409   4.885 -1.9085 -1.0062 -1.5552
 6674SOL     OW31483   2.374   4.681   3.752  0.1138  0.0776 -0.2746
 6674SOL    HW131484   2.305   4.624   3.717  0.3208  0.2349 -0.9350
 6674SOL    HW231485   2.441   4.615   3.771 -1.6225 -0.9107  2.4480
 6675SOL     OW31486   0.073   3.059   8.587  0.1362  0.2653 -0.2284
 6675SOL    HW131487   0.071   3.085   8.495  1.6543  2.9719  0.5048
 6675SOL    HW231488   0.044   3.142   8.626  0.4481  0.5701 -0.6501
 6676SOL     OW31489   3.140   2.102   3.091 -0.5767 -0.2376  0.2003
 6676SOL    HW131490   3.179   2.026   3.047  1.0172  0.3931  0.5423
 6676SOL    HW231491   3.051   2.088   3.058 -0.2997 -0.3042 -0.5238
 6677SOL     OW31492   3.520   1.505   0.519 -0.1253 -0.1609  0.5433
 6677SOL    HW131493   3.583   1.493   0.447 -0.2603  0.1494  0.3755
 6677SOL    HW231494   3.437   1.489   0.474  0.0836  1.7659 -0.5202
 6678SOL     OW31495   0.868   3.833  17.205  0.2762  0.0548  0.1354
 6678SOL    HW131496   0.863   3.919  17.164 -0.2590  0.1245  0.3438
 6678SOL    HW231497   0.903   3.861  17.290 -1.4394 -1.9925  1.5220
 6679SOL     OW31498   1.257   2.707   5.735  0.1149  0.3386  0.3871
 6679SOL    HW131499   1.316   2.690   5.809 -0.3015  0.6110  0.7825
 6679SOL    HW231500   1.254   2.802   5.746  2.4676  0.3340  1.1035
 6680SOL     OW31501   3.646   3.213  12.779 -0.3459 -0.2591  0.0401
 6680SOL    HW131502   3.652   3.186  12.687  0.0690  1.0887 -0.3266
 6680SOL    HW231503   3.700   3.292  12.785  1.3564 -1.5374  1.5156
 6681SOL     OW31504   1.999   1.061   8.056  0.1149 -0.7576  0.5445
 6681SOL    HW131505   1.988   1.044   7.962 -0.7018  0.1156  0.4783
 6681SOL    HW231506   2.073   1.010   8.088  1.0771  1.5694  2.0522
 6682SOL     OW31507   3.311   2.561  16.789 -0.3080  0.6931  0.3541
 6682SOL    HW131508   3.329   2.476  16.749  0.7722 -0.2715  2.8533
 6682SOL    HW231509   3.275   2.536  16.874  1.2429  0.2108  0.8689
 6683SOL     OW31510   3.709   1.382   9.413  0.0888 -0.3196 -0.2800
 6683SOL    HW131511   3.785   1.397   9.470  0.3996 -2.1616 -0.2068
 6683SOL    HW231512   3.696   1.470   9.377 -3.0222 -0.6422  0.1105
 6684SOL     OW31513   2.208   1.691   7.992 -0.6279  0.0546  0.5610
 6684SOL    HW131514   2.151   1.649   7.928  3.5419 -1.0909 -2.3699
 6684SOL    HW231515   2.202   1.631   8.067 -1.6624 -1.0021 -0.3597
 6685SOL     OW31516   2.927   1.336   3.921  0.1779  0.0824  1.0460
 6685SOL    HW131517   2.921   1.403   3.853 -0.2607 -1.1976 -0.1833
 6685SOL    HW231518   2.836   1.306   3.926 -0.0673  0.5922 -0.3102
 6686SOL     OW31519   1.833   1.736   5.487  0.3969 -0.3338 -0.0776
 6686SOL    HW131520   1.848   1.821   5.528 -1.4700 -0.3738  0.6660
 6686SOL    HW231521   1.910   1.684   5.511  1.6100  0.7654 -1.5522
 6687SOL     OW31522   3.280   3.557   5.589 -0.0148 -0.3886  0.0675
 6687SOL    HW131523   3.205   3.513   5.549 -0.9121  1.2826 -0.1088
 6687SOL    HW231524   3.241   3.639   5.620 -0.9707  0.0485 -2.2688
 6688SOL     OW31525   1.639   3.298   3.088 -0.4844 -0.1346 -0.1417
 6688SOL    HW131526   1.688   3.364   3.137 -0.5676  0.6442 -1.1003
 6688SOL    HW231527   1.561   3.352   3.076  0.6275  1.2279 -1.2418
 6689SOL     OW31528   2.686   0.900   8.938 -0.2372 -0.2539 -0.6226
 6689SOL    HW131529   2.625   0.850   8.992 -0.2148 -0.0254 -0.3867
 6689SOL    HW231530   2.628   0.936   8.871 -1.9911 -0.0959  0.9780
 6690SOL     OW31531   2.742   1.211  10.234  0.0184 -0.2357 -0.7408
 6690SOL    HW131532   2.822   1.237  10.280 -1.2624 -1.5514  2.2465
 6690SOL    HW231533   2.730   1.279  10.168  0.1623 -1.1268 -1.6686
 6691SOL     OW31534   0.174   0.945   5.147  0.3916  0.0942  0.2252
 6691SOL    HW131535   0.086   0.934   5.112  1.1206  1.3820 -1.9990
 6691SOL    HW231536   0.206   0.856   5.134 -2.8675 -1.0974  0.4339
 6692SOL     OW31537   2.609   1.021   4.145 -0.3505 -0.2041 -0.3978
 6692SOL    HW131538   2.678   1.028   4.079  0.1351  0.8580  0.2347
 6692SOL    HW231539   2.543   0.966   4.101 -0.1832 -0.9367  0.2563
 6693SOL     OW31540   3.412   1.588   8.770 -0.4955  0.2021 -0.0716
 6693SOL    HW131541   3.317   1.579   8.768 -0.4245 -0.2609 -1.1795
 6693SOL    HW231542   3.423   1.609   8.677  0.1885  0.8684  0.1597
 6694SOL     OW31543   1.690   2.703   1.391 -0.1379  0.1563 -0.3274
 6694SOL    HW131544   1.616   2.762   1.407  0.7480  0.7167  1.7248
 6694SOL    HW231545   1.639   2.622   1.384  0.8115 -0.5130  0.4646
 6695SOL     OW31546   4.381   1.971   9.309  0.4730 -0.0711  0.1545
 6695SOL    HW131547   4.449   1.904   9.300 -0.1052 -0.6489  0.0688
 6695SOL    HW231548   4.419   2.053   9.275  0.9428 -0.9698 -1.5208
 6696SOL     OW31549   4.360   2.472   8.527 -0.1154  0.1839  0.0312
 6696SOL    HW131550   4.442   2.506   8.492 -0.4166  1.1902  0.2968
 6696SOL    HW231551   4.369   2.467   8.622  2.2161 -0.6596 -0.2442
 6697SOL     OW31552   0.680   4.469   7.605  0.3161  0.6619  0.5022
 6697SOL    HW131553   0.687   4.415   7.526  3.5881 -1.5802  2.3192
 6697SOL    HW231554   0.701   4.395   7.662 -0.1138 -0.0891 -0.3221
 6698SOL     OW31555   0.384   0.553   5.749 -0.0204  0.0619  0.1069
 6698SOL    HW131556   0.310   0.576   5.693 -0.4463 -1.2880  0.1227
 6698SOL    HW231557   0.403   0.465   5.717  0.0441 -1.0652  3.3421
 6699SOL     OW31558   2.701   1.626   1.175 -0.4660  0.0189 -0.3104
 6699SOL    HW131559   2.619   1.612   1.128 -0.8388 -0.3184  0.4458
 6699SOL    HW231560   2.703   1.537   1.210  4.7410  0.4100  0.4362
 6700SOL     OW31561   3.585   1.553   6.290 -0.3243  0.9602  0.3819
 6700SOL    HW131562   3.507   1.544   6.235  0.2692 -0.1991 -0.2611
 6700SOL    HW231563   3.581   1.649   6.297 -0.3883  0.9609  0.3317
 6701SOL     OW31564   1.897   2.775   8.815  0.4035 -0.1076  0.7871
 6701SOL    HW131565   1.857   2.855   8.851 -0.3963 -0.5513  0.8827
 6701SOL    HW231566   1.853   2.751   8.734  2.1299 -0.4441 -0.0625
 6702SOL     OW31567   0.570   2.089   1.781  0.6318  0.3436  0.1847
 6702SOL    HW131568   0.545   2.174   1.746 -2.3038  0.6496  3.0382
 6702SOL    HW231569   0.552   2.105   1.873 -1.4982 -0.9345  0.0019
 6703SOL     OW31570   1.424   2.624   0.921 -0.1176  0.0860 -0.2767
 6703SOL    HW131571   1.457   2.657   0.837 -0.7611 -0.6563 -0.8278
 6703SOL    HW231572   1.437   2.535   0.887 -0.8535 -0.6530  1.3713
 6704SOL     OW31573   3.216   3.329  13.470 -0.2616 -0.5779  0.0337
 6704SOL    HW131574   3.274   3.287  13.534  0.3925 -1.3458 -1.0630
 6704SOL    HW231575   3.166   3.253  13.443  0.3966 -1.0357  0.0968
 6705SOL     OW31576   2.234   0.435   7.915 -0.7376  0.0527  0.4638
 6705SOL    HW131577   2.145   0.412   7.940 -0.1803 -2.4287  0.2046
 6705SOL    HW231578   2.219   0.438   7.820 -1.5929  2.5616  0.6705
 6706SOL     OW31579   4.155   2.411   1.979  0.8201  0.0909 -0.2298
 6706SOL    HW131580   4.244   2.414   2.015 -0.0409 -0.5649  1.9883
 6706SOL    HW231581   4.147   2.320   1.952  1.2632  0.1829 -0.6632
 6707SOL     OW31582   4.077   3.837   6.648 -0.3274  0.3548  0.3957
 6707SOL    HW131583   4.125   3.908   6.605 -0.6060  0.0343 -0.4533
 6707SOL    HW231584   4.146   3.778   6.680 -0.7095  0.1499  0.8341
 6708SOL     OW31585   1.268   4.231   7.284 -0.3041 -0.3760  0.5621
 6708SOL    HW131586   1.323   4.307   7.269  1.5073 -1.3553  2.2659
 6708SOL    HW231587   1.319   4.186   7.352  0.3064  0.7684  0.8459
 6709SOL     OW31588   0.620   1.306   6.365 -0.6165  0.3218 -0.4855
 6709SOL    HW131589   0.648   1.359   6.439 -1.1276  0.5479 -0.4566
 6709SOL    HW231590   0.557   1.359   6.317 -1.7304  1.2981  2.0454
 6710SOL     OW31591   0.609   2.011   5.750  0.8400 -0.0394 -0.4510
 6710SOL    HW131592   0.670   1.982   5.818 -1.4592  0.4380  1.8094
 6710SOL    HW231593   0.675   2.051   5.693  1.7591 -0.6675  0.1848
 6711SOL     OW31594   0.781   4.699   6.003  0.2065 -0.2640  0.1252
 6711SOL    HW131595   0.768   4.695   6.098  1.0753  0.5856  0.2847
 6711SOL    HW231596   0.831   0.052   5.995 -1.3780  0.7794  0.9125
 6712SOL     OW31597   2.778   3.172   4.237 -0.2278  0.1383  0.0508
 6712SOL    HW131598   2.709   3.199   4.176 -1.8124 -1.0938  1.3256
 6712SOL    HW231599   2.791   3.085   4.199 -0.1622 -0.6264  1.8441
 6713SOL     OW31600   2.749   3.731   8.644  0.0206  0.4988 -0.2462
 6713SOL    HW131601   2.658   3.713   8.620 -0.8916  0.4295  3.3824
 6713SOL    HW231602   2.800   3.656   8.614 -0.3497  1.1522 -2.5351
 6714SOL     OW31603   3.172   4.153   5.864  0.5299  0.0800  0.0944
 6714SOL    HW131604   3.092   4.122   5.821 -1.2191  2.5325  1.5475
 6714SOL    HW231605   3.128   4.224   5.912  1.2689  0.3703  0.3410
 6715SOL     OW31606   0.525   3.315   6.115  0.5407  0.3542  0.1129
 6715SOL    HW131607   0.474   3.306   6.195 -1.1955 -0.9815 -1.1524
 6715SOL    HW231608   0.453   3.332   6.054  0.6431  0.6214  0.0690
 6716SOL     OW31609   2.242   4.040  14.982 -0.2744 -0.4678 -0.1883
 6716SOL    HW131610   2.298   4.078  14.915 -1.0452 -0.2574 -0.7195
 6716SOL    HW231611   2.234   3.952  14.946  2.8606 -1.0578  0.5921
 6717SOL     OW31612   3.433   1.634   9.523  0.2218  0.2211  0.2104
 6717SOL    HW131613   3.529   1.632   9.526  0.2656  0.9768 -0.8767
 6717SOL    HW231614   3.419   1.557   9.579  0.5935 -1.1467 -1.5620
 6718SOL     OW31615   1.449   1.576   8.937  0.3162  0.0422 -0.1513
 6718SOL    HW131616   1.512   1.642   8.908  1.4592 -0.5184  1.0289
 6718SOL    HW231617   1.468   1.516   8.866 -0.6650  0.4727 -0.7756
 6719SOL     OW31618   3.416   3.039  12.152  0.8990  0.5381  0.0067
 6719SOL    HW131619   3.458   3.026  12.237  0.8071 -0.5796 -0.1140
 6719SOL    HW231620   3.477   3.086  12.095 -0.5204  1.9244 -0.3601
 6720SOL     OW31621   0.160   3.889  15.603  0.5127 -0.2888 -0.3192
 6720SOL    HW131622   0.123   3.804  15.628 -1.9696  0.5920 -1.0257
 6720SOL    HW231623   0.218   3.857  15.534  2.2864  1.9242  0.1638
 6721SOL     OW31624   0.287   0.396   1.976  0.0546  0.2602 -0.0637
 6721SOL    HW131625   0.333   0.478   1.996  1.2318 -0.1082 -1.2392
 6721SOL    HW231626   0.199   0.432   1.969  0.4883  0.9478 -2.0764
 6722SOL     OW31627   4.548   2.470   5.355  0.0818  0.5257  0.5759
 6722SOL    HW131628   4.490   2.394   5.357  2.2921 -1.1084  1.8994
 6722SOL    HW231629   4.623   2.442   5.406  1.8858  2.2461 -1.1349
 6723SOL     OW31630   3.192   2.162   6.993 -0.2621  0.3439  0.1552
 6723SOL    HW131631   3.179   2.094   7.059  3.3479  0.6334  1.1578
 6723SOL    HW231632   3.287   2.151   6.987 -0.3127  0.1399 -0.2685
 6724SOL     OW31633   1.766   0.909  10.442 -0.2777 -0.3904 -0.0325
 6724SOL    HW131634   1.796   0.834  10.390 -1.2294 -0.6971 -0.1392
 6724SOL    HW231635   1.765   0.984  10.383  2.2159 -0.6728 -0.4287
 6725SOL     OW31636   1.121   3.717  17.157 -0.3902 -0.2883 -0.4903
 6725SOL    HW131637   1.093   3.683  17.072 -2.1900 -1.9993  0.7893
 6725SOL    HW231638   1.038   3.739  17.199 -1.5050 -1.6554 -1.9458
 6726SOL     OW31639   0.230   0.946   7.546 -0.1620 -0.2182 -0.2852
 6726SOL    HW131640   0.158   0.913   7.601  0.9952 -0.7755  0.8902
 6726SOL    HW231641   0.263   1.017   7.600 -2.5533 -0.4375  1.4577
 6727SOL     OW31642   0.825   1.800   5.616  0.0730  0.0607 -0.3543
 6727SOL    HW131643   0.832   1.896   5.611 -0.4393  0.2049  1.8396
 6727SOL    HW231644   0.910   1.773   5.651 -0.7379 -2.0203 -0.0366
 6728SOL     OW31645   2.496   1.029   4.393  0.4694 -0.3033 -0.2540
 6728SOL    HW131646   2.528   1.055   4.307  0.9102 -1.9186 -0.5847
 6728SOL    HW231647   2.426   0.967   4.371 -0.4240  0.6782 -0.2304
 6729SOL     OW31648   4.676   4.624   1.523  0.9160 -0.0835 -0.0507
 6729SOL    HW131649   4.725   4.655   1.446 -1.5549  0.7186 -1.2991
 6729SOL    HW231650   4.618   4.698   1.540 -2.1479 -2.4466 -0.2454
 6730SOL     OW31651   0.203   3.443   3.506 -0.6940 -0.2252  0.5292
 6730SOL    HW131652   0.157   3.415   3.427 -0.1853 -1.1816  0.5715
 6730SOL    HW231653   0.163   3.384   3.570  0.8166 -1.8269 -0.0236
 6731SOL     OW31654   3.368   0.220   3.842 -0.3576 -0.2861  0.6914
 6731SOL    HW131655   3.369   0.263   3.757 -0.9229 -1.4228  0.1063
 6731SOL    HW231656   3.365   0.294   3.902  2.8655  0.8954 -0.6113
 6732SOL     OW31657   2.321   3.034   6.617  0.3926  0.7192  0.2049
 6732SOL    HW131658   2.336   3.020   6.524  2.7326  0.8050  0.5776
 6732SOL    HW231659   2.355   3.123   6.624 -2.8687  2.0190 -0.6080
 6733SOL     OW31660   4.147   0.953   9.341 -0.4309 -0.6065 -0.1963
 6733SOL    HW131661   4.218   0.894   9.367 -0.8310 -1.0864 -0.1848
 6733SOL    HW231662   4.181   1.032   9.383  0.2245 -0.7322 -0.4900
 6734SOL     OW31663   3.566   1.355  13.116 -0.3141  0.2152 -0.3368
 6734SOL    HW131664   3.510   1.429  13.139 -0.4043  0.2793 -0.7739
 6734SOL    HW231665   3.632   1.398  13.062 -0.6786  0.1296 -0.8395
 6735SOL     OW31666   0.939   3.971   2.893  0.2730  0.4855 -0.0946
 6735SOL    HW131667   0.958   3.880   2.916  2.1314  0.3745 -2.0462
 6735SOL    HW231668   0.873   3.958   2.825 -1.4994  0.6018  1.6178
 6736SOL     OW31669   1.642   4.267   1.644  0.4157  0.2738 -0.4231
 6736SOL    HW131670   1.692   4.312   1.577 -0.3813 -0.3751 -1.4558
 6736SOL    HW231671   1.679   4.179   1.658 -0.3119 -0.2167 -1.5815
 6737SOL     OW31672   1.201   4.173  12.005  0.3036  0.3546 -0.2642
 6737SOL    HW131673   1.261   4.100  12.020 -0.6238  0.0671  1.8775
 6737SOL    HW231674   1.238   4.201  11.921  0.9193  0.0259 -0.1092
 6738SOL     OW31675   0.571   0.561   5.490  0.4192  0.2862 -0.2921
 6738SOL    HW131676   0.487   0.563   5.443  1.5666 -2.3598 -2.4425
 6738SOL    HW231677   0.566   0.650   5.523 -1.9409  0.4977 -1.1846
 6739SOL     OW31678   4.521   0.571   2.479 -0.6138  0.0797 -0.4297
 6739SOL    HW131679   4.527   0.475   2.486 -2.0203 -0.1375 -2.2057
 6739SOL    HW231680   4.429   0.580   2.503  0.1049 -0.3072  2.4416
 6740SOL     OW31681   2.552   1.527   7.874  0.1606  0.2878 -0.4153
 6740SOL    HW131682   2.585   1.565   7.955  2.0468 -0.2577 -0.9333
 6740SOL    HW231683   2.561   1.604   7.817  0.0465  2.1910  2.1166
 6741SOL     OW31684   3.903   4.085   4.077  0.6265  0.1704  0.2001
 6741SOL    HW131685   3.823   4.049   4.039  0.9811  1.2597 -1.6002
 6741SOL    HW231686   3.904   4.050   4.166 -2.0427  1.0245  0.5452
 6742SOL     OW31687   1.473   4.128  13.325  0.3983  0.1782 -0.4501
 6742SOL    HW131688   1.462   4.221  13.342  2.1966  0.3491 -0.1523
 6742SOL    HW231689   1.464   4.096  13.414 -0.5167 -0.6887 -0.8508
 6743SOL     OW31690   2.443   3.435  13.658 -0.2672 -0.1245  0.9425
 6743SOL    HW131691   2.487   3.359  13.620  1.1083  0.1829  1.9252
 6743SOL    HW231692   2.387   3.388  13.720  1.7259 -0.9840  2.1041
 6744SOL     OW31693   3.765   2.668   4.517 -0.7920  0.1752  0.1617
 6744SOL    HW131694   3.682   2.631   4.487 -1.3669  0.5673  1.2574
 6744SOL    HW231695   3.755   2.751   4.471 -1.6023  0.8779  1.5763
 6745SOL     OW31696   1.378   0.035   8.026  0.5328 -0.0252 -0.3494
 6745SOL    HW131697   1.410   0.003   7.942  1.6707  0.2059 -0.0132
 6745SOL    HW231698   1.432   0.113   8.041 -1.4948  1.4430 -0.7236
 6746SOL     OW31699   3.810   2.286   3.219 -0.2787  0.0852  0.5973
 6746SOL    HW131700   3.829   2.369   3.175 -1.4974 -0.0771 -0.2333
 6746SOL    HW231701   3.716   2.283   3.201  0.6667  0.2578 -4.3652
 6747SOL     OW31702   2.505   4.423  11.822 -0.0650 -0.5299  0.7837
 6747SOL    HW131703   2.571   4.411  11.890  1.5176  0.0044 -0.6411
 6747SOL    HW231704   2.542   4.378  11.746 -2.1042  0.3762 -0.7341
 6748SOL     OW31705   1.004   0.179   5.243  0.0211  0.2235  0.1211
 6748SOL    HW131706   1.049   0.206   5.163  3.0020  1.3746  2.2067
 6748SOL    HW231707   1.038   0.242   5.305 -1.7198  1.6314 -0.3553
 6749SOL     OW31708   0.381   1.005   4.866 -0.2762  0.3304  0.1405
 6749SOL    HW131709   0.350   1.095   4.872  0.7058  0.7547 -0.9843
 6749SOL    HW231710   0.301   0.960   4.891  0.1670 -0.9183 -0.6560
 6750SOL     OW31711   3.246   2.686   8.525  0.1667 -0.6204 -0.1503
 6750SOL    HW131712   3.188   2.723   8.458  1.0694  1.9045  0.4381
 6750SOL    HW231713   3.180   2.631   8.568  1.1936 -0.9423  0.9868
 6751SOL     OW31714   4.013   3.245   6.656  0.1393 -0.5247  0.2204
 6751SOL    HW131715   4.030   3.152   6.643 -2.1198 -0.8181 -0.6568
 6751SOL    HW231716   3.931   3.247   6.607 -0.6062 -0.6946  1.4435
 6752SOL     OW31717   1.648   2.730   7.144  0.1954 -0.4014 -0.4851
 6752SOL    HW131718   1.636   2.652   7.197  0.5792  0.5905  1.0510
 6752SOL    HW231719   1.715   2.706   7.080  0.9406 -2.6520  1.1347
 6753SOL     OW31720   0.047   0.046   1.321 -0.5746 -0.1352 -0.5222
 6753SOL    HW131721   0.006   0.121   1.363  0.8542  1.1060 -1.3326
 6753SOL    HW231722   4.718   0.051   1.244  0.2812  0.2921 -1.1447
 6754SOL     OW31723   0.598   0.557   2.622  0.1101  0.3839 -0.6110
 6754SOL    HW131724   0.615   0.468   2.653 -1.6340  0.6550  1.0848
 6754SOL    HW231725   0.577   0.534   2.531 -1.7290  0.2472 -0.1511
 6755SOL     OW31726   2.253   2.777  14.947  0.0706  0.0158  0.0793
 6755SOL    HW131727   2.344   2.755  14.969  0.1208 -0.3473 -0.5062
 6755SOL    HW231728   2.271   2.797  14.856  0.1660 -1.7388 -0.2977
 6756SOL     OW31729   2.576   3.525  11.533 -0.7433 -0.1620 -0.2509
 6756SOL    HW131730   2.624   3.479  11.603  0.2373 -0.9034 -1.4036
 6756SOL    HW231731   2.517   3.574  11.589  0.2246 -0.7516  1.3052
 6757SOL     OW31732   1.565   2.698   2.584 -0.3973  0.4029  0.5178
 6757SOL    HW131733   1.577   2.653   2.501  0.6072  0.2298  0.7559
 6757SOL    HW231734   1.547   2.789   2.559 -0.3999 -0.4096 -2.3719
 6758SOL     OW31735   4.307   4.667   5.645 -0.2428  0.6267  0.7067
 6758SOL    HW131736   4.347   4.591   5.605 -0.0419  1.6907 -1.0964
 6758SOL    HW231737   4.311   0.002   5.574 -2.2604  0.3113  0.3045
 6759SOL     OW31738   3.392   2.352   0.339 -0.1717  0.3443 -0.0597
 6759SOL    HW131739   3.434   2.424   0.386 -0.3367  1.9720 -2.4027
 6759SOL    HW231740   3.319   2.396   0.297 -0.0638 -1.4856 -2.1306
 6760SOL     OW31741   1.435   0.147   5.231 -0.2846 -0.0588 -0.1622
 6760SOL    HW131742   1.409   0.140   5.323 -2.0024  0.8440 -0.5706
 6760SOL    HW231743   1.367   0.188   5.178 -0.6450 -1.2946 -0.6513
 6761SOL     OW31744   3.457   2.192   9.131 -0.2732  0.3107  0.1028
 6761SOL    HW131745   3.512   2.171   9.207 -0.3615  3.5363  1.0356
 6761SOL    HW231746   3.389   2.236   9.182  0.8394 -0.0201  1.8820
 6762SOL     OW31747   0.056   4.126   8.906 -0.0487  0.4062 -0.4225
 6762SOL    HW131748   4.723   4.094   8.841 -1.1784 -0.7807  1.2392
 6762SOL    HW231749   0.008   4.161   8.981  0.5483  0.1905  0.0622
 6763SOL     OW31750   3.240   3.431   2.393  0.1453 -0.6184  0.4010
 6763SOL    HW131751   3.324   3.432   2.439 -0.0925 -0.4428  0.8362
 6763SOL    HW231752   3.251   3.345   2.352  0.9327 -0.2221 -0.2127
 6764SOL     OW31753   3.800   4.683  16.046  0.0419 -0.8074  0.3658
 6764SOL    HW131754   3.761   4.706  15.962 -1.1609  0.5195  1.2964
 6764SOL    HW231755   3.844   0.037  16.063 -1.1447 -0.4248  1.5539
 6765SOL     OW31756   3.540   3.879  14.947 -0.0371  0.2703  0.3740
 6765SOL    HW131757   3.501   3.839  15.024  1.8973 -2.4129 -0.0544
 6765SOL    HW231758   3.502   3.966  14.962  0.0889  0.1936  1.1431
 6766SOL     OW31759   0.193   3.753   8.030 -0.3620 -0.1016 -0.5391
 6766SOL    HW131760   0.110   3.743   7.984 -0.5531  0.4209 -0.3037
 6766SOL    HW231761   0.242   3.789   7.956 -1.4475 -2.9433 -2.6292
 6767SOL     OW31762   0.751   3.548   4.342  0.3862  0.2656 -0.0300
 6767SOL    HW131763   0.670   3.598   4.339  0.6570  0.6642 -0.8869
 6767SOL    HW231764   0.724   3.457   4.355 -1.6830  1.0217  0.8672
 6768SOL     OW31765   0.122   4.025   4.609 -0.5447 -0.1208 -0.0233
 6768SOL    HW131766   0.185   4.077   4.560 -0.6027  0.1232  0.1636
 6768SOL    HW231767   0.157   3.936   4.603 -0.8745 -0.2540  0.0386
 6769SOL     OW31768   0.788   0.286   1.234  0.1049 -0.1644  0.1875
 6769SOL    HW131769   0.829   0.289   1.321 -0.9537 -0.0940  0.6793
 6769SOL    HW231770   0.783   0.379   1.209 -1.5000 -0.1250  0.6304
 6770SOL     OW31771   2.156   0.461   1.387  0.4493 -0.0746 -0.1941
 6770SOL    HW131772   2.223   0.396   1.367 -1.8927 -2.1157 -1.4677
 6770SOL    HW231773   2.082   0.427   1.336  0.4338  0.9712 -0.8781
 6771SOL     OW31774   3.626   2.268   7.590 -0.5773 -0.1449  0.4909
 6771SOL    HW131775   3.641   2.346   7.645 -1.2870  0.7654 -0.6167
 6771SOL    HW231776   3.531   2.260   7.599 -0.6760  0.3875 -0.0753
 6772SOL     OW31777   3.797   2.654  11.571  0.9371 -0.4730  0.3137
 6772SOL    HW131778   3.831   2.709  11.642 -2.2451  1.3630  0.3834
 6772SOL    HW231779   3.814   2.710  11.496 -2.4788  0.5536  0.3161
 6773SOL     OW31780   0.522   0.298  15.518  0.6090  0.3773 -0.1026
 6773SOL    HW131781   0.615   0.286  15.534  0.3324 -0.4798  0.8510
 6773SOL    HW231782   0.513   0.394  15.519 -2.0607  0.0989  2.3462
 6774SOL     OW31783   4.692   2.658  11.146 -0.2632  0.3972 -0.4679
 6774SOL    HW131784   4.606   2.698  11.160  0.1454  1.5301 -1.1723
 6774SOL    HW231785   0.002   2.679  11.232  1.1972 -1.5271 -0.6736
 6775SOL     OW31786   4.080   3.866  10.263  0.4474  0.2232 -0.9221
 6775SOL    HW131787   4.087   3.808  10.340  2.9309 -0.8223 -1.9244
 6775SOL    HW231788   4.089   3.948  10.311  2.2695 -0.4272 -0.1036
 6776SOL     OW31789   0.206   4.387   5.262  1.1708 -0.4328  0.7191
 6776SOL    HW131790   0.294   4.412   5.234  1.5340 -1.9683  0.4987
 6776SOL    HW231791   0.155   4.460   5.229  1.7795 -1.0881 -1.6501
 6777SOL     OW31792   0.713   0.974   6.902  0.0476  0.3079 -0.6547
 6777SOL    HW131793   0.799   1.005   6.873 -1.2468  2.7085 -1.9269
 6777SOL    HW231794   0.718   0.888   6.861 -1.4171  0.8141 -1.8794
 6778SOL     OW31795   1.479   4.003   1.628  0.0548  0.4109 -0.4040
 6778SOL    HW131796   1.444   4.078   1.581  0.1603 -0.4092 -1.7912
 6778SOL    HW231797   1.506   3.959   1.548 -0.7025 -1.1655  0.1999
 6779SOL     OW31798   1.912   0.885   2.732 -0.1334 -0.0769  0.4162
 6779SOL    HW131799   1.950   0.809   2.688 -0.9306 -0.9750  1.3033
 6779SOL    HW231800   1.949   0.957   2.680 -0.1643  0.4804  1.1682
 6780SOL     OW31801   2.516   3.812   9.111  0.4443  0.3257 -0.4040
 6780SOL    HW131802   2.492   3.883   9.051 -1.5805  0.8992  1.0831
 6780SOL    HW231803   2.538   3.751   9.040  0.5599 -1.0446  0.8121
 6781SOL     OW31804   1.665   0.020   8.719  0.4942 -0.0771 -0.4371
 6781SOL    HW131805   1.757   0.016   8.744  0.8619  1.3925 -1.5243
 6781SOL    HW231806   1.641   0.110   8.744  0.3087 -0.0884 -0.5711
 6782SOL     OW31807   2.019   4.097   4.089 -0.1619 -0.0130 -0.1824
 6782SOL    HW131808   2.005   4.012   4.049  0.2227  0.6283 -1.7008
 6782SOL    HW231809   1.955   4.104   4.160 -0.0170 -1.2905  0.0673
 6783SOL     OW31810   0.418   0.215   8.037  0.3059  0.4415 -0.0072
 6783SOL    HW131811   0.467   0.163   8.100 -0.5665  1.3865  1.4373
 6783SOL    HW231812   0.365   0.141   8.006  0.7667  0.0729  0.0928
 6784SOL     OW31813   0.113   4.000   8.393 -0.1041 -0.6081 -0.2310
 6784SOL    HW131814   0.094   4.092   8.374 -0.1994 -0.5027  0.3976
 6784SOL    HW231815   0.046   3.948   8.350  0.4103  0.0310 -1.8155
 6785SOL     OW31816   1.815   2.519   5.570 -0.4871 -0.1197 -0.0103
 6785SOL    HW131817   1.735   2.521   5.622 -0.4752 -0.6623  0.0283
 6785SOL    HW231818   1.852   2.604   5.595  1.1958 -0.0336 -2.7869
 6786SOL     OW31819   2.455   2.534   1.979 -0.2095  0.3747 -0.0124
 6786SOL    HW131820   2.415   2.621   1.987  0.2629  0.2636  3.3366
 6786SOL    HW231821   2.441   2.526   1.884  2.4725  0.2485 -0.4082
 6787SOL     OW31822   4.574   3.287   7.917 -0.0268  0.0224  0.1046
 6787SOL    HW131823   4.497   3.343   7.911 -0.4504 -0.9039 -3.2072
 6787SOL    HW231824   4.641   3.350   7.946 -0.8563  1.3888 -0.9421
 6788SOL     OW31825   4.574   0.045   5.385 -0.0877  0.1627 -0.3497
 6788SOL    HW131826   4.480   0.057   5.373 -0.2104 -0.2536  0.1725
 6788SOL    HW231827   4.580   4.679   5.394 -0.3070  0.2549  0.7668
 6789SOL     OW31828   3.650   0.070   2.167 -0.0034 -0.2357  0.3240
 6789SOL    HW131829   3.650   4.721   2.223  1.5623 -0.4967 -0.0491
 6789SOL    HW231830   3.572   0.113   2.201  1.0175  1.1113  0.9632
 6790SOL     OW31831   3.667   1.646  11.713  0.6695  0.1496 -0.5354
 6790SOL    HW131832   3.671   1.551  11.710  0.2130  0.0959  0.7032
 6790SOL    HW231833   3.724   1.674  11.641  0.4804  2.5299  0.2275
 6791SOL     OW31834   2.885   2.124   5.034 -0.5706  0.0429  0.2231
 6791SOL    HW131835   2.801   2.142   4.991 -1.2330 -0.5410  1.2832
 6791SOL    HW231836   2.862   2.130   5.126  0.7740 -1.6312  0.6614
 6792SOL     OW31837   0.749   4.491  10.449  0.7709 -0.0220  0.6871
 6792SOL    HW131838   0.779   4.447  10.370 -3.9303  1.8022 -2.0618
 6792SOL    HW231839   0.752   4.579  10.412 -0.3005 -0.4851 -0.4731
 6793SOL     OW31840   1.707   1.668   2.855 -0.1945  0.3117 -0.4454
 6793SOL    HW131841   1.640   1.734   2.871 -0.8855 -1.0000  2.0523
 6793SOL    HW231842   1.691   1.648   2.763  1.8215 -1.8963 -0.3459
 6794SOL     OW31843   1.016   3.532   4.728  0.3238  0.0266 -0.3977
 6794SOL    HW131844   1.014   3.478   4.807 -3.0417 -0.6056 -0.9198
 6794SOL    HW231845   0.952   3.601   4.745 -2.9582 -2.6892 -1.7680
 6795SOL     OW31846   2.674   0.571  12.929  0.1429 -0.5654  0.6184
 6795SOL    HW131847   2.751   0.626  12.915 -0.8785  0.6020 -0.3762
 6795SOL    HW231848   2.616   0.632  12.973 -0.0944  0.2775 -0.8402
 6796SOL     OW31849   0.890   4.016   5.137 -0.1504  0.2469  0.7096
 6796SOL    HW131850   0.920   4.021   5.046  0.2496  1.0765  0.8858
 6796SOL    HW231851   0.953   4.074   5.180 -0.5811  0.2411  1.3444
 6797SOL     OW31852   0.822   1.385   9.188  0.2399 -0.1356 -0.1774
 6797SOL    HW131853   0.847   1.300   9.223  3.6058  0.9491  0.0958
 6797SOL    HW231854   0.892   1.399   9.125  1.1993 -0.3926  0.8373
 6798SOL     OW31855   3.997   1.921   4.904 -0.5556 -0.0369 -0.2429
 6798SOL    HW131856   3.989   1.872   4.822 -1.0979  0.6059 -0.5799
 6798SOL    HW231857   4.050   1.995   4.875  1.4192 -0.8687  1.2061
 6799SOL     OW31858   0.543   2.856   7.752 -0.1597  0.0821 -0.4955
 6799SOL    HW131859   0.500   2.805   7.683  0.6623  0.6727 -1.4339
 6799SOL    HW231860   0.606   2.796   7.792 -0.7171  0.2539  0.6496
 6800SOL     OW31861   1.538   1.066   0.337 -0.0149 -0.0452 -0.4192
 6800SOL    HW131862   1.514   0.977   0.360  1.6382 -0.1473  0.9406
 6800SOL    HW231863   1.632   1.047   0.335 -0.0123 -0.4213  2.8534
 6801SOL     OW31864   3.531   0.059  10.846 -0.2061 -0.7395  0.1283
 6801SOL    HW131865   3.536   4.714  10.905 -1.6888 -1.7229 -0.9872
 6801SOL    HW231866   3.570   0.027  10.764 -1.0122 -0.9552 -0.1715
 6802SOL     OW31867   0.874   1.601  17.108  0.2663 -0.0623 -0.6218
 6802SOL    HW131868   0.961   1.607  17.069  0.0571  0.1939 -1.0496
 6802SOL    HW231869   0.879   1.681  17.160 -1.7811 -0.0275 -0.4694
 6803SOL     OW31870   2.480   3.253   1.953 -0.1516  0.3093  0.5981
 6803SOL    HW131871   2.433   3.274   1.872 -0.6811  1.1603  1.1275
 6803SOL    HW231872   2.461   3.160   1.956  1.8115 -0.0620  1.6541
 6804SOL     OW31873   2.313   1.725   0.858 -0.2150 -0.2474  0.8175
 6804SOL    HW131874   2.286   1.649   0.807 -0.0344  0.3021 -0.0995
 6804SOL    HW231875   2.229   1.750   0.898 -1.4105 -3.1137  0.0810
 6805SOL     OW31876   0.708   0.797   2.651 -0.0687 -0.1512 -0.1818
 6805SOL    HW131877   0.669   0.710   2.641 -1.8671  0.2889  2.9183
 6805SOL    HW231878   0.752   0.782   2.735  1.2848 -0.1350 -0.8988
 6806SOL     OW31879   0.257   0.096   3.137 -0.5464 -0.3026  0.0260
 6806SOL    HW131880   0.251   0.033   3.066 -2.2808  0.0157 -0.1048
 6806SOL    HW231881   0.280   0.168   3.079  0.4388 -0.3782  0.3255
 6807SOL     OW31882   2.305   3.553   0.117  0.2533 -0.4262 -0.2453
 6807SOL    HW131883   2.369   3.502   0.168 -1.0602 -0.3479  1.4655
 6807SOL    HW231884   2.278   3.626   0.172  1.0534 -1.9852  2.2030
 6808SOL     OW31885   4.456   3.336   9.195 -0.1854  0.3033  0.6570
 6808SOL    HW131886   4.409   3.271   9.247 -0.9350 -0.3874 -0.8683
 6808SOL    HW231887   4.508   3.276   9.142 -2.2519 -0.3608 -0.6301
 6809SOL     OW31888   3.222   3.325   8.576 -0.1733  0.2056 -0.2695
 6809SOL    HW131889   3.292   3.259   8.576  2.9516  3.5394 -0.7418
 6809SOL    HW231890   3.218   3.360   8.487  2.6492  0.2791 -0.3728
 6810SOL     OW31891   1.946   2.010   3.546  0.1566 -0.4240  0.2365
 6810SOL    HW131892   1.952   1.986   3.453  0.0914 -1.5383  0.5184
 6810SOL    HW231893   2.030   1.979   3.580 -0.4040 -0.7986  1.2724
 6811SOL     OW31894   3.735   3.477   2.308  0.1073  0.0216  0.0666
 6811SOL    HW131895   3.816   3.433   2.280 -0.2943 -0.4929 -0.2771
 6811SOL    HW231896   3.702   3.495   2.220 -2.1291  1.8236  1.2874
 6812SOL     OW31897   1.628   1.581  14.683  0.5411 -0.2341  0.0584
 6812SOL    HW131898   1.546   1.631  14.685 -0.1901 -1.3624 -1.3428
 6812SOL    HW231899   1.693   1.642  14.649 -1.4860  1.0028 -1.6224
 6813SOL     OW31900   3.996   3.408   1.687  0.5974  0.2410  0.5459
 6813SOL    HW131901   3.947   3.471   1.634 -1.3396 -1.6474  0.0988
 6813SOL    HW231902   4.055   3.468   1.733 -1.0877  1.5158  1.0384
 6814SOL     OW31903   0.766   1.510   8.515 -0.5677 -0.2849  0.3757
 6814SOL    HW131904   0.796   1.419   8.517 -2.1676 -0.8302 -0.4801
 6814SOL    HW231905   0.711   1.527   8.592 -0.2092  0.0958  0.5520
 6815SOL     OW31906   3.806   2.509   0.442  0.2978  0.6091 -0.3788
 6815SOL    HW131907   3.806   2.469   0.530 -0.0226  0.9583 -0.2188
 6815SOL    HW231908   3.888   2.557   0.432  1.6365 -1.3568  1.0383
 6816SOL     OW31909   0.107   3.651  13.313 -0.2972  0.1052 -0.4381
 6816SOL    HW131910   0.137   3.596  13.241  0.7166 -0.3312  0.3197
 6816SOL    HW231911   0.179   3.637  13.375 -1.0437  0.1081  0.4230
 6817SOL     OW31912   2.186   4.600   9.256 -0.1544 -0.4411 -0.2738
 6817SOL    HW131913   2.113   4.593   9.318 -0.3812 -1.8364 -0.6966
 6817SOL    HW231914   2.145   4.572   9.175 -0.3289 -1.5037  0.1846
 6818SOL     OW31915   0.797   4.125   9.024 -0.0860  0.5224 -0.7550
 6818SOL    HW131916   0.864   4.072   8.983 -1.5022  0.2447 -2.7091
 6818SOL    HW231917   0.712   4.108   8.982  0.0922 -0.3375 -0.7533
 6819SOL     OW31918   0.664   2.200   2.558  0.3944 -0.3343 -0.5489
 6819SOL    HW131919   0.655   2.152   2.475 -0.8472  0.2176 -0.7323
 6819SOL    HW231920   0.731   2.148   2.603  0.4131  0.8902  0.8125
 6820SOL     OW31921   4.447   1.028   5.270  0.1788  0.2101 -0.0409
 6820SOL    HW131922   4.424   1.089   5.340  1.1311  1.4989 -0.8416
 6820SOL    HW231923   4.507   1.081   5.217  0.4987 -0.6622 -0.5557
 6821SOL     OW31924   1.565   2.851   8.498  0.0447  0.2349  0.1546
 6821SOL    HW131925   1.511   2.882   8.571  0.9214  0.8037  0.5613
 6821SOL    HW231926   1.507   2.853   8.422  0.0565  0.4280  0.1503
 6822SOL     OW31927   0.818   0.967  16.565  0.0750 -0.3091 -0.3533
 6822SOL    HW131928   0.824   1.057  16.534  1.2764 -1.2944 -2.9936
 6822SOL    HW231929   0.857   0.979  16.651  0.2493  2.1323 -0.7821
 6823SOL     OW31930   3.973   3.671  16.508 -0.6047 -0.4539  0.1117
 6823SOL    HW131931   3.998   3.646  16.597 -2.2651 -1.4582  0.2926
 6823SOL    HW231932   3.941   3.586  16.477 -1.0691 -0.1965 -0.1088
 6824SOL     OW31933   4.316   0.341  14.545  0.1805 -0.1353  0.5060
 6824SOL    HW131934   4.399   0.314  14.584 -0.5870 -0.1448  2.1224
 6824SOL    HW231935   4.256   0.319  14.616  1.2082  1.1217  1.7594
 6825SOL     OW31936   2.680   0.744   4.915 -0.2079 -0.6750 -1.0588
 6825SOL    HW131937   2.713   0.759   4.826 -1.3272 -0.0691 -1.3751
 6825SOL    HW231938   2.608   0.807   4.910 -1.3972 -1.8583  1.1056
 6826SOL     OW31939   3.023   4.142   3.564 -0.4674  0.1738  0.5358
 6826SOL    HW131940   2.975   4.104   3.490  1.2285 -0.6223 -0.1490
 6826SOL    HW231941   3.110   4.104   3.554 -0.1003  0.8516  1.1571
 6827SOL     OW31942   1.063   0.547  13.773 -0.2231  0.2581 -0.4627
 6827SOL    HW131943   1.094   0.557  13.863  1.8091  1.8886 -1.3494
 6827SOL    HW231944   1.132   0.603  13.736  1.9940 -1.1618  1.5308
 6828SOL     OW31945   0.621   2.810  14.132 -0.1861 -0.4350 -0.1473
 6828SOL    HW131946   0.671   2.891  14.122 -0.6594 -0.0874  0.2726
 6828SOL    HW231947   0.555   2.810  14.062  0.7898 -1.0636 -1.0618
 6829SOL     OW31948   3.821   3.069   4.207 -0.0942 -0.2556  0.2003
 6829SOL    HW131949   3.801   3.161   4.190  3.6518  0.2765 -1.2172
 6829SOL    HW231950   3.790   3.028   4.126  0.5619  0.1256 -0.2451
 6830SOL     OW31951   1.419   3.845   8.404  0.0020  0.7814 -0.0290
 6830SOL    HW131952   1.324   3.836   8.405  0.0867 -0.0768  0.2011
 6830SOL    HW231953   1.425   3.906   8.478 -0.2577  1.3208 -0.4593
 6831SOL     OW31954   3.848   0.183  10.510  0.2021  0.0961 -0.0401
 6831SOL    HW131955   3.899   0.254  10.469  0.1549  0.0869 -0.1162
 6831SOL    HW231956   3.905   0.107  10.507  1.2207  0.7862  2.2976
 6832SOL     OW31957   2.350   4.370   5.139 -0.5646 -0.3364  0.0058
 6832SOL    HW131958   2.357   4.362   5.234 -2.2288 -0.3222  0.1285
 6832SOL    HW231959   2.280   4.434   5.126 -1.9271 -1.2967  2.4646
 6833SOL     OW31960   2.162   2.336  17.332 -0.0901 -0.1170  0.3601
 6833SOL    HW131961   2.076   2.362  17.363 -0.4167  0.1268 -0.7571
 6833SOL    HW231962   2.228   2.356  17.399  0.6045  1.7442 -0.8740
 6834SOL     OW31963   0.651   1.228   9.838  0.3409 -0.0904  0.6603
 6834SOL    HW131964   0.693   1.272   9.764 -2.2804 -0.1986 -0.8696
 6834SOL    HW231965   0.595   1.172   9.785  1.0928  0.5842 -0.8618
 6835SOL     OW31966   2.620   2.448   2.452 -0.4464  0.3991 -0.0761
 6835SOL    HW131967   2.582   2.363   2.432  1.9029 -0.6089 -0.2848
 6835SOL    HW231968   2.583   2.498   2.379 -0.8883 -0.1342 -0.2106
 6836SOL     OW31969   1.887   3.918   7.916  0.3798  0.1357 -0.3206
 6836SOL    HW131970   1.932   3.915   8.001 -0.1780 -1.5945 -0.0765
 6836SOL    HW231971   1.800   3.905   7.953  0.3000 -0.5848 -0.7697
 6837SOL     OW31972   1.434   0.070  15.113 -0.2029  0.1437 -0.2285
 6837SOL    HW131973   1.504   0.133  15.098 -0.9896  0.9525 -0.4681
 6837SOL    HW231974   1.371   0.108  15.052  2.0325  1.2340 -1.8255
 6838SOL     OW31975   3.820   2.209   7.405  0.3881  0.2836  0.3473
 6838SOL    HW131976   3.878   2.284   7.390 -0.8794  0.6487 -2.8427
 6838SOL    HW231977   3.758   2.225   7.476 -1.1145  1.3812 -1.2065
 6839SOL     OW31978   2.658   0.338   9.081  0.0145  0.2183 -0.2674
 6839SOL    HW131979   2.632   0.366   8.993 -0.0807 -2.1431 -0.9762
 6839SOL    HW231980   2.665   0.420   9.131 -0.7185 -0.5345  1.0780
 6840SOL     OW31981   3.833   0.008  12.177 -0.3492  0.3063 -0.1949
 6840SOL    HW131982   3.833   4.644  12.155  0.1657 -0.4076  2.8552
 6840SOL    HW231983   3.910   0.043  12.133  0.2510 -0.4748  0.2339
 6841SOL     OW31984   1.359   0.447   9.307  0.0929 -0.1753  0.2796
 6841SOL    HW131985   1.422   0.409   9.367  0.6188  4.0879  2.4508
 6841SOL    HW231986   1.330   0.523   9.359  0.2757  0.0281  0.0868
 6842SOL     OW31987   1.302   1.747   7.868  0.1183 -0.8673  0.1075
 6842SOL    HW131988   1.320   1.720   7.958  0.7901  0.7158  0.4407
 6842SOL    HW231989   1.378   1.796   7.838  1.6785 -2.8465  0.8808
 6843SOL     OW31990   2.754   4.270   5.318 -0.4284 -0.1610 -0.0481
 6843SOL    HW131991   2.807   4.192   5.328 -0.8360 -0.3976  0.2622
 6843SOL    HW231992   2.764   4.312   5.403  0.1877 -1.1285  0.3532
 6844SOL     OW31993   2.023   3.228  17.273 -0.0815 -0.6808  0.8172
 6844SOL    HW131994   1.953   3.292  17.281  0.1132 -0.3705  0.0916
 6844SOL    HW231995   2.086   3.295  17.245 -0.2795 -1.2988 -1.1208
 6845SOL     OW31996   1.881   2.861   8.363 -0.3150  0.0175 -0.0264
 6845SOL    HW131997   1.821   2.914   8.415 -0.1609  0.6823 -0.5243
 6845SOL    HW231998   1.877   2.776   8.408 -0.3141  0.3312  0.5629
 6846SOL     OW31999   1.101   2.401   6.323  0.3398  0.8650  0.3173
 6846SOL    HW132000   1.101   2.480   6.377 -0.3439  1.2082 -0.1914
 6846SOL    HW232001   1.136   2.341   6.388  0.5544  0.2568 -0.3556
 6847SOL     OW32002   2.009   0.874  16.749  0.3670 -0.3275  0.2495
 6847SOL    HW132003   2.078   0.864  16.683  0.9292 -1.2725  0.9858
 6847SOL    HW232004   2.050   0.904  16.830  1.2021  1.1824 -0.7200
 6848SOL     OW32005   3.496   3.868  15.325 -0.2968  0.0517  0.7055
 6848SOL    HW132006   3.411   3.847  15.365  0.2513  1.0607  2.3799
 6848SOL    HW232007   3.489   3.939  15.261 -0.9588  0.4065  1.1781
 6849SOL     OW32008   4.264   4.065   3.732 -0.0829  0.1475 -0.3356
 6849SOL    HW132009   4.197   4.106   3.677 -0.3075 -0.0687 -0.2226
 6849SOL    HW232010   4.219   4.043   3.813  0.4501  2.3088  0.5348
 6850SOL     OW32011   4.362   4.364   1.577  0.2231 -0.1494 -0.1303
 6850SOL    HW132012   4.310   4.417   1.517 -0.0694 -0.0358  0.2230
 6850SOL    HW232013   4.370   4.428   1.648  0.9547 -0.3978  0.0128
 6851SOL     OW32014   0.032   1.139   6.589 -0.9721 -0.0822  0.0768
 6851SOL    HW132015   0.112   1.162   6.636 -0.5447 -0.2161 -0.5787
 6851SOL    HW232016   0.007   1.064   6.642  1.0433 -0.7544  0.0704
 6852SOL     OW32017   3.925   3.889   5.558  0.2774 -0.0783 -1.0670
 6852SOL    HW132018   4.017   3.884   5.533  0.4756  0.0580 -0.3616
 6852SOL    HW232019   3.876   3.869   5.478  2.7706  1.9704 -3.0996
 6853SOL     OW32020   0.454   1.367  12.754  0.0662  0.1691 -0.2469
 6853SOL    HW132021   0.472   1.292  12.697 -2.0079  1.0997 -2.1229
 6853SOL    HW232022   0.524   1.431  12.739 -0.7503  1.1205 -0.0246
 6854SOL     OW32023   1.588   3.762   5.093  0.0527  0.3581  0.1539
 6854SOL    HW132024   1.503   3.718   5.089  0.0274  0.2861  1.3242
 6854SOL    HW232025   1.639   3.703   5.149  0.9088 -0.0764 -1.0994
 6855SOL     OW32026   1.790   0.517   7.478  0.0928 -0.5084  0.1906
 6855SOL    HW132027   1.714   0.518   7.420 -0.2588  2.2603  0.6800
 6855SOL    HW232028   1.783   0.613   7.482  0.3455 -0.4049 -2.1901
 6856SOL     OW32029   0.810   3.450   0.285  0.1109  0.3292 -0.6668
 6856SOL    HW132030   0.768   3.377   0.331  1.3068  1.0902  1.6544
 6856SOL    HW232031   0.835   3.410   0.202 -1.6066  1.5069 -1.7554
 6857SOL     OW32032   2.917   2.736   8.003  0.5415  0.3054  0.1556
 6857SOL    HW132033   2.897   2.792   7.927 -0.4587  0.5165  0.5784
 6857SOL    HW232034   3.011   2.744   8.017  0.3632  2.2214  0.2156
 6858SOL     OW32035   4.416   3.371   2.244 -0.1970 -0.1250  0.0173
 6858SOL    HW132036   4.396   3.345   2.334 -0.7050  3.2792  0.9011
 6858SOL    HW232037   4.465   3.453   2.254 -0.3165  0.0972 -1.1833
 6859SOL     OW32038   1.929   0.135  14.017  0.3956  0.3045  0.2534
 6859SOL    HW132039   1.894   0.140  14.106 -0.6684  2.4337 -0.2673
 6859SOL    HW232040   1.950   0.043  14.002  3.8595  0.3896  4.6575
 6860SOL     OW32041   2.742   0.791  16.786 -0.1246 -0.1686  0.0126
 6860SOL    HW132042   2.740   0.696  16.775 -0.7928  0.0882 -2.0015
 6860SOL    HW232043   2.836   0.799  16.768  0.3330 -1.8625  1.5976
 6861SOL     OW32044   2.428   0.210   2.320  0.2585 -0.0180  0.5195
 6861SOL    HW132045   2.486   0.239   2.250  1.4238  0.0584  1.5136
 6861SOL    HW232046   2.348   0.185   2.275 -0.5163  1.6809  0.9638
 6862SOL     OW32047   4.425   4.149   7.420  0.4977 -0.3106  0.1738
 6862SOL    HW132048   4.496   4.128   7.481 -0.3217 -0.1320  1.1887
 6862SOL    HW232049   4.444   4.241   7.404  1.7589 -1.0349 -2.5402
 6863SOL     OW32050   4.181   2.254  16.021  0.1809 -0.3171 -0.1020
 6863SOL    HW132051   4.253   2.196  16.044 -0.0319  0.3449  2.2062
 6863SOL    HW232052   4.196   2.325  16.084 -0.6798  0.5449 -0.8555
 6864SOL     OW32053   2.754   2.469   1.696 -0.0763  0.0870  0.2417
 6864SOL    HW132054   2.668   2.467   1.654 -0.1241 -0.7262  0.3743
 6864SOL    HW232055   2.803   2.545   1.665 -1.2615  1.4972  1.8269
 6865SOL     OW32056   4.398   0.546   5.400  0.3981  0.0331 -0.4535
 6865SOL    HW132057   4.458   0.539   5.326  0.0990 -2.9461 -0.3986
 6865SOL    HW232058   4.339   0.612   5.364 -0.7305 -0.0225  1.2780
 6866SOL     OW32059   1.885   4.157   6.570 -0.0326  0.4095 -0.2341
 6866SOL    HW132060   1.849   4.071   6.550 -1.7103  0.5769  2.1496
 6866SOL    HW232061   1.978   4.144   6.553  0.1455  2.1887 -0.6688
 6867SOL     OW32062   4.233   0.435  16.946  0.1488  0.1848 -0.0378
 6867SOL    HW132063   4.320   0.438  16.908  0.3000  1.0054  0.3794
 6867SOL    HW232064   4.212   0.526  16.926  0.4322  0.0370 -1.0127
 6868SOL     OW32065   1.655   2.130   2.936  0.1128  0.0758  0.2584
 6868SOL    HW132066   1.730   2.168   2.982 -0.2326 -0.1438  1.0046
 6868SOL    HW232067   1.643   2.046   2.980  1.0011  0.4996  1.3220
 6869SOL     OW32068   3.784   4.272   6.750  0.4560  0.0255  0.5395
 6869SOL    HW132069   3.739   4.281   6.834 -0.9117  0.2817 -0.2164
 6869SOL    HW232070   3.720   4.226   6.696 -1.2667  1.7089  1.1454
 6870SOL     OW32071   2.427   3.970   8.900  0.2105 -0.1867  0.0679
 6870SOL    HW132072   2.391   3.896   8.850  1.8065 -1.7670  1.2563
 6870SOL    HW232073   2.353   3.987   8.958 -0.2266  1.7358 -1.0601
 6871SOL     OW32074   4.253   4.014   2.080 -0.1683 -0.4240  0.2396
 6871SOL    HW132075   4.189   4.072   2.039 -2.3959 -2.4186  0.9366
 6871SOL    HW232076   4.291   4.067   2.150 -0.1359  1.1102 -0.9382
 6872SOL     OW32077   0.324   0.608   6.033  0.0608  0.4283 -0.1680
 6872SOL    HW132078   0.347   0.586   5.942 -3.1921 -1.6246 -0.4943
 6872SOL    HW232079   0.256   0.545   6.057  1.3164 -1.5038 -1.6271
 6873SOL     OW32080   4.083   2.828   1.189 -0.5602 -0.7068  0.4178
 6873SOL    HW132081   4.055   2.856   1.276  1.4587  0.9886  0.5226
 6873SOL    HW232082   4.111   2.739   1.209  0.0335 -0.6974 -0.3780
 6874SOL     OW32083   3.031   0.000   5.984 -0.6234  0.2998  0.1624
 6874SOL    HW132084   3.042   0.043   6.070 -2.0131  2.4292 -0.7301
 6874SOL    HW232085   3.123   4.711   5.965  0.1681  2.4122  1.9359
 6875SOL     OW32086   3.359   1.225   0.605 -0.0168  0.6484 -0.6004
 6875SOL    HW132087   3.437   1.207   0.552  0.0392 -1.6592  0.2866
 6875SOL    HW232088   3.317   1.288   0.546 -1.5847 -2.2283 -2.5270
 6876SOL     OW32089   0.492   1.959   7.543 -0.2566 -0.5680  0.1437
 6876SOL    HW132090   0.462   2.030   7.600 -0.0515  1.7689 -2.6951
 6876SOL    HW232091   0.570   1.925   7.588  1.1312  0.7114 -1.3321
 6877SOL     OW32092   0.216   3.078   9.005  0.4460  0.2883  0.4190
 6877SOL    HW132093   0.310   3.061   9.007  0.5370  0.7063 -0.3113
 6877SOL    HW232094   0.223   3.148   8.940 -0.9751  3.1874  3.4317
 6878SOL     OW32095   3.716   0.971   5.314  0.5501  0.4617  0.0020
 6878SOL    HW132096   3.713   1.005   5.225 -2.5881 -0.1850 -0.1237
 6878SOL    HW232097   3.633   1.009   5.343  0.0108  0.3824 -1.4276
 6879SOL     OW32098   1.676   3.467   7.691  0.1872  0.1665  0.6672
 6879SOL    HW132099   1.756   3.480   7.641 -0.1903 -0.6696 -0.1586
 6879SOL    HW232100   1.621   3.415   7.632  1.7791 -0.9880  0.2142
 6880SOL     OW32101   4.477   1.500  15.535  0.0317 -0.3111  0.2485
 6880SOL    HW132102   4.411   1.553  15.578  0.4745 -0.3541  0.9720
 6880SOL    HW232103   4.553   1.558  15.545  1.4331 -1.7322 -2.0336
 6881SOL     OW32104   4.293   2.951   9.892  0.2011 -0.1075 -0.0987
 6881SOL    HW132105   4.314   2.899   9.969  1.6340 -2.5355 -2.1297
 6881SOL    HW232106   4.229   3.007   9.935 -0.1270 -1.2650  0.8921
 6882SOL     OW32107   3.658   1.717   5.188 -0.3645 -0.1143  0.1123
 6882SOL    HW132108   3.699   1.710   5.275 -1.5800  1.3606  0.8016
 6882SOL    HW232109   3.659   1.627   5.157 -0.9097 -0.3466  0.7534
 6883SOL     OW32110   3.702   3.817   2.275 -0.2508  0.4560 -0.0083
 6883SOL    HW132111   3.766   3.779   2.335 -0.7652 -0.6048 -0.1220
 6883SOL    HW232112   3.747   3.885   2.225 -1.8013  1.8141  0.4194
 6884SOL     OW32113   4.198   4.605  13.298 -0.3882  0.1325 -0.2963
 6884SOL    HW132114   4.216   4.653  13.379 -0.0616  4.7116 -3.1064
 6884SOL    HW232115   4.242   4.522  13.315  1.4176  1.2279  0.4214
 6885SOL     OW32116   1.241   1.874   8.986  0.0207 -0.0494  0.2743
 6885SOL    HW132117   1.331   1.900   9.003 -0.8158  2.9785 -0.0613
 6885SOL    HW232118   1.216   1.885   9.078  0.1690 -0.4536  0.3621
 6886SOL     OW32119   3.145   2.243  15.475 -0.1821  0.1734 -0.6681
 6886SOL    HW132120   3.141   2.269  15.383 -1.0994 -0.7530 -0.8970
 6886SOL    HW232121   3.238   2.266  15.482  0.2051 -1.4364 -0.5243
 6887SOL     OW32122   1.390   0.221  12.669  0.0914  0.2022  0.2779
 6887SOL    HW132123   1.297   0.203  12.681 -0.4657  2.3696 -0.9043
 6887SOL    HW232124   1.409   0.226  12.763 -3.5960  2.5561  0.8942
 6888SOL     OW32125   0.429   2.823   9.232  0.3812  0.4168 -0.2136
 6888SOL    HW132126   0.516   2.861   9.245  0.3876  0.2986  0.0832
 6888SOL    HW232127   0.386   2.858   9.310  1.1766  1.2371 -0.1412
 6889SOL     OW32128   1.273   0.676  13.656 -0.6503  0.6544  0.1601
 6889SOL    HW132129   1.366   0.672  13.679 -0.8261  1.3248  0.9771
 6889SOL    HW232130   1.284   0.730  13.578 -0.3741  0.6774  0.2143
 6890SOL     OW32131   1.191   2.509  17.233 -0.3693  0.4472  0.0469
 6890SOL    HW132132   1.113   2.474  17.276 -0.5926  3.0908  1.7718
 6890SOL    HW232133   1.184   2.474  17.144 -0.0064  1.2233 -0.2836
 6891SOL     OW32134   0.539   3.165   5.750 -0.6600 -0.5004 -0.3114
 6891SOL    HW132135   0.610   3.220   5.783 -0.2911 -1.7209  0.9439
 6891SOL    HW232136   0.558   3.086   5.801  0.9459  0.3828  0.4690
 6892SOL     OW32137   3.381   4.561   3.946  0.2141  0.1975 -0.0671
 6892SOL    HW132138   3.465   4.593   3.914 -0.9557  0.2854 -3.0930
 6892SOL    HW232139   3.326   4.619   3.892 -1.4775 -1.6633 -0.3443
 6893SOL     OW32140   1.253   3.925   6.573  0.5952 -0.2226 -0.8632
 6893SOL    HW132141   1.331   3.919   6.627  0.0936  1.9113  0.1091
 6893SOL    HW232142   1.202   3.867   6.630  2.3837 -0.4575  0.4925
 6894SOL     OW32143   1.093   2.778  17.239  0.6329  0.9054  0.0406
 6894SOL    HW132144   1.070   2.758  17.148  0.9715  1.1324 -0.0969
 6894SOL    HW232145   1.145   2.701  17.262 -0.8846 -0.3243 -0.6063
 6895SOL     OW32146   4.055   3.473  10.892  0.6500  0.2159  0.0457
 6895SOL    HW132147   4.042   3.526  10.813 -1.4814  0.8222  0.7858
 6895SOL    HW232148   4.150   3.462  10.890  0.4684 -1.7873  2.4199
 6896SOL     OW32149   1.662   0.340  17.353  0.4836 -0.3687 -0.4291
 6896SOL    HW132150   1.637   0.289  17.430  0.1339 -0.3344 -0.5187
 6896SOL    HW232151   1.680   0.273  17.288  1.3346 -0.2247 -0.3409
 6897SOL     OW32152   0.529   2.946   1.414 -0.5723 -0.6596 -0.1444
 6897SOL    HW132153   0.487   2.953   1.500 -1.9808 -0.0267 -0.8836
 6897SOL    HW232154   0.470   2.896   1.358 -1.0457  0.7603 -0.9069
 6898SOL     OW32155   3.329   2.603   6.116 -0.2864  0.3470 -0.2691
 6898SOL    HW132156   3.307   2.696   6.107 -1.0130  0.0258 -1.7345
 6898SOL    HW232157   3.293   2.568   6.035 -0.7409  0.4307 -0.1042
 6899SOL     OW32158   1.839   2.679  14.772  0.0469 -0.0096 -0.2779
 6899SOL    HW132159   1.753   2.702  14.805 -1.0064 -0.6381 -2.5590
 6899SOL    HW232160   1.864   2.593  14.806  0.2243  0.5771  1.0536
 6900SOL     OW32161   3.160   2.777   5.847  0.0146  0.6017 -0.2283
 6900SOL    HW132162   3.158   2.687   5.879 -1.1474  1.1848  1.3276
 6900SOL    HW232163   3.074   2.811   5.870 -0.1629  0.9547 -1.3994
 6901SOL     OW32164   1.577   4.081   6.584 -0.4145 -0.0454 -0.5332
 6901SOL    HW132165   1.557   4.146   6.517 -0.4031  0.5201  0.0168
 6901SOL    HW232166   1.521   4.120   6.652 -0.0895  0.9422 -0.8276
 6902SOL     OW32167   3.756   1.531   8.988  0.2614 -0.1903  0.2540
 6902SOL    HW132168   3.755   1.456   8.928 -1.2804 -1.7424  2.1771
 6902SOL    HW232169   3.662   1.534   9.009  0.4333  0.1380  0.9904
 6903SOL     OW32170   3.275   0.121   6.277  0.0723 -0.0537 -0.2823
 6903SOL    HW132171   3.186   0.122   6.242 -0.2609  0.5007  0.5928
 6903SOL    HW232172   3.315   0.052   6.224 -0.2552  0.5717 -1.3511
 6904SOL     OW32173   0.798   3.041  14.119  0.3151 -0.1485  0.3738
 6904SOL    HW132174   0.752   3.073  14.041  1.9010 -0.4656 -0.6765
 6904SOL    HW232175   0.805   3.119  14.174  0.0925  2.8444 -3.8245
 6905SOL     OW32176   4.399   0.198   3.525 -0.6445 -0.4334  0.4102
 6905SOL    HW132177   4.392   0.288   3.556 -0.1212 -0.4185  0.4844
 6905SOL    HW232178   4.482   0.171   3.565  0.1801  2.9516  0.9863
 6906SOL     OW32179   3.823   3.318   7.542 -0.2800  0.2012  0.8035
 6906SOL    HW132180   3.859   3.310   7.630  1.6827  1.0449  0.0756
 6906SOL    HW232181   3.862   3.248   7.490  1.7154  2.3763 -0.6685
 6907SOL     OW32182   1.793   2.580   7.481  0.2396 -0.1078  0.0707
 6907SOL    HW132183   1.870   2.610   7.432 -0.2561  1.1878  0.0723
 6907SOL    HW232184   1.745   2.525   7.419 -1.8703  1.1485  0.5900
 6908SOL     OW32185   4.134   1.469   4.941 -0.0113 -0.1794 -0.0508
 6908SOL    HW132186   4.180   1.496   5.020 -1.3572 -2.3018  1.4406
 6908SOL    HW232187   4.204   1.482   4.877 -2.1304  2.8556 -1.7185
 6909SOL     OW32188   2.201   1.681   2.648  0.3595  0.3289  0.1723
 6909SOL    HW132189   2.116   1.669   2.690 -0.3347  0.4398 -1.2094
 6909SOL    HW232190   2.225   1.774   2.654 -0.0270  0.4701 -0.5145
 6910SOL     OW32191   3.399   4.500  14.795 -0.7023  0.2439 -0.5094
 6910SOL    HW132192   3.450   4.506  14.714 -0.1381 -0.2959 -0.1898
 6910SOL    HW232193   3.327   4.561  14.777 -0.0980  1.2089  0.4447
 6911SOL     OW32194   3.873   0.072   8.972  0.2603 -0.3468 -0.2617
 6911SOL    HW132195   3.873   0.156   9.017 -1.3402 -0.3512 -0.2788
 6911SOL    HW232196   3.779   0.058   8.962 -0.0348  0.0127  2.1140
 6912SOL     OW32197   4.167   4.176   1.739 -0.1221  0.8364 -0.3936
 6912SOL    HW132198   4.142   4.180   1.646  2.5205 -0.6224 -1.1575
 6912SOL    HW232199   4.252   4.220   1.736  0.8855 -1.1660 -1.0834
 6913SOL     OW32200   0.929   2.730   4.656  0.0560  0.3396 -0.1378
 6913SOL    HW132201   0.927   2.825   4.657  0.9591  0.3592 -0.7847
 6913SOL    HW232202   0.908   2.712   4.748  0.7099  0.7190  0.0856
 6914SOL     OW32203   4.204   4.079   4.974  0.3113  0.4023  0.2317
 6914SOL    HW132204   4.194   4.120   5.060  1.3425  1.1225  0.0008
 6914SOL    HW232205   4.152   4.140   4.922  0.8194 -0.0495 -0.8106
 6915SOL     OW32206   4.331   1.988   8.095  0.2344 -0.1825  0.2233
 6915SOL    HW132207   4.415   2.009   8.136  0.8526 -0.8502 -0.7115
 6915SOL    HW232208   4.356   1.997   8.003 -0.5351  0.5924  0.0804
 6916SOL     OW32209   0.133   0.673   5.617 -0.3873  0.0379  0.2729
 6916SOL    HW132210   0.193   0.726   5.669  2.2502 -1.0021 -1.6829
 6916SOL    HW232211   0.109   0.749   5.564 -1.5384 -0.3356  0.2585
 6917SOL     OW32212   2.972   4.348  16.071  0.1789 -0.2195 -0.4955
 6917SOL    HW132213   2.950   4.292  15.996  0.7647 -1.0674 -0.0369
 6917SOL    HW232214   2.943   4.436  16.050 -0.7907 -0.1230  1.2921
 6918SOL     OW32215   1.166   1.378  14.182  0.5653  0.3437  0.2999
 6918SOL    HW132216   1.124   1.457  14.148  1.6862  0.8406  0.0385
 6918SOL    HW232217   1.095   1.324  14.216  1.5280 -2.2130 -1.7040
 6919SOL     OW32218   0.716   1.077  17.573 -0.3905  0.1496 -0.7695
 6919SOL    HW132219   0.672   1.037  17.648 -1.8369  1.8342 -0.7263
 6919SOL    HW232220   0.659   1.047  17.502 -2.5037  0.0424  0.9749
 6920SOL     OW32221   0.639   4.359   6.161  0.1630  0.1868 -0.3337
 6920SOL    HW132222   0.677   4.417   6.227  0.5645 -0.0884 -0.3278
 6920SOL    HW232223   0.707   4.304   6.123 -0.2593 -0.1116 -0.6656
 6921SOL     OW32224   2.508   0.380   8.297 -0.6594 -0.0557  0.1510
 6921SOL    HW132225   2.561   0.444   8.249  0.2382 -0.4477  0.6324
 6921SOL    HW232226   2.468   0.346   8.217 -0.0518 -0.1902 -0.0978
 6922SOL     OW32227   2.548   2.585   8.329 -0.2242 -0.0060  0.2973
 6922SOL    HW132228   2.596   2.630   8.399 -0.7702  0.4916  0.3516
 6922SOL    HW232229   2.596   2.503   8.338 -1.2534 -0.6306  0.0374
 6923SOL     OW32230   0.095   3.678  12.915 -0.2741  0.3407  0.3512
 6923SOL    HW132231   0.019   3.679  12.975 -0.8209  2.2275 -0.3958
 6923SOL    HW232232   0.051   3.724  12.844  0.0277  0.4987  0.2690
 6924SOL     OW32233   0.734   1.539   3.859 -0.1315  0.1481  0.3508
 6924SOL    HW132234   0.671   1.578   3.799  0.7998  0.3232 -0.5101
 6924SOL    HW232235   0.794   1.502   3.795  1.0305  0.9520  0.9779
 6925SOL     OW32236   0.384   4.431   4.782  0.4158  0.6283 -0.0466
 6925SOL    HW132237   0.332   4.371   4.835  0.8579  2.1882  2.1312
 6925SOL    HW232238   0.326   4.456   4.710  1.0236 -1.0082 -1.1053
 6926SOL     OW32239   4.029   2.657   2.849  0.1275 -0.1113 -0.5130
 6926SOL    HW132240   4.108   2.666   2.796 -0.0872  2.5732 -0.3699
 6926SOL    HW232241   4.059   2.721   2.914  0.2869  1.4646 -2.1253
 6927SOL     OW32242   3.844   1.020  15.539  0.1512  0.0208 -0.4100
 6927SOL    HW132243   3.763   1.042  15.587 -0.8706  0.1149 -2.1819
 6927SOL    HW232244   3.902   1.041  15.612  0.2133  2.4962 -1.1561
 6928SOL     OW32245   0.776   1.493   3.220  0.3791  0.0062  0.2720
 6928SOL    HW132246   0.760   1.452   3.135 -2.0811  1.3486  0.0997
 6928SOL    HW232247   0.762   1.420   3.281 -0.2398 -0.0233  0.0880
 6929SOL     OW32248   3.209   3.724   0.810  0.3026  0.1768 -0.2865
 6929SOL    HW132249   3.183   3.812   0.782  1.3687  0.2307 -1.0837
 6929SOL    HW232250   3.177   3.672   0.736 -0.3608 -0.0201  0.1336
 6930SOL     OW32251   1.350   4.170   8.414  0.3843  0.1226 -0.4153
 6930SOL    HW132252   1.266   4.126   8.405  1.8289 -2.2701 -2.3266
 6930SOL    HW232253   1.392   4.115   8.479 -0.5918 -1.1987 -0.9192
 6931SOL     OW32254   2.991   0.248   5.381 -0.0326 -0.0861 -0.2516
 6931SOL    HW132255   3.084   0.271   5.378 -0.3942  1.1353 -1.9561
 6931SOL    HW232256   2.980   0.204   5.466  1.2474  0.3672  0.1413
 6932SOL     OW32257   3.378   1.061   0.851 -0.1378  0.0604  0.2926
 6932SOL    HW132258   3.431   0.985   0.828  0.7991  0.7142  0.3313
 6932SOL    HW232259   3.391   1.119   0.776 -0.8875  1.0618  0.9426
 6933SOL     OW32260   2.236   1.169   9.505 -0.3508  0.0724  0.2385
 6933SOL    HW132261   2.252   1.191   9.597 -1.5767 -0.7612  0.6508
 6933SOL    HW232262   2.298   1.223   9.457 -0.9611  1.1220  0.6380
 6934SOL     OW32263   2.147   0.460   7.607  0.2119 -0.1200 -0.1877
 6934SOL    HW132264   2.167   0.412   7.526  1.9133  0.1098  0.0941
 6934SOL    HW232265   2.180   0.546   7.581 -5.6105  2.2462  0.3657
 6935SOL     OW32266   2.057   2.323   3.850 -0.0162 -0.3943  0.1008
 6935SOL    HW132267   2.088   2.404   3.890  1.7703 -0.8342 -0.3468
 6935SOL    HW232268   1.968   2.319   3.884 -0.0347 -0.9202 -0.0048
 6936SOL     OW32269   2.010   0.063   6.422 -0.0324  0.2142  0.1706
 6936SOL    HW132270   1.932   0.075   6.367  0.9286  0.6168 -1.1166
 6936SOL    HW232271   2.038   0.154   6.433  2.0227 -0.5022  0.7733
 6937SOL     OW32272   4.612   3.125   2.081 -0.0610 -0.4583 -0.1189
 6937SOL    HW132273   4.681   3.177   2.041 -3.6018  2.5723 -2.2778
 6937SOL    HW232274   4.538   3.184   2.070  0.4803  0.4062  0.9091
 6938SOL     OW32275   1.626   0.840   3.214 -0.6354 -0.0649 -0.2230
 6938SOL    HW132276   1.605   0.874   3.302  1.8801  2.3408 -0.5648
 6938SOL    HW232277   1.720   0.855   3.212 -0.4021 -1.5816 -0.1131
 6939SOL     OW32278   3.324   1.598   0.721  0.3333 -0.2963 -0.0132
 6939SOL    HW132279   3.387   1.563   0.659  0.5906  0.8484 -0.4095
 6939SOL    HW232280   3.240   1.563   0.692 -0.8007 -0.1561  3.0106
 6940SOL     OW32281   0.538   1.089   2.854  0.2600 -0.1066  0.0164
 6940SOL    HW132282   0.479   1.022   2.818 -2.3811  0.6693  2.8620
 6940SOL    HW232283   0.506   1.174   2.824  1.7017  0.0659 -1.0185
 6941SOL     OW32284   1.278   2.593   1.427  0.3198 -1.0064 -0.5916
 6941SOL    HW132285   1.200   2.646   1.443  0.4916 -0.9687  0.1383
 6941SOL    HW232286   1.252   2.520   1.484 -0.5885  0.2757  0.6272
 6942SOL     OW32287   2.747   2.555   1.989  0.2179  0.3746 -0.7868
 6942SOL    HW132288   2.681   2.610   1.946 -1.0276 -0.0771  0.5673
 6942SOL    HW232289   2.784   2.518   1.908 -1.5881  0.3084 -1.5733
 6943SOL     OW32290   1.776   3.510   3.234 -0.5851  0.2600 -0.0178
 6943SOL    HW132291   1.752   3.602   3.227  0.8404  0.7487  1.5005
 6943SOL    HW232292   1.857   3.499   3.184 -0.1902 -2.1717  1.1300
 6944SOL     OW32293   3.633   0.130   3.535  0.1725  0.1289  0.1162
 6944SOL    HW132294   3.620   0.192   3.607  1.7355 -0.7090  1.1018
 6944SOL    HW232295   3.701   0.175   3.486  1.4381 -1.7212  0.1937
 6945SOL     OW32296   2.233   1.171   6.501  0.1050 -0.7018  0.3242
 6945SOL    HW132297   2.198   1.122   6.426 -0.9622 -0.4002  0.6206
 6945SOL    HW232298   2.290   1.235   6.458  0.0830 -0.7043  0.2905
 6946SOL     OW32299   3.777   1.002   5.825 -0.2064  0.4500 -0.1943
 6946SOL    HW132300   3.768   0.976   5.917 -2.2384  2.5820  0.1939
 6946SOL    HW232301   3.836   0.930   5.801 -0.7608  0.0241 -0.2865
 6947SOL     OW32302   1.704   3.924   0.639  0.8754 -0.2746 -0.5863
 6947SOL    HW132303   1.626   3.955   0.594 -1.1717 -1.9568  1.8734
 6947SOL    HW232304   1.695   3.965   0.725 -0.6699 -1.8226 -0.0195
 6948SOL     OW32305   4.637   2.605   0.351  0.0250  0.4929 -0.2885
 6948SOL    HW132306   4.676   2.638   0.270  0.2449 -0.0449 -0.4086
 6948SOL    HW232307   4.696   2.608   0.426  1.5528  2.7860 -1.5831
 6949SOL     OW32308   2.373   3.627  17.092  0.1769  0.5260  0.2318
 6949SOL    HW132309   2.337   3.705  17.134  3.1139  0.8535  2.1115
 6949SOL    HW232310   2.464   3.636  17.121  0.2618 -0.3759  0.2479
 6950SOL     OW32311   2.926   0.435   1.830  0.3659 -0.0812 -0.1176
 6950SOL    HW132312   2.880   0.512   1.796 -1.3354 -1.1074 -0.1367
 6950SOL    HW232313   3.009   0.478   1.848  1.5560 -2.2187 -0.5359
 6951SOL     OW32314   3.517   1.228  15.995 -0.4086  0.1332  0.6272
 6951SOL    HW132315   3.613   1.231  15.993 -0.5013  2.2373 -0.0788
 6951SOL    HW232316   3.494   1.281  15.919  1.4892 -1.3230 -0.9697
 6952SOL     OW32317   4.632   2.836   8.092 -0.0880  0.4319 -0.9866
 6952SOL    HW132318   4.680   2.919   8.088 -1.9529  1.5754  0.5298
 6952SOL    HW232319   4.698   2.790   8.144 -1.4759 -0.7833 -0.3008
 6953SOL     OW32320   3.066   1.787   9.626  0.0134 -0.2533  0.5996
 6953SOL    HW132321   2.985   1.831   9.650 -0.8096 -1.3363 -0.2220
 6953SOL    HW232322   3.048   1.705   9.671 -0.1055 -0.2990  0.4702
 6954SOL     OW32323   3.775   3.354   0.462 -0.3461  0.0497 -0.2205
 6954SOL    HW132324   3.849   3.308   0.421  0.4606  1.1321  0.0203
 6954SOL    HW232325   3.712   3.362   0.390  0.1596 -0.1502 -0.6858
 6955SOL     OW32326   3.923   2.843  17.299 -0.5270 -0.7745  0.1491
 6955SOL    HW132327   3.855   2.865  17.236 -1.5521 -3.3686  0.3518
 6955SOL    HW232328   3.879   2.847  17.384  0.3247 -0.0170  0.5464
 6956SOL     OW32329   1.509   3.422   4.593  0.7789 -0.2504  0.5519
 6956SOL    HW132330   1.415   3.410   4.609  1.0078 -1.7085  0.7172
 6956SOL    HW232331   1.531   3.329   4.595  2.8960  0.2633  0.6719
 6957SOL     OW32332   2.216   1.281   6.000 -0.2699 -0.5076  0.4451
 6957SOL    HW132333   2.212   1.330   5.918 -1.4119  0.8636  1.3053
 6957SOL    HW232334   2.121   1.291   6.010 -0.4130 -2.2365  0.8582
 6958SOL     OW32335   3.346   2.874   4.594  0.0209  0.3070  0.2203
 6958SOL    HW132336   3.310   2.851   4.508  2.0873 -1.1082 -0.2905
 6958SOL    HW232337   3.280   2.931   4.633 -1.1508  0.3038 -1.7633
 6959SOL     OW32338   4.671   1.362   8.466 -0.2695 -0.3134 -0.2683
 6959SOL    HW132339   4.595   1.418   8.451 -0.0983 -0.6228 -2.3182
 6959SOL    HW232340   4.633   1.274   8.468  0.1288 -0.4618  0.6954
 6960SOL     OW32341   1.110   2.854   7.844  0.4934  0.1081  0.0128
 6960SOL    HW132342   1.202   2.864   7.822  0.3654  1.9290  0.2747
 6960SOL    HW232343   1.116   2.855   7.939  1.4265 -0.8284 -0.0454
 6961SOL     OW32344   0.313   1.485   5.217  0.2408  0.5280  0.0052
 6961SOL    HW132345   0.254   1.410   5.204 -1.3759  1.5971  1.1499
 6961SOL    HW232346   0.395   1.456   5.179  0.5693  1.5231 -0.0258
 6962SOL     OW32347   1.481   2.541   2.328 -0.5619  0.4003  0.5471
 6962SOL    HW132348   1.538   2.479   2.374 -0.0663 -0.4773 -1.2476
 6962SOL    HW232349   1.521   2.551   2.242  0.2279 -1.8542  0.6621
 6963SOL     OW32350   2.717   3.856  16.385 -0.3611 -0.7735 -0.4807
 6963SOL    HW132351   2.659   3.929  16.406 -0.1176 -0.9847  0.9653
 6963SOL    HW232352   2.718   3.812  16.470  2.4359 -0.7540 -0.4850
 6964SOL     OW32353   3.718   3.649  16.130  0.8043 -0.0589  0.4718
 6964SOL    HW132354   3.735   3.711  16.201 -3.8251 -0.3286  1.8428
 6964SOL    HW232355   3.781   3.687  16.070 -0.3412  0.6320 -0.2887
 6965SOL     OW32356   3.334   2.397   7.463  0.2825 -0.4093  0.4840
 6965SOL    HW132357   3.239   2.411   7.471  0.6133  0.4627  2.7954
 6965SOL    HW232358   3.366   2.482   7.493  1.4332 -1.0009  0.8916
 6966SOL     OW32359   3.283   4.294   9.397 -0.0678 -0.1384  0.1809
 6966SOL    HW132360   3.359   4.316   9.343 -1.8872  0.3151 -2.2023
 6966SOL    HW232361   3.332   4.239   9.458  1.8866  1.0482 -0.3002
 6967SOL     OW32362   3.349   0.798   8.505  0.6869  0.0986 -0.0142
 6967SOL    HW132363   3.378   0.808   8.595  1.3176 -1.5273 -0.0322
 6967SOL    HW232364   3.425   0.844   8.467 -0.4308  2.6424  0.8340
 6968SOL     OW32365   3.025   0.469   3.276 -0.1519 -0.1732  0.2649
 6968SOL    HW132366   2.969   0.474   3.199  2.6030  1.3944 -1.6590
 6968SOL    HW232367   3.093   0.409   3.246  0.1170 -0.4401  1.4052
 6969SOL     OW32368   3.869   3.935   3.358 -0.0280 -0.0151 -0.3836
 6969SOL    HW132369   3.934   3.996   3.323  0.1690  0.1265  0.2416
 6969SOL    HW232370   3.876   3.932   3.453 -1.6207 -0.6368 -0.2974
 6970SOL     OW32371   3.731   0.024  17.557 -0.6240  0.3326 -0.3198
 6970SOL    HW132372   3.776   0.098  17.518 -1.0339  0.1479 -1.1499
 6970SOL    HW232373   3.744   0.046  17.649 -0.9252 -1.1791  0.0937
 6971SOL     OW32374   1.584   1.088  17.144 -0.0994  0.2378 -0.8353
 6971SOL    HW132375   1.658   1.033  17.170  0.4786  0.9301 -1.0063
 6971SOL    HW232376   1.520   1.061  17.209  1.7804  0.9005  1.2865
 6972SOL     OW32377   3.165   2.575   9.696  0.4008  0.3112 -0.4330
 6972SOL    HW132378   3.231   2.566   9.627  1.6161 -0.7253  0.8782
 6972SOL    HW232379   3.179   2.490   9.738 -1.6348  0.0935 -0.2104
 6973SOL     OW32380   2.822   2.140  17.659 -0.6346  0.2607 -0.3760
 6973SOL    HW132381   2.768   2.076  17.705  0.2510 -0.1011  0.1578
 6973SOL    HW232382   2.885   2.094  17.603  2.0912  4.2789 -0.6037
 6974SOL     OW32383   1.407   2.571   7.028  0.2631 -0.2705  0.1179
 6974SOL    HW132384   1.322   2.597   7.065 -0.7403 -3.0013 -0.2741
 6974SOL    HW232385   1.468   2.642   7.050 -2.7301  1.8619  1.5443
 6975SOL     OW32386   2.878   1.637  12.514  0.7636  0.0934  0.3904
 6975SOL    HW132387   2.814   1.575  12.548  1.5065 -1.6549 -1.3444
 6975SOL    HW232388   2.956   1.583  12.498  0.9417  1.0048 -1.8822
 6976SOL     OW32389   0.194   3.451   7.585 -0.4234  0.1809 -0.0628
 6976SOL    HW132390   0.185   3.368   7.538  0.2317  0.2812 -0.3745
 6976SOL    HW232391   0.275   3.438   7.635 -1.8844 -1.5939  1.7803
 6977SOL     OW32392   4.340   3.273   1.987  0.1741  0.2880 -0.5982
 6977SOL    HW132393   4.360   3.314   2.071  0.7785 -0.4396 -0.3820
 6977SOL    HW232394   4.383   3.337   1.932  0.0948  0.2297 -0.7278
 6978SOL     OW32395   4.182   0.455   3.658 -0.0414 -0.1029 -0.3095
 6978SOL    HW132396   4.220   0.539   3.634  0.4374 -0.4648 -0.8160
 6978SOL    HW232397   4.240   0.435   3.731  0.6096 -0.7237 -0.9986
 6979SOL     OW32398   2.017   1.260  14.257  0.6957  0.0639 -0.0105
 6979SOL    HW132399   2.042   1.197  14.325 -1.6971 -1.8610 -0.9238
 6979SOL    HW232400   1.996   1.198  14.188  0.0958  1.8003 -1.3975
 6980SOL     OW32401   0.025   3.134   1.711  0.3053  0.5591  0.5847
 6980SOL    HW132402   0.063   3.180   1.786  1.9580  0.7031 -0.3441
 6980SOL    HW232403   0.065   3.176   1.635  1.0009  1.8204  1.6425
 6981SOL     OW32404   3.003   2.313   5.889 -0.2463  0.2100  0.0623
 6981SOL    HW132405   3.086   2.266   5.893  0.1764  0.8094 -1.4456
 6981SOL    HW232406   2.961   2.297   5.973  0.1869  1.5220  0.5328
 6982SOL     OW32407   3.430   3.027   1.329  0.2960 -0.3498 -0.2678
 6982SOL    HW132408   3.399   2.999   1.243 -2.2332  0.4793  0.3777
 6982SOL    HW232409   3.525   3.038   1.321  0.4359 -2.1781 -1.0795
 6983SOL     OW32410   0.024   2.464   8.744 -0.1371  0.0382  0.1150
 6983SOL    HW132411   0.047   2.394   8.805 -1.5056 -0.6127 -0.1172
 6983SOL    HW232412   0.052   2.421   8.664  0.5188 -1.0284  0.9234
 6984SOL     OW32413   3.839   2.740   5.417  0.1129 -0.4197 -0.0363
 6984SOL    HW132414   3.913   2.695   5.377  1.5214  1.4286  0.5138
 6984SOL    HW232415   3.775   2.690   5.366 -2.4906  3.1036 -0.2220
 6985SOL     OW32416   3.021   3.819   7.005 -0.5263  0.5926 -0.3878
 6985SOL    HW132417   2.968   3.839   6.927  1.1661  0.5619 -1.5519
 6985SOL    HW232418   3.000   3.895   7.059 -0.3082  0.0941  0.4008
 6986SOL     OW32419   1.411   1.577   8.100 -0.3728  0.4274 -0.1853
 6986SOL    HW132420   1.379   1.491   8.128  1.2102  0.0827  0.5349
 6986SOL    HW232421   1.397   1.627   8.181  0.5489 -0.9371  0.8195
 6987SOL     OW32422   1.858   0.207  10.484 -0.1281 -0.0968  0.5806
 6987SOL    HW132423   1.847   0.127  10.433  1.6459  0.2039 -0.2834
 6987SOL    HW232424   1.948   0.237  10.469 -0.5504  1.7297  1.7597
 6988SOL     OW32425   4.179   0.847   7.324  0.0217 -0.1646  0.4175
 6988SOL    HW132426   4.210   0.813   7.408 -2.2634 -2.0239  0.5294
 6988SOL    HW232427   4.214   0.784   7.262 -1.0515  0.3315 -0.7134
 6989SOL     OW32428   1.275   2.522   8.765  0.1147 -0.3564  0.8875
 6989SOL    HW132429   1.305   2.436   8.736 -1.0493 -0.5286  0.2305
 6989SOL    HW232430   1.180   2.518   8.760  0.0811  1.2655  0.1234
 6990SOL     OW32431   1.456   2.083   5.227 -0.5590 -0.3215 -0.1026
 6990SOL    HW132432   1.476   2.016   5.161 -0.5147  0.3584 -0.7701
 6990SOL    HW232433   1.537   2.133   5.224  0.3826 -1.7000  1.8981
 6991SOL     OW32434   0.534   3.586  14.558 -0.2662  0.2749  0.2685
 6991SOL    HW132435   0.596   3.658  14.564 -0.3976  0.2924  1.4088
 6991SOL    HW232436   0.599   3.521  14.585 -0.3257  0.9253  1.9766
 6992SOL     OW32437   3.353   4.004   4.196  0.5919  0.8011  0.3284
 6992SOL    HW132438   3.326   4.090   4.228 -1.2953  0.0214  0.8430
 6992SOL    HW232439   3.397   3.957   4.267 -0.4726  0.2850  0.6464
 6993SOL     OW32440   1.583   4.083   3.899 -0.7079  0.0724 -0.4192
 6993SOL    HW132441   1.607   4.135   3.822 -1.5538 -0.3772 -0.9849
 6993SOL    HW232442   1.641   4.123   3.963  0.8936 -0.0778 -1.7754
 6994SOL     OW32443   4.549   0.007   7.554  0.5328 -0.4942 -0.4487
 6994SOL    HW132444   4.587   4.692   7.478  1.0358  2.1024 -1.7091
 6994SOL    HW232445   4.469   4.687   7.570  1.0963 -0.8782  1.1767
 6995SOL     OW32446   1.441   1.445   6.978  0.1296  0.3051 -0.0711
 6995SOL    HW132447   1.464   1.352   6.977 -0.3979  0.1802 -0.8700
 6995SOL    HW232448   1.381   1.451   7.053 -0.4681 -1.7175 -0.3794
 6996SOL     OW32449   2.073   2.149   8.083 -0.0831 -0.1633  0.0440
 6996SOL    HW132450   2.117   2.076   8.127  0.0438  1.2224  2.1870
 6996SOL    HW232451   2.137   2.220   8.086 -0.8211  0.6792 -3.2860
 6997SOL     OW32452   0.003   0.924  16.646 -0.7559 -0.2243  0.3503
 6997SOL    HW132453   0.066   0.967  16.704 -0.0965 -1.1592  0.3258
 6997SOL    HW232454   4.653   0.973  16.669 -0.5685 -0.4647  1.5116
 6998SOL     OW32455   1.407   4.455   3.030  0.0425  0.0951  0.0593
 6998SOL    HW132456   1.403   4.508   2.951 -2.0948 -0.6668 -0.3510
 6998SOL    HW232457   1.469   4.390   2.997  0.7458  0.0386  1.4522
 6999SOL     OW32458   2.862   0.022  12.623  0.2625 -0.1036 -0.3739
 6999SOL    HW132459   2.861   0.035  12.528 -1.3649  0.3308 -0.3075
 6999SOL    HW232460   2.882   0.112  12.649 -1.6327  0.1468  0.1928
 7000SOL     OW32461   3.497   4.057   0.525  0.2850 -1.0440 -0.0043
 7000SOL    HW132462   3.425   4.044   0.587  0.5944  1.0689  0.7857
 7000SOL    HW232463   3.507   4.152   0.528  2.1785 -1.2910  1.0794
 7001SOL     OW32464   0.802   3.626   8.239 -0.4067  0.2363 -0.3391
 7001SOL    HW132465   0.800   3.532   8.259  2.2076  0.0883 -0.7933
 7001SOL    HW232466   0.733   3.629   8.172 -1.7612 -0.9975  1.0032
 7002SOL     OW32467   4.336   0.709   1.774 -0.0359 -0.4843  0.2082
 7002SOL    HW132468   4.339   0.781   1.710  1.9239  0.0714  0.9561
 7002SOL    HW232469   4.250   0.666   1.773 -0.2911 -0.0014  3.0128
 7003SOL     OW32470   3.636   0.902   9.474 -0.2893  0.5050 -0.3786
 7003SOL    HW132471   3.631   0.843   9.399  0.4680  1.1215 -0.9065
 7003SOL    HW232472   3.557   0.884   9.525 -0.3302 -1.4202 -1.1503
 7004SOL     OW32473   3.241   4.358  16.117  0.0438  0.0384 -0.2219
 7004SOL    HW132474   3.255   4.265  16.100 -2.5284 -0.7425  1.9573
 7004SOL    HW232475   3.146   4.358  16.127  0.0699 -1.7535 -0.0369
 7005SOL     OW32476   1.490   2.213   6.461  0.0461  0.6219  0.6946
 7005SOL    HW132477   1.539   2.215   6.543  0.3805 -0.4975  0.5244
 7005SOL    HW232478   1.447   2.299   6.457 -0.4507  0.3437 -0.0523
 7006SOL     OW32479   4.096   4.600   8.808 -0.0810 -0.4378  0.1451
 7006SOL    HW132480   4.162   4.548   8.854 -0.0960  0.1220  0.7986
 7006SOL    HW232481   4.060   4.533   8.751  0.7052 -1.3826  0.7608
 7007SOL     OW32482   1.015   4.693   6.270 -0.0878  0.2018 -0.4532
 7007SOL    HW132483   1.094   4.728   6.310  2.1986 -2.2370 -2.8842
 7007SOL    HW232484   1.048   4.654   6.190 -1.4879  0.2447 -1.0618
 7008SOL     OW32485   0.738   1.637   7.246 -0.0161  0.0671  0.5392
 7008SOL    HW132486   0.742   1.644   7.151  0.9494  0.4063  0.6068
 7008SOL    HW232487   0.662   1.581   7.260 -0.0886 -0.3905 -1.6636
 7009SOL     OW32488   4.236   0.612   7.497 -0.6224 -0.1543  0.5533
 7009SOL    HW132489   4.150   0.629   7.536 -0.4894  0.1345  0.7217
 7009SOL    HW232490   4.220   0.519   7.486  0.0752 -0.2340  0.1919
 7010SOL     OW32491   1.527   2.706   4.868  0.0357 -0.2171  0.3303
 7010SOL    HW132492   1.584   2.756   4.927 -0.5851  1.1131 -0.2133
 7010SOL    HW232493   1.454   2.675   4.922 -0.4298 -0.8297 -0.6412
 7011SOL     OW32494   0.249   4.051   6.834  0.0084  0.5595  0.1733
 7011SOL    HW132495   0.317   4.103   6.791  0.4423  1.0227  1.4246
 7011SOL    HW232496   0.192   4.123   6.862  1.7057  1.6109  0.8920
 7012SOL     OW32497   4.142   1.259   7.502 -0.1578 -0.0581 -0.8318
 7012SOL    HW132498   4.104   1.185   7.456 -1.1241  0.0408 -0.1827
 7012SOL    HW232499   4.201   1.212   7.561 -0.8598 -1.9908 -1.6754
 7013SOL     OW32500   2.106   2.655   1.131 -0.0007  0.2954 -0.0121
 7013SOL    HW132501   2.055   2.668   1.211  2.4470 -0.3469  1.6881
 7013SOL    HW232502   2.119   2.560   1.141 -1.1260  0.1960  0.4928
 7014SOL     OW32503   1.002   4.540   2.771  0.9036 -0.0210 -0.0186
 7014SOL    HW132504   1.032   4.544   2.680  0.7559  1.1090 -0.0074
 7014SOL    HW232505   1.078   4.556   2.826  0.1092  2.4446  0.3577
 7015SOL     OW32506   0.372   1.151  12.095 -0.2019 -0.0383 -0.4908
 7015SOL    HW132507   0.398   1.104  12.175  2.1732  0.1325 -1.1576
 7015SOL    HW232508   0.325   1.230  12.122 -0.0438  0.2770 -1.1265
 7016SOL     OW32509   1.390   3.906   9.671  0.1400 -0.2533  0.4476
 7016SOL    HW132510   1.452   3.835   9.655  1.5509  0.5806  2.1896
 7016SOL    HW232511   1.335   3.870   9.741  0.1629  0.1790  0.6887
 7017SOL     OW32512   3.102   1.245   1.975  0.6597  0.0228 -0.7359
 7017SOL    HW132513   3.130   1.182   2.041  1.3040  0.3308 -0.7125
 7017SOL    HW232514   3.051   1.310   2.024 -0.5036 -2.0810  0.8557
 7018SOL     OW32515   4.227   2.363   4.256 -0.4169  0.1447 -0.3720
 7018SOL    HW132516   4.292   2.323   4.315 -1.9793 -0.7731  0.7330
 7018SOL    HW232517   4.155   2.366   4.318  0.3184 -0.9331  0.5556
 7019SOL     OW32518   2.564   1.996   9.365 -0.0919 -0.7399 -0.1623
 7019SOL    HW132519   2.617   2.030   9.437 -0.2836  0.3346 -0.5241
 7019SOL    HW232520   2.477   2.007   9.404 -0.5011 -0.8001 -1.0548
 7020SOL     OW32521   3.782   2.199   6.000 -0.1892 -0.0284  0.7020
 7020SOL    HW132522   3.850   2.192   6.067 -1.2404 -1.4338  1.6419
 7020SOL    HW232523   3.801   2.126   5.941  0.1301  0.9435 -0.3826
 7021SOL     OW32524   0.528   4.026   6.011 -0.2214 -0.1439 -0.1687
 7021SOL    HW132525   0.518   3.991   5.923  1.3123 -0.5347 -0.1906
 7021SOL    HW232526   0.503   4.117   5.998 -0.9929 -0.7154 -2.6508
 7022SOL     OW32527   0.870   2.500   3.837 -0.2370 -0.3381  0.1032
 7022SOL    HW132528   0.955   2.482   3.878 -0.6794  1.9198  2.0442
 7022SOL    HW232529   0.864   2.595   3.827  0.8013 -0.0476  2.2323
 7023SOL     OW32530   2.085   4.566   4.639  0.3540 -0.2686  0.5326
 7023SOL    HW132531   2.009   4.613   4.674  1.4307  1.2484  0.8301
 7023SOL    HW232532   2.104   4.502   4.707 -1.3758  0.0465  1.3178
 7024SOL     OW32533   3.757   3.021   4.850  0.1120  0.2995  0.1594
 7024SOL    HW132534   3.809   3.052   4.775  0.5795 -1.4751 -0.2325
 7024SOL    HW232535   3.690   2.981   4.794 -0.4678  0.3340  0.8228
 7025SOL     OW32536   3.034   2.285   7.836 -0.5067 -0.5623 -0.3792
 7025SOL    HW132537   3.102   2.344   7.870 -0.4826 -2.7220  3.3498
 7025SOL    HW232538   3.018   2.325   7.751  0.7177 -0.8159 -0.7400
 7026SOL     OW32539   4.329   3.707   4.566  0.2182  0.1785  0.3269
 7026SOL    HW132540   4.253   3.666   4.524 -0.8569  0.9575  1.5128
 7026SOL    HW232541   4.322   3.666   4.653  0.5388  2.1017  1.2450
 7027SOL     OW32542   0.767   4.255   1.413 -0.3354  0.5375  0.0175
 7027SOL    HW132543   0.800   4.206   1.489  1.7560 -0.9587 -1.8796
 7027SOL    HW232544   0.735   4.336   1.454  0.5088  0.7551  0.2664
 7028SOL     OW32545   1.253   1.216   4.760  0.2216 -0.3288 -0.7153
 7028SOL    HW132546   1.332   1.229   4.708  0.1925  2.2981 -0.1067
 7028SOL    HW232547   1.189   1.267   4.710  0.8707  0.8256 -0.3441
 7029SOL     OW32548   0.753   2.553   4.558 -0.3304  0.0511 -0.1118
 7029SOL    HW132549   0.820   2.620   4.572 -0.8275  0.9968 -2.1398
 7029SOL    HW232550   0.815   2.482   4.549  0.9181  1.0704  0.4138
 7030SOL     OW32551   1.081   2.238   4.930 -0.0139 -0.6610  0.6333
 7030SOL    HW132552   1.147   2.284   4.878  0.1753 -0.1422  1.3187
 7030SOL    HW232553   1.098   2.276   5.016  1.4548 -1.3319  0.6426
 7031SOL     OW32554   0.730   0.813   2.357 -0.1433 -0.0426  0.4367
 7031SOL    HW132555   0.725   0.815   2.453 -1.2886 -3.1650  0.4384
 7031SOL    HW232556   0.645   0.778   2.329  0.0980 -0.2018 -0.1077
 7032SOL     OW32557   3.408   2.545  13.606 -0.4100 -0.1973 -0.4147
 7032SOL    HW132558   3.432   2.587  13.689 -2.2897  0.3859 -0.1610
 7032SOL    HW232559   3.319   2.516  13.626 -0.8372  1.3723 -0.0795
 7033SOL     OW32560   4.420   2.180   4.496  0.1184  0.7927 -0.3311
 7033SOL    HW132561   4.494   2.176   4.435 -0.1949  2.6117 -0.8458
 7033SOL    HW232562   4.436   2.099   4.544  1.2754  0.7560 -0.7777
 7034SOL     OW32563   1.337   3.216   1.052 -0.1468 -0.0354 -0.1656
 7034SOL    HW132564   1.370   3.171   0.974 -1.2795 -3.0412  1.0831
 7034SOL    HW232565   1.370   3.170   1.129 -4.1443  1.1773  2.2379
 7035SOL     OW32566   2.945   0.131   5.621  0.3452  0.2108 -0.3671
 7035SOL    HW132567   3.011   0.179   5.671  0.8075 -0.3576 -0.4315
 7035SOL    HW232568   2.875   0.121   5.686 -0.1280  2.3101 -0.5622
 7036SOL     OW32569   2.046   3.000  12.328  0.0005  0.1905  0.1793
 7036SOL    HW132570   2.097   3.007  12.247 -0.4848 -0.8600 -0.2243
 7036SOL    HW232571   2.003   3.086  12.318 -1.5144 -0.8650 -2.6019
 7037SOL     OW32572   0.196   1.699   8.817 -0.2027 -0.1245 -0.3145
 7037SOL    HW132573   0.213   1.609   8.845 -0.1841 -0.2117 -0.6069
 7037SOL    HW232574   0.142   1.688   8.739 -0.8349  0.2303  0.0693
 7038SOL     OW32575   3.055   1.684  14.359 -0.3771 -0.1496 -0.1735
 7038SOL    HW132576   3.081   1.776  14.354  0.3519 -0.5488 -4.0049
 7038SOL    HW232577   3.019   1.666  14.272 -1.7074 -0.5797  0.4683
 7039SOL     OW32578   4.283   1.779   4.675 -0.4380  0.1897 -0.0181
 7039SOL    HW132579   4.339   1.824   4.738  1.9229 -3.7158  0.7267
 7039SOL    HW232580   4.273   1.693   4.717 -2.0480  0.1025 -0.5904
 7040SOL     OW32581   2.676   2.981  15.378 -0.8839 -0.3776  0.4846
 7040SOL    HW132582   2.606   3.046  15.370  0.1136  0.3308 -2.4268
 7040SOL    HW232583   2.738   3.038  15.425  1.5594 -1.1165 -1.8607
 7041SOL     OW32584   1.221   2.599   7.463  0.2216 -0.0575 -0.4592
 7041SOL    HW132585   1.133   2.629   7.439 -0.3459 -1.1853  0.2194
 7041SOL    HW232586   1.276   2.677   7.453  0.5783 -0.4152 -1.2800
 7042SOL     OW32587   0.133   2.007   8.954 -0.5763 -0.0705  0.2797
 7042SOL    HW132588   0.127   1.912   8.943 -0.1334 -0.0797  0.1542
 7042SOL    HW232589   0.186   2.014   9.034 -0.8257 -0.4371  0.4794
 7043SOL     OW32590   0.863   3.395   1.423 -0.5624 -0.1032 -0.0563
 7043SOL    HW132591   0.804   3.350   1.483  0.2793 -0.5998  0.4012
 7043SOL    HW232592   0.833   3.373   1.335  0.1721  1.1077 -0.6101
 7044SOL     OW32593   2.958   1.290   1.402 -0.6527 -0.4529 -0.1608
 7044SOL    HW132594   2.866   1.306   1.381 -0.6195  0.1525  0.1498
 7044SOL    HW232595   2.998   1.356   1.346 -2.2188 -0.1045 -0.8626
 7045SOL     OW32596   0.688   0.178   4.730 -0.0287 -0.3070  0.7997
 7045SOL    HW132597   0.596   0.156   4.746 -0.9440  1.4345 -1.9918
 7045SOL    HW232598   0.680   0.261   4.683  0.5180 -0.9017 -0.3616
 7046SOL     OW32599   1.336   2.656   9.315  0.5059 -0.3487 -0.0482
 7046SOL    HW132600   1.366   2.633   9.227  0.7626  0.7720 -0.2511
 7046SOL    HW232601   1.298   2.743   9.308 -1.8816 -1.3580  0.4046
 7047SOL     OW32602   3.493   0.494   8.953 -0.1862 -0.7148  0.3487
 7047SOL    HW132603   3.576   0.509   8.907 -0.5859 -0.6312 -0.3353
 7047SOL    HW232604   3.499   0.399   8.946 -2.9315 -1.0154  2.1702
 7048SOL     OW32605   3.537   3.134   3.964  0.0817  0.0017 -0.1345
 7048SOL    HW132606   3.472   3.108   3.899 -0.8210  1.7423  0.0910
 7048SOL    HW232607   3.493   3.199   4.019 -1.6478  0.1103 -1.6576
 7049SOL     OW32608   1.496   4.601   4.704 -0.0248  0.2754  0.1509
 7049SOL    HW132609   1.420   4.656   4.686  0.2128 -0.2889 -2.5429
 7049SOL    HW232610   1.530   4.637   4.786 -0.4358  0.9726  0.0164
 7050SOL     OW32611   1.908   1.169   5.633 -0.2843  0.0706  0.3176
 7050SOL    HW132612   1.991   1.137   5.598 -1.2280 -2.0222 -0.0154
 7050SOL    HW232613   1.852   1.158   5.556  1.8262 -1.0025 -1.0690
 7051SOL     OW32614   3.619   2.396   5.082  0.1686  0.1087  0.1293
 7051SOL    HW132615   3.550   2.337   5.113  2.1107 -0.8729  2.5377
 7051SOL    HW232616   3.588   2.401   4.991  0.8554  2.4502  0.0175
 7052SOL     OW32617   2.418   2.907   1.797 -0.1847  0.5453  0.9927
 7052SOL    HW132618   2.345   2.930   1.740 -1.0130 -4.5927  0.0600
 7052SOL    HW232619   2.440   2.832   1.742 -2.9022 -0.5791  1.4480
 7053SOL     OW32620   3.319   4.323   2.360  0.4094 -0.4328 -0.0255
 7053SOL    HW132621   3.280   4.280   2.437  0.4018 -0.4999 -0.0670
 7053SOL    HW232622   3.250   4.316   2.294 -0.4313 -0.7212  0.8856
 7054SOL     OW32623   1.980   0.336   7.987 -0.5673  0.5093 -0.1682
 7054SOL    HW132624   1.931   0.281   8.048  2.6561 -0.8903  1.1263
 7054SOL    HW232625   1.911   0.367   7.927 -1.7877 -0.2735  0.8393
 7055SOL     OW32626   2.614   3.728   7.032  0.4610  0.2337  1.2164
 7055SOL    HW132627   2.536   3.713   6.979  1.5556  0.3726 -0.4103
 7055SOL    HW232628   2.576   3.786   7.099 -1.2600 -1.1348  1.4217
 7056SOL     OW32629   3.567   2.349   8.709 -0.1594  0.5770 -0.4776
 7056SOL    HW132630   3.604   2.306   8.632  1.7755  2.5430 -0.6285
 7056SOL    HW232631   3.615   2.431   8.703  1.2464 -0.3591 -2.1064
 7057SOL     OW32632   1.929   3.237   8.258 -0.0862  0.3847  0.1847
 7057SOL    HW132633   1.892   3.321   8.231  0.5480  1.2510  1.9416
 7057SOL    HW232634   1.867   3.201   8.321 -1.3007  0.2704 -1.0830
 7058SOL     OW32635   0.878   0.130  12.219  0.4944 -0.2489  0.0427
 7058SOL    HW132636   0.822   0.092  12.287 -2.1148  0.0896 -1.9361
 7058SOL    HW232637   0.927   0.185  12.281 -0.6466 -1.4471  2.0076
 7059SOL     OW32638   0.071   1.209   6.221 -0.0174  0.7121 -0.4703
 7059SOL    HW132639   0.001   1.233   6.161  0.9445 -0.4430 -2.0607
 7059SOL    HW232640   0.136   1.261   6.175  0.6042  1.4345  1.2395
 7060SOL     OW32641   0.454   0.543  15.823 -0.4827 -0.0184  0.1987
 7060SOL    HW132642   0.429   0.456  15.855 -1.5552  0.8470  1.7356
 7060SOL    HW232643   0.549   0.536  15.824 -0.4841 -0.0366  0.1980
 7061SOL     OW32644   3.950   1.011  14.044 -0.3929  0.2641 -0.2253
 7061SOL    HW132645   3.855   1.001  14.034 -0.4299  0.8986 -0.5167
 7061SOL    HW232646   3.963   1.098  14.007  1.6700  0.2758  0.5617
 7062SOL     OW32647   3.466   1.090   5.364 -0.1294 -0.6701  0.0372
 7062SOL    HW132648   3.480   1.183   5.381  0.7391 -1.6267  4.4728
 7062SOL    HW232649   3.398   1.081   5.431  0.5595 -1.1684  0.6685
 7063SOL     OW32650   1.362   1.831   6.388  0.0553 -0.0478  0.0531
 7063SOL    HW132651   1.400   1.905   6.341  1.1830 -0.4774  0.2722
 7063SOL    HW232652   1.425   1.765   6.357  0.5443  0.3657  0.1744
 7064SOL     OW32653   1.784   2.342  16.922  0.1326 -0.3463 -0.3275
 7064SOL    HW132654   1.873   2.346  16.887  0.0596 -0.4743 -0.5290
 7064SOL    HW232655   1.777   2.408  16.991  0.1328 -0.4601 -0.2190
 7065SOL     OW32656   1.349   2.448   4.573  0.0069  0.7718  0.2754
 7065SOL    HW132657   1.265   2.417   4.608  0.8904 -0.8518  0.9358
 7065SOL    HW232658   1.323   2.458   4.482  0.6826 -0.2045 -0.0209
 7066SOL     OW32659   2.403   1.442   8.366  0.0171  0.1197 -1.3409
 7066SOL    HW132660   2.447   1.358   8.377  1.5667  1.2402  1.0692
 7066SOL    HW232661   2.401   1.440   8.270 -0.6903  1.0826 -1.3449
 7067SOL     OW32662   0.787   3.710  14.852  0.4850  0.1700 -1.3878
 7067SOL    HW132663   0.870   3.757  14.859  0.0444  0.9599 -1.5218
 7067SOL    HW232664   0.798   3.686  14.759  1.0367  0.9689 -1.5314
 7068SOL     OW32665   4.350   0.546   8.173  0.3875 -0.2199 -0.0026
 7068SOL    HW132666   4.278   0.519   8.230  1.2188  0.5022  1.3826
 7068SOL    HW232667   4.380   0.630   8.207 -0.1899 -0.7431  1.8447
 7069SOL     OW32668   3.498   4.521  16.405 -0.1088  0.1466 -0.3295
 7069SOL    HW132669   3.494   4.489  16.495 -0.4748 -1.1546 -0.8129
 7069SOL    HW232670   3.408   4.497  16.385 -0.1137  1.3095 -1.6928
 7070SOL     OW32671   2.113   3.109   2.033 -0.6101  0.0065 -0.0216
 7070SOL    HW132672   2.133   3.101   1.940 -2.4469  2.8893 -0.6833
 7070SOL    HW232673   2.045   3.176   2.025 -0.9822 -0.3509  0.1849
 7071SOL     OW32674   4.109   0.383   3.980 -0.0581  0.1620 -0.2411
 7071SOL    HW132675   4.089   0.294   4.008  0.0291 -0.1865 -1.2708
 7071SOL    HW232676   4.030   0.419   3.939 -0.4381 -0.1804  0.1936
 7072SOL     OW32677   1.098   4.665  12.754 -0.3387 -0.4523 -0.3453
 7072SOL    HW132678   1.093   4.659  12.850 -0.2717  1.1647 -0.2492
 7072SOL    HW232679   1.095   4.571  12.735 -0.9688 -0.4538 -0.2414
 7073SOL     OW32680   4.202   2.931  16.481  0.2579  0.0177 -0.3703
 7073SOL    HW132681   4.207   2.908  16.388  0.0748 -0.1219 -0.3459
 7073SOL    HW232682   4.181   2.842  16.509  2.0455 -0.4749 -0.6080
 7074SOL     OW32683   0.160   3.835   3.358  0.0968  0.3194 -0.2669
 7074SOL    HW132684   0.135   3.759   3.411 -0.4999  0.1924 -0.7264
 7074SOL    HW232685   0.241   3.863   3.402 -0.3348  0.1784  0.6251
 7075SOL     OW32686   2.685   2.785   8.486 -0.4172 -0.1662  0.0356
 7075SOL    HW132687   2.738   2.834   8.424 -1.1370 -2.0869 -2.0984
 7075SOL    HW232688   2.757   2.760   8.544  0.1006  0.3631 -0.3935
 7076SOL     OW32689   3.213   1.674   6.915  0.1820 -0.3410 -0.0164
 7076SOL    HW132690   3.264   1.594   6.925  0.2166 -0.2929  0.1883
 7076SOL    HW232691   3.271   1.738   6.957 -0.5655 -0.0993  0.6528
 7077SOL     OW32692   3.884   2.399  14.716 -0.5568 -0.4608 -0.0365
 7077SOL    HW132693   3.959   2.407  14.658 -0.3451 -1.4006  0.1006
 7077SOL    HW232694   3.875   2.488  14.749  0.2592 -0.5281  0.3537
 7078SOL     OW32695   1.976   3.871   4.679  0.4109 -0.2058 -0.4298
 7078SOL    HW132696   1.968   3.852   4.773 -0.7619  3.0246  0.1197
 7078SOL    HW232697   2.011   3.959   4.689 -2.0310  0.7728 -0.4685
 7079SOL     OW32698   0.204   0.659   9.061 -0.2115 -0.2589 -0.2893
 7079SOL    HW132699   0.284   0.709   9.050 -1.6158  2.2258  0.8476
 7079SOL    HW232700   0.245   0.578   9.089  2.9787  1.3832 -0.2840
 7080SOL     OW32701   3.347   2.172   2.770  0.2109 -0.0379  0.0210
 7080SOL    HW132702   3.372   2.189   2.679 -0.3968 -0.1709 -0.1772
 7080SOL    HW232703   3.258   2.209   2.774  0.3276  0.2906 -0.4180
 7081SOL     OW32704   3.163   1.119  14.639  0.0892 -0.4632  0.0618
 7081SOL    HW132705   3.118   1.167  14.709  1.0720 -2.0534  1.7875
 7081SOL    HW232706   3.127   1.032  14.653  2.7697 -1.2838  1.8794
 7082SOL     OW32707   3.494   4.545  11.025  0.0541 -0.1220  0.4988
 7082SOL    HW132708   3.405   4.515  11.007 -0.0888  2.3670 -2.9322
 7082SOL    HW232709   3.488   4.580  11.114 -0.4835 -1.5995  1.0438
 7083SOL     OW32710   4.052   4.053   9.735  0.1637 -0.0467 -0.0331
 7083SOL    HW132711   3.990   3.980   9.725  0.3190 -0.2228  0.2798
 7083SOL    HW232712   4.075   4.069   9.643 -0.9371 -2.3809 -0.7236
 7084SOL     OW32713   0.366   3.579   6.780 -0.2640 -0.2114  0.0264
 7084SOL    HW132714   0.383   3.664   6.820 -0.0920 -0.3708  0.2904
 7084SOL    HW232715   0.297   3.539   6.833  0.3031 -0.6093  0.4647
 7085SOL     OW32716   4.460   0.683  16.802  0.1063 -0.3263  0.1120
 7085SOL    HW132717   4.422   0.601  16.770  0.4863  0.3299 -2.0270
 7085SOL    HW232718   4.381   0.731  16.828  0.3787 -0.1485  0.6012
 7086SOL     OW32719   1.205   3.079  12.851  0.4714  0.1477 -0.1462
 7086SOL    HW132720   1.224   2.988  12.826  0.6796  0.3137 -0.5910
 7086SOL    HW232721   1.155   3.065  12.931 -0.3294 -3.5045 -1.2865
 7087SOL     OW32722   1.361   1.971   5.799  0.0938 -0.1389 -0.1418
 7087SOL    HW132723   1.408   1.910   5.742  0.0954 -0.3606  0.0978
 7087SOL    HW232724   1.325   1.901   5.854  1.3037  0.2914  1.1818
 7088SOL     OW32725   2.637   0.091   9.340  0.2848  0.2114  0.5280
 7088SOL    HW132726   2.674   0.047   9.263  0.8081  1.7345 -0.1087
 7088SOL    HW232727   2.566   0.031   9.358 -0.3301 -0.2238 -3.2593
 7089SOL     OW32728   2.449   4.587  10.788 -0.0433 -0.1535 -0.2535
 7089SOL    HW132729   2.452   4.509  10.732  0.1745 -2.2041  2.6204
 7089SOL    HW232730   2.542   4.593  10.812  0.3484 -1.8411 -1.3549
 7090SOL     OW32731   2.961   1.677   3.960 -0.1921 -0.0741  0.2260
 7090SOL    HW132732   2.981   1.759   3.916 -0.7800 -0.9038 -1.6074
 7090SOL    HW232733   2.922   1.625   3.890 -0.8980  0.8599 -0.0617
 7091SOL     OW32734   1.592   1.802   7.825 -0.2890  0.6466 -0.0088
 7091SOL    HW132735   1.567   1.719   7.784  0.9508 -1.0100  2.5655
 7091SOL    HW232736   1.650   1.834   7.756 -2.2769 -0.6201 -2.2367
 7092SOL     OW32737   0.379   0.061   7.628  0.2270 -0.0436  0.2641
 7092SOL    HW132738   0.405   4.708   7.669  2.5730 -0.2747 -1.7225
 7092SOL    HW232739   0.313   0.082   7.694  1.8016  0.1495  1.7754
 7093SOL     OW32740   0.234   3.268   6.812 -0.0588  0.0159 -0.4781
 7093SOL    HW132741   0.198   3.287   6.899  0.8935 -2.5152  0.4743
 7093SOL    HW232742   0.194   3.328   6.749 -0.4180  0.1915 -0.0835
 7094SOL     OW32743   2.263   2.053   1.814 -0.2185  0.0234  0.3193
 7094SOL    HW132744   2.238   1.963   1.837 -0.0481  0.1943  1.1614
 7094SOL    HW232745   2.208   2.073   1.739  0.5546  1.4852  0.1494
 7095SOL     OW32746   3.141   0.256   2.858  0.3290 -0.1444 -0.1630
 7095SOL    HW132747   3.188   0.289   2.781  0.9776 -0.8946 -0.0920
 7095SOL    HW232748   3.066   0.215   2.814  0.2901 -0.9117  0.6202
 7096SOL     OW32749   3.727   4.689  11.152  0.3053 -0.6592  0.2657
 7096SOL    HW132750   3.685   0.044  11.172  2.1071  0.0016  1.3058
 7096SOL    HW232751   3.778   4.711  11.075  1.0676 -0.3383  0.8543
 7097SOL     OW32752   0.481   3.932   7.984  0.0408  0.1780  0.0953
 7097SOL    HW132753   0.472   3.909   7.891 -0.7120 -1.8117  0.6602
 7097SOL    HW232754   0.511   3.849   8.023  2.0503  0.2973 -1.1870
 7098SOL     OW32755   1.920   3.564   3.520  0.5042 -0.5087  0.3799
 7098SOL    HW132756   1.869   3.489   3.490  1.9509 -1.0547 -0.7144
 7098SOL    HW232757   1.870   3.582   3.600 -1.3735  0.5437 -1.0253
 7099SOL     OW32758   0.173   1.493  15.023 -0.0246 -0.2579 -0.0767
 7099SOL    HW132759   0.232   1.553  15.069 -0.4607 -0.8609  1.2800
 7099SOL    HW232760   0.240   1.429  14.997 -0.1699 -0.5864  0.3581
 7100SOL     OW32761   1.398   0.737   3.835 -0.2169  0.0335 -0.3635
 7100SOL    HW132762   1.459   0.665   3.824  2.0307  1.5865  1.8915
 7100SOL    HW232763   1.351   0.710   3.914  0.2444  1.4508  0.3979
 7101SOL     OW32764   2.668   3.215   8.029  0.1337 -0.1338 -0.5313
 7101SOL    HW132765   2.641   3.131   7.994 -0.5463  0.2151 -0.8478
 7101SOL    HW232766   2.658   3.215   8.124 -0.3299 -3.1075 -0.6110
 7102SOL     OW32767   2.266   1.563   8.584 -0.3564 -0.4014 -0.1399
 7102SOL    HW132768   2.274   1.658   8.574  0.2873 -0.5611 -1.1996
 7102SOL    HW232769   2.334   1.535   8.522 -1.7480 -2.6759 -0.6435
 7103SOL     OW32770   3.478   0.917   1.137 -0.3321  0.4022  0.5159
 7103SOL    HW132771   3.497   1.006   1.106  1.9599 -0.1037  0.4251
 7103SOL    HW232772   3.410   0.901   1.072 -0.2261  0.7240  0.3220
 7104SOL     OW32773   1.732   4.131   8.872 -0.6713  0.2374  0.5411
 7104SOL    HW132774   1.750   4.224   8.888  0.5346  0.0466  0.2857
 7104SOL    HW232775   1.639   4.120   8.894 -0.3331 -2.8588  0.3835
 7105SOL     OW32776   4.407   3.643   2.905  0.4137  0.1787  0.1501
 7105SOL    HW132777   4.451   3.584   2.845 -1.3883 -0.0678 -0.9328
 7105SOL    HW232778   4.325   3.664   2.860 -0.7543 -0.6345  1.8875
 7106SOL     OW32779   2.455   0.356   3.441  0.4814  0.0774  0.4178
 7106SOL    HW132780   2.546   0.374   3.464  0.8223 -1.9409  0.5974
 7106SOL    HW232781   2.449   0.272   3.487  1.0011 -0.5575 -0.6752
 7107SOL     OW32782   2.649   1.878   1.391 -0.2383 -0.5353  0.2812
 7107SOL    HW132783   2.654   1.797   1.341  0.7386  0.7957 -1.7627
 7107SOL    HW232784   2.599   1.852   1.468 -0.2831 -0.6374  0.2175
 7108SOL     OW32785   2.690   3.166  17.135  0.6226 -0.5971  0.6306
 7108SOL    HW132786   2.669   3.246  17.183 -2.1749 -1.8055  1.4255
 7108SOL    HW232787   2.629   3.106  17.178  0.6186 -0.6198  0.5928
 7109SOL     OW32788   3.610   4.615   3.638 -0.0542 -0.1430  0.3651
 7109SOL    HW132789   3.606   4.698   3.591  0.3107  1.4835  3.1752
 7109SOL    HW232790   3.613   4.648   3.728 -1.5052 -1.1257  0.7676
 7110SOL     OW32791   1.034   3.337   4.953  0.3486  1.0585 -0.3562
 7110SOL    HW132792   0.951   3.291   4.963  1.7023 -0.3936  4.0911
 7110SOL    HW232793   1.105   3.275   4.943 -1.2157 -0.8592  0.3762
 7111SOL     OW32794   4.123   0.974   5.956 -0.6177 -0.8456 -0.0858
 7111SOL    HW132795   4.051   0.924   5.995 -2.2351 -0.2934 -2.3634
 7111SOL    HW232796   4.201   0.919   5.961 -0.2749 -0.2555  1.1275
 7112SOL     OW32797   2.435   4.620   5.912 -0.3518 -0.0096  0.1919
 7112SOL    HW132798   2.432   4.577   5.826 -0.5589  2.1874 -0.9145
 7112SOL    HW232799   2.523   4.586   5.931 -0.2036  0.6726  0.7245
 7113SOL     OW32800   0.827   3.498  13.010 -0.4872 -0.2752  0.3658
 7113SOL    HW132801   0.790   3.505  12.922  1.7952 -0.2385 -0.6107
 7113SOL    HW232802   0.910   3.458  12.983 -0.4368 -0.4987  0.8588
 7114SOL     OW32803   2.612   2.681   4.207  0.1644 -0.0225  0.4320
 7114SOL    HW132804   2.622   2.632   4.288  0.8987 -0.0300  0.3423
 7114SOL    HW232805   2.613   2.600   4.156 -1.1751 -0.3023  0.8576
 7115SOL     OW32806   1.090   3.964   5.600  0.2172  0.3055  0.1976
 7115SOL    HW132807   1.181   3.945   5.578  0.1316  1.9934 -1.6266
 7115SOL    HW232808   1.033   3.889   5.584  0.8448 -0.3556  1.0884
 7116SOL     OW32809   1.235   2.953   0.583 -0.1831 -0.4573 -0.0982
 7116SOL    HW132810   1.173   2.973   0.653  1.6064  0.2567  1.2744
 7116SOL    HW232811   1.322   2.964   0.622 -0.6247  2.0735  0.1703
 7117SOL     OW32812   0.205   4.671   7.175 -0.0491  0.3907 -0.6828
 7117SOL    HW132813   0.270   4.617   7.129 -1.8305 -1.7606 -0.6841
 7117SOL    HW232814   0.265   4.711   7.238 -1.0707  1.7504 -0.5808
 7118SOL     OW32815   2.051   2.615   9.293  0.1373  0.1092  0.2635
 7118SOL    HW132816   1.970   2.635   9.247  0.5822 -0.7389 -0.8770
 7118SOL    HW232817   2.122   2.632   9.231 -0.5665  0.5519 -0.4140
 7119SOL     OW32818   0.234   0.285  10.710 -0.2711  0.1552 -0.3947
 7119SOL    HW132819   0.177   0.304  10.636  1.0633  1.4503 -1.1063
 7119SOL    HW232820   0.264   0.376  10.712 -0.3085  0.1192  1.9587
 7120SOL     OW32821   2.208   0.632   9.525  0.3184 -0.1534 -0.5017
 7120SOL    HW132822   2.222   0.592   9.611 -0.4003  0.5614 -0.0566
 7120SOL    HW232823   2.271   0.704   9.524  1.6709 -1.3352 -1.4045
 7121SOL     OW32824   0.501   0.533   0.865  0.1112 -0.2968  0.4950
 7121SOL    HW132825   0.535   0.621   0.884  2.1754 -0.5830 -1.7797
 7121SOL    HW232826   0.499   0.538   0.769 -0.0089 -0.8167  0.4722
 7122SOL     OW32827   3.384   3.666  13.100  0.0568  0.1739 -0.1218
 7122SOL    HW132828   3.414   3.600  13.037  1.0026  0.7069 -0.2248
 7122SOL    HW232829   3.290   3.651  13.109  0.2745 -1.5744 -0.6775
 7123SOL     OW32830   2.876   3.442   1.942 -0.2303 -0.0509 -0.0586
 7123SOL    HW132831   2.824   3.399   2.010 -3.6000 -0.6872 -3.0043
 7123SOL    HW232832   2.937   3.378   1.906 -1.6662 -1.2305 -0.3984
 7124SOL     OW32833   2.263   1.973  17.151  0.1392  0.0548  0.3376
 7124SOL    HW132834   2.234   1.912  17.220  1.6350 -1.2309 -0.1561
 7124SOL    HW232835   2.210   1.952  17.075 -0.8930  4.3382 -0.0808
 7125SOL     OW32836   1.417   4.261   5.374 -0.1747  0.2832  0.0902
 7125SOL    HW132837   1.350   4.322   5.346  2.3656  2.3202 -1.5874
 7125SOL    HW232838   1.489   4.325   5.377 -0.0385  0.1391 -0.1186
 7126SOL     OW32839   1.805   3.191   8.657  0.7457  0.3168 -0.1961
 7126SOL    HW132840   1.882   3.205   8.712 -0.2724  0.5403  1.1621
 7126SOL    HW232841   1.742   3.182   8.728 -1.3770 -2.2870 -2.4426
 7127SOL     OW32842   4.651   4.135   3.516  1.0124 -0.5231 -1.0472
 7127SOL    HW132843   4.689   4.221   3.534 -1.6955  0.3942  0.3559
 7127SOL    HW232844   4.665   4.120   3.423 -1.3914 -0.9124 -1.3479
 7128SOL     OW32845   2.536   1.190   8.376 -0.2877  0.0785 -0.4129
 7128SOL    HW132846   2.572   1.118   8.323 -2.5407  0.0570 -1.9195
 7128SOL    HW232847   2.591   1.200   8.453 -0.4943  1.4429 -0.4494
 7129SOL     OW32848   1.089   3.036   4.023 -0.0699  0.2185 -0.2733
 7129SOL    HW132849   1.141   3.116   4.034  1.4496 -0.5427 -1.9934
 7129SOL    HW232850   1.050   3.030   4.110 -1.7850 -2.8867 -1.2594
 7130SOL     OW32851   4.100   2.292   9.107  0.0060  0.0065 -0.4859
 7130SOL    HW132852   4.146   2.304   9.191  0.5981  0.8083 -0.9315
 7130SOL    HW232853   4.093   2.197   9.104  2.1780 -0.2629  2.3453
 7131SOL     OW32854   2.043   4.669  10.820 -0.2371 -0.1684  0.0946
 7131SOL    HW132855   1.965   4.703  10.863 -1.1688  0.9656 -2.4984
 7131SOL    HW232856   2.009   4.627  10.742  1.6179  0.3976 -1.0293
 7132SOL     OW32857   4.346   1.287   5.136  0.2396 -0.0862  0.0074
 7132SOL    HW132858   4.372   1.275   5.228 -0.3780 -0.5042  0.1235
 7132SOL    HW232859   4.353   1.382   5.123 -1.3924  0.1738  0.9329
 7133SOL     OW32860   2.152   0.066   4.880 -0.3107 -0.3338  0.0738
 7133SOL    HW132861   2.060   0.041   4.872 -0.5838  0.5333  0.6523
 7133SOL    HW232862   2.195   4.710   4.894  0.2487  0.2919  2.1250
 7134SOL     OW32863   0.383   1.467   5.854  0.6822 -0.0232  1.1194
 7134SOL    HW132864   0.462   1.467   5.908  0.6827 -1.4175  1.1159
 7134SOL    HW232865   0.419   1.495   5.770 -0.1327 -2.5982 -0.0665
 7135SOL     OW32866   2.963   0.925   8.956  0.6150  0.1530  0.2258
 7135SOL    HW132867   2.959   0.872   9.036 -1.6368  1.2678  0.8715
 7135SOL    HW232868   2.872   0.930   8.925  0.9416 -0.9523 -0.8704
 7136SOL     OW32869   4.620   1.869   6.571  0.4561 -0.1997 -0.5550
 7136SOL    HW132870   4.614   1.867   6.667  0.5624 -0.5488 -0.5573
 7136SOL    HW232871   4.713   1.878   6.553  0.2907  1.9428 -0.3339
 7137SOL     OW32872   0.471   4.083  16.185 -0.1677  0.3001 -0.2740
 7137SOL    HW132873   0.541   4.139  16.151 -0.6213  1.2794  0.4021
 7137SOL    HW232874   0.469   4.100  16.279 -0.0019  1.2911 -0.4430
 7138SOL     OW32875   2.535   0.173   7.358 -0.0891  0.2218  0.2957
 7138SOL    HW132876   2.500   0.217   7.436  1.7880 -0.8841  1.7661
 7138SOL    HW232877   2.630   0.182   7.365  0.2003 -0.9174 -2.1462
 7139SOL     OW32878   4.435   3.861   7.347 -0.9964  0.1470  0.2856
 7139SOL    HW132879   4.357   3.835   7.396 -1.8891  0.3171 -1.0383
 7139SOL    HW232880   4.443   3.953   7.369 -0.8863 -0.4359  2.7374
 7140SOL     OW32881   3.964   3.235   3.621  0.5117  0.0809  0.1389
 7140SOL    HW132882   3.890   3.255   3.679  1.2219 -0.0172  1.0911
 7140SOL    HW232883   4.030   3.283   3.672  0.1880 -0.8313  1.4363
 7141SOL     OW32884   1.384   0.878   4.226 -0.2807  0.5449 -0.1312
 7141SOL    HW132885   1.295   0.846   4.210  0.1683 -1.3015  1.0495
 7141SOL    HW232886   1.427   0.806   4.180 -1.6900 -0.5929  0.3196
 7142SOL     OW32887   1.396   2.500  13.125  0.6446  0.2869 -0.3309
 7142SOL    HW132888   1.377   2.471  13.036  0.8164  0.3601 -0.3924
 7142SOL    HW232889   1.479   2.454  13.134  0.6471  0.0314 -1.6846
 7143SOL     OW32890   0.971   3.715   5.123  0.2618  0.3466  0.1068
 7143SOL    HW132891   1.038   3.654   5.153  1.2999  1.8729  0.9176
 7143SOL    HW232892   0.937   3.753   5.204 -1.3942 -1.4982  0.2664
 7144SOL     OW32893   1.818   0.528   8.500 -0.3226  0.0544  0.2238
 7144SOL    HW132894   1.861   0.613   8.502 -1.6728  0.7534 -0.0197
 7144SOL    HW232895   1.734   0.543   8.456  0.5706  1.6615 -0.9543
 7145SOL     OW32896   0.042   4.487   3.822  0.0990 -0.2781  0.1650
 7145SOL    HW132897   4.697   4.543   3.797  2.1145  1.2779 -2.3230
 7145SOL    HW232898   0.079   4.525   3.902 -0.0055 -0.8564  0.4844
 7146SOL     OW32899   3.970   0.453   2.027  0.5638  0.4550  0.7369
 7146SOL    HW132900   4.018   0.371   2.040  1.7883  1.1058  0.3424
 7146SOL    HW232901   3.940   0.470   2.117 -0.1887  0.4124  0.4951
 7147SOL     OW32902   1.956   4.560  14.543 -0.1759 -0.2313 -0.1599
 7147SOL    HW132903   1.986   4.472  14.520 -0.2167 -0.6365  1.3101
 7147SOL    HW232904   1.982   4.564  14.635 -1.8533 -0.6787  0.3263
 7148SOL     OW32905   2.911   2.010  12.672 -0.2363 -0.1520  0.0802
 7148SOL    HW132906   2.905   1.946  12.601 -2.2006  1.8398 -1.5418
 7148SOL    HW232907   2.954   2.089  12.641 -1.0985  0.1994 -0.2156
 7149SOL     OW32908   2.624   3.170   5.332  0.1462 -0.1240 -0.5854
 7149SOL    HW132909   2.534   3.184   5.360  1.3153  2.6706  1.7594
 7149SOL    HW232910   2.648   3.132   5.416 -2.2242  0.9455  0.5703
 7150SOL     OW32911   0.027   0.138   8.215 -0.5213  0.1273  0.1228
 7150SOL    HW132912   0.001   0.175   8.130  0.8399 -0.4532 -0.5494
 7150SOL    HW232913   0.059   0.217   8.257  1.9477 -2.3956  2.9132
 7151SOL     OW32914   0.254   3.782   4.625  0.2884  0.3145 -0.3958
 7151SOL    HW132915   0.324   3.821   4.677  0.8133  3.1775 -3.2664
 7151SOL    HW232916   0.222   3.729   4.698 -0.0231  0.8941 -0.1118
 7152SOL     OW32917   2.618   1.399   9.675  0.2346 -0.1522 -0.5174
 7152SOL    HW132918   2.710   1.397   9.702  0.3422  1.6128 -0.7098
 7152SOL    HW232919   2.619   1.485   9.633 -1.3207 -1.1997 -2.6704
 7153SOL     OW32920   4.478   2.771  16.806  0.3586  0.4474 -0.0484
 7153SOL    HW132921   4.386   2.791  16.827  0.9240  2.7715  0.1971
 7153SOL    HW232922   4.466   2.745  16.714 -0.6090  0.5305  0.0538
 7154SOL     OW32923   1.779   0.712  13.124 -0.0804 -0.3551  0.6538
 7154SOL    HW132924   1.806   0.701  13.215  1.2210  0.9444  0.4175
 7154SOL    HW232925   1.851   0.657  13.092  0.3936  0.1905  0.7849
 7155SOL     OW32926   1.059   0.674  16.788 -0.0172 -0.7015 -0.2137
 7155SOL    HW132927   1.100   0.758  16.763  1.3955 -1.8054 -1.6093
 7155SOL    HW232928   1.128   0.644  16.847 -0.6048 -1.3416  0.1304
 7156SOL     OW32929   3.147   3.002   6.001 -0.5843  0.1347  0.7352
 7156SOL    HW132930   3.176   2.928   5.948  0.3867  0.7236  0.4269
 7156SOL    HW232931   3.200   3.073   5.964 -1.2286 -0.4889 -1.3728
 7157SOL     OW32932   2.032   4.687   0.149  0.9311 -0.3795  0.8396
 7157SOL    HW132933   2.026   4.697   0.244 -1.2590  1.1198  0.5424
 7157SOL    HW232934   1.939   4.696   0.129  1.1145  0.8200  0.4820
 7158SOL     OW32935   3.883   4.214   3.164  0.6337 -0.8285  0.1144
 7158SOL    HW132936   3.855   4.263   3.086  0.0526 -0.5702  0.4870
 7158SOL    HW232937   3.918   4.134   3.126 -1.2362 -1.0841 -1.0746
 7159SOL     OW32938   0.523   0.534   2.343 -0.3823 -0.2357  0.0219
 7159SOL    HW132939   0.466   0.463   2.311  0.5000 -1.8662  2.0845
 7159SOL    HW232940   0.588   0.530   2.272 -0.1369 -0.4462  0.2555
 7160SOL     OW32941   2.487   2.785  14.399 -0.3626  0.2796  0.0963
 7160SOL    HW132942   2.443   2.724  14.458  1.7612 -2.6184 -1.3180
 7160SOL    HW232943   2.553   2.830  14.452 -0.6050  3.1246 -2.0010
 7161SOL     OW32944   2.395   3.687  13.019 -0.0502  0.1300  0.4164
 7161SOL    HW132945   2.385   3.694  13.113  0.0760  0.1061  0.4316
 7161SOL    HW232946   2.450   3.764  13.008 -1.6698  1.4380  1.4894
 7162SOL     OW32947   1.325   4.003   6.324 -0.6097 -0.0815 -0.2182
 7162SOL    HW132948   1.400   3.944   6.329 -0.1517  0.4905 -0.3696
 7162SOL    HW232949   1.292   3.986   6.412 -1.6879  0.0859 -0.5833
 7163SOL     OW32950   4.294   1.767   7.262 -0.2047 -0.1651 -0.4559
 7163SOL    HW132951   4.307   1.693   7.202 -0.1226  0.2831 -0.9926
 7163SOL    HW232952   4.317   1.729   7.346 -3.5469  0.4634  0.7475
 7164SOL     OW32953   3.498   4.716   3.342 -0.5176  0.6602 -0.0315
 7164SOL    HW132954   3.580   4.682   3.308 -0.9117 -0.4043  0.0670
 7164SOL    HW232955   3.530   0.058   3.399 -1.8629  0.8926  0.4447
 7165SOL     OW32956   4.070   4.272   7.308 -0.5419 -0.2752 -0.7053
 7165SOL    HW132957   4.020   4.193   7.287 -2.0888 -0.1252  2.4937
 7165SOL    HW232958   4.100   4.303   7.222  1.3497  2.2785  0.8774
 7166SOL     OW32959   0.633   4.522  12.263  0.3469  0.0558 -0.2260
 7166SOL    HW132960   0.724   4.508  12.235 -0.0378 -1.2952 -0.8054
 7166SOL    HW232961   0.593   4.508  12.177 -3.8285  0.2060  1.6852
 7167SOL     OW32962   4.247   0.247   4.254  0.0292 -0.3733  0.6429
 7167SOL    HW132963   4.268   0.172   4.310  0.6094 -0.5083  0.2493
 7167SOL    HW232964   4.313   0.224   4.188 -0.0767 -2.5028  1.2622
 7168SOL     OW32965   2.305   2.685   9.708  0.0053 -0.1755 -0.0040
 7168SOL    HW132966   2.391   2.647   9.688 -1.0517 -2.4870 -0.1228
 7168SOL    HW232967   2.245   2.651   9.642 -1.3325  0.7766  0.7168
 7169SOL     OW32968   2.041   3.728  16.041  0.2398  0.3696  0.0958
 7169SOL    HW132969   2.115   3.729  15.980  0.9877 -0.3159  0.9871
 7169SOL    HW232970   2.064   3.670  16.114 -2.1930  0.3901  0.8815
 7170SOL     OW32971   1.916   1.126   2.622 -0.2257 -0.0410 -0.1136
 7170SOL    HW132972   1.944   1.208   2.662  1.6043 -0.5302 -0.3848
 7170SOL    HW232973   1.822   1.144   2.622 -0.4778 -1.3272 -0.9597
 7171SOL     OW32974   4.290   3.479  16.558  0.4664  0.3509  0.1917
 7171SOL    HW132975   4.230   3.510  16.491 -1.5790  0.0296  1.8671
 7171SOL    HW232976   4.255   3.393  16.584  1.4272 -0.4677 -1.1997
 7172SOL     OW32977   0.166   4.580  12.768 -0.4575 -0.6831 -0.1834
 7172SOL    HW132978   0.123   4.522  12.705 -3.2342  0.6492  0.4933
 7172SOL    HW232979   0.195   4.518  12.835 -1.5156 -0.6925  0.2761
 7173SOL     OW32980   0.304   2.687   6.966 -0.5563  0.5484  0.0110
 7173SOL    HW132981   0.271   2.773   6.990 -1.6779  0.3080 -0.6216
 7173SOL    HW232982   0.394   2.707   6.991 -0.2164  0.3838 -1.0609
 7174SOL     OW32983   0.474   4.086   7.620 -0.1714 -0.4095  0.2711
 7174SOL    HW132984   0.481   4.093   7.525 -0.7766 -0.7986  0.2000
 7174SOL    HW232985   0.451   3.994   7.619  2.7171 -1.1340  0.1225
 7175SOL     OW32986   4.496   4.355  14.016  0.2021  0.2118 -0.3214
 7175SOL    HW132987   4.428   4.340  13.950  0.7375  2.0086 -1.2674
 7175SOL    HW232988   4.449   4.382  14.095 -0.3803 -1.7771  0.0294
 7176SOL     OW32989   0.799   0.865   1.908 -0.7775  0.3508 -0.4222
 7176SOL    HW132990   0.830   0.787   1.862 -2.3884 -1.6861  1.9531
 7176SOL    HW232991   0.819   0.931   1.842 -0.4098 -0.9218 -1.5755
 7177SOL     OW32992   3.351   1.810   9.711  0.3982 -0.3160  0.3330
 7177SOL    HW132993   3.258   1.787   9.704  0.5886 -0.8375 -0.3391
 7177SOL    HW232994   3.397   1.734   9.676 -0.0133 -0.0144 -0.8515
 7178SOL     OW32995   1.192   0.421  17.627 -0.0677  0.4532 -0.1626
 7178SOL    HW132996   1.170   0.365  17.701  0.5748 -1.6524 -1.5593
 7178SOL    HW232997   1.285   0.405  17.608 -0.5659 -2.7212  0.0786
 7179SOL     OW32998   3.551   0.342   7.750 -0.1018  0.3880 -0.2360
 7179SOL    HW132999   3.463   0.353   7.716 -0.3436  1.6514  0.7507
 7179SOL    HW233000   3.556   0.422   7.804 -0.2148  0.3871 -0.2253
 7180SOL     OW33001   4.117   4.253   9.122 -0.0421 -0.3510 -0.4586
 7180SOL    HW133002   4.196   4.215   9.159  1.4635  2.8184 -0.4303
 7180SOL    HW233003   4.053   4.240   9.192  0.7034  0.2564  0.3353
 7181SOL     OW33004   3.806   1.294  12.210  0.8754 -1.0306  0.2256
 7181SOL    HW133005   3.731   1.260  12.258 -0.1974 -0.5827 -1.1226
 7181SOL    HW233006   3.877   1.247  12.254  2.0600  1.8109  1.4111
 7182SOL     OW33007   2.899   4.260   8.136  0.2726  0.4365 -0.8605
 7182SOL    HW133008   2.856   4.205   8.202  0.1683  1.5622  0.0053
 7182SOL    HW233009   2.905   4.198   8.063  0.5546 -1.8808  1.1575
 7183SOL     OW33010   2.237   3.854   5.512  0.1094  0.4253  0.0508
 7183SOL    HW133011   2.215   3.857   5.605  0.2398 -1.2009  0.1282
 7183SOL    HW233012   2.222   3.761   5.499  0.4506  0.5360 -1.1657
 7184SOL     OW33013   0.890   2.983   8.295 -0.1109  0.2831 -0.9834
 7184SOL    HW133014   0.905   2.994   8.389 -2.0004 -0.3297 -0.5943
 7184SOL    HW233015   0.795   2.998   8.296  0.1535  2.0681 -2.4960
 7185SOL     OW33016   0.831   0.116   8.779  0.6734  0.6393 -0.6907
 7185SOL    HW133017   0.756   0.173   8.758  1.4563  2.1878  0.7218
 7185SOL    HW233018   0.890   0.137   8.707  0.0113  0.8753 -1.1679
 7186SOL     OW33019   4.137   0.447   8.431  0.1581  0.0730 -0.5096
 7186SOL    HW133020   4.042   0.458   8.433  0.2701  0.6633  1.2291
 7186SOL    HW233021   4.144   0.409   8.343  1.2936  0.6576 -0.6627
 7187SOL     OW33022   4.451   2.316  14.529 -0.3249 -0.2923  0.2508
 7187SOL    HW133023   4.388   2.314  14.602 -1.5336  2.9297 -0.6911
 7187SOL    HW233024   4.515   2.385  14.546  0.5181 -1.2701  1.0393
 7188SOL     OW33025   4.518   2.929  11.332 -0.2040  0.5361 -0.0910
 7188SOL    HW133026   4.475   2.853  11.294 -1.2366  1.5225 -0.9022
 7188SOL    HW233027   4.566   2.974  11.262  0.4235  1.7269  1.0968
 7189SOL     OW33028   2.752   3.618   2.253  0.3469  0.5259  0.1359
 7189SOL    HW133029   2.672   3.655   2.214  0.4898  1.0141  0.3116
 7189SOL    HW233030   2.750   3.530   2.216 -1.5242  0.4264  0.4328
 7190SOL     OW33031   2.094   0.517   6.706 -0.0864 -0.1197 -0.3497
 7190SOL    HW133032   2.097   0.596   6.653  0.0077 -0.1414 -0.3766
 7190SOL    HW233033   2.074   0.566   6.786 -0.5262  0.5199 -0.8519
 7191SOL     OW33034   2.889   1.296   5.097 -0.1071  0.3883 -0.2148
 7191SOL    HW133035   2.963   1.258   5.050  1.2726  0.8103  1.5729
 7191SOL    HW233036   2.938   1.362   5.147 -2.5867  0.8779  1.5669
 7192SOL     OW33037   1.400   4.168   9.549 -0.7278  0.2351 -0.3206
 7192SOL    HW133038   1.387   4.095   9.609 -0.7353 -0.3925 -1.0918
 7192SOL    HW233039   1.343   4.155   9.473 -0.9581  2.1678 -0.4723
 7193SOL     OW33040   4.271   3.765   0.574  0.0635 -0.1998 -0.1547
 7193SOL    HW133041   4.357   3.752   0.614 -1.1421 -0.1954  2.4393
 7193SOL    HW233042   4.211   3.751   0.647 -0.0042 -0.9412 -0.3509
 7194SOL     OW33043   1.453   0.964   5.094  0.3017 -0.5638 -0.0867
 7194SOL    HW133044   1.527   0.922   5.138 -1.4418 -2.2765  1.2299
 7194SOL    HW233045   1.478   0.943   5.004  0.7901 -2.9139  0.5900
 7195SOL     OW33046   1.515   3.410   9.628  0.7811 -0.0093 -0.7892
 7195SOL    HW133047   1.503   3.496   9.668  0.5035 -2.1258  3.6364
 7195SOL    HW233048   1.609   3.420   9.611  1.0413  0.3595  0.8993
 7196SOL     OW33049   3.177   1.097   2.189 -0.5847  0.0988 -0.4481
 7196SOL    HW133050   3.142   1.096   2.278  1.6720 -2.5602  0.4050
 7196SOL    HW233051   3.237   1.023   2.185 -2.0249 -1.0724 -0.1686
 7197SOL     OW33052   3.435   4.012   4.863 -0.7322 -0.6369  0.0686
 7197SOL    HW133053   3.483   3.962   4.797  3.7297 -0.4335  3.2257
 7197SOL    HW233054   3.517   4.034   4.906  0.2171 -0.8603 -1.6173
 7198SOL     OW33055   1.257   1.263   8.593  0.0859 -0.5742 -0.1863
 7198SOL    HW133056   1.308   1.184   8.574 -0.5615 -1.4377  1.6803
 7198SOL    HW233057   1.254   1.294   8.503  1.7209  2.0355  0.6761
 7199SOL     OW33058   1.882   0.140   3.313  0.1233  0.0814 -0.1096
 7199SOL    HW133059   1.849   0.165   3.226 -0.0255 -1.8567 -0.6212
 7199SOL    HW233060   1.830   0.201   3.365  1.0939  0.0705  0.8691
 7200SOL     OW33061   1.071   3.419  12.916  0.3525 -0.2934  0.5372
 7200SOL    HW133062   1.118   3.430  12.999  2.1838 -0.2171 -0.5076
 7200SOL    HW233063   1.145   3.400  12.858 -0.9195 -2.4131 -0.3716
 7201SOL     OW33064   0.037   2.487  17.042 -0.2793 -0.4003  0.3730
 7201SOL    HW133065   4.692   2.427  17.051 -2.0461  1.6210 -0.4526
 7201SOL    HW233066   0.027   2.546  17.117 -0.6212  0.5264 -0.4053
 7202SOL     OW33067   2.690   0.434   6.117  0.0011 -0.4413  0.0460
 7202SOL    HW133068   2.781   0.416   6.094 -0.1850 -1.2725 -0.0520
 7202SOL    HW233069   2.676   0.363   6.180 -2.7468  0.7205  0.7517
 7203SOL     OW33070   0.288   3.742  15.306  0.0011  0.2980  0.4179
 7203SOL    HW133071   0.242   3.657  15.303 -0.7562  0.6470  2.3397
 7203SOL    HW233072   0.271   3.780  15.220  3.6928  0.8742 -0.0501
 7204SOL     OW33073   2.179   2.333   9.061 -0.5978 -0.4668  0.1892
 7204SOL    HW133074   2.221   2.336   8.975 -1.9185  0.9877 -0.3908
 7204SOL    HW233075   2.090   2.368   9.050  0.0461  0.2921 -2.5104
 7205SOL     OW33076   3.913   3.182   9.139 -0.1760  0.7111  0.2469
 7205SOL    HW133077   3.828   3.162   9.177 -0.7095 -0.9602 -1.8193
 7205SOL    HW233078   3.972   3.127   9.191 -0.5907 -0.2230 -0.2610
 7206SOL     OW33079   0.204   0.025   4.466  0.2817  0.0278 -0.1497
 7206SOL    HW133080   0.161   0.062   4.543 -2.9374  0.8041 -2.2815
 7206SOL    HW233081   0.238   4.675   4.507  1.8008  0.9625  0.3863
 7207SOL     OW33082   2.760   2.525   7.888  0.3160 -0.1902  0.2817
 7207SOL    HW133083   2.758   2.578   7.809 -0.8894 -2.1004 -0.9814
 7207SOL    HW233084   2.848   2.537   7.924  0.5335  2.9650 -1.3101
 7208SOL     OW33085   1.882   4.446   6.414  0.2570 -0.7377  0.2129
 7208SOL    HW133086   1.817   4.381   6.387  0.5288 -0.9088 -0.0357
 7208SOL    HW233087   1.845   4.522   6.368  0.9182 -0.7068 -0.2761
 7209SOL     OW33088   3.258   3.411   2.880  0.0358  0.2433 -0.0192
 7209SOL    HW133089   3.235   3.323   2.849  0.6262 -0.1882  0.7477
 7209SOL    HW233090   3.303   3.390   2.962  2.4604 -0.9281 -1.6834
 7210SOL     OW33091   1.450   2.348   5.586 -0.2521 -0.2450  0.0506
 7210SOL    HW133092   1.515   2.390   5.642 -1.6432  1.6198  0.2513
 7210SOL    HW233093   1.416   2.282   5.646  1.4870 -0.1991  1.1077
 7211SOL     OW33094   2.361   1.852   5.561 -0.2444  0.2724  0.1568
 7211SOL    HW133095   2.400   1.790   5.499 -2.2691  0.7478 -1.6181
 7211SOL    HW233096   2.290   1.880   5.503 -0.6002  0.8873  0.8888
 7212SOL     OW33097   1.015   2.667   9.221 -0.0037 -0.1161  0.2170
 7212SOL    HW133098   1.022   2.762   9.233  0.1891 -0.2340  1.0299
 7212SOL    HW233099   1.050   2.635   9.304  0.7248  1.2173  0.4346
 7213SOL     OW33100   3.228   0.928   3.684 -0.2015  0.5210  0.0467
 7213SOL    HW133101   3.291   0.999   3.672 -0.0958  0.4867  0.3954
 7213SOL    HW233102   3.284   0.851   3.697 -2.2398 -0.7627  1.1625
 7214SOL     OW33103   3.977   3.939   4.956  0.3724  0.3396 -0.2833
 7214SOL    HW133104   4.066   3.976   4.952  1.4209 -1.9948  1.3906
 7214SOL    HW233105   3.988   3.845   4.940 -2.0786 -0.3587  2.2047
 7215SOL     OW33106   0.631   1.539   9.282 -0.2621 -0.3782 -0.0868
 7215SOL    HW133107   0.590   1.495   9.357  0.8201 -0.5228  0.4157
 7215SOL    HW233108   0.685   1.466   9.252 -1.0303  0.4123 -3.3748
 7216SOL     OW33109   4.722   4.042   6.514 -0.5108  0.0159 -0.1665
 7216SOL    HW133110   4.728   4.137   6.501  1.2198 -0.3688 -2.1685
 7216SOL    HW233111   0.084   4.022   6.536 -0.1876  1.6526 -0.0275
 7217SOL     OW33112   1.316   1.554   7.639 -0.0833  0.1237  0.5371
 7217SOL    HW133113   1.320   1.600   7.723 -0.5417  0.0130  0.6191
 7217SOL    HW233114   1.228   1.571   7.605 -0.5684 -0.8955  1.2631
 7218SOL     OW33115   0.936   3.902  12.569  0.3245 -0.1198 -0.0268
 7218SOL    HW133116   1.030   3.915  12.560  0.5237 -0.9034  0.8982
 7218SOL    HW233117   0.932   3.846  12.647  0.6964 -1.0836 -0.7048
 7219SOL     OW33118   4.522   1.311  13.857  0.0310  0.3528  0.0322
 7219SOL    HW133119   4.443   1.350  13.819  0.7840  1.6463 -0.2288
 7219SOL    HW233120   4.499   1.282  13.945 -0.1008 -0.5379 -0.2920
 7220SOL     OW33121   4.191   0.054  17.385  0.2803  0.2236  0.5539
 7220SOL    HW133122   4.246   0.128  17.360 -0.1505 -0.8320 -3.4699
 7220SOL    HW233123   4.144   0.049  17.302 -1.8849 -1.6280  1.8921
 7221SOL     OW33124   4.102   0.708   4.863  0.0603  0.0423  0.6298
 7221SOL    HW133125   4.183   0.657   4.865  0.3892  0.5206 -0.6644
 7221SOL    HW233126   4.142   0.784   4.821  0.9795  0.5818  2.5046
 7222SOL     OW33127   2.882   1.517   3.706  0.1514 -0.3563 -0.0435
 7222SOL    HW133128   2.903   1.594   3.653 -0.5032 -2.0687 -2.8085
 7222SOL    HW233129   2.799   1.485   3.670 -1.2402  1.2354  1.8033
 7223SOL     OW33130   1.415   4.403   3.349 -0.2068  0.2845  0.4588
 7223SOL    HW133131   1.347   4.387   3.284  1.4723  0.0507 -1.2328
 7223SOL    HW233132   1.394   4.356   3.430 -2.3088 -0.4541 -0.5088
 7224SOL     OW33133   4.541   0.264  16.528  0.1282 -0.4553 -0.3834
 7224SOL    HW133134   4.593   0.265  16.608 -0.1441 -1.8610 -0.1875
 7224SOL    HW233135   4.556   0.351  16.491 -0.2346 -0.3244 -0.2284
 7225SOL     OW33136   4.084   3.370   9.373 -0.0840  0.5809  0.0600
 7225SOL    HW133137   4.046   3.444   9.420 -0.1451  0.3654  0.3479
 7225SOL    HW233138   4.082   3.391   9.279  0.0873  0.9862  0.1449
 7226SOL     OW33139   3.132   2.987  14.269 -0.5577  0.8040  0.2160
 7226SOL    HW133140   3.115   2.895  14.247 -1.8622  0.8604  1.0308
 7226SOL    HW233141   3.148   3.020  14.180  1.4653  1.9564  1.0154
 7227SOL     OW33142   2.030   2.076   6.893  0.2950 -1.0937  0.0585
 7227SOL    HW133143   2.017   2.083   6.987 -0.6334  0.7941 -0.2126
 7227SOL    HW233144   1.975   1.999   6.876 -0.8613 -0.1945 -0.2621
 7228SOL     OW33145   2.571   2.619   6.374  0.1698  0.2293  0.2660
 7228SOL    HW133146   2.636   2.631   6.444 -0.0566  2.1939  0.1209
 7228SOL    HW233147   2.610   2.537   6.344 -0.4581  0.3198 -0.7766
 7229SOL     OW33148   3.806   3.784  10.496 -0.0115 -0.0344  0.3851
 7229SOL    HW133149   3.897   3.772  10.470  0.3199  1.0788  1.0538
 7229SOL    HW233150   3.813   3.807  10.589  1.6539 -1.0987  0.5211
 7230SOL     OW33151   4.367   3.371   5.890  0.2459 -0.0635 -0.2886
 7230SOL    HW133152   4.411   3.445   5.932  2.5304 -0.8570 -1.2914
 7230SOL    HW233153   4.290   3.426   5.877 -0.1470 -0.0723  1.9702
 7231SOL     OW33154   2.458   0.321   9.257 -0.0647  0.0619 -0.3664
 7231SOL    HW133155   2.511   0.319   9.337 -0.1903 -1.0294 -0.3139
 7231SOL    HW233156   2.535   0.313   9.201  0.5056 -2.9843  0.8481
 7232SOL     OW33157   2.058   0.837   5.782  0.0725  0.5722 -0.3034
 7232SOL    HW133158   2.003   0.794   5.717 -0.6827  0.3228  0.5058
 7232SOL    HW233159   2.079   0.915   5.730  0.8917  1.5969  1.5450
 7233SOL     OW33160   4.255   1.937   5.845  0.0339 -0.0206 -0.2700
 7233SOL    HW133161   4.311   2.006   5.882 -1.3945  0.6116  0.7366
 7233SOL    HW233162   4.312   1.910   5.774  1.3623 -0.6853  1.0469
 7234SOL     OW33163   1.746   2.492   2.981 -0.0191 -0.9760  0.6562
 7234SOL    HW133164   1.740   2.588   2.981  1.5016 -0.8816  0.2299
 7234SOL    HW233165   1.774   2.480   3.071  0.9048 -0.1484  0.4814
 7235SOL     OW33166   3.921   4.599   4.344 -0.1399 -0.1571 -0.8033
 7235SOL    HW133167   3.846   4.572   4.291 -0.0851  1.3750 -1.6607
 7235SOL    HW233168   3.936   4.526   4.404  0.1158  1.6757  1.3748
 7236SOL     OW33169   2.252   1.680   5.318  0.6896  0.0511  1.0612
 7236SOL    HW133170   2.191   1.665   5.390  0.9883  2.2461  1.7827
 7236SOL    HW233171   2.249   1.775   5.309 -0.2984  0.0161  1.0474
 7237SOL     OW33172   4.510   2.849  14.238 -0.1680  0.7803 -0.1398
 7237SOL    HW133173   4.511   2.786  14.167 -1.4351 -1.1843  1.5866
 7237SOL    HW233174   4.493   2.794  14.315  0.0419 -0.2819 -0.8596
 7238SOL     OW33175   0.478   0.204  12.885 -0.1294 -0.0022 -0.1436
 7238SOL    HW133176   0.462   0.295  12.912 -0.2494  0.1697 -0.7729
 7238SOL    HW233177   0.390   0.173  12.861  0.5048 -1.0627 -1.0802
 7239SOL     OW33178   2.182   3.541   6.391 -0.1261  0.1164 -0.0592
 7239SOL    HW133179   2.251   3.476   6.406 -0.2437  0.2743  1.1618
 7239SOL    HW233180   2.105   3.491   6.417 -0.6281  0.3319 -1.1295
 7240SOL     OW33181   1.593   1.008   4.827  0.2470  0.3217  0.4522
 7240SOL    HW133182   1.575   1.058   4.748 -4.4004  0.2852  1.4961
 7240SOL    HW233183   1.596   1.072   4.899 -0.4742  1.1881 -0.2980
 7241SOL     OW33184   0.959   2.533  16.384 -0.4414  0.0466  0.2319
 7241SOL    HW133185   0.895   2.529  16.455 -1.0993 -0.3548 -0.3811
 7241SOL    HW233186   0.913   2.583  16.317  1.8360 -0.0193 -1.3740
 7242SOL     OW33187   4.049   1.926   1.847  0.0118  0.7834  0.8003
 7242SOL    HW133188   4.083   1.837   1.855  1.9135  1.3739 -0.4707
 7242SOL    HW233189   4.014   1.924   1.936 -1.4278 -2.9887  0.1300
 7243SOL     OW33190   1.125   3.957   3.200 -0.3429  0.4087 -0.5622
 7243SOL    HW133191   1.036   3.993   3.193  0.9732  3.8496  0.5334
 7243SOL    HW233192   1.099   3.874   3.239 -1.0571  1.1324  0.5114
 7244SOL     OW33193   1.529   3.863  10.956  0.3589 -0.0298  0.3343
 7244SOL    HW133194   1.557   3.787  10.906  0.2321 -1.0660  1.8442
 7244SOL    HW233195   1.611   3.909  10.975  0.6661 -1.2111  1.9251
 7245SOL     OW33196   3.238   2.144   5.704  0.0902 -0.5165 -0.0524
 7245SOL    HW133197   3.307   2.083   5.679  0.8393  1.2268 -2.1977
 7245SOL    HW233198   3.292   2.222   5.696  0.3958 -0.8605 -1.3250
 7246SOL     OW33199   1.658   4.706   1.940  0.4422  0.0623  0.4726
 7246SOL    HW133200   1.752   4.715   1.924  0.3396 -0.1749 -0.2675
 7246SOL    HW233201   1.656   4.610   1.937  2.0929  0.0938 -1.4731
 7247SOL     OW33202   1.649   3.310   6.521  0.6057  0.0570 -0.3500
 7247SOL    HW133203   1.686   3.225   6.547 -0.6365 -1.0083 -2.0470
 7247SOL    HW233204   1.701   3.365   6.579 -0.6483 -0.7374  1.5535
 7248SOL     OW33205   2.768   2.618   1.170 -0.1073 -0.3508  0.0077
 7248SOL    HW133206   2.736   2.600   1.259 -2.7749 -0.8166 -1.0692
 7248SOL    HW233207   2.692   2.662   1.134 -0.2689  0.0944  0.8853
 7249SOL     OW33208   0.611   4.537   3.910 -0.1130 -0.1588  0.3539
 7249SOL    HW133209   0.541   4.555   3.847 -0.2545  1.5491  0.9809
 7249SOL    HW233210   0.689   4.550   3.855  1.3147  3.5637  3.2349
 7250SOL     OW33211   1.677   2.420   9.135  0.4113 -0.4274  0.8322
 7250SOL    HW133212   1.656   2.423   9.042 -0.5356 -1.2166  1.0196
 7250SOL    HW233213   1.598   2.384   9.175  0.3304  0.2023  1.2389
 7251SOL     OW33214   1.860   3.264   7.570 -0.5377 -0.2628  0.5844
 7251SOL    HW133215   1.816   3.226   7.646 -0.2981 -1.0015  0.3499
 7251SOL    HW233216   1.865   3.187   7.513 -3.4433 -0.0221  0.0321
 7252SOL     OW33217   2.390   0.286  12.646  0.0877  0.3292  0.3389
 7252SOL    HW133218   2.369   0.258  12.735 -0.4179 -1.5071 -0.3518
 7252SOL    HW233219   2.466   0.234  12.623 -0.7186 -1.2293  1.2271
 7253SOL     OW33220   4.048   4.675   5.650 -0.2402 -0.3457  0.2423
 7253SOL    HW133221   4.057   4.619   5.574  0.4139 -0.5095  0.4456
 7253SOL    HW233222   4.140   4.680   5.673  0.3696 -1.0146 -2.0751
 7254SOL     OW33223   2.848   2.566   8.208  0.1806  0.3131 -0.1979
 7254SOL    HW133224   2.758   2.539   8.191  0.3579  1.5726 -2.9994
 7254SOL    HW233225   2.857   2.629   8.137  0.3053  0.0581 -0.4060
 7255SOL     OW33226   4.492   4.245   2.584  0.3372 -0.0934  0.1786
 7255SOL    HW133227   4.482   4.326   2.534  0.8208 -0.2175 -0.1119
 7255SOL    HW233228   4.482   4.275   2.675  2.2730  0.4125  0.2143
 7256SOL     OW33229   0.946   2.998   5.422 -0.5475  0.2060 -0.3730
 7256SOL    HW133230   0.961   3.033   5.510  3.2566 -1.5670 -0.2944
 7256SOL    HW233231   0.938   3.082   5.376 -0.9718  0.3358 -0.0561
 7257SOL     OW33232   0.765   1.052   2.673  0.3102 -0.5122  0.0964
 7257SOL    HW133233   0.714   1.055   2.754  1.0509  0.1803  0.5356
 7257SOL    HW233234   0.756   0.959   2.653 -1.2960  0.1955 -2.4488
 7258SOL     OW33235   0.287   0.108   1.109  0.0747  0.4423  0.3619
 7258SOL    HW133236   0.372   0.092   1.151  0.4259  1.3763  0.0078
 7258SOL    HW233237   0.241   0.148   1.183 -2.6351 -2.9533  0.4586
 7259SOL     OW33238   1.736   2.994   6.964 -0.6369 -0.1687 -0.4378
 7259SOL    HW133239   1.732   2.912   6.916  2.5498  1.0567 -2.8007
 7259SOL    HW233240   1.794   3.048   6.911 -0.7588 -0.3745 -0.7812
 7260SOL     OW33241   3.293   1.947   1.124 -0.1117  0.5168 -0.2692
 7260SOL    HW133242   3.225   2.009   1.101  1.0954  2.0348  0.2472
 7260SOL    HW233243   3.370   1.973   1.073 -0.3151 -1.3541 -1.5327
 7261SOL     OW33244   0.685   1.182  14.837  0.0417  0.1163  0.2155
 7261SOL    HW133245   0.722   1.154  14.754 -1.6439  0.0791 -0.5211
 7261SOL    HW233246   0.655   1.272  14.825  0.2621 -0.3261 -3.4455
 7262SOL     OW33247   2.445   4.677  16.733  0.5339 -0.3077 -0.4927
 7262SOL    HW133248   2.511   0.013  16.710  0.1069  0.9370  1.7591
 7262SOL    HW233249   2.440   4.681  16.828 -0.0902  1.9534 -0.6297
 7263SOL     OW33250   3.552   4.324   9.346 -0.5970  0.1471  0.5547
 7263SOL    HW133251   3.583   4.277   9.423 -0.4167  0.7981  0.8872
 7263SOL    HW233252   3.636   4.357   9.316 -0.0891 -1.6757  0.0489
 7264SOL     OW33253   2.688   2.476   8.982  0.1641 -0.3613  0.2437
 7264SOL    HW133254   2.644   2.519   9.056  1.3547  0.5473  0.4349
 7264SOL    HW233255   2.771   2.524   8.978 -0.6089  0.9272 -0.1821
 7265SOL     OW33256   2.396   1.526   5.736  0.0004 -0.3029  0.1618
 7265SOL    HW133257   2.446   1.594   5.782 -2.5193  2.2944 -0.9095
 7265SOL    HW233258   2.313   1.519   5.783 -0.1920 -0.8320 -0.2607
 7266SOL     OW33259   0.325   1.483   1.201 -0.1767  0.4412 -0.2174
 7266SOL    HW133260   0.356   1.395   1.220 -1.9231  0.0629  0.8313
 7266SOL    HW233261   0.374   1.527   1.271 -0.7563  1.0796 -0.2057
 7267SOL     OW33262   3.437   1.921   5.945 -0.0543  0.1168  0.1481
 7267SOL    HW133263   3.443   2.002   5.996  0.4406  0.3045 -0.2126
 7267SOL    HW233264   3.370   1.873   5.994 -0.1584 -0.7092 -0.8045
 7268SOL     OW33265   1.365   0.137   3.043  0.0200 -0.3303  0.0886
 7268SOL    HW133266   1.360   0.143   2.948  2.4176 -2.7930 -0.1813
 7268SOL    HW233267   1.370   0.229   3.072 -0.3362 -0.2571 -0.0772
 7269SOL     OW33268   1.291   2.605   7.742  0.4327 -0.1753  0.1626
 7269SOL    HW133269   1.252   2.602   7.655 -0.1461  2.3501  0.3509
 7269SOL    HW233270   1.227   2.572   7.805 -0.3765  1.8166  0.3674
 7270SOL     OW33271   1.556   2.799   0.081 -0.0056 -0.4501  0.7679
 7270SOL    HW133272   1.567   2.771  17.706  2.6055  2.0210  0.3410
 7270SOL    HW233273   1.460   2.798   0.086 -0.1223 -1.7874 -1.4470
 7271SOL     OW33274   2.492   3.722   0.279  0.2438 -0.5849  0.4319
 7271SOL    HW133275   2.490   3.763   0.193 -1.2154 -0.4472  0.5280
 7271SOL    HW233276   2.401   3.731   0.307  0.7405  0.2051  1.7596
 7272SOL     OW33277   3.580   1.837   7.473  0.0741 -0.1460 -0.5719
 7272SOL    HW133278   3.586   1.884   7.556 -2.6857 -0.3071 -0.2752
 7272SOL    HW233279   3.644   1.767   7.490 -0.2580 -0.3079 -0.0142
 7273SOL     OW33280   0.243   2.377  13.977  0.0157 -0.6174  0.4834
 7273SOL    HW133281   0.293   2.365  13.897  0.1262  1.3767  0.2681
 7273SOL    HW233282   0.277   2.315  14.042  0.6855  1.2171  1.8866
 7274SOL     OW33283   1.661   4.722   5.579  0.2910  0.0415 -0.1353
 7274SOL    HW133284   1.603   0.053   5.625 -1.3379  0.0842 -2.2793
 7274SOL    HW233285   1.722   4.702   5.651  0.1187  1.1623  0.3147
 7275SOL     OW33286   4.679   2.183   1.612 -0.1726 -0.2362 -0.2661
 7275SOL    HW133287   4.657   2.096   1.580  0.0969 -1.3834  2.6338
 7275SOL    HW233288   0.004   2.212   1.539 -0.7601 -0.3749 -0.7542
 7276SOL     OW33289   4.064   3.335   1.963 -0.1905  0.1950  0.2265
 7276SOL    HW133290   4.156   3.321   1.988  0.1131  0.1067 -0.9399
 7276SOL    HW233291   4.036   3.257   1.916 -2.6967  0.1922  1.7312
 7277SOL     OW33292   1.981   1.249   4.960  0.3434 -0.2351 -0.0451
 7277SOL    HW133293   2.063   1.293   4.982 -0.8083  2.3563 -0.9948
 7277SOL    HW233294   1.917   1.320   4.968  1.5731  1.0311 -1.8211
 7278SOL     OW33295   3.417   4.031   3.901  0.6444  0.6002  0.2757
 7278SOL    HW133296   3.392   4.036   3.993  1.9655 -0.9470  0.7102
 7278SOL    HW233297   3.377   4.114   3.878 -1.9730 -0.8893 -0.5954
 7279SOL     OW33298   2.122   3.898   3.771 -0.1447  0.0451  0.2377
 7279SOL    HW133299   2.034   3.864   3.786 -0.8751  2.7823  2.1616
 7279SOL    HW233300   2.138   3.861   3.685  1.2804  0.7441  0.1978
 7280SOL     OW33301   4.002   0.928   4.530  0.0358 -0.5563  0.2052
 7280SOL    HW133302   4.080   0.920   4.584  0.2703 -1.4093 -0.2596
 7280SOL    HW233303   4.042   0.911   4.445 -0.5777 -0.4257 -0.1160
 7281SOL     OW33304   1.254   4.294   2.420  0.1997  0.1382  0.2772
 7281SOL    HW133305   1.265   4.337   2.335  2.7526  0.7961  0.9547
 7281SOL    HW233306   1.307   4.216   2.402  0.3398 -0.1123  1.7650
 7282SOL     OW33307   3.739   2.290   6.813 -0.4225 -0.7259  0.5961
 7282SOL    HW133308   3.801   2.227   6.777 -0.2790  0.2895 -0.9281
 7282SOL    HW233309   3.717   2.343   6.737  0.3210  0.1102  0.9582
 7283SOL     OW33310   3.114   0.209  16.121  0.2873 -0.0315  0.0424
 7283SOL    HW133311   3.196   0.166  16.145 -1.3550 -1.6475  2.7109
 7283SOL    HW233312   3.051   0.148  16.159  0.6726 -0.5881 -0.2134
 7284SOL     OW33313   0.973   2.354   6.603  0.0779  0.0715  0.2070
 7284SOL    HW133314   0.985   2.331   6.695  0.2094  1.3138  0.5017
 7284SOL    HW233315   1.017   2.438   6.592 -1.8719  0.8178 -2.0080
 7285SOL     OW33316   2.065   1.810  15.979  0.0612  0.2504  0.3802
 7285SOL    HW133317   2.032   1.721  15.992  0.8637 -0.2934 -1.2519
 7285SOL    HW233318   2.139   1.778  15.927 -0.2943 -0.4629  0.3144
 7286SOL     OW33319   1.861   2.675   2.057  0.1526 -0.0640  0.0235
 7286SOL    HW133320   1.953   2.650   2.055  0.1729  0.2005 -1.7961
 7286SOL    HW233321   1.847   2.759   2.013 -3.7504  0.0935  1.5852
 7287SOL     OW33322   1.744   2.996  14.867 -0.6056  0.2133 -0.0998
 7287SOL    HW133323   1.838   2.990  14.886 -1.2342  0.9627  3.2113
 7287SOL    HW233324   1.730   2.914  14.820 -1.2845  1.4327 -2.0453
 7288SOL     OW33325   1.012   0.366   7.925 -0.6720 -0.0219 -0.1154
 7288SOL    HW133326   1.023   0.445   7.872  0.2749 -1.0918 -1.5431
 7288SOL    HW233327   1.045   0.303   7.861  2.3915  2.3699 -0.8836
 7289SOL     OW33328   2.691   1.126  14.234  0.1675 -0.5057 -0.5617
 7289SOL    HW133329   2.715   1.073  14.310  0.1775 -0.6480 -0.6642
 7289SOL    HW233330   2.596   1.129  14.247  0.2492  2.8543 -0.7431
 7290SOL     OW33331   3.487   1.995   3.120  0.0395  0.1039 -0.4740
 7290SOL    HW133332   3.477   1.952   3.035 -0.6072  0.4262 -0.5592
 7290SOL    HW233333   3.580   2.016   3.116  0.1638 -0.1154  1.4084
 7291SOL     OW33334   2.517   1.858   6.272  0.1554 -0.0845 -1.1052
 7291SOL    HW133335   2.572   1.889   6.200 -0.6536  4.8429  0.4042
 7291SOL    HW233336   2.527   1.762   6.271 -0.3738 -0.1743  1.4940
 7292SOL     OW33337   4.215   2.685   2.655  0.3777 -0.4950  0.3000
 7292SOL    HW133338   4.153   2.651   2.591  0.0296  1.1126 -0.2228
 7292SOL    HW233339   4.294   2.634   2.639  1.5894  1.3656  0.2993
 7293SOL     OW33340   0.822   2.727   8.632  0.2255  0.1128 -0.3846
 7293SOL    HW133341   0.875   2.806   8.624 -0.1061  0.5188  1.4899
 7293SOL    HW233342   0.737   2.762   8.658 -0.0228  1.9628 -3.7332
 7294SOL     OW33343   2.342   0.107   7.726 -0.2156 -0.0865 -0.2981
 7294SOL    HW133344   2.409   0.142   7.785 -0.6650  0.4480 -0.1139
 7294SOL    HW233345   2.394   0.032   7.697 -0.8859  0.0818 -1.9082
 7295SOL     OW33346   4.620   1.809   9.119  0.4623  0.7032 -0.5913
 7295SOL    HW133347   4.680   1.846   9.183 -0.5829 -0.3730  1.0061
 7295SOL    HW233348   4.657   1.726   9.089  1.2191  2.2982 -4.0325
 7296SOL     OW33349   4.655   1.502   5.185 -0.2748 -0.6935  0.4648
 7296SOL    HW133350   4.592   1.455   5.130 -0.1857 -0.8362  0.4856
 7296SOL    HW233351   4.716   1.536   5.120 -4.2509  3.0424 -1.3113
 7297SOL     OW33352   0.995   1.743   2.237  0.4303  0.3796  0.0614
 7297SOL    HW133353   1.062   1.811   2.224  1.7954 -1.3433 -1.8730
 7297SOL    HW233354   1.002   1.713   2.146 -1.6984  2.9123 -0.9475
 7298SOL     OW33355   2.435   1.950   7.925 -0.4729 -0.9571 -0.4020
 7298SOL    HW133356   2.514   1.940   7.978 -1.1956 -1.7093  0.5287
 7298SOL    HW233357   2.416   2.041   7.950  0.3783 -1.0486  0.5844
 7299SOL     OW33358   4.332   4.424  15.563  0.1231  0.8188  0.3970
 7299SOL    HW133359   4.282   4.400  15.485  0.6672 -0.2462  0.3837
 7299SOL    HW233360   4.304   4.356  15.625 -1.5269  0.2953 -0.9195
 7300SOL     OW33361   2.358   1.538   7.569  0.0611  0.4175 -0.0133
 7300SOL    HW133362   2.443   1.547   7.526  0.5706  0.5095  1.0117
 7300SOL    HW233363   2.338   1.458   7.521 -0.4661  1.2230 -1.1268
 7301SOL     OW33364   1.124   4.210   6.618 -0.1668  0.0604 -0.7208
 7301SOL    HW133365   1.161   4.122   6.614 -1.2869 -0.5027  1.4488
 7301SOL    HW233366   1.197   4.262   6.652 -0.2053 -1.4564  1.6722
 7302SOL     OW33367   1.195   2.406   2.889 -0.2125  0.0549  0.3488
 7302SOL    HW133368   1.272   2.456   2.863  0.4830 -0.0180  2.2677
 7302SOL    HW233369   1.178   2.370   2.802  1.6605  0.2797 -0.1144
 7303SOL     OW33370   2.788   1.094   2.496  0.3894 -0.0397  0.1048
 7303SOL    HW133371   2.876   1.104   2.531  0.6024 -2.9256  0.3928
 7303SOL    HW233372   2.791   1.114   2.402  0.1937 -0.7467 -0.0531
 7304SOL     OW33373   1.704   2.397   4.256 -0.7535 -0.7713  0.0273
 7304SOL    HW133374   1.719   2.489   4.234 -0.2798 -0.3055  2.2729
 7304SOL    HW233375   1.709   2.395   4.352  0.1897  3.1870  0.0749
 7305SOL     OW33376   3.794   2.107   3.653 -0.0763 -0.2014  0.5592
 7305SOL    HW133377   3.868   2.051   3.630 -2.0028 -3.7859  3.2351
 7305SOL    HW233378   3.781   2.072   3.741 -3.7125 -0.5353 -0.1111
 7306SOL     OW33379   1.608   3.571   1.923  0.2703  0.2428  0.4984
 7306SOL    HW133380   1.614   3.529   1.836 -1.0520  0.4281  0.3274
 7306SOL    HW233381   1.681   3.525   1.964  0.8413  1.7206  1.1331
 7307SOL     OW33382   4.517   0.276  17.072  0.5862 -0.4014  0.0156
 7307SOL    HW133383   4.575   0.350  17.088 -1.6788  0.8797  2.3932
 7307SOL    HW233384   4.549   0.234  16.992 -1.6693 -0.1227 -1.0388
 7308SOL     OW33385   3.083   2.810   8.342  0.3563 -0.6589 -0.4865
 7308SOL    HW133386   3.011   2.760   8.381 -0.4573  0.1252 -0.9731
 7308SOL    HW233387   3.045   2.898   8.337 -0.1018 -0.9639 -2.2920
 7309SOL     OW33388   4.606   2.114   1.227 -0.4413 -0.2777 -0.2541
 7309SOL    HW133389   4.538   2.143   1.166 -0.9400 -1.8262 -0.4116
 7309SOL    HW233390   4.658   2.057   1.169  0.6417 -0.5012  0.9346
 7310SOL     OW33391   2.846   0.273   8.101 -0.0374  0.0555  0.2815
 7310SOL    HW133392   2.882   0.351   8.142 -0.4128  0.1284  0.4706
 7310SOL    HW233393   2.859   0.211   8.173 -0.9030 -1.0948 -0.5643
 7311SOL     OW33394   4.151   1.634   0.825  0.0941  0.4767 -0.3224
 7311SOL    HW133395   4.230   1.685   0.843  0.3920  0.9194 -2.9869
 7311SOL    HW233396   4.186   1.548   0.849  1.6582  1.0671 -0.4443
 7312SOL     OW33397   1.033   4.550   5.721  0.0351  0.2540 -0.4803
 7312SOL    HW133398   1.024   4.473   5.778 -3.0353  2.2171  1.6693
 7312SOL    HW233399   1.050   4.508   5.637 -0.9306  0.6337 -0.8618
 7313SOL     OW33400   1.976   4.463   1.694  0.0155 -0.6737  0.1448
 7313SOL    HW133401   1.945   4.411   1.619  2.3468 -0.4744 -0.9364
 7313SOL    HW233402   2.024   4.404   1.751 -0.6774 -0.5059  0.9024
 7314SOL     OW33403   2.902   1.373   5.608  0.1603  0.4078 -0.2677
 7314SOL    HW133404   2.901   1.355   5.514 -0.8037  1.8517 -0.5371
 7314SOL    HW233405   2.931   1.463   5.623 -0.0842  0.5828 -0.8563
 7315SOL     OW33406   2.598   1.555  16.427  0.2620  0.3648  0.2196
 7315SOL    HW133407   2.502   1.563  16.425  0.3498  1.3419  0.0430
 7315SOL    HW233408   2.614   1.561  16.333  0.3039 -0.7463  0.1550
 7316SOL     OW33409   3.036   3.904  15.327 -0.2927  0.6021  0.0985
 7316SOL    HW133410   3.122   3.941  15.349  0.6451 -1.4352 -0.1160
 7316SOL    HW233411   3.029   3.830  15.386  2.0133  1.1359  1.0606
 7317SOL     OW33412   3.296   3.669   8.300 -0.2903 -0.5539 -0.0478
 7317SOL    HW133413   3.384   3.686   8.333 -0.6324  0.7952  0.1531
 7317SOL    HW233414   3.251   3.723   8.364  0.7168  0.3756 -0.1347
 7318SOL     OW33415   1.170   0.980   5.689  0.2310  0.0612  0.2191
 7318SOL    HW133416   1.244   0.942   5.736  1.2763 -0.2122 -1.6588
 7318SOL    HW233417   1.170   0.929   5.608 -0.2331  2.6361 -1.3792
 7319SOL     OW33418   3.044   3.089   7.073  0.3699 -0.2184  0.2281
 7319SOL    HW133419   2.967   3.143   7.057  0.4287 -0.6944 -1.6518
 7319SOL    HW233420   3.019   2.998   7.060 -0.9998  0.1406  0.3965
 7320SOL     OW33421   1.241   3.272  13.846 -0.2808  0.7228 -0.1410
 7320SOL    HW133422   1.293   3.323  13.785  1.0999  2.9872  2.9296
 7320SOL    HW233423   1.308   3.216  13.885 -1.8192 -0.9095  0.1676
 7321SOL     OW33424   1.078   0.878  14.385  0.0509  0.7488  0.3757
 7321SOL    HW133425   0.995   0.844  14.419 -0.6866  2.2336  0.0344
 7321SOL    HW233426   1.055   0.854  14.295  2.5254  1.3057 -0.3865
 7322SOL     OW33427   0.654   2.896   9.684  0.4788  0.0879  0.0200
 7322SOL    HW133428   0.721   2.922   9.622 -0.4797 -1.2892 -1.5839
 7322SOL    HW233429   0.681   2.806   9.705  2.4153  0.6625 -0.0177
 7323SOL     OW33430   2.458   2.438  13.355  0.1766 -0.0689 -0.1730
 7323SOL    HW133431   2.514   2.510  13.326 -0.0540  0.2843  0.2728
 7323SOL    HW233432   2.527   2.390  13.401  1.1357 -0.4484 -1.9999
 7324SOL     OW33433   3.066   2.768  12.128  0.3415  0.3950 -0.7231
 7324SOL    HW133434   2.975   2.798  12.133 -0.2567 -1.4644 -0.3718
 7324SOL    HW233435   3.105   2.853  12.107  0.7696 -0.0063 -1.5208
 7325SOL     OW33436   4.221   2.919   8.767  0.2116 -0.1384 -0.4610
 7325SOL    HW133437   4.134   2.893   8.737 -0.2259  0.3678  0.3962
 7325SOL    HW233438   4.218   3.001   8.816  1.8375 -0.7381  0.6765
 7326SOL     OW33439   3.451   2.192  17.227  0.2554  0.0875  0.2149
 7326SOL    HW133440   3.437   2.285  17.246 -1.7692 -0.2012  0.1255
 7326SOL    HW233441   3.369   2.155  17.257 -0.0261  1.1212  0.7337
 7327SOL     OW33442   1.303   0.847   2.788 -0.1844  0.3391 -0.1050
 7327SOL    HW133443   1.338   0.768   2.747  1.6106  0.6556  0.8109
 7327SOL    HW233444   1.333   0.837   2.879  1.3848  0.9336 -0.5586
 7328SOL     OW33445   3.321   0.796  11.086 -0.4458 -0.5330  0.8297
 7328SOL    HW133446   3.270   0.807  11.166  0.2080 -1.0703  1.3185
 7328SOL    HW233447   3.298   0.883  11.052 -1.3494 -1.1589 -0.1470
 7329SOL     OW33448   1.125   3.510   8.896 -0.1321 -0.3474  0.3725
 7329SOL    HW133449   1.057   3.566   8.932  3.1160  2.7750  1.5892
 7329SOL    HW233450   1.166   3.463   8.969 -0.6056  1.3653  1.7216
 7330SOL     OW33451   2.947   1.369   6.026  0.3084 -0.3725  0.0684
 7330SOL    HW133452   2.878   1.422   5.986  1.7014  0.6654 -1.0136
 7330SOL    HW233453   2.918   1.345   6.113 -1.0065 -0.8943 -0.5113
 7331SOL     OW33454   1.605   3.611  15.076 -0.8442 -0.4378 -0.2763
 7331SOL    HW133455   1.559   3.688  15.043 -0.0356 -0.9042 -2.4922
 7331SOL    HW233456   1.639   3.629  15.163  0.1327  0.2310 -0.7963
 7332SOL     OW33457   1.234   1.882   3.023 -0.4132 -0.3917  0.3624
 7332SOL    HW133458   1.307   1.822   3.031 -1.2785 -1.4012  0.6670
 7332SOL    HW233459   1.270   1.943   2.958 -1.2916  0.4056  0.6158
 7333SOL     OW33460   2.449   3.636   5.576 -0.0668  0.5832  0.5289
 7333SOL    HW133461   2.470   3.694   5.649  3.4501  0.8098 -0.6385
 7333SOL    HW233462   2.538   3.613   5.549  0.3155  2.4488  0.2038
 7334SOL     OW33463   2.978   0.110  16.700 -0.2987  0.6785 -0.0451
 7334SOL    HW133464   2.940   0.023  16.688 -0.3114  0.8008 -0.9062
 7334SOL    HW233465   3.002   0.122  16.792  0.6596  0.9081 -0.3168
 7335SOL     OW33466   2.744   0.023   5.450 -0.1528 -0.0103 -0.2294
 7335SOL    HW133467   2.819   0.051   5.502 -0.6689  0.4570  0.2663
 7335SOL    HW233468   2.789   0.039   5.367  0.5564  0.0862  0.1797
 7336SOL     OW33469   2.318   3.260  17.387  0.2483  0.5348  0.1618
 7336SOL    HW133470   2.315   3.339  17.333  1.3539  0.3452 -0.1858
 7336SOL    HW233471   2.285   3.293  17.470 -1.8106 -2.0779  0.3594
 7337SOL     OW33472   4.063   3.596   3.193 -0.0271 -0.0160 -0.0417
 7337SOL    HW133473   4.007   3.603   3.270  0.8894 -0.4917  0.6700
 7337SOL    HW233474   4.076   3.687   3.166  0.1247 -0.3166 -0.9640
 7338SOL     OW33475   0.806   3.246  17.510 -0.0911 -0.2277  0.4525
 7338SOL    HW133476   0.732   3.303  17.488 -0.4399 -0.2744  1.5315
 7338SOL    HW233477   0.849   3.239  17.424 -0.1183  1.4063  0.3100
 7339SOL     OW33478   1.428   4.385   4.014  0.0041 -0.1939  0.0430
 7339SOL    HW133479   1.522   4.371   4.020 -0.0037 -0.2144  0.1202
 7339SOL    HW233480   1.398   4.340   3.935  2.7088 -0.3905 -0.8683
 7340SOL     OW33481   3.518   4.257  10.262 -0.0538 -1.0337 -0.2204
 7340SOL    HW133482   3.588   4.280  10.201 -0.6228  1.8055  0.1663
 7340SOL    HW233483   3.535   4.326  10.326 -2.0064 -2.4737  1.8403
 7341SOL     OW33484   4.350   0.052   1.972  0.0807  0.0089 -0.2307
 7341SOL    HW133485   4.405   0.100   2.034  0.7155 -0.4246 -0.4678
 7341SOL    HW233486   4.303   0.113   1.916 -2.1341 -1.3895  0.0878
 7342SOL     OW33487   2.396   0.601   1.815 -0.5841 -0.3683 -0.3011
 7342SOL    HW133488   2.456   0.530   1.836 -0.1216  0.9249  2.8443
 7342SOL    HW233489   2.357   0.613   1.902 -0.5445  1.3177 -0.5149
 7343SOL     OW33490   0.484   0.681   7.569 -0.5603  0.0087  0.2272
 7343SOL    HW133491   0.407   0.634   7.601 -0.7066  0.7328  0.9458
 7343SOL    HW233492   0.445   0.714   7.487 -1.5026  0.3628  0.8189
 7344SOL     OW33493   2.976   2.102   8.020 -1.0586 -0.5700 -0.8784
 7344SOL    HW133494   3.041   2.037   7.993 -1.0005 -0.9522  0.1768
 7344SOL    HW233495   3.004   2.174   7.963 -0.2965  0.1116  0.3813
 7345SOL     OW33496   3.384   0.005   7.821  0.3106  0.3432  0.8998
 7345SOL    HW133497   3.397   0.016   7.915 -0.0849  0.6633  0.9204
 7345SOL    HW233498   3.470   0.034   7.791 -0.7531  1.9438 -0.6361
 7346SOL     OW33499   0.233   1.819   2.101  0.4475 -0.0190 -0.2359
 7346SOL    HW133500   0.328   1.808   2.112  0.4022 -0.5608 -0.4088
 7346SOL    HW233501   0.192   1.772   2.173 -0.8299  1.7874  0.2152
 7347SOL     OW33502   1.898   1.520   7.353 -0.3586 -0.8240  0.0057
 7347SOL    HW133503   1.959   1.583   7.390 -1.5047 -0.3211  1.0457
 7347SOL    HW233504   1.915   1.444   7.409 -0.3797  0.1348  1.3241
 7348SOL     OW33505   0.246   2.532   7.774 -0.0054 -0.2796 -0.1917
 7348SOL    HW133506   0.198   2.599   7.724  1.6082  0.0174 -1.3445
 7348SOL    HW233507   0.209   2.537   7.862  2.9016  0.2734  0.9959
 7349SOL     OW33508   1.085   2.717  15.436  0.0137  0.1191  0.7158
 7349SOL    HW133509   1.143   2.794  15.435  1.1876 -0.7560  1.2618
 7349SOL    HW233510   1.159   2.658  15.448 -1.1616 -1.4493  0.2196
 7350SOL     OW33511   1.830   3.491   5.480  0.2086  0.4810  0.4801
 7350SOL    HW133512   1.740   3.484   5.514  0.7606 -0.9189  1.6338
 7350SOL    HW233513   1.881   3.447   5.547  1.0542  2.4169  1.0922
 7351SOL     OW33514   2.275   3.771   6.566  0.0894  0.2574 -0.1688
 7351SOL    HW133515   2.253   3.678   6.559 -0.7625  0.4178  0.4624
 7351SOL    HW233516   2.321   3.789   6.484  0.4093  2.6275  0.5300
 7352SOL     OW33517   0.005   4.301   4.667 -0.1586 -0.4333 -0.0928
 7352SOL    HW133518   0.040   4.213   4.651 -0.5038 -0.2693 -1.7621
 7352SOL    HW233519   4.654   4.290   4.616  0.1709 -1.5212 -0.3907
 7353SOL     OW33520   4.253   2.909   6.458 -0.0968 -0.2012 -0.2459
 7353SOL    HW133521   4.271   3.003   6.466  0.3011 -0.3792  0.9668
 7353SOL    HW233522   4.307   2.898   6.380 -1.4609 -1.0220 -1.0709
 7354SOL     OW33523   4.548   2.988   6.753 -0.1862 -0.1061 -0.1357
 7354SOL    HW133524   4.548   3.018   6.663 -0.2867 -0.5763 -0.2906
 7354SOL    HW233525   4.494   3.057   6.791  2.4940  0.9768  1.7032
 7355SOL     OW33526   3.790   0.270  11.411  0.0819  0.4730 -0.7027
 7355SOL    HW133527   3.838   0.192  11.441 -0.8264 -0.2905 -1.2355
 7355SOL    HW233528   3.732   0.228  11.348 -0.0113  1.8460 -1.5367
 7356SOL     OW33529   0.201   0.644   5.123  0.3274 -0.1160 -0.2389
 7356SOL    HW133530   0.224   0.582   5.054 -0.3146 -1.6576  0.9220
 7356SOL    HW233531   0.106   0.634   5.127  0.2470  1.0304  0.9915
 7357SOL     OW33532   3.976   0.399   6.222 -0.5106  0.3827 -0.0620
 7357SOL    HW133533   4.067   0.421   6.202 -0.6350  0.4230 -0.5647
 7357SOL    HW233534   3.962   0.472   6.283 -2.6255  0.0238 -0.0938
 7358SOL     OW33535   4.395   2.681   4.505  0.5674 -0.0782  0.1653
 7358SOL    HW133536   4.330   2.679   4.435  0.6811  2.6693 -0.0074
 7358SOL    HW233537   4.459   2.620   4.468 -0.2334 -2.3727  2.6144
 7359SOL     OW33538   1.526   4.145  13.060 -0.0915 -0.1380 -0.3380
 7359SOL    HW133539   1.488   4.233  13.053 -1.2523 -0.5787  0.2981
 7359SOL    HW233540   1.493   4.110  13.143 -1.9707 -0.7523 -1.3405
 7360SOL     OW33541   2.536   1.249   3.186  0.3066  0.4440  0.3620
 7360SOL    HW133542   2.481   1.326   3.167 -0.4411 -0.4689 -1.2082
 7360SOL    HW233543   2.520   1.198   3.106  0.3661  1.6074 -0.3933
 7361SOL     OW33544   0.180   3.236  11.161  0.0337 -0.1750 -0.7663
 7361SOL    HW133545   0.086   3.241  11.179 -0.2020 -2.1014 -1.4698
 7361SOL    HW233546   0.188   3.141  11.172  1.6023  0.0227 -0.1707
 7362SOL     OW33547   1.555   1.218   7.441  0.6422 -0.4283  0.0532
 7362SOL    HW133548   1.560   1.253   7.529  2.2859  0.5352 -0.4224
 7362SOL    HW233549   1.511   1.136   7.463  3.1136 -1.7787 -0.0350
 7363SOL     OW33550   1.450   2.081   1.892  0.0088  0.1737 -0.4029
 7363SOL    HW133551   1.456   2.133   1.812  1.2512  0.2437 -0.2606
 7363SOL    HW233552   1.421   1.996   1.860  0.8571  0.1343 -1.0712
 7364SOL     OW33553   2.658   4.213   5.670  0.3510 -0.3012  0.1203
 7364SOL    HW133554   2.592   4.145   5.680 -0.0527 -0.1051 -1.2869
 7364SOL    HW233555   2.600   4.286   5.652 -1.7061 -1.7507  0.9537
 7365SOL     OW33556   1.350   1.249   0.248 -0.5498  0.2028 -0.2782
 7365SOL    HW133557   1.317   1.199   0.174 -1.5569  0.3204  0.0782
 7365SOL    HW233558   1.422   1.202   0.290  0.5576  2.5512  0.4601
 7366SOL     OW33559   1.177   0.408  12.082 -0.1317  0.0077  0.5700
 7366SOL    HW133560   1.104   0.376  12.134 -2.0515  1.2785 -1.3494
 7366SOL    HW233561   1.201   0.492  12.121  0.2224 -0.2349  0.8720
 7367SOL     OW33562   2.338   3.696   4.972 -0.1880  0.3838 -0.3016
 7367SOL    HW133563   2.305   3.751   5.042  1.2153 -0.0450  0.6993
 7367SOL    HW233564   2.401   3.755   4.930 -0.1852  0.3002 -0.4156
 7368SOL     OW33565   3.947   1.849  15.290 -0.0935 -0.4719  0.1976
 7368SOL    HW133566   3.979   1.865  15.202  1.1479 -1.1338  0.5403
 7368SOL    HW233567   3.852   1.862  15.288 -0.1202 -1.1974 -2.3386
 7369SOL     OW33568   2.987   4.591   3.252  0.3520  0.4744  0.0070
 7369SOL    HW133569   3.012   4.683   3.259  2.2869 -0.1190  0.9533
 7369SOL    HW233570   2.975   4.574   3.346 -2.0300  1.9035 -0.0200
 7370SOL     OW33571   1.326   3.250   7.147  0.1409  0.0622 -0.0318
 7370SOL    HW133572   1.395   3.316   7.148  0.6604 -0.4963  0.7408
 7370SOL    HW233573   1.340   3.208   7.063  0.8657 -1.8860  1.0548
 7371SOL     OW33574   4.200   2.267   5.399  0.3621  0.4471  0.3258
 7371SOL    HW133575   4.159   2.193   5.355 -0.2196  1.0424 -0.1384
 7371SOL    HW233576   4.291   2.239   5.387 -0.1140  0.0609 -2.5369
 7372SOL     OW33577   3.326   1.828   8.920 -0.5409  0.4767 -0.3732
 7372SOL    HW133578   3.390   1.897   8.909  0.5114 -0.6625 -1.3147
 7372SOL    HW233579   3.348   1.756   8.861 -0.5431 -1.3880  1.8835
 7373SOL     OW33580   1.996   3.846   1.332  0.4369  0.3012 -0.2126
 7373SOL    HW133581   1.915   3.882   1.367 -1.6109 -3.1818 -1.3139
 7373SOL    HW233582   1.989   3.894   1.249 -2.5994  0.1816 -0.0225
 7374SOL     OW33583   3.936   2.323   8.302 -0.0916 -0.5685  0.3127
 7374SOL    HW133584   4.022   2.302   8.336 -0.2924  0.8857  1.7231
 7374SOL    HW233585   3.929   2.419   8.304 -1.0673 -0.6704  1.8230
 7375SOL     OW33586   1.637   2.392   0.535 -1.1510  0.0781 -0.5144
 7375SOL    HW133587   1.649   2.298   0.523  1.6477  0.3628  0.1805
 7375SOL    HW233588   1.600   2.411   0.448  0.5737 -1.3040 -1.5371
 7376SOL     OW33589   2.218   2.507   4.003 -0.0444  0.4262  0.3034
 7376SOL    HW133590   2.165   2.537   4.076 -0.2576 -1.4564  0.9332
 7376SOL    HW233591   2.262   2.427   4.035  1.3134  0.1408 -2.2674
 7377SOL     OW33592   4.041   3.876   7.848  0.3829 -0.3776 -0.7145
 7377SOL    HW133593   4.033   3.971   7.833  0.6108 -0.2044  0.2998
 7377SOL    HW233594   4.112   3.867   7.911 -1.4704 -3.4130  0.9151
 7378SOL     OW33595   3.358   2.435   4.466 -0.0315  0.2130  0.1895
 7378SOL    HW133596   3.344   2.347   4.502  1.8802 -0.0256  0.3332
 7378SOL    HW233597   3.363   2.401   4.377  4.2672 -2.4348  1.4634
 7379SOL     OW33598   2.989   1.665   8.468 -0.5383  0.3578  0.1970
 7379SOL    HW133599   3.069   1.674   8.417 -1.0085  3.0323 -0.0569
 7379SOL    HW233600   2.980   1.570   8.474 -1.0927  0.3062 -1.5125
 7380SOL     OW33601   2.578   1.890   5.218 -0.4782 -0.0728  0.7193
 7380SOL    HW133602   2.644   1.894   5.149 -1.5002 -1.9762 -0.3459
 7380SOL    HW233603   2.498   1.880   5.166 -3.0133 -0.0264  4.6535
 7381SOL     OW33604   0.080   0.878   9.148  0.4502 -0.2778  0.6429
 7381SOL    HW133605   0.053   0.859   9.238  4.2326 -0.4739  1.7733
 7381SOL    HW233606   0.109   0.795   9.110 -2.0232 -0.8840  0.1335
 7382SOL     OW33607   2.804   2.208   9.043 -0.0005  0.1973  0.7848
 7382SOL    HW133608   2.895   2.211   9.016 -0.5557 -0.2262 -1.0834
 7382SOL    HW233609   2.779   2.289   8.998  0.8877  0.4363  0.7319
 7383SOL     OW33610   0.494   4.584   7.790  0.0172  0.0968 -0.1813
 7383SOL    HW133611   0.560   4.618   7.851 -0.5471  1.2501 -0.2282
 7383SOL    HW233612   0.556   4.564   7.720  1.6428  0.1619  1.2478
 7384SOL     OW33613   4.469   4.603   8.024  0.1066 -0.2352 -0.2231
 7384SOL    HW133614   4.429   4.562   8.101 -0.8679  1.3689  0.1195
 7384SOL    HW233615   4.430   4.689   8.038  2.9688  1.2425 -1.2504
 7385SOL     OW33616   3.693   0.338   6.125 -0.3345  0.0778 -0.0243
 7385SOL    HW133617   3.784   0.363   6.144 -0.4055  0.4488 -0.1860
 7385SOL    HW233618   3.639   0.406   6.164  0.3206  1.9350 -2.4012
 7386SOL     OW33619   2.561   3.989  14.257 -0.4831  0.0276 -0.6483
 7386SOL    HW133620   2.623   4.055  14.287  0.1996 -1.2210  0.7066
 7386SOL    HW233621   2.616   3.910  14.255  0.0855  0.4434 -1.5135
 7387SOL     OW33622   1.564   0.564  17.273  1.0055 -0.0445 -0.5357
 7387SOL    HW133623   1.649   0.603  17.252  1.6136 -0.8248  0.4685
 7387SOL    HW233624   1.587   0.479  17.310  1.6686  0.0003 -0.8489
 7388SOL     OW33625   0.430   1.758   7.371 -0.2357  0.5153  0.1185
 7388SOL    HW133626   0.437   1.825   7.439 -0.9264 -1.0503  1.7421
 7388SOL    HW233627   0.335   1.764   7.358 -0.1664  1.5221  0.0963
 7389SOL     OW33628   0.666   2.981   2.147  0.3281 -0.4062  0.5239
 7389SOL    HW133629   0.637   3.065   2.110  1.4463  0.2545  1.1294
 7389SOL    HW233630   0.751   2.994   2.190  1.6909 -2.1137 -1.6192
 7390SOL     OW33631   0.897   2.248   2.746 -0.3995 -0.3398  0.4890
 7390SOL    HW133632   0.833   2.319   2.745 -0.6566 -0.5780  0.1332
 7390SOL    HW233633   0.976   2.288   2.709  0.3827 -1.7748  0.5839
 7391SOL     OW33634   3.211   4.043   2.909  0.2123 -0.4366 -0.3351
 7391SOL    HW133635   3.137   3.982   2.903 -0.9223  0.7652  1.6398
 7391SOL    HW233636   3.193   4.072   2.819 -0.5852  0.9372  0.2790
 7392SOL     OW33637   2.929   0.504  11.253  0.2555 -0.0075  0.3657
 7392SOL    HW133638   2.845   0.514  11.296 -0.1568  3.5856 -1.3310
 7392SOL    HW233639   2.983   0.492  11.331 -0.1560 -0.4184  0.5837
 7393SOL     OW33640   3.518   4.441   7.550  0.0411  0.1841  0.0097
 7393SOL    HW133641   3.603   4.397   7.548 -0.1717 -0.2263 -0.0383
 7393SOL    HW233642   3.531   4.521   7.500 -2.0547  0.9079  0.6112
 7394SOL     OW33643   4.414   3.251   5.612 -0.0434 -0.1480  0.1125
 7394SOL    HW133644   4.470   3.326   5.631 -0.3019  0.2173 -0.5852
 7394SOL    HW233645   4.443   3.193   5.683  1.7236 -1.3640 -1.5933
 7395SOL     OW33646   2.083   1.619   4.597 -0.2179 -0.0527 -0.2729
 7395SOL    HW133647   2.034   1.541   4.571 -0.5786 -0.5254  1.8344
 7395SOL    HW233648   2.025   1.639   4.671  1.2790 -1.8991  1.4043
 7396SOL     OW33649   2.240   1.526   6.870  0.2908  0.2372  0.0366
 7396SOL    HW133650   2.230   1.436   6.899 -1.5011 -0.1737 -1.7925
 7396SOL    HW233651   2.253   1.560   6.958 -1.0288 -0.9993  0.7046
 7397SOL     OW33652   2.447   0.855   3.702  0.2141 -0.1783  0.1118
 7397SOL    HW133653   2.522   0.885   3.652  1.5026  0.0084  2.1312
 7397SOL    HW233654   2.407   0.801   3.634  1.8636 -0.4661 -0.6167
 7398SOL     OW33655   1.968   1.722   2.001  0.1305 -0.4879 -0.4245
 7398SOL    HW133656   1.884   1.680   1.984  0.1699 -0.8023  0.1439
 7398SOL    HW233657   1.940   1.780   2.072 -2.0303 -0.2573 -1.4942
 7399SOL     OW33658   1.030   1.687   8.882 -0.7243 -0.1797 -0.0017
 7399SOL    HW133659   1.028   1.638   8.800  0.2994  1.6463 -1.1311
 7399SOL    HW233660   1.114   1.733   8.889 -1.4482  1.1134  0.1384
 7400SOL     OW33661   2.560   4.569   4.003 -0.2196 -0.0634  0.0028
 7400SOL    HW133662   2.649   4.601   4.014 -0.4487 -0.0590  1.9162
 7400SOL    HW233663   2.563   4.515   3.924  2.1663 -1.2386  0.8929
 7401SOL     OW33664   3.922   4.547  11.273 -0.8674 -0.2152 -0.0978
 7401SOL    HW133665   3.973   4.535  11.193 -1.8818 -1.6792 -0.5357
 7401SOL    HW233666   3.846   4.602  11.255  0.3379  1.4698 -0.0523
 7402SOL     OW33667   1.273   3.011   3.024  0.1734  0.0749  0.3763
 7402SOL    HW133668   1.305   2.954   2.955 -0.6198  1.5044 -1.1578
 7402SOL    HW233669   1.181   2.996   3.007  0.7574  0.6691 -3.2240
 7403SOL     OW33670   3.442   1.301   1.468 -1.3495  0.7756 -0.0592
 7403SOL    HW133671   3.411   1.211   1.467  4.6153 -1.2300  0.7354
 7403SOL    HW233672   3.534   1.292   1.493 -0.8775  0.3105 -1.9663
 7404SOL     OW33673   0.267   3.036   4.012 -0.0450 -0.1882  0.0520
 7404SOL    HW133674   0.180   3.006   4.040 -0.1691  1.4629  1.4478
 7404SOL    HW233675   0.307   3.025   4.098 -1.3622 -3.0679  0.3200
 7405SOL     OW33676   2.865   1.287   4.325 -0.1561 -0.1709  0.8284
 7405SOL    HW133677   2.870   1.378   4.353 -2.0081 -0.2277  1.3373
 7405SOL    HW233678   2.782   1.285   4.279  1.0224  0.4060 -1.3113
 7406SOL     OW33679   1.937   3.668   5.730 -0.3596 -0.5547  0.0245
 7406SOL    HW133680   1.963   3.584   5.693  1.5582 -0.6557  1.6674
 7406SOL    HW233681   1.853   3.679   5.684 -0.4850  3.0230  1.1172
 7407SOL     OW33682   3.356   1.153  15.737  0.2665  0.3976 -0.2790
 7407SOL    HW133683   3.284   1.194  15.785 -1.0261  1.5348 -3.1936
 7407SOL    HW233684   3.327   1.062  15.727  2.8662 -0.3902 -0.7367
 7408SOL     OW33685   4.556   4.609   5.125 -0.9069  0.3092 -0.5064
 7408SOL    HW133686   4.538   4.516   5.111  0.0102  0.0484  0.0467
 7408SOL    HW233687   4.472   4.640   5.158 -0.1849 -0.1467  1.8079
 7409SOL     OW33688   4.498   0.579   3.185  0.0482  0.1155  0.4231
 7409SOL    HW133689   4.565   0.646   3.177 -0.7063  0.7664 -0.4085
 7409SOL    HW233690   4.487   0.564   3.279 -1.3873 -1.1278  0.0737
 7410SOL     OW33691   4.728   4.440  14.137  0.0639 -0.0132 -0.2178
 7410SOL    HW133692   0.007   4.368  14.200  4.2987 -0.2587 -1.0285
 7410SOL    HW233693   4.657   4.410  14.081 -0.3490  1.4258 -0.4714
 7411SOL     OW33694   0.065   1.650  17.232  0.3313 -0.0166 -0.2494
 7411SOL    HW133695   0.058   1.601  17.314  2.5566 -0.7763 -0.5002
 7411SOL    HW233696   0.159   1.670  17.230  0.4276 -0.5886 -1.2840
 7412SOL     OW33697   4.557   2.619   1.261  0.3508  0.6953  0.3582
 7412SOL    HW133698   4.564   2.526   1.242 -2.3025  0.2980  1.2844
 7412SOL    HW233699   4.624   2.629   1.329 -0.4087 -0.9242  1.3401
 7413SOL     OW33700   2.578   3.192  13.046  0.1829  0.3555 -0.4155
 7413SOL    HW133701   2.526   3.269  13.025  0.9186  1.0779  0.4420
 7413SOL    HW233702   2.571   3.157  12.957 -1.0740 -0.8668  0.1694
 7414SOL     OW33703   2.458   3.927   3.439 -0.4300 -0.1821 -0.1016
 7414SOL    HW133704   2.450   3.908   3.346  0.1774 -0.4766 -0.0950
 7414SOL    HW233705   2.550   3.902   3.454 -0.4746  0.5007  1.3131
 7415SOL     OW33706   0.612   0.118  13.112  0.4766  0.0923 -0.0767
 7415SOL    HW133707   0.595   0.143  13.021 -0.6220 -3.1488 -0.7480
 7415SOL    HW233708   0.689   0.061  13.107 -0.2796 -1.0543  1.4259
 7416SOL     OW33709   0.248   3.830   2.073  0.0010  0.8617  0.1983
 7416SOL    HW133710   0.273   3.854   2.162  0.4787 -1.9888  0.8225
 7416SOL    HW233711   0.314   3.873   2.019 -0.2836  3.0951  1.6331
 7417SOL     OW33712   2.908   1.027  13.491 -0.6485 -0.8495  0.2032
 7417SOL    HW133713   2.933   1.078  13.568 -1.8336 -0.5568  0.3876
 7417SOL    HW233714   2.827   1.075  13.472 -0.5375 -0.7885 -0.1075
 7418SOL     OW33715   0.374   2.756  10.346 -0.4207  0.5014 -0.7696
 7418SOL    HW133716   0.306   2.727  10.407 -0.9846  0.8597 -1.2255
 7418SOL    HW233717   0.399   2.668  10.319  2.9333  0.6178  1.9366
 7419SOL     OW33718   2.417   0.853  11.695 -0.2742 -0.0283 -0.3330
 7419SOL    HW133719   2.415   0.837  11.600  0.5928 -0.2548 -0.3165
 7419SOL    HW233720   2.361   0.930  11.694 -2.2869 -1.4851  1.4493
 7420SOL     OW33721   3.164   0.517   4.565  0.5528  0.9173  0.4774
 7420SOL    HW133722   3.214   0.537   4.644  1.6414 -0.5953  0.1721
 7420SOL    HW233723   3.213   0.438   4.543 -1.3066  0.1266 -0.7079
 7421SOL     OW33724   0.029   2.715   8.865  0.0343 -0.2913 -0.5171
 7421SOL    HW133725   0.039   2.622   8.845  0.9585 -0.1538 -0.6743
 7421SOL    HW233726   0.103   2.739   8.920  1.3809 -1.4703 -1.7976
 7422SOL     OW33727   1.774   0.218  16.462  0.0584 -0.0049 -0.6062
 7422SOL    HW133728   1.847   0.275  16.436  0.7950 -0.6004  0.1485
 7422SOL    HW233729   1.730   0.265  16.532 -0.2289  1.5411 -1.8261
 7423SOL     OW33730   0.927   0.304   4.745  0.5416  0.2171  0.0390
 7423SOL    HW133731   0.865   0.236   4.772  0.1999  0.4071 -0.2766
 7423SOL    HW233732   0.904   0.310   4.653 -0.7198  0.7209  0.3845
 7424SOL     OW33733   0.307   3.205  17.305  0.4755 -0.0223 -0.0548
 7424SOL    HW133734   0.245   3.226  17.375  2.5793 -0.2095  1.8630
 7424SOL    HW233735   0.380   3.170  17.354 -0.3019  0.0987  1.1870
 7425SOL     OW33736   1.941   0.950  12.322 -0.0244 -0.4713 -0.2743
 7425SOL    HW133737   1.978   0.950  12.410 -0.2271  2.3389 -0.1817
 7425SOL    HW233738   2.019   0.921  12.277 -0.3065 -0.2720 -0.8873
 7426SOL     OW33739   4.208   4.138  11.115  0.2032  0.7299 -0.5529
 7426SOL    HW133740   4.211   4.227  11.151 -0.4504 -0.4467  2.3917
 7426SOL    HW233741   4.118   4.125  11.087  0.2860 -2.1350  0.5733
 7427SOL     OW33742   2.202   3.583   3.225 -0.0619 -0.2051  0.1108
 7427SOL    HW133743   2.291   3.546   3.224 -0.8898 -2.1782  0.3416
 7427SOL    HW233744   2.158   3.529   3.290  0.5661  0.1005  0.7861
 7428SOL     OW33745   3.453   2.971   2.845 -0.1827  0.1845  0.4099
 7428SOL    HW133746   3.498   2.957   2.762 -0.6330 -0.4593  0.2767
 7428SOL    HW233747   3.492   2.904   2.901  0.1907  0.4835  0.5117
 7429SOL     OW33748   1.162   2.400   5.183  0.1215 -0.4675 -0.2028
 7429SOL    HW133749   1.246   2.434   5.212  0.4850 -2.4571  1.0426
 7429SOL    HW233750   1.114   2.481   5.163  2.2528  1.2241  1.5600
 7430SOL     OW33751   0.954   0.613   3.252 -0.2057 -0.4079 -0.0727
 7430SOL    HW133752   0.951   0.524   3.218  0.7592 -0.8448  0.9851
 7430SOL    HW233753   0.984   0.665   3.178 -0.8381 -0.0817 -0.1034
 7431SOL     OW33754   4.682   4.623   9.078 -0.2649 -0.0752 -1.0510
 7431SOL    HW133755   4.617   4.676   9.124 -0.2504 -0.3434 -0.7198
 7431SOL    HW233756   0.034   4.627   9.128 -0.4282  1.8874 -0.9639
 7432SOL     OW33757   4.036   3.021  14.351 -0.7039  0.3045  0.2170
 7432SOL    HW133758   4.105   2.973  14.396 -0.2882  1.1679  0.4986
 7432SOL    HW233759   3.964   3.009  14.414 -1.6702 -1.5696 -1.2319
 7433SOL     OW33760   2.269   0.352   9.446 -0.0991  0.3595 -0.1439
 7433SOL    HW133761   2.222   0.429   9.413  0.5853 -0.7773 -3.7931
 7433SOL    HW233762   2.327   0.334   9.372 -1.1170 -3.2607 -0.0645
 7434SOL     OW33763   2.268   2.473   7.112 -0.0249  0.0316 -0.0398
 7434SOL    HW133764   2.289   2.565   7.129  1.1822 -0.3904  0.7385
 7434SOL    HW233765   2.212   2.455   7.187  0.0295 -2.2273 -0.5529
 7435SOL     OW33766   0.342   4.186  11.602  0.1611 -0.1068 -0.4221
 7435SOL    HW133767   0.392   4.170  11.682 -0.8534 -0.9011  0.0372
 7435SOL    HW233768   0.260   4.217  11.639  0.3993 -0.9983  0.8261
 7436SOL     OW33769   0.295   2.938   5.595  0.1892 -0.3984  0.1444
 7436SOL    HW133770   0.313   2.845   5.587  1.4411 -0.2496  1.2601
 7436SOL    HW233771   0.345   2.978   5.524  0.0598 -0.4772  0.0083
 7437SOL     OW33772   0.314   4.427   6.219  0.0012  0.1528  0.9884
 7437SOL    HW133773   0.353   4.515   6.213  0.0081 -0.1879 -3.9233
 7437SOL    HW233774   0.219   4.431   6.211  0.1473  2.5161  0.3099
 7438SOL     OW33775   1.046   4.385  11.571 -0.0576 -0.3573  0.1754
 7438SOL    HW133776   1.031   4.318  11.504 -1.3018  1.5169 -1.4166
 7438SOL    HW233777   1.138   4.368  11.590  0.5787  0.8081 -1.9075
 7439SOL     OW33778   2.367   1.732   2.260  0.1316  0.0048  0.8724
 7439SOL    HW133779   2.302   1.784   2.212  0.1634  0.8418  1.7276
 7439SOL    HW233780   2.328   1.733   2.348  0.9861  0.2328  1.2490
 7440SOL     OW33781   1.751   0.964   8.410  0.0283 -0.4160 -0.0832
 7440SOL    HW133782   1.811   0.901   8.448  0.8635  1.0735  1.0714
 7440SOL    HW233783   1.766   1.038   8.469  0.4218 -0.0059 -0.6965
 7441SOL     OW33784   1.351   0.154   6.862  0.6164  0.1047  0.0651
 7441SOL    HW133785   1.356   0.250   6.867 -1.7388  0.2676 -1.2516
 7441SOL    HW233786   1.403   0.139   6.942  1.3691 -0.4277 -0.5291
 7442SOL     OW33787   3.167   1.089   6.536 -0.5421  0.2129  0.2754
 7442SOL    HW133788   3.168   1.183   6.519 -0.8046  0.4815  1.7434
 7442SOL    HW233789   3.118   1.067   6.615 -0.5904  1.6949  0.6498
 7443SOL     OW33790   1.473   3.132  12.937  0.1544  1.3305  0.1255
 7443SOL    HW133791   1.495   3.187  12.861 -0.7071  1.1802 -0.2300
 7443SOL    HW233792   1.379   3.125  12.921  0.0003  1.7060  0.8256
 7444SOL     OW33793   2.778   0.100   8.324  0.0407 -0.5414 -0.7318
 7444SOL    HW133794   2.746   0.138   8.406 -0.9314 -3.1429  0.1156
 7444SOL    HW233795   2.692   0.063   8.301  0.1747 -0.6805 -1.0035
 7445SOL     OW33796   2.998   1.133   5.724 -0.7232 -0.2401  0.4159
 7445SOL    HW133797   2.958   1.216   5.698 -3.4234 -1.6947 -0.0946
 7445SOL    HW233798   2.993   1.078   5.646  0.4217  0.1646  0.0619
 7446SOL     OW33799   0.984   0.716  10.620  0.0617 -0.3818 -0.4603
 7446SOL    HW133800   0.919   0.660  10.578 -0.4654 -0.7144  0.8048
 7446SOL    HW233801   1.050   0.651  10.645  0.2334 -1.3038 -3.2862
 7447SOL     OW33802   2.267   4.570  16.573 -0.7719 -0.1845 -0.1748
 7447SOL    HW133803   2.295   4.562  16.482  0.3328  0.5875  0.1020
 7447SOL    HW233804   2.336   4.627  16.607 -1.4085 -0.1098  0.9977
 7448SOL     OW33805   2.616   2.903   3.806  0.0089 -0.2421 -0.8835
 7448SOL    HW133806   2.695   2.860   3.839 -0.2228 -0.6572 -0.8775
 7448SOL    HW233807   2.564   2.833   3.766 -0.4658 -1.4327  1.8139
 7449SOL     OW33808   3.610   2.035   0.828  0.4039  0.4979 -0.2354
 7449SOL    HW133809   3.603   2.075   0.915  0.1771 -0.8686  0.3804
 7449SOL    HW233810   3.529   1.985   0.834  1.8790 -1.7455  1.1844
 7450SOL     OW33811   3.200   1.437   9.403  0.6372  0.1785  0.0640
 7450SOL    HW133812   3.280   1.481   9.376  1.2648 -1.4581 -0.7241
 7450SOL    HW233813   3.163   1.416   9.317  1.7311 -1.4947  0.0045
 7451SOL     OW33814   4.232   1.699   8.534 -0.4070  0.0807  0.5304
 7451SOL    HW133815   4.153   1.753   8.537  0.7545  1.7784  0.8944
 7451SOL    HW233816   4.287   1.721   8.609 -0.1053 -1.3061  0.7004
 7452SOL     OW33817   3.904   1.247   6.544  0.3071 -0.5676 -0.3387
 7452SOL    HW133818   3.964   1.225   6.616  0.5304 -1.5192 -0.8212
 7452SOL    HW233819   3.880   1.157   6.524 -0.7835 -0.4626  0.4891
 7453SOL     OW33820   1.360   2.513  16.868  0.3832  0.0461 -0.2223
 7453SOL    HW133821   1.321   2.591  16.909 -1.1239 -2.1721  2.6149
 7453SOL    HW233822   1.302   2.498  16.794 -1.7760  0.7418  1.3073
 7454SOL     OW33823   1.476   4.376   7.838 -0.2450 -0.3647 -0.1909
 7454SOL    HW133824   1.417   4.413   7.902  1.8359  1.4056  0.7060
 7454SOL    HW233825   1.553   4.358   7.893 -0.2203 -0.7253 -0.3416
 7455SOL     OW33826   3.115   2.567  15.068  0.3383 -0.1749  0.9370
 7455SOL    HW133827   3.096   2.508  14.995 -1.0783 -0.0570  1.1995
 7455SOL    HW233828   3.093   2.651  15.027 -0.8255 -1.4850 -1.1163
 7456SOL     OW33829   3.999   1.619   9.074  0.1451 -0.0331 -0.4100
 7456SOL    HW133830   3.909   1.606   9.046 -0.3513  0.7249  0.8249
 7456SOL    HW233831   4.031   1.535   9.041  0.4974 -0.4361  0.9954
 7457SOL     OW33832   4.001   2.967   6.554 -0.3349 -0.5340  0.6486
 7457SOL    HW133833   4.086   2.926   6.535  1.0065  2.5514  0.0176
 7457SOL    HW233834   3.966   2.904   6.617  1.0830 -1.7502  0.2293
 7458SOL     OW33835   1.461   2.123   0.765  0.1634 -0.0763  0.0091
 7458SOL    HW133836   1.462   2.030   0.785  2.2983 -0.7069 -2.9984
 7458SOL    HW233837   1.367   2.141   0.760  0.0699 -0.5852 -0.0614
 7459SOL     OW33838   0.129   2.848   9.136 -0.1859  0.0371 -0.0742
 7459SOL    HW133839   0.158   2.927   9.089  0.9808 -0.6149 -0.4523
 7459SOL    HW233840   0.216   2.810   9.150  0.6277  1.5671 -0.9226
 7460SOL     OW33841   4.414   4.358   2.818 -0.5705 -0.6509  0.5838
 7460SOL    HW133842   4.382   4.299   2.886  1.9140 -3.2912 -0.5319
 7460SOL    HW233843   4.366   4.439   2.832 -1.2055 -0.5647 -1.9514
 7461SOL     OW33844   2.912   4.090   3.901 -0.2985  0.0827  0.4700
 7461SOL    HW133845   2.856   4.106   3.978 -0.5885 -0.6191  0.4035
 7461SOL    HW233846   2.908   3.995   3.892  1.8830  0.0413 -0.1268
 7462SOL     OW33847   4.305   0.024  11.582 -0.4988 -0.2452 -0.2443
 7462SOL    HW133848   4.334   4.698  11.510  1.0940 -0.3675  0.4945
 7462SOL    HW233849   4.223   4.708  11.602  0.6416 -2.2325 -0.0712
 7463SOL     OW33850   2.685   3.387   2.124 -0.0077  0.3482 -0.5089
 7463SOL    HW133851   2.669   3.331   2.201  0.2261  1.1160  0.0954
 7463SOL    HW233852   2.609   3.367   2.068 -1.0040  3.6163 -0.2927
 7464SOL     OW33853   4.123   0.921   6.565  0.0504 -0.6731 -0.0910
 7464SOL    HW133854   4.033   0.923   6.532  0.2785 -0.9980 -0.7350
 7464SOL    HW233855   4.147   1.007   6.531 -2.2575  0.2043  0.4568
 7465SOL     OW33856   0.804   4.166   9.295  0.1660  0.6198  0.9955
 7465SOL    HW133857   0.803   4.176   9.200  1.1376 -0.4977  0.8694
 7465SOL    HW233858   0.712   4.172   9.323  0.4225  1.2593  1.7022
 7466SOL     OW33859   2.490   0.313   5.302  0.0377 -0.1414  0.1269
 7466SOL    HW133860   2.584   0.328   5.313  0.1704  0.3673 -1.7088
 7466SOL    HW233861   2.469   0.375   5.232  1.4919  0.8568  0.5748
 7467SOL     OW33862   3.738   3.340   1.935 -0.0992  0.3674 -0.3453
 7467SOL    HW133863   3.828   3.349   1.903  0.2332  1.1272  0.7986
 7467SOL    HW233864   3.720   3.427   1.971  3.1969  1.1346 -0.5834
 7468SOL     OW33865   1.473   1.126   2.685 -0.2328 -0.3698  0.0798
 7468SOL    HW133866   1.527   1.204   2.675 -0.8837  0.1187  0.4482
 7468SOL    HW233867   1.497   1.097   2.773  0.6697  0.7165  0.1842
 7469SOL     OW33868   2.933   0.658   1.176  0.3997  0.0285 -0.6636
 7469SOL    HW133869   2.991   0.728   1.208 -1.1163 -0.0123  2.1393
 7469SOL    HW233870   2.913   0.608   1.255 -0.1078  0.9795 -0.1930
 7470SOL     OW33871   0.701   3.187   8.802  0.0959  0.3783  0.4093
 7470SOL    HW133872   0.648   3.165   8.878  0.3720 -1.3758  0.0800
 7470SOL    HW233873   0.633   3.235   8.755  0.1346 -0.2322 -0.2591
 7471SOL     OW33874   3.055   2.733   3.866 -0.3241 -0.0875 -0.3221
 7471SOL    HW133875   3.010   2.744   3.782 -1.8169 -0.4739  0.4418
 7471SOL    HW233876   2.987   2.773   3.921  1.0479  2.2028 -0.2440
 7472SOL     OW33877   2.804   4.551   3.918 -0.5795 -0.1056 -0.1976
 7472SOL    HW133878   2.815   4.473   3.865  1.3404  0.3448 -0.4929
 7472SOL    HW233879   2.891   4.542   3.958 -1.4769  0.7362  1.9686
 7473SOL     OW33880   3.940   2.585  10.343  0.4143  0.8420 -0.2307
 7473SOL    HW133881   3.956   2.679  10.350  1.3940  0.6882 -0.4074
 7473SOL    HW233882   3.876   2.587  10.272 -0.7405 -0.4428  0.7667
 7474SOL     OW33883   0.431   4.724  10.959 -0.3763 -0.6230  0.0131
 7474SOL    HW133884   0.348   4.686  10.987 -1.2251  0.1370 -1.4754
 7474SOL    HW233885   0.441   0.078  11.005 -0.6779 -0.8784  0.5451
 7475SOL     OW33886   3.320   3.268  12.466  0.4190 -0.6508  0.1538
 7475SOL    HW133887   3.368   3.297  12.388  0.0787  2.5924  1.1505
 7475SOL    HW233888   3.295   3.340  12.524  0.7588  0.5630 -1.2134
 7476SOL     OW33889   0.162   4.307   5.943  0.5924  0.2510  0.6535
 7476SOL    HW133890   0.232   4.244   5.962  1.2677  0.3166 -1.7234
 7476SOL    HW233891   0.213   4.387   5.953 -0.1235  0.8531 -0.5176
 7477SOL     OW33892   3.654   1.920   2.907  0.7596 -0.4507  0.0747
 7477SOL    HW133893   3.731   1.972   2.931  0.3685 -0.5623  1.5542
 7477SOL    HW233894   3.665   1.918   2.812  0.2290  0.5896 -0.0012
 7478SOL     OW33895   1.960   2.820   2.833 -0.0682  0.7207  0.5783
 7478SOL    HW133896   2.049   2.825   2.867  0.7361 -1.2415 -1.2738
 7478SOL    HW233897   1.943   2.910   2.805  0.3387  0.2949 -1.0111
 7479SOL     OW33898   2.070   3.765   4.152 -0.3384  0.0308  0.1502
 7479SOL    HW133899   1.987   3.718   4.159 -0.4607  0.0465 -1.1544
 7479SOL    HW233900   2.077   3.763   4.247  0.2955  0.6446  0.1199
 7480SOL     OW33901   4.387   1.032   7.255 -0.0601  0.5513 -0.2263
 7480SOL    HW133902   4.313   0.993   7.302 -1.4018  3.8224  0.3276
 7480SOL    HW233903   4.364   1.009   7.165  1.9403 -2.5635  0.0596
 7481SOL     OW33904   3.745   3.192   0.958 -0.3737  0.3453  0.6613
 7481SOL    HW133905   3.751   3.131   0.884  3.9974  0.1113  1.2329
 7481SOL    HW233906   3.837   3.202   0.981 -0.5577 -1.3488  2.0941
 7482SOL     OW33907   2.409   1.000  13.336 -0.4819  0.0827  0.1491
 7482SOL    HW133908   2.402   1.074  13.397  1.5082 -0.2334  0.7651
 7482SOL    HW233909   2.419   1.047  13.254 -0.5479 -1.9870 -1.0503
 7483SOL     OW33910   1.449   0.863   1.765 -0.0590 -0.6714  0.5259
 7483SOL    HW133911   1.521   0.910   1.807 -0.2437  0.2622 -0.2116
 7483SOL    HW233912   1.491   0.781   1.737 -0.7721 -0.3314 -1.5034
 7484SOL     OW33913   1.296   3.249  15.012  0.6071  1.0611 -0.0144
 7484SOL    HW133914   1.365   3.314  15.030  0.6792  0.6302  1.2786
 7484SOL    HW233915   1.350   3.202  14.948 -1.3450 -3.9001  1.9893
 7485SOL     OW33916   3.082   2.006   8.947  0.0481  0.1543  0.4970
 7485SOL    HW133917   3.053   1.921   8.980 -1.4294 -0.0315 -1.2514
 7485SOL    HW233918   3.176   1.991   8.945  0.1861  1.0478  0.6655
 7486SOL     OW33919   3.537   1.302   6.869  0.7050 -0.3918  0.1106
 7486SOL    HW133920   3.525   1.329   6.777 -0.8618  0.6547  0.6156
 7486SOL    HW233921   3.629   1.325   6.879  0.2829  1.2359  0.2398
 7487SOL     OW33922   3.018   0.254  12.181 -0.2459  0.7690 -0.2520
 7487SOL    HW133923   2.969   0.242  12.262 -1.4456  1.1117 -0.9160
 7487SOL    HW233924   2.978   0.182  12.131  3.2647 -0.7428 -0.9385
 7488SOL     OW33925   2.480   4.147  11.519 -0.0261 -0.3314  0.1378
 7488SOL    HW133926   2.430   4.066  11.511  0.4862 -0.6795  0.4787
 7488SOL    HW233927   2.446   4.199  11.445  1.6756  0.2534 -0.2398
 7489SOL     OW33928   0.589   4.329   5.036  0.0118  0.1423  0.2955
 7489SOL    HW133929   0.609   4.276   4.959 -0.9464 -1.6736  1.3077
 7489SOL    HW233930   0.545   4.405   4.997 -0.5825 -1.2947 -1.8208
 7490SOL     OW33931   3.981   2.351  12.960  0.6193  0.0632  0.2905
 7490SOL    HW133932   3.996   2.435  12.916  0.7738  0.0708  0.3553
 7490SOL    HW233933   4.046   2.357  13.030  1.9068 -2.9146 -0.6463
 7491SOL     OW33934   3.711   1.034   4.798 -0.5145 -0.0552  0.2117
 7491SOL    HW133935   3.748   0.950   4.773  0.8621  0.0415  2.0227
 7491SOL    HW233936   3.780   1.094   4.771  0.3197 -1.1234 -0.0174
 7492SOL     OW33937   2.361   0.560   2.129 -0.7086  0.0406  0.2632
 7492SOL    HW133938   2.422   0.511   2.074 -1.1177  0.6782 -0.7682
 7492SOL    HW233939   2.404   0.546   2.213  2.5584  0.6297 -1.2894
 7493SOL     OW33940   0.394   0.202   0.805  1.0021  0.0951  0.2970
 7493SOL    HW133941   0.370   0.293   0.823 -3.5092 -0.8147 -1.3010
 7493SOL    HW233942   0.319   0.157   0.844 -0.6311  2.2454 -0.3196
 7494SOL     OW33943   0.332   2.590  16.685 -0.6651  0.0491 -0.1067
 7494SOL    HW133944   0.358   2.649  16.756  0.0274  0.7196 -0.9239
 7494SOL    HW233945   0.360   2.510  16.730 -3.3227 -0.8623 -0.0789
 7495SOL     OW33946   3.476   1.669   9.174  0.1391 -0.1625  0.4209
 7495SOL    HW133947   3.457   1.579   9.200  0.1493  0.1110  1.3953
 7495SOL    HW233948   3.408   1.683   9.109  0.9449  1.8929  0.0018
 7496SOL     OW33949   3.443   1.647   7.367 -0.1818  0.2386  0.1102
 7496SOL    HW133950   3.412   1.629   7.455 -0.8849  0.6747 -0.0438
 7496SOL    HW233951   3.483   1.733   7.377  1.7161 -0.7400  0.9819
 7497SOL     OW33952   0.199   4.294   4.971  0.3134  0.4328 -0.3540
 7497SOL    HW133953   0.162   4.297   5.060 -3.9663 -0.0832 -2.1042
 7497SOL    HW233954   0.220   4.201   4.966 -1.6643  0.1113 -2.7433
 7498SOL     OW33955   1.165   3.528   7.697 -0.1199  0.2241  0.8091
 7498SOL    HW133956   1.155   3.500   7.606  0.1219 -2.1013  1.4892
 7498SOL    HW233957   1.214   3.455   7.735 -1.9021 -0.9268  0.8960
 7499SOL     OW33958   2.973   3.065   8.416  0.1740  0.1028 -0.1502
 7499SOL    HW133959   2.932   3.112   8.489  0.2023  2.8421 -1.8875
 7499SOL    HW233960   2.904   3.051   8.351  0.0377 -2.1480  0.5054
 7500SOL     OW33961   1.647   1.064  14.610 -0.3440  0.1979 -0.4387
 7500SOL    HW133962   1.670   1.017  14.690  0.1046  0.1329 -0.6047
 7500SOL    HW233963   1.606   1.143  14.647  0.7373  1.0700 -1.0811
 7501SOL     OW33964   0.403   2.568   3.832 -0.1939 -0.3795  0.0667
 7501SOL    HW133965   0.435   2.478   3.827 -2.0831 -1.0872  0.7418
 7501SOL    HW233966   0.325   2.554   3.777  0.4114  0.0441 -0.9021
 7502SOL     OW33967   1.256   1.970   0.284  0.0248  0.3103  0.4330
 7502SOL    HW133968   1.305   1.903   0.235  2.0061  0.3260  2.4234
 7502SOL    HW233969   1.323   1.988   0.350  0.8895  0.2206 -0.4160
 7503SOL     OW33970   1.637   0.350  10.445 -0.4036  0.4330 -0.4004
 7503SOL    HW133971   1.654   0.391  10.529 -1.0251  0.0800 -0.1000
 7503SOL    HW233972   1.708   0.287  10.436 -0.4407  0.2352  0.7876
 7504SOL     OW33973   2.928   3.028  11.686  0.1792 -0.4206  0.0461
 7504SOL    HW133974   2.865   3.073  11.743  0.1492 -1.4229  0.8139
 7504SOL    HW233975   3.000   3.090  11.697 -0.4499  0.2711  0.2964
 7505SOL     OW33976   1.938   3.936   8.854  0.1574  0.0139 -0.2665
 7505SOL    HW133977   1.862   3.991   8.872 -0.5120  0.3387 -4.0700
 7505SOL    HW233978   1.997   4.011   8.847  0.3202 -0.1425 -0.5693
 7506SOL     OW33979   0.127   2.213   2.569  0.0197 -0.1422  0.0188
 7506SOL    HW133980   0.195   2.158   2.530  3.2627  1.4263  3.4226
 7506SOL    HW233981   0.121   2.171   2.654  3.0502 -2.3828 -0.8627
 7507SOL     OW33982   2.116   0.091   6.870 -0.8653  0.2992 -0.3622
 7507SOL    HW133983   2.194   0.063   6.823 -2.2651 -2.5785 -0.9800
 7507SOL    HW233984   2.073   0.006   6.881 -0.9549  0.7869  3.2400
 7508SOL     OW33985   0.498   3.086  12.371  0.0270 -0.1473 -0.5872
 7508SOL    HW133986   0.442   3.116  12.300 -0.6140 -0.1433 -0.0816
 7508SOL    HW233987   0.455   3.123  12.448 -0.5436 -1.4448 -0.2729
 7509SOL     OW33988   2.200   4.238  13.500  0.2854  0.6129  0.2408
 7509SOL    HW133989   2.234   4.213  13.414 -0.1090  1.5814 -0.1966
 7509SOL    HW233990   2.237   4.326  13.488  1.5275  0.2760  1.6165
 7510SOL     OW33991   2.205   1.581  17.546 -0.5698 -0.4531 -0.0721
 7510SOL    HW133992   2.148   1.506  17.563 -1.7315  0.3096 -0.6260
 7510SOL    HW233993   2.291   1.543  17.565 -0.2543 -0.2923 -1.1637
 7511SOL     OW33994   2.087   0.631   2.871 -0.2458  0.0638 -0.3741
 7511SOL    HW133995   2.148   0.661   2.803  1.5568  3.4820  2.7407
 7511SOL    HW233996   2.059   0.546   2.839 -1.1376 -0.0787  0.8156
 7512SOL     OW33997   3.371   4.727   8.098  0.1684  0.2016 -0.4283
 7512SOL    HW133998   3.436   0.044   8.150 -2.3461  0.8789  2.1307
 7512SOL    HW233999   3.295   0.056   8.106 -1.0030 -1.0910 -2.1781
 7513SOL     OW34000   4.431   3.967  13.962 -0.0975  0.2014  0.4486
 7513SOL    HW134001   4.525   3.984  13.966  0.5792 -2.9181 -2.3238
 7513SOL    HW234002   4.428   3.890  13.905 -1.5426 -1.1142  2.3218
 7514SOL     OW34003   1.719   0.004   7.537  0.1513  0.3072  0.3473
 7514SOL    HW134004   1.697   0.049   7.619  0.0889  0.7429  0.0925
 7514SOL    HW234005   1.763   0.079   7.497 -0.9538  1.4123  1.1976
 7515SOL     OW34006   0.733   1.063   8.322 -0.8607 -0.0940 -0.4511
 7515SOL    HW134007   0.764   1.098   8.406  2.2697 -1.2779 -1.1000
 7515SOL    HW234008   0.657   1.120   8.313 -1.6183 -0.9705  0.4211
 7516SOL     OW34009   4.208   4.108  14.071 -0.2602  0.3400 -0.3858
 7516SOL    HW134010   4.284   4.054  14.052 -0.2038 -0.2754  1.5316
 7516SOL    HW234011   4.224   4.177  14.007 -1.2375  0.3875 -0.5729
 7517SOL     OW34012   1.500   3.692   9.457 -0.1141 -0.2306 -0.0915
 7517SOL    HW134013   1.561   3.724   9.390  0.0277  0.6134  0.4457
 7517SOL    HW234014   1.556   3.701   9.535 -1.4692  0.2694  0.8255
 7518SOL     OW34015   4.346   2.906   8.277 -0.1099  0.0316 -0.2587
 7518SOL    HW134016   4.375   2.926   8.366 -2.4177 -0.1256  0.5341
 7518SOL    HW234017   4.416   2.943   8.224 -0.6158 -0.8649 -1.5676
 7519SOL     OW34018   3.060   2.422   4.246 -0.8074  0.0534  0.0941
 7519SOL    HW134019   3.031   2.481   4.176 -0.3656  0.2311  0.0630
 7519SOL    HW234020   3.089   2.341   4.204  1.7071  1.5813 -1.0973
 7520SOL     OW34021   3.920   1.285   8.005  0.2392  0.0309 -0.0351
 7520SOL    HW134022   3.926   1.266   7.911  2.1828 -1.9861  0.4839
 7520SOL    HW234023   4.010   1.315   8.022  0.9894 -1.4788 -1.3337
 7521SOL     OW34024   3.064   0.023   1.652 -0.6330  0.1443 -0.4308
 7521SOL    HW134025   3.142   0.046   1.703 -0.6916  0.2499 -0.3883
 7521SOL    HW234026   3.047   4.667   1.692  0.4876 -0.2899 -0.8801
 7522SOL     OW34027   3.415   0.573   5.268  0.4431 -0.1795 -0.5187
 7522SOL    HW134028   3.371   0.658   5.269 -0.1826 -0.4827 -3.0863
 7522SOL    HW234029   3.462   0.586   5.351  0.7016  0.8159 -0.8127
 7523SOL     OW34030   3.345   2.980   9.550  0.3776 -0.2164 -0.0262
 7523SOL    HW134031   3.285   2.952   9.618  0.4435 -0.1818  0.0459
 7523SOL    HW234032   3.426   2.952   9.592 -0.9109 -0.6702  2.1585
 7524SOL     OW34033   3.084   3.263  16.311  0.7503 -0.6036 -0.5417
 7524SOL    HW134034   3.118   3.233  16.226  0.7678  0.4642 -0.9169
 7524SOL    HW234035   3.151   3.327  16.334  1.0391 -1.6427  1.4468
 7525SOL     OW34036   2.650   4.522  11.021 -0.3541 -0.3991  0.0746
 7525SOL    HW134037   2.704   4.500  11.097  2.5872 -0.7031 -2.1186
 7525SOL    HW234038   2.718   4.529  10.953 -0.1057  0.3928  0.4009
 7526SOL     OW34039   3.496   2.121   6.153 -0.3699  0.1392  0.0787
 7526SOL    HW134040   3.569   2.122   6.091 -0.5002 -1.2473 -0.1009
 7526SOL    HW234041   3.542   2.114   6.237 -1.5495 -1.7938  0.5543
 7527SOL     OW34042   2.322   3.565   3.546 -0.4473  0.0409  0.2378
 7527SOL    HW134043   2.308   3.542   3.638 -1.5080  0.5298  0.1888
 7527SOL    HW234044   2.246   3.524   3.506  0.2028  2.1156 -3.1065
 7528SOL     OW34045   2.855   1.715   7.907 -0.1826  0.2933 -0.4211
 7528SOL    HW134046   2.858   1.627   7.869  3.2049  1.1152 -2.0687
 7528SOL    HW234047   2.928   1.745   7.851 -0.2722 -1.2397 -1.3578
 7529SOL     OW34048   3.775   4.418   8.142 -0.0028 -0.1064  0.5844
 7529SOL    HW134049   3.722   4.458   8.072  1.8984  0.3152 -0.6033
 7529SOL    HW234050   3.856   4.400   8.094  0.7920 -1.5609  2.4966
 7530SOL     OW34051   2.895   0.761   5.106 -0.0988  0.8785  0.4006
 7530SOL    HW134052   2.836   0.740   5.178 -1.2613 -0.0548 -0.8118
 7530SOL    HW234053   2.831   0.751   5.035 -0.1375  0.4654  0.4971
 7531SOL     OW34054   1.224   3.739   9.861 -0.0517  0.1891 -0.7621
 7531SOL    HW134055   1.202   3.659   9.814 -0.9032 -0.6591  1.1037
 7531SOL    HW234056   1.141   3.786   9.859  0.7435  1.6869  1.5221
 7532SOL     OW34057   1.470   2.832  11.619  0.4773 -0.4746 -0.1677
 7532SOL    HW134058   1.470   2.837  11.715  0.7794  0.0176 -0.1903
 7532SOL    HW234059   1.478   2.738  11.609 -2.7883 -0.7056 -0.5195
 7533SOL     OW34060   1.957   2.369   2.869 -0.6519 -0.1661  0.3714
 7533SOL    HW134061   1.961   2.391   2.776 -0.1368 -0.1282  0.4024
 7533SOL    HW234062   1.876   2.411   2.899 -0.2074  1.7034 -0.9912
 7534SOL     OW34063   3.218   3.504   3.288  0.0873  0.5000 -0.1540
 7534SOL    HW134064   3.284   3.455   3.240 -1.2822 -1.7408  0.2388
 7534SOL    HW234065   3.271   3.577   3.318 -0.1621  0.3103  0.7430
 7535SOL     OW34066   1.175   0.785   2.110  0.2060 -0.8974  0.5412
 7535SOL    HW134067   1.170   0.805   2.016  0.5842 -0.1995  0.6703
 7535SOL    HW234068   1.089   0.818   2.136  0.9586  1.4573  0.0414
 7536SOL     OW34069   1.148   4.377   3.090 -0.2692  0.4395 -0.0800
 7536SOL    HW134070   1.223   4.432   3.067  0.4460 -0.7363 -0.5708
 7536SOL    HW234071   1.121   4.331   3.011 -1.6977  1.7874 -0.3811
 7537SOL     OW34072   3.048   1.340  14.361  0.0639  0.0041 -0.1259
 7537SOL    HW134073   3.085   1.429  14.368  0.9083 -0.0755 -3.8733
 7537SOL    HW234074   3.127   1.288  14.348  0.1117 -0.6763  2.7110
 7538SOL     OW34075   2.082   3.205   1.007  0.4147 -0.2386 -0.5727
 7538SOL    HW134076   2.105   3.297   1.015 -0.1792 -0.1605  0.3588
 7538SOL    HW234077   2.076   3.185   1.101 -1.2672  1.0722 -0.4029
 7539SOL     OW34078   0.644   1.483  10.733 -0.0366  0.1652  0.3472
 7539SOL    HW134079   0.631   1.566  10.688 -2.1914 -1.3861 -1.9027
 7539SOL    HW234080   0.595   1.421  10.678 -2.7071  2.7318 -0.1635
 7540SOL     OW34081   4.680   2.918   5.342 -0.2970 -0.0860  0.1544
 7540SOL    HW134082   4.600   2.866   5.346 -0.7817  0.8286  2.5768
 7540SOL    HW234083   4.693   2.948   5.432  1.8140 -0.7058  0.0671
 7541SOL     OW34084   0.500   4.234   1.341 -0.1078  0.8547 -0.4941
 7541SOL    HW134085   0.484   4.328   1.335 -1.2600  0.7429  0.8303
 7541SOL    HW234086   0.588   4.237   1.378 -1.0303 -2.0674  1.8793
 7542SOL     OW34087   3.698   4.065   2.016  0.2061 -0.1103 -0.0183
 7542SOL    HW134088   3.665   4.139   1.965 -0.2440 -0.8578 -0.8222
 7542SOL    HW234089   3.769   4.031   1.961 -0.8030  1.6211 -2.3726
 7543SOL     OW34090   3.210   0.218   8.846  0.1039  1.0612 -0.6110
 7543SOL    HW134091   3.165   0.222   8.931  0.2585  0.7896 -0.5148
 7543SOL    HW234092   3.301   0.208   8.872 -0.4315 -1.4129  0.3901
 7544SOL     OW34093   3.893   2.084   4.227  0.5833 -0.6042  0.0797
 7544SOL    HW134094   3.900   2.027   4.303  0.6302  0.5428  0.9365
 7544SOL    HW234095   3.939   2.039   4.156 -1.6263  1.2423 -2.5242
 7545SOL     OW34096   3.921   4.099   6.426 -0.4791 -0.1064 -0.1363
 7545SOL    HW134097   3.998   4.156   6.425 -0.2354 -0.4537 -0.8466
 7545SOL    HW234098   3.875   4.148   6.358 -1.6095 -0.5660  0.3029
 7546SOL     OW34099   3.602   2.923   4.657  0.0843  0.3231  0.2397
 7546SOL    HW134100   3.638   2.929   4.569 -0.0940  1.7653  0.2735
 7546SOL    HW234101   3.509   2.904   4.644  0.0914 -1.1092  2.2333
 7547SOL     OW34102   1.102   1.478   6.801 -0.1333 -0.0939 -0.3410
 7547SOL    HW134103   1.196   1.478   6.819 -0.3540  0.8320  0.7876
 7547SOL    HW234104   1.082   1.571   6.800  2.2683  0.4194  2.4358
 7548SOL     OW34105   1.111   3.276   4.400  0.2180 -0.4165 -0.2183
 7548SOL    HW134106   1.049   3.223   4.351 -0.3751  0.8711 -0.8420
 7548SOL    HW234107   1.079   3.361   4.371  0.3598  0.1925  1.3991
 7549SOL     OW34108   3.970   1.016  12.073 -0.1677  0.2941  0.0308
 7549SOL    HW134109   3.892   0.961  12.073 -0.4336  0.6704  0.7491
 7549SOL    HW234110   4.011   0.997  11.988 -0.7159 -0.6631 -0.0215
 7550SOL     OW34111   4.068   2.443   7.643  0.4010 -0.0677  0.0350
 7550SOL    HW134112   4.020   2.375   7.690 -0.3574  1.6075  1.6607
 7550SOL    HW234113   4.042   2.516   7.699 -0.5434  0.1479 -0.6842
 7551SOL     OW34114   2.946   4.328   3.756 -1.3725  0.1207  0.1505
 7551SOL    HW134115   2.975   4.279   3.679  0.3366  2.4633 -0.6938
 7551SOL    HW234116   2.940   4.253   3.814  1.6883  1.4999  2.2718
 7552SOL     OW34117   0.658   1.723   2.890 -1.1326  0.0161  0.1260
 7552SOL    HW134118   0.686   1.792   2.831  0.1911  0.1585  0.9298
 7552SOL    HW234119   0.648   1.649   2.829 -1.6663  1.1280 -1.1355
 7553SOL     OW34120   0.642   2.123   7.179  0.0424  0.0799 -0.5852
 7553SOL    HW134121   0.592   2.203   7.194  0.8932  0.1342  1.8570
 7553SOL    HW234122   0.699   2.125   7.256  0.1259 -0.9653 -0.6143
 7554SOL     OW34123   1.919   2.785  15.213  0.0889  0.4902 -0.3628
 7554SOL    HW134124   1.843   2.745  15.171 -0.5740  0.1175  1.1729
 7554SOL    HW234125   1.879   2.809  15.297  1.1067  1.4236 -0.1548
 7555SOL     OW34126   2.491   0.561   4.209 -0.4282  0.1055  0.2524
 7555SOL    HW134127   2.453   0.516   4.134  0.7946 -0.1683 -0.1828
 7555SOL    HW234128   2.562   0.616   4.176  0.1786 -0.4303  0.6628
 7556SOL     OW34129   1.487   3.857   2.715 -0.9164  0.7078  0.2955
 7556SOL    HW134130   1.464   3.914   2.789  2.2642  0.4151  1.5215
 7556SOL    HW234131   1.452   3.914   2.647 -1.4347  0.2474  0.1708
 7557SOL     OW34132   0.991   3.046   4.278 -0.1461 -0.4578 -0.2248
 7557SOL    HW134133   0.941   3.066   4.358  2.3215  1.2627  0.8779
 7557SOL    HW234134   0.972   2.952   4.274 -2.1691 -0.0931  0.8221
 7558SOL     OW34135   1.109   3.319   2.492 -0.2582  0.5662  0.2034
 7558SOL    HW134136   1.060   3.349   2.569 -0.3242 -2.1094  1.1977
 7558SOL    HW234137   1.156   3.399   2.469  3.3844 -1.0106  2.3364
 7559SOL     OW34138   1.663   3.370   5.076  0.7787  0.2706  0.0799
 7559SOL    HW134139   1.615   3.405   5.000  0.1804 -3.1433 -1.1542
 7559SOL    HW234140   1.671   3.451   5.126  3.3864 -0.3892  0.7244
 7560SOL     OW34141   0.747   3.960   1.027  0.7032  0.2902 -0.2511
 7560SOL    HW134142   0.718   3.932   1.114  0.4719  2.2051  0.2868
 7560SOL    HW234143   0.700   3.904   0.965  0.8926  0.3874 -0.4828
 7561SOL     OW34144   2.622   2.191   4.970  0.5023  0.1926 -0.1421
 7561SOL    HW134145   2.603   2.235   4.887 -0.7538  1.4324  0.8008
 7561SOL    HW234146   2.594   2.101   4.953  1.6317 -0.3143  0.7185
 7562SOL     OW34147   1.907   0.836   3.256 -0.2195  0.2401  0.0330
 7562SOL    HW134148   1.972   0.835   3.186  1.4612 -0.4536  1.6310
 7562SOL    HW234149   1.930   0.912   3.309 -1.7888 -0.7299  2.0969
 7563SOL     OW34150   4.572   3.064  10.658  0.5451  0.2633 -1.3171
 7563SOL    HW134151   4.582   3.032  10.569  2.6684 -1.0267 -0.6377
 7563SOL    HW234152   4.501   3.127  10.645 -1.2774 -1.4808  0.1238
 7564SOL     OW34153   2.151   1.544   8.229  0.4965 -0.9832  0.7681
 7564SOL    HW134154   2.062   1.552   8.265 -1.2463 -0.0011 -3.7102
 7564SOL    HW234155   2.135   1.467   8.175  0.2992  0.1477 -0.8005
 7565SOL     OW34156   0.754   1.836   5.093 -0.6594 -0.2193  0.7015
 7565SOL    HW134157   0.814   1.828   5.167 -0.2833 -2.6382  0.1181
 7565SOL    HW234158   0.821   1.855   5.028  0.6038  0.5718  2.2365
 7566SOL     OW34159   2.703   4.209   6.443  0.3379 -0.0917 -0.1497
 7566SOL    HW134160   2.729   4.296   6.413 -0.4953  0.4588  0.7125
 7566SOL    HW234161   2.789   4.166   6.444  0.1069 -0.5532 -1.3811
 7567SOL     OW34162   1.174   1.981   8.750  0.0216 -0.0977  0.0080
 7567SOL    HW134163   1.104   2.035   8.787  1.3909  1.3176  0.5606
 7567SOL    HW234164   1.204   1.945   8.834 -0.7526 -2.7379 -0.8516
 7568SOL     OW34165   4.636   0.932  13.443 -0.2570  0.0489 -0.3935
 7568SOL    HW134166   4.571   0.899  13.505 -0.6935 -1.3966 -1.6236
 7568SOL    HW234167   4.714   0.878  13.454  1.3234  2.1972 -0.9747
 7569SOL     OW34168   4.683   0.561   1.173  0.1909  0.5187 -0.0021
 7569SOL    HW134169   4.646   0.616   1.243 -1.1466 -0.3757 -0.0046
 7569SOL    HW234170   4.609   0.562   1.113 -0.1329 -2.0119  0.3322
 7570SOL     OW34171   0.364   3.594   2.848  0.4078  0.3955  0.1645
 7570SOL    HW134172   0.317   3.523   2.891  3.7845 -1.7098  0.3763
 7570SOL    HW234173   0.407   3.550   2.775  1.4559 -0.0505  1.0558
 7571SOL     OW34174   2.090   1.216   4.348  0.2866  0.3454  0.1726
 7571SOL    HW134175   2.015   1.274   4.337  0.4070  1.0181  2.9243
 7571SOL    HW234176   2.082   1.157   4.273  3.1411  0.3676 -0.1541
 7572SOL     OW34177   2.181   3.568   6.734 -0.2553 -0.3934 -0.1299
 7572SOL    HW134178   2.222   3.616   6.806 -1.5522  0.5546 -0.0332
 7572SOL    HW234179   2.112   3.627   6.706  0.9914  0.4836 -1.3405
 7573SOL     OW34180   1.980   4.263  10.528  0.2355 -0.5617 -0.1175
 7573SOL    HW134181   1.952   4.352  10.505 -3.1607 -1.6428 -0.1409
 7573SOL    HW234182   2.013   4.271  10.617 -0.9438  2.3663  0.0848
 7574SOL     OW34183   2.188   3.534   7.537  0.1897  0.5440 -0.1458
 7574SOL    HW134184   2.182   3.620   7.579 -0.3713  2.1375 -3.4948
 7574SOL    HW234185   2.160   3.479   7.610  0.6205 -0.1955 -0.5349
 7575SOL     OW34186   0.091   3.855  13.553 -0.5362  0.0585 -0.2754
 7575SOL    HW134187   0.157   3.848  13.622 -0.3787  1.5924 -0.2703
 7575SOL    HW234188   0.145   3.827  13.479 -0.9592 -3.2319  0.6452
 7576SOL     OW34189   0.128   0.104   5.393  0.2502  0.1394  0.3822
 7576SOL    HW134190   0.153   0.089   5.484  1.5065 -1.7500 -0.2783
 7576SOL    HW234191   0.045   0.058   5.378  0.1387  0.5176 -0.1365
 7577SOL     OW34192   1.341   0.434   3.705 -0.3889  0.5193 -0.0818
 7577SOL    HW134193   1.415   0.379   3.681  0.3804  1.8985 -0.8315
 7577SOL    HW234194   1.345   0.446   3.800 -0.4707 -0.5381  0.0506
 7578SOL     OW34195   0.601   1.222   4.405 -0.5117  0.5978  0.2659
 7578SOL    HW134196   0.521   1.186   4.443 -0.1141  1.1500  1.5929
 7578SOL    HW234197   0.603   1.206   4.310  2.2623 -6.1415  1.4920
 7579SOL     OW34198   1.500   0.677   2.672 -0.1648 -0.0132 -0.5176
 7579SOL    HW134199   1.524   0.641   2.587 -2.5613  0.5972 -1.4627
 7579SOL    HW234200   1.487   0.768   2.648  0.5044  0.0206 -0.7593
 7580SOL     OW34201   1.912   4.694   8.156  0.1286  0.4916  0.3143
 7580SOL    HW134202   1.893   4.615   8.106 -1.2565  0.4456  0.9038
 7580SOL    HW234203   2.000   4.717   8.127 -0.7970  1.1001 -1.9958
 7581SOL     OW34204   1.711   1.397   3.076  0.1247 -0.0859 -0.3750
 7581SOL    HW134205   1.741   1.310   3.049  0.7804 -0.2326  0.8309
 7581SOL    HW234206   1.647   1.413   3.007  0.3600  0.4534 -0.4700
 7582SOL     OW34207   0.742   3.735  14.267  0.1615  0.6283  0.3960
 7582SOL    HW134208   0.673   3.791  14.232  0.4325  0.2439 -0.7534
 7582SOL    HW234209   0.721   3.649  14.228 -2.5180  0.3808  2.4020
 7583SOL     OW34210   3.703   1.495   3.505 -0.2407  0.0026 -0.8142
 7583SOL    HW134211   3.622   1.467   3.464 -0.4252 -0.4591 -0.1314
 7583SOL    HW234212   3.770   1.493   3.436 -0.0731  0.5608 -0.6696
 7584SOL     OW34213   1.217   0.351   4.744  0.0344  0.1041  0.0957
 7584SOL    HW134214   1.124   0.341   4.766  0.1969  0.5072  0.9482
 7584SOL    HW234215   1.223   0.446   4.744 -0.5513  0.1442 -1.6745
 7585SOL     OW34216   3.651   3.705   6.246  0.2152 -0.0300  0.5098
 7585SOL    HW134217   3.573   3.761   6.240 -1.3505 -2.1749  1.0610
 7585SOL    HW234218   3.653   3.697   6.341  1.3303 -1.2181  0.3895
 7586SOL     OW34219   3.236   2.179   6.126  0.3516  0.5222  0.6999
 7586SOL    HW134220   3.309   2.200   6.068 -0.1434 -0.2819 -0.2189
 7586SOL    HW234221   3.288   2.143   6.198 -0.6323 -1.3410  0.4998
 7587SOL     OW34222   1.792   3.533   4.413 -0.1906  0.3440 -0.2992
 7587SOL    HW134223   1.701   3.544   4.386 -0.8493  0.4278  1.9170
 7587SOL    HW234224   1.812   3.626   4.426  4.0633 -0.4229 -1.2690
 7588SOL     OW34225   1.559   0.813   5.427  0.4176  0.4200 -0.1885
 7588SOL    HW134226   1.566   0.737   5.485  0.7063  1.2222  0.8315
 7588SOL    HW234227   1.587   0.788   5.339 -2.0306  1.2440 -1.2032
 7589SOL     OW34228   4.477   2.340  10.077  0.2194 -0.4895  0.0794
 7589SOL    HW134229   4.530   2.305  10.005  1.5157 -1.7346  1.6138
 7589SOL    HW234230   4.439   2.257  10.107 -0.4173 -0.2115  0.0236
 7590SOL     OW34231   4.105   1.850   8.932 -0.1357  0.6548  0.4352
 7590SOL    HW134232   4.198   1.862   8.949 -0.2866  0.8961  1.0742
 7590SOL    HW234233   4.081   1.786   8.999  0.0054  0.2392  0.0854
 7591SOL     OW34234   4.704   3.580   3.250 -0.0642 -0.4780  0.2753
 7591SOL    HW134235   4.678   3.515   3.315 -0.7914 -0.0205  0.4371
 7591SOL    HW234236   0.011   3.522   3.182  0.1069  2.3139 -2.0283
 7592SOL     OW34237   2.532   0.263   7.092 -0.0389  0.1253 -0.3705
 7592SOL    HW134238   2.531   0.220   7.178 -0.1867  0.3160 -0.2778
 7592SOL    HW234239   2.535   0.187   7.034 -1.8583 -1.8201  2.0577
 7593SOL     OW34240   4.055   3.019   1.529 -0.2012 -0.5857  0.5616
 7593SOL    HW134241   3.965   3.013   1.498  0.4357  0.7777 -1.5864
 7593SOL    HW234242   4.080   2.927   1.525 -1.8707 -0.9358 -1.8420
 7594SOL     OW34243   3.816   3.788  14.143 -0.4846  0.6279 -0.0883
 7594SOL    HW134244   3.871   3.711  14.157 -3.1917 -0.4344  4.7335
 7594SOL    HW234245   3.752   3.778  14.214  1.2528 -0.7661  1.2909
 7595SOL     OW34246   4.576   2.725   3.857 -0.0639  0.5800  0.3035
 7595SOL    HW134247   4.510   2.690   3.799 -0.6027  2.7317 -0.3887
 7595SOL    HW234248   4.531   2.718   3.941 -2.1689 -1.6565 -1.0330
 7596SOL     OW34249   1.233   3.791   7.396  0.1098  0.1504  0.1156
 7596SOL    HW134250   1.177   3.714   7.390 -0.5310  0.4227  2.4013
 7596SOL    HW234251   1.172   3.864   7.403  0.9332  0.8313  0.3009
 7597SOL     OW34252   2.269   0.183   9.083  0.1641  0.1526 -0.1073
 7597SOL    HW134253   2.340   0.208   9.141 -2.0049  2.6992  1.4469
 7597SOL    HW234254   2.266   0.089   9.099 -0.1451 -0.0187 -1.1816
 7598SOL     OW34255   2.645   3.561   3.768  0.0046 -0.2531 -0.0711
 7598SOL    HW134256   2.662   3.467   3.782 -1.2173 -0.2190  1.5903
 7598SOL    HW234257   2.651   3.567   3.673 -1.0955  2.4914  0.0291
 7599SOL     OW34258   3.408   2.447   6.692  0.2446 -0.1985 -0.1697
 7599SOL    HW134259   3.468   2.501   6.743 -1.2886  0.7789  0.5998
 7599SOL    HW234260   3.329   2.499   6.706 -0.0353 -1.4586  2.8347
 7600SOL     OW34261   2.587   3.217  10.753 -0.4181  0.4088 -0.3493
 7600SOL    HW134262   2.504   3.209  10.706 -0.3336  1.7475 -0.7143
 7600SOL    HW234263   2.584   3.307  10.784 -0.6112 -0.4711  2.1644
 7601SOL     OW34264   1.485   0.113   3.922  0.4229  0.1811  0.6897
 7601SOL    HW134265   1.574   0.121   3.887  0.0861 -0.8196 -0.3802
 7601SOL    HW234266   1.512   0.084   4.009  1.9114 -1.4376 -0.3175
 7602SOL     OW34267   4.447   2.864  12.267  0.3049 -0.0485 -0.3687
 7602SOL    HW134268   4.486   2.826  12.188 -0.1008  1.2001 -1.1816
 7602SOL    HW234269   4.473   2.956  12.255  0.9871 -0.4107 -1.7336
 7603SOL     OW34270   3.440   1.353   8.919 -0.0015 -0.4768  0.3045
 7603SOL    HW134271   3.389   1.315   8.847 -0.3571 -0.4578  0.5437
 7603SOL    HW234272   3.463   1.438   8.882  1.1649 -1.0646 -0.3200
 7604SOL     OW34273   0.631   0.024   6.295  0.1789 -0.2014  0.2559
 7604SOL    HW134274   0.683   4.673   6.301  0.2428 -0.1512  0.3827
 7604SOL    HW234275   0.569   0.016   6.367  0.4297  0.3159  0.5331
 7605SOL     OW34276   0.135   2.491   2.680 -0.3098 -0.7453 -0.2160
 7605SOL    HW134277   0.174   2.417   2.633 -1.6720 -0.2944 -2.0385
 7605SOL    HW234278   0.067   2.446   2.730 -1.2134 -0.9384 -1.6300
 7606SOL     OW34279   4.669   2.787  10.448 -0.6831 -0.6111  0.3952
 7606SOL    HW134280   4.586   2.764  10.407 -0.1153 -2.0084  0.0502
 7606SOL    HW234281   4.665   2.883  10.443  1.0282 -0.3559  3.2613
 7607SOL     OW34282   0.800   1.068   3.216 -0.0218 -0.3071 -0.0526
 7607SOL    HW134283   0.750   1.002   3.167  0.3040  0.2270 -1.1066
 7607SOL    HW234284   0.846   1.012   3.278  1.1813  2.4920  1.5954
 7608SOL     OW34285   4.650   2.307   3.168 -0.7944 -0.4182 -0.2338
 7608SOL    HW134286   4.701   2.379   3.131 -0.3624 -0.4472  0.3017
 7608SOL    HW234287   4.566   2.309   3.123  0.3923  2.4480 -2.2840
 7609SOL     OW34288   3.803   4.380  15.068 -0.0475 -0.2646 -0.2150
 7609SOL    HW134289   3.840   4.361  15.154 -1.2485 -0.2393  0.2982
 7609SOL    HW234290   3.869   4.419  15.011 -0.6124  0.7010 -0.2138
 7610SOL     OW34291   2.358   0.163   6.338 -0.0749  0.4619 -0.2164
 7610SOL    HW134292   2.312   0.130   6.260 -0.7087  2.0209 -0.4878
 7610SOL    HW234293   2.312   0.244   6.359 -1.8445 -0.1831 -1.5338
 7611SOL     OW34294   3.494   2.000   4.365  0.7126  0.1978  0.8845
 7611SOL    HW134295   3.535   1.915   4.350 -3.7414 -1.6400 -1.0306
 7611SOL    HW234296   3.539   2.020   4.447  2.1864 -0.6222  0.2790
 7612SOL     OW34297   4.508   2.013   6.172  0.3060  0.1833  0.1480
 7612SOL    HW134298   4.455   1.936   6.193 -0.4563  0.2910 -1.3090
 7612SOL    HW234299   4.592   1.969   6.159 -0.7951 -2.2392  1.3450
 7613SOL     OW34300   1.492   1.147   8.375 -0.0173 -1.0325  0.6439
 7613SOL    HW134301   1.573   1.190   8.400 -0.7168  1.2290 -1.0375
 7613SOL    HW234302   1.504   1.058   8.410  0.2930 -0.9317  0.7939
 7614SOL     OW34303   3.549   1.305  12.332  0.0232 -0.3667 -0.0951
 7614SOL    HW134304   3.619   1.336  12.390 -1.3713  2.2243  0.1759
 7614SOL    HW234305   3.496   1.382  12.314 -1.1690 -1.4804 -1.2994
 7615SOL     OW34306   1.647   2.429   6.786  1.0389  0.2850 -0.1329
 7615SOL    HW134307   1.660   2.347   6.737  3.9934  0.4174  0.4352
 7615SOL    HW234308   1.557   2.424   6.819  0.7502 -1.3972 -1.1455
 7616SOL     OW34309   1.017   1.667   3.213 -0.0494  0.5148  0.0581
 7616SOL    HW134310   1.001   1.658   3.119 -1.2004  1.5492  0.1524
 7616SOL    HW234311   0.967   1.590   3.239 -0.1263 -0.3342 -2.5667
 7617SOL     OW34312   0.358   1.223   7.188 -0.3051 -0.5924 -0.0701
 7617SOL    HW134313   0.303   1.154   7.224 -1.1288 -0.0968 -0.3898
 7617SOL    HW234314   0.433   1.172   7.157 -0.6090 -0.6460 -0.7116
 7618SOL     OW34315   1.971   0.818   0.686  0.1141 -0.1910 -0.5011
 7618SOL    HW134316   2.008   0.792   0.770 -1.6792 -1.0470  0.0379
 7618SOL    HW234317   1.881   0.785   0.687  0.7686 -1.9915 -0.1303
 7619SOL     OW34318   1.456   3.055   6.943  0.1167  0.4130  0.0627
 7619SOL    HW134319   1.433   2.962   6.937 -1.8530  0.7168  2.5685
 7619SOL    HW234320   1.550   3.043   6.955  0.0534 -0.5920 -0.4989
 7620SOL     OW34321   3.296   1.961   8.592 -0.1278 -0.4658 -0.4684
 7620SOL    HW134322   3.297   1.865   8.595 -0.5869 -0.4531  0.1306
 7620SOL    HW234323   3.287   1.978   8.499 -1.7258 -0.4021 -0.2956
 7621SOL     OW34324   2.731   3.820   7.369 -0.0620 -0.5594 -0.4148
 7621SOL    HW134325   2.792   3.888   7.398 -1.5140 -0.0117  1.3463
 7621SOL    HW234326   2.766   3.743   7.413  1.8584  1.4114  1.4934
 7622SOL     OW34327   0.148   1.164  15.921 -0.4315 -0.0291  0.7285
 7622SOL    HW134328   0.124   1.148  15.830  0.9507 -1.0580  0.5570
 7622SOL    HW234329   0.213   1.228  15.892  0.6393 -0.8508  1.3459
 7623SOL     OW34330   2.911   0.569   4.586 -0.0640 -0.2669 -0.5253
 7623SOL    HW134331   3.006   0.556   4.583  0.0365  0.6173 -1.0436
 7623SOL    HW234332   2.883   0.525   4.505 -3.3582 -0.0469  0.5162
 7624SOL     OW34333   1.892   2.862   1.643 -0.2634 -0.1836  0.1566
 7624SOL    HW134334   1.869   2.772   1.620 -0.5049 -0.3813  1.1561
 7624SOL    HW234335   1.811   2.909   1.628  1.6131  2.9472 -0.0942
 7625SOL     OW34336   1.661   2.657  10.494 -0.7062 -0.3218  0.0613
 7625SOL    HW134337   1.670   2.718  10.421 -0.4382  1.0314  1.2284
 7625SOL    HW234338   1.649   2.717  10.568  1.0556  1.4666 -1.0960
 7626SOL     OW34339   3.679   0.318  14.798 -0.0337  0.1318  0.0211
 7626SOL    HW134340   3.627   0.243  14.825  0.3051  0.0544  0.4457
 7626SOL    HW234341   3.697   0.353  14.885 -0.0096  0.6827 -0.2049
 7627SOL     OW34342   0.981   1.558   9.368  0.1803  0.1177 -0.5452
 7627SOL    HW134343   0.932   1.475   9.365 -0.4576  0.4830 -0.3542
 7627SOL    HW234344   0.934   1.596   9.294 -2.2374 -0.5355  0.6344
 7628SOL     OW34345   4.531   2.903   0.894  0.0081  0.2645  0.2925
 7628SOL    HW134346   4.456   2.963   0.890  0.2243  0.6152  1.3806
 7628SOL    HW234347   4.510   2.853   0.973  1.2967 -2.4831 -1.0985
 7629SOL     OW34348   4.249   1.185   1.172 -0.2061 -0.2490 -0.3016
 7629SOL    HW134349   4.170   1.220   1.129 -0.5523 -0.5528  0.0839
 7629SOL    HW234350   4.238   1.212   1.263 -0.2501 -1.2710 -0.0115
 7630SOL     OW34351   3.109   0.869   8.591 -0.0096 -0.3711 -0.0159
 7630SOL    HW134352   3.117   0.831   8.679 -2.3141 -0.7940  0.0022
 7630SOL    HW234353   3.196   0.858   8.551  0.3671 -0.6601  0.8716
 7631SOL     OW34354   2.865   0.225   6.993 -0.3897 -0.2662 -0.0739
 7631SOL    HW134355   2.777   0.227   6.955 -1.2273 -2.3294  1.7723
 7631SOL    HW234356   2.866   0.134   7.021  1.7935 -0.3664 -0.5317
 7632SOL     OW34357   1.417   3.992   3.510  0.0253  0.5676  0.3078
 7632SOL    HW134358   1.379   3.906   3.492  1.5198 -0.0853  0.2408
 7632SOL    HW234359   1.365   4.056   3.462 -0.4933 -0.3171 -0.3139
 7633SOL     OW34360   3.776   2.108   2.196 -1.1834 -0.3473 -0.2885
 7633SOL    HW134361   3.750   2.136   2.108  0.6378  2.6848  0.1191
 7633SOL    HW234362   3.770   2.191   2.243 -0.1915 -1.5243  1.9132
 7634SOL     OW34363   0.568   2.535   8.110  0.5801  0.9390 -0.0953
 7634SOL    HW134364   0.631   2.591   8.065 -0.1027  0.8608 -1.1358
 7634SOL    HW234365   0.580   2.452   8.064  0.7984  0.9514 -0.0634
 7635SOL     OW34366   1.116   4.081  15.901 -0.4138 -0.7026 -0.2048
 7635SOL    HW134367   1.053   4.089  15.830 -1.0017  3.7674  0.8328
 7635SOL    HW234368   1.061   4.029  15.959 -0.6623  1.2801  1.3433
 7636SOL     OW34369   3.700   0.358   2.882 -0.2636 -0.2585  0.1920
 7636SOL    HW134370   3.714   0.440   2.835  1.1798 -0.5507  0.0858
 7636SOL    HW234371   3.633   0.328   2.821 -1.6365 -0.7477  1.9237
 7637SOL     OW34372   3.764   3.084   9.978  0.6709  0.2046 -0.1106
 7637SOL    HW134373   3.857   3.072  10.001  0.4834  1.3053  1.2667
 7637SOL    HW234374   3.721   3.015  10.028  0.4615 -0.8609 -1.7931
 7638SOL     OW34375   1.043   1.082   5.347  0.1101 -0.0447  0.4645
 7638SOL    HW134376   0.972   1.071   5.284  0.6818  0.1362 -0.2056
 7638SOL    HW234377   1.113   1.037   5.300 -0.1568 -0.7565  0.7443
 7639SOL     OW34378   4.482   0.867   6.161  0.2071 -0.1913  0.5522
 7639SOL    HW134379   4.567   0.899   6.191  0.7340  2.0144 -3.2130
 7639SOL    HW234380   4.438   0.946   6.193  2.3422  1.1157  0.3027
 7640SOL     OW34381   1.559   3.357   2.252  0.0160 -0.1510  0.5543
 7640SOL    HW134382   1.479   3.313   2.222  0.4082 -0.2123 -0.4047
 7640SOL    HW234383   1.617   3.284   2.272 -0.6723 -0.9967 -0.5283
 7641SOL     OW34384   2.306   3.122   8.068 -0.8112  0.0196  0.0001
 7641SOL    HW134385   2.389   3.090   8.033 -1.4135 -1.2295 -0.2635
 7641SOL    HW234386   2.334   3.212   8.082 -1.4266  0.4556 -1.5426
 7642SOL     OW34387   1.995   4.687   2.999  0.2350  0.1367  0.2070
 7642SOL    HW134388   2.017   4.595   2.982  1.6352 -0.2371  4.1115
 7642SOL    HW234389   1.933   4.673   3.072  0.2312 -0.2004  0.1418
 7643SOL     OW34390   1.250   1.288   4.337 -0.7100 -0.3293  0.4498
 7643SOL    HW134391   1.178   1.339   4.373  1.0934  2.6555 -0.1544
 7643SOL    HW234392   1.316   1.357   4.341 -2.6448  1.6832 -1.7244
 7644SOL     OW34393   2.549   4.435   3.760 -0.1155 -0.4496 -0.3796
 7644SOL    HW134394   2.578   4.347   3.782 -1.6405 -0.6314  0.8465
 7644SOL    HW234395   2.564   4.435   3.665 -1.3078  0.9235 -0.5819
 7645SOL     OW34396   1.699   1.633  13.338 -0.3169  0.4222  0.1122
 7645SOL    HW134397   1.634   1.599  13.277  2.7607 -1.0203 -2.3760
 7645SOL    HW234398   1.669   1.721  13.359  0.2690  0.3644  1.2319
 7646SOL     OW34399   0.294   1.295   9.065 -0.1641 -0.2939  0.1294
 7646SOL    HW134400   0.265   1.214   9.024  0.2069  1.1151 -2.9309
 7646SOL    HW234401   0.331   1.270   9.150  0.6654  0.0068 -0.1360
 7647SOL     OW34402   3.435   0.381   4.080  0.2228 -0.2911 -0.2445
 7647SOL    HW134403   3.379   0.458   4.090 -0.1555 -0.5438 -0.4125
 7647SOL    HW234404   3.499   0.411   4.145 -1.2850  1.2266  0.5375
 7648SOL     OW34405   3.276   3.459  12.676 -0.7174 -0.4391  0.7186
 7648SOL    HW134406   3.199   3.503  12.641  1.5467  1.9706 -1.2313
 7648SOL    HW234407   3.345   3.524  12.665  0.3936 -1.5217  1.2132
 7649SOL     OW34408   3.027   2.051   6.502 -0.0211  0.0483  0.3247
 7649SOL    HW134409   3.043   2.146   6.496  0.7107  0.0249  1.8229
 7649SOL    HW234410   3.116   2.019   6.487 -0.6800 -1.9061  0.6964
 7650SOL     OW34411   0.712   1.059  15.630  0.1440  0.2535 -0.0932
 7650SOL    HW134412   0.735   1.092  15.717 -0.2731  0.1113  0.0694
 7650SOL    HW234413   0.642   1.121  15.608 -1.1240 -1.0602  0.2560
 7651SOL     OW34414   3.652   3.178   1.436 -0.1868 -0.3760  0.5094
 7651SOL    HW134415   3.635   3.198   1.528 -0.8083 -1.1995  0.5753
 7651SOL    HW234416   3.579   3.230   1.399  0.2961  0.0445  0.1420
 7652SOL     OW34417   4.483   1.387   2.258  0.2544 -0.3727  0.2263
 7652SOL    HW134418   4.450   1.450   2.323  1.1482 -0.1324  0.4488
 7652SOL    HW234419   4.404   1.335   2.241 -2.2402  3.9675 -1.5911
 7653SOL     OW34420   0.379   2.959   4.236  0.1086  0.2680 -0.0297
 7653SOL    HW134421   0.416   2.875   4.208  0.4030  0.0624  0.9572
 7653SOL    HW234422   0.355   2.934   4.325  0.4014  1.3322  0.3457
 7654SOL     OW34423   3.128   0.457   6.681 -0.7245 -0.6723  0.1644
 7654SOL    HW134424   3.103   0.394   6.749  0.5156  0.4659  1.6710
 7654SOL    HW234425   3.221   0.459   6.702 -0.6073  1.3188 -0.5287
 7655SOL     OW34426   0.211   2.979   6.920  0.4364  0.0555  0.2270
 7655SOL    HW134427   0.174   3.028   6.994  0.2228  0.2259  0.0050
 7655SOL    HW234428   0.238   3.048   6.860  2.9114 -1.0942 -0.0050
 7656SOL     OW34429   3.466   3.705   4.092 -1.2906 -0.0890 -0.2240
 7656SOL    HW134430   3.393   3.671   4.041 -0.4521  0.8236 -2.0463
 7656SOL    HW234431   3.431   3.790   4.119 -3.7767 -0.8570 -1.0250
 7657SOL     OW34432   2.366   0.540   9.790 -0.1134  0.4220  0.1461
 7657SOL    HW134433   2.354   0.527   9.884  0.4593  0.0196  0.1693
 7657SOL    HW234434   2.383   0.454   9.750 -0.8923  0.8830 -1.1774
 7658SOL     OW34435   0.315   3.353  13.982 -0.1224  0.3649 -0.1666
 7658SOL    HW134436   0.294   3.436  14.025 -3.4546 -1.3129  1.4210
 7658SOL    HW234437   0.229   3.335  13.944 -1.0871  2.0967  1.2223
 7659SOL     OW34438   1.900   2.113   3.121 -0.2294 -0.1785  0.2736
 7659SOL    HW134439   1.846   2.135   3.197 -0.8741  0.1471 -0.2738
 7659SOL    HW234440   1.962   2.186   3.125  1.5139 -1.6579  0.0055
 7660SOL     OW34441   0.707   4.078   2.019  0.1972 -0.2907 -0.0500
 7660SOL    HW134442   0.699   4.165   1.979  0.4962 -1.3416 -2.3194
 7660SOL    HW234443   0.799   4.077   2.045 -0.1332 -0.1993  1.1363
 7661SOL     OW34444   2.751   4.122  11.659  0.2166 -0.2286 -0.2517
 7661SOL    HW134445   2.658   4.110  11.642 -0.1304  1.2624  0.5913
 7661SOL    HW234446   2.777   4.158  11.574  2.2910 -0.7799  0.1480
 7662SOL     OW34447   2.351   1.778   8.769 -0.1079  0.4954  0.3312
 7662SOL    HW134448   2.319   1.811   8.685  1.9987 -2.3944 -1.6147
 7662SOL    HW234449   2.446   1.779   8.755 -0.2675 -0.0575 -0.7943
 7663SOL     OW34450   3.558   0.327  10.874 -0.5015 -0.2918 -0.2802
 7663SOL    HW134451   3.557   0.232  10.891  1.1036 -0.1785  0.4521
 7663SOL    HW234452   3.475   0.336  10.826  0.2322 -0.6357 -1.6111
 7664SOL     OW34453   0.525   0.228   8.344  0.3138 -0.2078  0.0477
 7664SOL    HW134454   0.580   0.161   8.304  2.8192  1.6938  0.3688
 7664SOL    HW234455   0.443   0.179   8.356 -1.5106  2.4664 -1.2945
 7665SOL     OW34456   3.717   0.047   0.118  0.4419  0.0644 -0.3407
 7665SOL    HW134457   3.758   0.075   0.199  1.0694 -0.3527 -0.5165
 7665SOL    HW234458   3.632   0.092   0.116 -1.6923 -3.8899  1.2308
 7666SOL     OW34459   2.286   0.493   3.762 -0.5947 -0.3901 -0.7985
 7666SOL    HW134460   2.257   0.406   3.790 -2.5952  0.3456 -0.5715
 7666SOL    HW234461   2.381   0.488   3.751 -0.4676 -1.6272  0.8193
 7667SOL     OW34462   3.646   2.920   5.343 -0.3563 -0.4998 -0.4506
 7667SOL    HW134463   3.722   2.867   5.364 -0.2152 -1.1517 -2.6338
 7667SOL    HW234464   3.679   2.947   5.258  2.0549 -1.0379  0.3106
 7668SOL     OW34465   4.643   2.835   2.871 -0.7334 -0.1661  0.4059
 7668SOL    HW134466   0.005   2.856   2.853 -1.1732 -0.2613 -1.8491
 7668SOL    HW234467   4.609   2.809   2.786  1.9280  1.0974 -1.0465
 7669SOL     OW34468   0.642   1.109  15.914  0.4733  0.0821 -0.1943
 7669SOL    HW134469   0.686   1.034  15.956 -1.0253  0.0922  1.4007
 7669SOL    HW234470   0.552   1.076  15.911  0.4679 -0.1520  2.1886
 7670SOL     OW34471   1.726   1.432   3.547 -0.0823  0.2101  0.2921
 7670SOL    HW134472   1.671   1.442   3.624  0.8074  0.2575  0.9164
 7670SOL    HW234473   1.799   1.375   3.572 -0.1515 -0.2319 -0.5087
 7671SOL     OW34474   4.667   4.193   6.219  0.1151  0.1033  0.0590
 7671SOL    HW134475   4.597   4.226   6.275  1.3262 -0.9385  2.1732
 7671SOL    HW234476   4.642   4.218   6.130  2.8979  0.7830 -0.5180
 7672SOL     OW34477   0.981   2.241  16.390 -0.4460 -0.3741  0.0931
 7672SOL    HW134478   1.048   2.307  16.370 -0.1343 -0.2581  1.5107
 7672SOL    HW234479   0.931   2.279  16.462 -0.3619 -1.5694  0.7913
 7673SOL     OW34480   1.158   1.363  16.047  0.0429 -0.1621  0.0574
 7673SOL    HW134481   1.130   1.445  16.005 -0.6341 -0.1851  0.4630
 7673SOL    HW234482   1.074   1.318  16.040 -0.6056  1.3144 -1.7478
 7674SOL     OW34483   1.762   4.596   0.102  0.4219  0.0726  0.1613
 7674SOL    HW134484   1.818   4.594   0.025  0.5590  0.0669  0.2618
 7674SOL    HW234485   1.696   4.660   0.076  0.7881 -0.4281 -1.9634
 7675SOL     OW34486   3.411   1.665  11.525 -0.5490  0.0629 -0.2279
 7675SOL    HW134487   3.498   1.689  11.492  0.5367 -2.7409  0.6559
 7675SOL    HW234488   3.430   1.642  11.615  1.7550  2.2495 -0.1589
 7676SOL     OW34489   0.660   4.087   2.951 -0.5771  0.1240  0.8884
 7676SOL    HW134490   0.595   4.150   2.981 -0.0052  1.0940  0.0736
 7676SOL    HW234491   0.637   4.067   2.860 -1.5152 -0.1937  1.1924
 7677SOL     OW34492   4.329   0.735   6.547 -0.5759 -0.4951 -0.3052
 7677SOL    HW134493   4.275   0.679   6.603 -2.5028  0.9573 -0.6920
 7677SOL    HW234494   4.267   0.801   6.517 -1.1544 -0.8829  0.0407
 7678SOL     OW34495   2.589   4.562   0.625 -0.3996 -0.0107 -0.4514
 7678SOL    HW134496   2.660   4.548   0.562  2.0966 -0.8469  2.5560
 7678SOL    HW234497   2.556   4.475   0.648  0.2519  0.6808  2.9788
 7679SOL     OW34498   0.610   3.018   7.991  0.1635 -0.4039 -0.2911
 7679SOL    HW134499   0.588   3.002   8.083  3.1626 -0.9922  0.3217
 7679SOL    HW234500   0.584   2.933   7.956 -1.1258 -0.6126  1.1648
 7680SOL     OW34501   2.586   4.444   9.336  0.0828 -0.4143  0.2036
 7680SOL    HW134502   2.567   4.354   9.361 -0.7490 -0.4102 -0.4294
 7680SOL    HW234503   2.676   4.424   9.310 -0.3876 -2.3248  0.0421
 7681SOL     OW34504   3.089   0.260   7.853 -0.3288  0.2395  0.0777
 7681SOL    HW134505   2.997   0.286   7.856  0.0970  1.8373 -1.0145
 7681SOL    HW234506   3.136   0.343   7.866  0.7010 -0.8726  3.4163
 7682SOL     OW34507   1.186   3.070   3.703  0.4118  0.1869 -0.4289
 7682SOL    HW134508   1.200   3.164   3.690 -0.7891  0.4838  0.3853
 7682SOL    HW234509   1.108   3.066   3.759  0.9896  2.9063  0.5784
 7683SOL     OW34510   3.681   0.945   3.840 -0.2911  0.4808  0.1897
 7683SOL    HW134511   3.770   0.965   3.812 -0.9655  2.2597 -0.7428
 7683SOL    HW234512   3.651   1.016   3.897 -1.1768 -0.1055  0.4450
 7684SOL     OW34513   0.470   1.964   5.525  0.8954  0.4778  0.1955
 7684SOL    HW134514   0.529   1.890   5.513  0.9187  0.8395 -1.9635
 7684SOL    HW234515   0.516   1.998   5.602  2.0796 -1.1220  0.2001
 7685SOL     OW34516   1.022   0.809  10.151  0.0377 -0.6372 -0.1997
 7685SOL    HW134517   1.057   0.886  10.196 -0.8479 -1.0606  1.2153
 7685SOL    HW234518   1.089   0.791  10.085 -1.8130  0.0107 -2.2320
 7686SOL     OW34519   0.527   3.797   4.061  0.1812 -0.3842 -0.9555
 7686SOL    HW134520   0.563   3.780   4.148 -0.9842 -0.5025 -0.4954
 7686SOL    HW234521   0.443   3.753   4.075 -1.0668  2.7845  1.6980
 7687SOL     OW34522   4.121   2.203   7.214  0.7430  0.6573 -0.0046
 7687SOL    HW134523   4.076   2.269   7.267 -0.6104  0.7631 -1.2815
 7687SOL    HW234524   4.172   2.260   7.156  0.4296  1.0575  0.1122
 7688SOL     OW34525   3.658   0.194   4.837 -0.3010  0.1181 -0.3189
 7688SOL    HW134526   3.679   0.120   4.895  1.2220  1.7265  1.1955
 7688SOL    HW234527   3.737   0.248   4.840  0.3377 -0.7913 -0.8599
 7689SOL     OW34528   2.624   0.137  12.542 -0.4841  0.6163 -0.1205
 7689SOL    HW134529   2.714   0.114  12.565 -0.0009  1.7761 -0.8287
 7689SOL    HW234530   2.606   0.078  12.469  0.6378 -0.6262  0.6098
 7690SOL     OW34531   4.167   1.364   9.301  0.9413  0.3929  0.4708
 7690SOL    HW134532   4.181   1.458   9.302  3.4948 -0.0332  5.9292
 7690SOL    HW234533   4.111   1.343   9.226 -0.8448 -1.2191  2.2633
 7691SOL     OW34534   1.924   4.609   8.884 -0.4111 -0.4589  0.4684
 7691SOL    HW134535   1.966   4.548   8.945 -0.4400  0.1442  1.1050
 7691SOL    HW234536   1.908   4.677   8.950  0.5866 -2.2421  2.5668
 7692SOL     OW34537   1.299   4.130   3.288  0.1899 -0.2838 -0.7892
 7692SOL    HW134538   1.224   4.076   3.264 -0.2200 -0.0917  0.0652
 7692SOL    HW234539   1.366   4.106   3.224 -0.2754 -0.6007 -1.1573
 7693SOL     OW34540   3.679   2.541   8.528 -0.3109 -0.2591  0.2756
 7693SOL    HW134541   3.721   2.572   8.448 -0.3095  2.9552  1.5426
 7693SOL    HW234542   3.592   2.521   8.493 -0.9240  0.7476  1.2122
 7694SOL     OW34543   2.672   3.113   5.600 -0.2694  0.2744  0.4007
 7694SOL    HW134544   2.656   3.033   5.649 -2.2797 -1.2175 -2.6921
 7694SOL    HW234545   2.586   3.154   5.607 -0.0661  0.7439  0.1851
 7695SOL     OW34546   0.247   3.947   3.788 -0.1411 -0.2073  0.3798
 7695SOL    HW134547   0.281   3.973   3.874  2.0755 -1.3434 -0.1432
 7695SOL    HW234548   0.194   4.021   3.762 -0.9396 -0.9212 -0.0319
 7696SOL     OW34549   1.797   3.708   4.147  0.0252  0.4221  0.2813
 7696SOL    HW134550   1.761   3.727   4.061 -1.6541 -0.5423  0.7780
 7696SOL    HW234551   1.735   3.747   4.208  0.1066  0.0840  0.5781
 7697SOL     OW34552   0.682   2.295   9.626 -0.2410  0.3718 -0.2225
 7697SOL    HW134553   0.657   2.325   9.714  0.0874 -0.5826  0.2015
 7697SOL    HW234554   0.768   2.338   9.622  0.2849 -0.6748 -0.2103
 7698SOL     OW34555   3.293   1.210  14.400  0.5332  0.3734  0.1859
 7698SOL    HW134556   3.379   1.236  14.431  0.4477  2.5070 -1.3367
 7698SOL    HW234557   3.251   1.189  14.483 -1.3805 -1.2781 -1.2051
 7699SOL     OW34558   0.435   2.212   4.351  0.1584  0.2243 -0.4344
 7699SOL    HW134559   0.390   2.132   4.322  1.0558 -1.2330  2.1949
 7699SOL    HW234560   0.367   2.257   4.401  0.9227  0.2350  0.6020
 7700SOL     OW34561   2.788   2.193  10.704  0.1843 -0.5445  0.2004
 7700SOL    HW134562   2.722   2.263  10.701  0.8414  0.0554 -0.2003
 7700SOL    HW234563   2.747   2.142  10.774  2.2244 -1.2655  0.8570
 7701SOL     OW34564   3.729   4.624   4.580 -0.5679  0.4666 -0.1026
 7701SOL    HW134565   3.779   4.546   4.604  0.0401  1.0536  0.5177
 7701SOL    HW234566   3.789   4.698   4.592  0.0716 -0.4591  2.3468
 7702SOL     OW34567   2.108   3.071   8.384 -0.1737 -0.2675  0.4655
 7702SOL    HW134568   2.064   2.991   8.358  0.8110  0.7714 -4.3369
 7702SOL    HW234569   2.066   3.131   8.323 -0.6494  1.3194  2.3305
 7703SOL     OW34570   1.693   1.093   4.573  0.3876 -0.2202  0.9826
 7703SOL    HW134571   1.783   1.126   4.580  0.9350 -1.9813  2.0545
 7703SOL    HW234572   1.706   1.008   4.531 -0.8499  0.0060  0.1185
 7704SOL     OW34573   2.118   1.982   2.364  0.1516  0.1209  0.6950
 7704SOL    HW134574   2.150   1.945   2.282  0.8555 -0.9941  1.4836
 7704SOL    HW234575   2.154   2.071   2.362 -1.7898  0.8491 -2.0318
 7705SOL     OW34576   0.493   2.653   6.256  0.1143 -0.0663 -0.2054
 7705SOL    HW134577   0.504   2.583   6.321 -1.6667 -1.0938 -0.9928
 7705SOL    HW234578   0.399   2.646   6.240  0.2698 -0.2882 -1.0327
 7706SOL     OW34579   1.451   3.938  11.974  0.2120 -0.2794  0.3139
 7706SOL    HW134580   1.455   3.907  12.064  0.6242 -0.1708  0.3323
 7706SOL    HW234581   1.536   3.908  11.944  1.2026  2.7070  0.0870
 7707SOL     OW34582   2.009   0.300  11.737 -0.4448 -0.9778  0.2561
 7707SOL    HW134583   1.972   0.329  11.654 -0.1102 -0.1275  0.4018
 7707SOL    HW234584   2.086   0.253  11.706 -0.4231 -0.6971 -0.1100
 7708SOL     OW34585   4.251   2.673  12.319  0.0178  0.3556  0.0054
 7708SOL    HW134586   4.309   2.598  12.334 -0.4082  0.0432  0.0755
 7708SOL    HW234587   4.302   2.746  12.284 -0.3967 -0.0832 -1.4773
 7709SOL     OW34588   1.808   0.052  10.238 -1.1768 -0.2734  0.5240
 7709SOL    HW134589   1.831   0.136  10.199 -0.5635 -0.1888  1.0540
 7709SOL    HW234590   1.746   0.014  10.175 -1.1996 -1.1945  1.1008
 7710SOL     OW34591   1.591   3.033  10.766  0.0182  0.5101 -0.5453
 7710SOL    HW134592   1.507   3.014  10.724  0.4776 -2.5645 -0.0957
 7710SOL    HW234593   1.624   2.943  10.769 -3.4846 -0.7968 -0.6917
 7711SOL     OW34594   1.640   1.397   8.144 -0.4916 -0.5043  0.2586
 7711SOL    HW134595   1.620   1.306   8.126  1.2122 -0.5135 -1.5960
 7711SOL    HW234596   1.571   1.442   8.096  0.9624  1.3545 -0.1286
 7712SOL     OW34597   2.994   1.003   5.982 -0.3522  0.1935 -0.1886
 7712SOL    HW134598   2.904   0.989   6.012 -1.4590 -0.3801 -3.8161
 7712SOL    HW234599   2.989   1.006   5.887  0.8995  1.3200 -0.2248
 7713SOL     OW34600   0.653   0.262   6.807 -0.3112 -0.1166 -0.7750
 7713SOL    HW134601   0.629   0.183   6.856 -1.5461 -0.0402 -1.2674
 7713SOL    HW234602   0.709   0.308   6.869 -4.1408  2.3352  0.8758
 7714SOL     OW34603   0.775   4.347  10.208  0.0466  0.3116  0.0343
 7714SOL    HW134604   0.684   4.322  10.224  0.2545 -0.2346  0.3632
 7714SOL    HW234605   0.820   4.264  10.194  0.5103  0.5718 -0.0323
 7715SOL     OW34606   3.946   4.705   1.477 -0.8197 -0.1081 -0.5826
 7715SOL    HW134607   3.851   4.710   1.493 -1.1435 -1.1016 -2.1614
 7715SOL    HW234608   3.959   0.036   1.404 -0.2829  2.1836  1.4131
 7716SOL     OW34609   4.556   3.616   4.446  0.3513  0.4605 -0.3246
 7716SOL    HW134610   4.571   3.540   4.502  2.4249  0.8114 -0.3863
 7716SOL    HW234611   4.476   3.648   4.488  0.7734  0.2046  0.6700
 7717SOL     OW34612   3.483   2.908   0.307 -0.0550  0.0109 -0.1347
 7717SOL    HW134613   3.566   2.861   0.308 -0.5013 -0.7663 -0.0013
 7717SOL    HW234614   3.513   2.992   0.343 -0.4835 -0.2918  0.9172
 7718SOL     OW34615   1.414   3.712  10.081  0.5058 -0.4006  0.4325
 7718SOL    HW134616   1.350   3.722  10.011 -0.9959 -0.3687  1.8180
 7718SOL    HW234617   1.454   3.799  10.076 -1.3746  0.5731  2.8285
 7719SOL     OW34618   3.401   1.894  12.052  0.1548  0.5088  0.2604
 7719SOL    HW134619   3.467   1.828  12.032  1.6092  1.4504  1.9857
 7719SOL    HW234620   3.455   1.948  12.110 -1.5772 -0.2413  2.5502
 7720SOL     OW34621   4.335   3.136   6.873 -0.4036 -0.1842  0.5062
 7720SOL    HW134622   4.295   3.053   6.899 -2.9474  0.1183 -2.4862
 7720SOL    HW234623   4.271   3.197   6.910  1.2293  0.6058  2.0349
 7721SOL     OW34624   0.076   4.586   8.205  0.2718 -0.3168 -0.1166
 7721SOL    HW134625   0.001   4.539   8.241  0.9697 -0.8488  0.6216
 7721SOL    HW234626   0.058   4.678   8.224 -1.9339  0.1362 -4.2222
 7722SOL     OW34627   2.316   1.319   7.422  0.5280 -0.5369 -0.5896
 7722SOL    HW134628   2.269   1.315   7.339  1.0938  0.3859 -0.9553
 7722SOL    HW234629   2.399   1.293   7.383  0.2718 -1.1464 -0.7276
 7723SOL     OW34630   4.269   3.742   4.060 -0.5251  0.1605 -0.0595
 7723SOL    HW134631   4.346   3.746   4.117 -1.9548  0.5622  1.8584
 7723SOL    HW234632   4.255   3.833   4.034  0.4873  0.5259  0.6524
 7724SOL     OW34633   3.499   4.484   6.762  0.1418  0.0858  0.6099
 7724SOL    HW134634   3.569   4.547   6.781  0.6518 -0.2788 -0.0493
 7724SOL    HW234635   3.519   4.400   6.803  1.7301 -0.4567 -1.2918
 7725SOL     OW34636   0.560   3.762   5.683 -0.1694 -0.1962 -0.0078
 7725SOL    HW134637   0.479   3.811   5.669 -0.3001 -0.9992 -1.9885
 7725SOL    HW234638   0.523   3.693   5.739 -0.2533 -0.3564 -0.2628
 7726SOL     OW34639   1.369   2.844  11.060 -0.1889  0.5733 -0.2281
 7726SOL    HW134640   1.322   2.823  11.141 -0.0359 -0.4530 -0.4066
 7726SOL    HW234641   1.379   2.939  11.055  2.0686  0.3327  0.0431
 7727SOL     OW34642   4.143   3.278  13.473 -0.0925  0.5218 -0.2797
 7727SOL    HW134643   4.227   3.237  13.453 -1.2690  1.0461 -6.3506
 7727SOL    HW234644   4.150   3.297  13.566 -0.8590  3.2151 -0.7974
 7728SOL     OW34645   0.154   2.674  10.544 -0.5634 -0.4253  0.0427
 7728SOL    HW134646   0.105   2.668  10.626 -3.0179 -1.5310 -1.5085
 7728SOL    HW234647   0.090   2.725  10.495 -1.7263 -1.0204  0.9431
 7729SOL     OW34648   2.308   4.156   3.532 -0.6352 -0.0965 -0.0315
 7729SOL    HW134649   2.366   4.080   3.524 -1.6234 -0.8675  0.2206
 7729SOL    HW234650   2.332   4.174   3.622 -0.5540  0.6396 -0.2046
 7730SOL     OW34651   4.127   3.363   3.819 -0.1287 -0.0387 -0.3291
 7730SOL    HW134652   4.178   3.410   3.753  0.7117 -1.3360 -0.6088
 7730SOL    HW234653   4.094   3.436   3.873 -0.8466 -1.5450  1.2699
 7731SOL     OW34654   2.651   1.686   9.124  0.2043 -0.1840 -0.1644
 7731SOL    HW134655   2.744   1.668   9.126 -0.2136 -2.2874 -0.0096
 7731SOL    HW234656   2.656   1.777   9.093 -1.2711  0.6150  1.9070
 7732SOL     OW34657   3.002   1.535   5.049  0.1780  0.0848 -0.7197
 7732SOL    HW134658   3.084   1.508   5.007  1.0716 -0.1345  1.1293
 7732SOL    HW234659   3.033   1.577   5.129  0.9988 -0.9051 -0.5127
 7733SOL     OW34660   1.738   4.212  12.457  0.7485  0.5440 -0.4287
 7733SOL    HW134661   1.686   4.135  12.481  2.4421 -0.8445 -1.1799
 7733SOL    HW234662   1.819   4.212  12.507  0.7273 -2.7297 -0.3583
 7734SOL     OW34663   2.009   2.808   9.751 -0.4280 -0.3478  0.5679
 7734SOL    HW134664   2.040   2.834   9.664  0.9955 -2.1821  0.5324
 7734SOL    HW234665   2.082   2.753   9.779  0.9156  1.9898  1.6877
 7735SOL     OW34666   1.869   4.258   0.747  0.1268  0.0165  0.3759
 7735SOL    HW134667   1.847   4.297   0.662  0.0962  1.6405  1.1166
 7735SOL    HW234668   1.963   4.238   0.747  0.4611  1.5800  0.0465
 7736SOL     OW34669   2.473   2.714   1.612 -0.1030 -0.2281 -0.2725
 7736SOL    HW134670   2.519   2.631   1.599  0.2355  0.3182 -2.4806
 7736SOL    HW234671   2.384   2.685   1.592  0.2333  0.0335 -2.1920
 7737SOL     OW34672   4.257   2.337   9.349  0.0275 -0.5994 -0.2441
 7737SOL    HW134673   4.248   2.275   9.422  0.1356 -0.9511 -0.5322
 7737SOL    HW234674   4.253   2.420   9.397 -1.5575  0.0170 -1.4659
 7738SOL     OW34675   4.651   3.091  14.276  0.1290  0.3301  0.0618
 7738SOL    HW134676   4.610   3.005  14.273 -1.3574  0.9947  1.1362
 7738SOL    HW234677   4.647   3.112  14.369  0.9996  0.7460  0.0107
 7739SOL     OW34678   2.565   0.875   2.547 -0.2699 -0.2553 -0.1908
 7739SOL    HW134679   2.483   0.903   2.507  0.6285  1.0545 -1.0962
 7739SOL    HW234680   2.600   0.823   2.475  0.2279 -1.0110  0.5838
 7740SOL     OW34681   3.982   0.870   2.194 -0.8629 -0.0569 -0.1408
 7740SOL    HW134682   4.050   0.824   2.144 -0.4791  0.3517  0.0110
 7740SOL    HW234683   3.984   0.963   2.172 -1.0285 -0.7899 -3.3237
 7741SOL     OW34684   0.027   2.602   1.467  0.1899 -0.5678 -0.1327
 7741SOL    HW134685   0.042   2.595   1.561 -1.6298  0.2634  0.2242
 7741SOL    HW234686   0.091   2.537   1.440 -1.9547 -2.6512 -0.2425
 7742SOL     OW34687   0.503   2.331   9.029 -0.1100  0.1337 -0.0084
 7742SOL    HW134688   0.507   2.267   9.100  0.4998  0.8905  0.6507
 7742SOL    HW234689   0.424   2.383   9.047 -0.5897 -0.4008 -0.5991
 7743SOL     OW34690   4.069   3.298   3.381 -0.3425 -0.3906 -0.3878
 7743SOL    HW134691   4.162   3.312   3.396 -0.1527 -1.4326 -0.5616
 7743SOL    HW234692   4.041   3.272   3.469 -2.2752  0.6069 -0.7031
 7744SOL     OW34693   2.160   0.868   9.734  0.1522  0.3101  0.1257
 7744SOL    HW134694   2.240   0.883   9.683 -0.2048 -2.8302 -1.3838
 7744SOL    HW234695   2.187   0.791   9.783  1.1964  0.4419 -0.2366
 7745SOL     OW34696   0.420   2.701   7.559  0.0724 -0.4427  0.2754
 7745SOL    HW134697   0.401   2.683   7.467  0.5425 -1.7785  0.4439
 7745SOL    HW234698   0.334   2.728   7.591 -0.1717 -1.7521  0.7343
 7746SOL     OW34699   1.829   4.705   6.044 -0.1438 -0.4053 -0.1460
 7746SOL    HW134700   1.810   4.712   5.950 -0.2474 -3.4094 -0.3459
 7746SOL    HW234701   1.917   4.667   6.034 -0.6663 -1.3290 -1.3026
 7747SOL     OW34702   1.804   2.181   9.356 -0.0791  0.0227  0.3924
 7747SOL    HW134703   1.735   2.219   9.301  2.1677  2.1285 -0.9088
 7747SOL    HW234704   1.747   2.117   9.400  0.7355  0.2254  1.7531
 7748SOL     OW34705   4.611   4.111   5.275  0.2934  0.0253 -0.3484
 7748SOL    HW134706   4.663   4.033   5.294  1.1041  0.7036  0.2143
 7748SOL    HW234707   4.600   4.102   5.180  0.1330 -0.1606 -0.3119
 7749SOL     OW34708   3.722   0.767   7.392 -0.1996  0.2558 -0.4900
 7749SOL    HW134709   3.741   0.691   7.336  0.0144  1.5316 -2.1721
 7749SOL    HW234710   3.630   0.792   7.378 -0.1684  0.7729  0.2308
 7750SOL     OW34711   4.458   3.967   1.321 -0.2574  0.3096 -0.7636
 7750SOL    HW134712   4.490   3.990   1.234  0.0633 -1.0649 -1.0240
 7750SOL    HW234713   4.402   4.042   1.338 -0.4551  0.1003 -0.4896
 7751SOL     OW34714   4.077   3.964   0.304 -0.1474 -0.1481  0.4009
 7751SOL    HW134715   4.046   4.002   0.386 -1.4695  1.1175 -0.6709
 7751SOL    HW234716   4.167   3.935   0.322  0.8442  0.8899 -2.7708
 7752SOL     OW34717   2.240   0.077   3.058  0.2693 -0.5641 -0.7780
 7752SOL    HW134718   2.163   0.034   3.020 -0.5920  1.7092 -1.6514
 7752SOL    HW234719   2.229   0.064   3.152  0.4780  0.2618 -0.6454
 7753SOL     OW34720   0.807   4.721   2.933  0.0670  0.1182 -0.2725
 7753SOL    HW134721   0.825   4.669   2.854  0.0815 -0.3741  0.0580
 7753SOL    HW234722   0.889   4.700   2.979  0.1791  0.0790 -0.4896
 7754SOL     OW34723   1.241   3.784   2.126  0.9716  0.4546  0.1749
 7754SOL    HW134724   1.253   3.703   2.076  3.6887  0.4934  0.7663
 7754SOL    HW234725   1.328   3.824   2.118  0.3109  1.6174 -1.2013
 7755SOL     OW34726   1.160   3.085  10.872  0.5274  0.4449  0.4447
 7755SOL    HW134727   1.159   3.170  10.829 -0.6079  1.3890  2.3115
 7755SOL    HW234728   1.196   3.110  10.957  0.0215  1.6307  0.3018
 7756SOL     OW34729   1.765   1.274   9.095  0.1710 -0.2110 -0.1290
 7756SOL    HW134730   1.830   1.340   9.071 -0.3324 -1.4045 -4.6139
 7756SOL    HW234731   1.764   1.289   9.190 -0.4136  0.5671 -0.2586
 7757SOL     OW34732   4.214   0.247   1.375 -0.0077 -0.2078 -0.4860
 7757SOL    HW134733   4.142   0.294   1.416  2.2454  2.7191  0.1457
 7757SOL    HW234734   4.173   0.172   1.333 -0.1881 -0.1124 -0.4795
 7758SOL     OW34735   3.037   3.894   8.202 -0.3154 -0.1664 -0.4209
 7758SOL    HW134736   3.123   3.910   8.163 -0.6080  1.3369 -0.4562
 7758SOL    HW234737   2.982   3.943   8.141 -0.2793  1.4224  0.8414
 7759SOL     OW34738   4.681   0.255   2.397 -0.1209  0.0077 -0.4049
 7759SOL    HW134739   4.725   0.294   2.473  1.7659 -1.6735 -0.6516
 7759SOL    HW234740   0.009   0.186   2.366  0.2035  0.8131 -1.6135
 7760SOL     OW34741   0.519   1.645   8.054 -0.2146 -0.2899  0.6697
 7760SOL    HW134742   0.536   1.611   8.142  0.0065 -0.0334  0.7246
 7760SOL    HW234743   0.521   1.565   8.002 -1.6285 -0.3007  0.6473
 7761SOL     OW34744   3.017   1.908  12.888 -0.5003  0.6257  0.0265
 7761SOL    HW134745   2.963   1.963  12.831 -1.9392 -0.8202 -0.0296
 7761SOL    HW234746   2.978   1.823  12.866  0.0906 -0.2387  2.2978
 7762SOL     OW34747   2.835   3.254  11.530  0.0384 -0.3961 -0.0043
 7762SOL    HW134748   2.930   3.239  11.524  0.5197  2.1542  1.5933
 7762SOL    HW234749   2.804   3.220  11.446  1.1896 -1.5006  0.0057
 7763SOL     OW34750   1.131   3.237  15.736  0.5985 -0.5295 -0.1126
 7763SOL    HW134751   1.047   3.227  15.781  2.6006 -1.2964  3.5329
 7763SOL    HW234752   1.173   3.282  15.810  0.4368 -0.1215 -0.2712
 7764SOL     OW34753   1.264   0.821  15.521  0.4939 -0.1941 -0.2533
 7764SOL    HW134754   1.190   0.879  15.540 -0.0201 -1.8329  2.6854
 7764SOL    HW234755   1.224   0.754  15.465 -0.4462 -0.4043  0.6784
 7765SOL     OW34756   4.045   1.023  14.413  0.0893  0.1702  0.0263
 7765SOL    HW134757   4.037   1.115  14.387 -0.6357  0.7933  2.4394
 7765SOL    HW234758   4.070   1.028  14.506  1.1895  1.6285 -0.3487
 7766SOL     OW34759   1.280   3.170   9.320 -0.6016  0.1967  0.2500
 7766SOL    HW134760   1.288   3.232   9.248 -1.0743 -0.7672 -0.6255
 7766SOL    HW234761   1.364   3.173   9.365 -0.4730  0.4867 -0.0103
 7767SOL     OW34762   3.044   3.174   7.595  0.3064 -0.3912  0.3307
 7767SOL    HW134763   2.998   3.126   7.526  0.1563 -0.9883  0.8504
 7767SOL    HW234764   3.071   3.255   7.551 -0.7786 -0.3119 -0.2081
 7768SOL     OW34765   0.403   0.349   6.747 -0.6756 -0.2895 -0.2380
 7768SOL    HW134766   0.376   0.305   6.666  0.8100  0.0055 -0.9031
 7768SOL    HW234767   0.497   0.328   6.746 -0.5573  0.2453  0.2268
 7769SOL     OW34768   0.996   1.886   7.142  0.3788  0.2648 -0.0576
 7769SOL    HW134769   1.066   1.856   7.200 -0.3819 -0.6724  0.3771
 7769SOL    HW234770   0.999   1.982   7.139 -0.1217  0.3191  1.5239
 7770SOL     OW34771   2.468   3.748   3.901  0.9081 -0.6534  0.2420
 7770SOL    HW134772   2.532   3.681   3.875  1.0910 -0.1726 -0.5375
 7770SOL    HW234773   2.388   3.699   3.884 -0.4265  2.1547 -1.4923
 7771SOL     OW34774   4.209   4.343  13.954  0.0004  0.2880 -0.2258
 7771SOL    HW134775   4.153   4.404  14.003 -1.2786 -1.9649  1.1316
 7771SOL    HW234776   4.179   4.359  13.864 -2.2912 -0.1091  0.4502
 7772SOL     OW34777   4.521   0.800  10.942  0.0752  0.3073  0.0255
 7772SOL    HW134778   4.472   0.879  10.922 -2.6149 -1.5507 -0.7840
 7772SOL    HW234779   4.537   0.762  10.856 -0.3166 -2.0174  0.9650
 7773SOL     OW34780   3.661   1.801   4.647  0.3780  0.0730  0.3209
 7773SOL    HW134781   3.610   1.882   4.658  0.0911 -0.2911  1.6886
 7773SOL    HW234782   3.638   1.746   4.722  1.8529 -1.4505 -0.3334
 7774SOL     OW34783   3.590   3.481   8.248  0.7158 -0.2350  0.4348
 7774SOL    HW134784   3.527   3.432   8.195  0.7816  0.3821 -0.2103
 7774SOL    HW234785   3.639   3.531   8.183  0.5081 -1.7266 -0.8681
 7775SOL     OW34786   3.536   0.670   5.470  0.4170 -0.2432  0.4674
 7775SOL    HW134787   3.538   0.755   5.515  0.3827  0.5898 -1.1014
 7775SOL    HW234788   3.631   0.658   5.465  0.1017 -2.0381 -1.0021
 7776SOL     OW34789   3.870   1.958   0.923  0.2253  0.0131  0.0227
 7776SOL    HW134790   3.913   2.043   0.913 -2.4057  1.2849 -0.4810
 7776SOL    HW234791   3.789   1.977   0.875  0.6060 -0.1735 -0.6854
 7777SOL     OW34792   4.705   2.055   5.812 -0.0287  0.1519 -0.3613
 7777SOL    HW134793   0.022   1.978   5.779  0.1539 -0.5192  1.4639
 7777SOL    HW234794   0.001   2.051   5.904  0.4158  0.3712 -0.4719
 7778SOL     OW34795   3.184   1.614   4.109  0.8921  0.3911 -0.3779
 7778SOL    HW134796   3.151   1.625   4.197 -0.1513  2.2440 -1.0110
 7778SOL    HW234797   3.123   1.651   4.046 -1.3790  0.3401  1.8216
 7779SOL     OW34798   2.756   2.863   3.425  0.0898 -0.4197 -1.2585
 7779SOL    HW134799   2.661   2.851   3.427 -0.2071  2.2949  2.1200
 7779SOL    HW234800   2.785   2.830   3.341 -2.1821  0.5711 -2.4423
 7780SOL     OW34801   3.104   0.554  17.617  0.1986 -0.2267 -0.1201
 7780SOL    HW134802   3.181   0.542  17.562 -0.8674 -0.4570 -1.5777
 7780SOL    HW234803   3.127   0.503  17.694  0.9056  1.1139  0.5434
 7781SOL     OW34804   2.427   3.867  11.046  0.5417  0.4600 -0.0887
 7781SOL    HW134805   2.470   3.844  11.128 -1.4648 -0.4673  0.7032
 7781SOL    HW234806   2.482   3.814  10.989 -0.4990 -0.3568 -0.3265
 7782SOL     OW34807   1.675   2.622   9.644  0.6104 -0.5570 -0.0867
 7782SOL    HW134808   1.706   2.632   9.735  3.3398  2.1814 -1.3242
 7782SOL    HW234809   1.651   2.529   9.649  0.3702 -0.5288 -0.7635
 7783SOL     OW34810   3.589   3.002  12.390  0.1612  0.0754  0.3937
 7783SOL    HW134811   3.582   2.947  12.468  0.6757  0.2412  0.5568
 7783SOL    HW234812   3.590   3.085  12.438 -0.1121  0.5900 -0.4876
 7784SOL     OW34813   2.177   0.039   1.220  0.3568  0.3582 -0.0354
 7784SOL    HW134814   2.156   0.038   1.127 -1.1380  0.5491  0.3044
 7784SOL    HW234815   2.264   0.079   1.225  0.9900 -1.4326  3.4552
 7785SOL     OW34816   1.457   4.430   7.223  0.3619 -0.2335  0.5148
 7785SOL    HW134817   1.482   4.500   7.284 -2.4781  0.9125  0.3323
 7785SOL    HW234818   1.489   4.466   7.140  2.8143 -0.9722  1.1240
 7786SOL     OW34819   1.152   1.005  16.963 -0.3259 -0.3735 -0.6363
 7786SOL    HW134820   1.241   1.025  16.991 -0.2456 -1.3435 -0.1709
 7786SOL    HW234821   1.162   0.982  16.871 -3.3679 -3.5413 -0.2206
 7787SOL     OW34822   3.581   3.001   8.087  0.1021 -0.0543 -0.3654
 7787SOL    HW134823   3.591   2.942   8.012 -1.2116 -2.9229  1.7242
 7787SOL    HW234824   3.511   2.968   8.143  3.3039 -4.4219  1.0692
 7788SOL     OW34825   0.064   2.599   3.725  0.2385 -0.3980 -0.0661
 7788SOL    HW134826   0.110   2.682   3.737 -1.1987  0.2483  0.9676
 7788SOL    HW234827   4.706   2.624   3.756  1.1243  1.6846  0.7298
 7789SOL     OW34828   1.518   0.176   8.298 -0.0971 -0.1070  0.1128
 7789SOL    HW134829   1.451   0.111   8.278 -0.1140  0.3401 -1.3467
 7789SOL    HW234830   1.473   0.260   8.284 -1.8314 -1.2625 -1.2204
 7790SOL     OW34831   4.457   2.960   1.896 -0.4942 -0.6743  0.1785
 7790SOL    HW134832   4.363   2.974   1.911 -0.4939 -0.5912  0.1027
 7790SOL    HW234833   4.501   3.044   1.907  0.1455 -1.0993  0.8562
 7791SOL     OW34834   2.012   2.329   5.990 -0.4142  0.1054 -0.2520
 7791SOL    HW134835   1.967   2.247   6.009 -0.1461  0.4453  1.8745
 7791SOL    HW234836   2.100   2.312   6.024 -0.2144  0.2965 -0.6843
 7792SOL     OW34837   2.689   3.194   4.501 -0.6499  0.2305 -0.0413
 7792SOL    HW134838   2.751   3.153   4.562 -0.5012  0.8779  0.2365
 7792SOL    HW234839   2.719   3.156   4.418  2.1480  2.0396  0.1311
 7793SOL     OW34840   0.158   3.315   6.208  0.3730  0.0500  0.1853
 7793SOL    HW134841   0.131   3.406   6.218 -0.7664 -0.2710  0.1038
 7793SOL    HW234842   0.154   3.278   6.297  0.6171 -0.1375  0.1179
 7794SOL     OW34843   2.255   2.688   4.632 -0.2951  0.4427 -0.0600
 7794SOL    HW134844   2.278   2.773   4.669 -0.1854  0.1508  0.5481
 7794SOL    HW234845   2.185   2.662   4.692  2.0960  0.1360  2.5908
 7795SOL     OW34846   3.102   1.356   3.563  0.0692  0.0092  0.1797
 7795SOL    HW134847   3.048   1.431   3.542 -1.3061 -1.3599 -1.1641
 7795SOL    HW234848   3.133   1.374   3.652 -3.0661  2.4501  0.7785
 7796SOL     OW34849   0.078   2.696   9.491  0.0837 -0.2235 -0.4745
 7796SOL    HW134850   0.146   2.763   9.482  0.5487 -0.5185  0.6939
 7796SOL    HW234851   0.123   2.613   9.473 -1.3228 -0.7972 -1.3203
 7797SOL     OW34852   3.325   1.055  11.029  0.0961  0.1312  0.0990
 7797SOL    HW134853   3.291   1.081  10.943  0.8848  0.1580 -0.2053
 7797SOL    HW234854   3.363   1.141  11.049 -0.2791  0.3928 -0.3227
 7798SOL     OW34855   3.498   3.724   3.594 -0.0720 -0.5283 -0.3174
 7798SOL    HW134856   3.455   3.726   3.509 -0.4371 -1.3806 -0.1530
 7798SOL    HW234857   3.424   3.757   3.645 -1.8749 -1.0763 -2.5663
 7799SOL     OW34858   2.008   2.956  14.905 -0.6218  0.9332  0.3549
 7799SOL    HW134859   2.055   3.021  14.853  0.4385  2.4254  3.1539
 7799SOL    HW234860   2.065   2.880  14.905 -1.4075  0.3443  2.4134
 7800SOL     OW34861   2.414   4.602   4.698  0.1290 -0.7276 -0.3896
 7800SOL    HW134862   2.502   4.567   4.715 -0.5094 -1.0673  2.2970
 7800SOL    HW234863   2.381   4.553   4.623 -3.1209 -1.0234  1.2375
 7801SOL     OW34864   2.498   2.309  17.500  0.2346  0.4115 -0.1648
 7801SOL    HW134865   2.438   2.374  17.461  0.7435  0.8219 -0.2633
 7801SOL    HW234866   2.556   2.370  17.545  0.3634  1.2251 -1.4440
 7802SOL     OW34867   1.942   4.122   7.769 -0.3055 -0.3153  0.2602
 7802SOL    HW134868   2.021   4.084   7.732  0.2016  0.7363  0.2931
 7802SOL    HW234869   1.915   4.043   7.817 -2.2687 -0.1181 -0.5276
 7803SOL     OW34870   4.308   3.849   0.315 -0.2167  0.5934  0.5897
 7803SOL    HW134871   4.308   3.830   0.409 -0.9121  0.2019  0.5102
 7803SOL    HW234872   4.341   3.766   0.282 -0.5955  0.9713 -0.7425
 7804SOL     OW34873   1.222   0.355   0.677  0.5049  0.1512  0.4808
 7804SOL    HW134874   1.196   0.302   0.752 -0.3655  0.2836  0.2674
 7804SOL    HW234875   1.294   0.302   0.641 -1.4015 -1.8165 -0.4077
 7805SOL     OW34876   3.483   2.034  14.203  0.3899  0.5235  0.1764
 7805SOL    HW134877   3.437   2.113  14.173  1.4921  0.6219 -1.2771
 7805SOL    HW234878   3.506   1.995  14.118 -0.1459  0.0899  0.2292
 7806SOL     OW34879   2.932   1.463   6.572  0.3872 -0.2290  0.1186
 7806SOL    HW134880   2.900   1.397   6.633 -0.2779 -0.0490 -0.0413
 7806SOL    HW234881   2.873   1.534   6.597 -0.4902 -1.5324  1.7726
 7807SOL     OW34882   3.339   0.508  12.848 -0.2182  0.7301  0.8311
 7807SOL    HW134883   3.293   0.427  12.868 -2.6522  1.7878 -0.4059
 7807SOL    HW234884   3.428   0.489  12.817 -0.5237 -2.3240  1.8720
 7808SOL     OW34885   1.558   0.289   8.641 -0.4445  0.2507  0.0143
 7808SOL    HW134886   1.463   0.288   8.628 -0.2541 -0.0444 -1.4107
 7808SOL    HW234887   1.582   0.381   8.639 -1.6696  0.6351  2.8229
 7809SOL     OW34888   0.612   1.319  12.410  0.0296 -0.0098 -0.1149
 7809SOL    HW134889   0.584   1.310  12.502  2.6879 -0.3404  0.6686
 7809SOL    HW234890   0.599   1.233  12.372  0.4713  0.1300 -0.5718
 7810SOL     OW34891   2.188   2.385   1.476  0.2384 -0.7246 -0.1558
 7810SOL    HW134892   2.103   2.426   1.492 -0.1222 -0.9016 -1.6406
 7810SOL    HW234893   2.203   2.387   1.381  0.8430 -1.1300 -0.0655
 7811SOL     OW34894   1.080   4.568   2.521  0.4887 -0.3923  0.0168
 7811SOL    HW134895   1.046   4.590   2.435  0.7059 -0.5456 -0.1098
 7811SOL    HW234896   1.166   4.609   2.511  0.3937 -0.2028 -0.0094
 7812SOL     OW34897   4.143   1.675   1.869  0.3731  0.3097 -0.5452
 7812SOL    HW134898   4.076   1.611   1.848 -0.2930  0.6253  0.6045
 7812SOL    HW234899   4.195   1.662   1.789  1.3388  0.8811 -0.0176
 7813SOL     OW34900   2.457   3.178  10.335  0.0599 -0.0105  0.6028
 7813SOL    HW134901   2.392   3.162  10.403  0.8972  0.3285  1.4828
 7813SOL    HW234902   2.511   3.103  10.357 -0.2090 -0.5130 -0.4402
 7814SOL     OW34903   2.547   2.907   7.457 -0.2889 -0.0268  0.0435
 7814SOL    HW134904   2.607   2.892   7.530  0.6992  1.8123 -0.3689
 7814SOL    HW234905   2.488   2.974   7.492 -1.7693 -0.7343 -1.1121
 7815SOL     OW34906   1.800   2.307   3.896  0.0598  0.3765 -0.3577
 7815SOL    HW134907   1.813   2.327   3.804 -0.9702  3.3289  0.1278
 7815SOL    HW234908   1.707   2.310   3.918  0.0499  0.0988 -0.3557
 7816SOL     OW34909   3.957   1.407   4.438  0.3675  0.5324 -0.0924
 7816SOL    HW134910   4.032   1.371   4.485  0.4947  1.0712  0.1188
 7816SOL    HW234911   3.939   1.337   4.376 -1.1521 -1.2021  2.3273
 7817SOL     OW34912   1.932   2.134   1.815 -1.0422 -0.1608  0.0833
 7817SOL    HW134913   1.977   2.119   1.732 -1.1881 -1.0268  0.1600
 7817SOL    HW234914   1.857   2.178   1.774  0.5881  1.2778 -1.3351
 7818SOL     OW34915   2.765   1.404   9.244 -0.1835  0.2583 -0.1039
 7818SOL    HW134916   2.822   1.475   9.275  1.3177 -1.1117  0.2662
 7818SOL    HW234917   2.685   1.415   9.294  0.5983  1.1107  0.9598
 7819SOL     OW34918   2.161   2.576  16.005  0.5436 -0.1511  0.1524
 7819SOL    HW134919   2.094   2.628  15.961  0.7277 -1.8872 -2.1646
 7819SOL    HW234920   2.204   2.533  15.931 -1.0854 -0.2123 -0.7745
 7820SOL     OW34921   0.385   1.401   6.218 -0.0083  0.6560  0.7872
 7820SOL    HW134922   0.324   1.474   6.205  1.6425  1.7651 -0.7858
 7820SOL    HW234923   0.456   1.420   6.156 -1.1373 -0.1044 -0.7406
 7821SOL     OW34924   1.041   1.910   5.822 -0.0950 -0.5818 -0.2949
 7821SOL    HW134925   1.115   1.860   5.788  0.7098 -0.4542  1.2411
 7821SOL    HW234926   1.068   1.935   5.911  5.1559 -0.3341 -1.9400
 7822SOL     OW34927   3.733   0.950   4.212 -0.0704  0.3063  0.4331
 7822SOL    HW134928   3.653   0.972   4.260 -0.8584 -2.2809  0.3000
 7822SOL    HW234929   3.699   0.969   4.124 -0.8279  0.6970  0.8053
 7823SOL     OW34930   2.162   1.760  17.327 -0.5622 -0.4373 -0.1301
 7823SOL    HW134931   2.086   1.776  17.384  0.0343  2.1481 -0.0921
 7823SOL    HW234932   2.212   1.705  17.387 -0.5943 -0.9049 -0.5355
 7824SOL     OW34933   4.544   2.832  11.716  0.4952 -0.1119 -0.2490
 7824SOL    HW134934   4.459   2.790  11.701 -0.8310  1.9625  1.4663
 7824SOL    HW234935   4.601   2.758  11.735  0.0202 -0.6719 -1.0082
 7825SOL     OW34936   3.548   3.706   8.438 -0.2228  0.5569 -0.0345
 7825SOL    HW134937   3.558   3.674   8.527  0.4929  0.9565  0.0287
 7825SOL    HW234938   3.571   3.618   8.408 -1.4554 -0.3242  1.6257
 7826SOL     OW34939   3.257   1.745  11.329  0.2313  0.0278  0.0467
 7826SOL    HW134940   3.295   1.821  11.285  1.1036  0.6267  1.8344
 7826SOL    HW234941   3.330   1.716  11.384 -0.2175 -0.4494  0.3828
 7827SOL     OW34942   4.605   4.344   5.362 -0.0533 -0.3898 -0.3533
 7827SOL    HW134943   4.605   4.255   5.326 -2.3256 -1.5421  2.5050
 7827SOL    HW234944   4.679   4.344   5.423 -0.0699  2.7297 -0.3487
 7828SOL     OW34945   4.101   3.272  13.145  0.2790  0.1869 -0.2708
 7828SOL    HW134946   4.153   3.216  13.087 -0.4494 -1.4279  0.6442
 7828SOL    HW234947   4.040   3.312  13.083  0.3914  1.7536  0.6158
 7829SOL     OW34948   3.937   0.060  11.484  0.0798 -0.5650  0.2958
 7829SOL    HW134949   3.958   0.008  11.407  1.6555 -2.1294  1.7894
 7829SOL    HW234950   3.942   4.717  11.547  2.4847 -0.6576 -0.0164
 7830SOL     OW34951   4.301   0.492   9.293  0.6533 -0.1031 -0.0648
 7830SOL    HW134952   4.346   0.564   9.250  1.4507 -0.5848 -0.0424
 7830SOL    HW234953   4.243   0.520   9.364  2.1882 -0.3109  1.2781
 7831SOL     OW34954   0.400   3.850   9.361 -0.6283  0.1738 -0.6764
 7831SOL    HW134955   0.409   3.887   9.449 -0.8579  0.4825 -0.7844
 7831SOL    HW234956   0.324   3.903   9.339  1.6500  3.1677 -1.3740
 7832SOL     OW34957   4.603   0.497   3.995  0.0618  0.2363 -0.0956
 7832SOL    HW134958   4.533   0.455   3.945 -0.6701  1.3377  0.0044
 7832SOL    HW234959   4.630   0.430   4.058 -0.5181 -0.2923 -0.4077
 7833SOL     OW34960   3.479   3.369   2.505 -0.0624  0.3378 -0.1453
 7833SOL    HW134961   3.516   3.316   2.576 -3.2572 -2.3084 -0.4219
 7833SOL    HW234962   3.556   3.403   2.460 -0.8313  2.2791  0.0150
 7834SOL     OW34963   1.162   2.185  10.417 -0.3014  0.3445 -0.0023
 7834SOL    HW134964   1.226   2.256  10.423  0.8664 -0.9684  2.9187
 7834SOL    HW234965   1.145   2.189  10.511  0.0966  0.9276  0.0503
 7835SOL     OW34966   0.270   1.539   0.915 -0.0477 -0.0876 -0.2451
 7835SOL    HW134967   0.301   1.449   0.921  2.1299  0.5999 -1.4362
 7835SOL    HW234968   0.238   1.551   1.005 -1.3748  2.3018 -1.0339
 7836SOL     OW34969   2.973   1.810   6.787  0.1894 -0.6677 -0.0344
 7836SOL    HW134970   3.056   1.799   6.833 -0.2759  0.6162  1.1079
 7836SOL    HW234971   2.935   1.722   6.795 -0.5222 -0.3493  0.1310
 7837SOL     OW34972   2.376   4.293   2.569  0.3336  0.6970  0.0391
 7837SOL    HW134973   2.469   4.318   2.571  0.7397 -0.6555 -1.2696
 7837SOL    HW234974   2.357   4.347   2.492 -1.7589 -0.2820 -0.1270
 7838SOL     OW34975   3.944   4.631   3.352  0.4273  0.0105  0.0853
 7838SOL    HW134976   4.005   4.576   3.302  0.7394  3.0929 -2.8614
 7838SOL    HW234977   3.951   4.578   3.432 -0.0991  1.9571  1.4090
 7839SOL     OW34978   2.222   2.569   7.622 -0.2272 -0.3526 -0.1946
 7839SOL    HW134979   2.194   2.519   7.699  1.2394 -0.5193  0.2371
 7839SOL    HW234980   2.297   2.616   7.661 -1.2711  0.8301  0.3902
 7840SOL     OW34981   2.759   4.187   4.736  0.2908  0.5068  0.2397
 7840SOL    HW134982   2.796   4.100   4.720 -1.1852 -0.5569  2.5103
 7840SOL    HW234983   2.686   4.183   4.674  0.7328 -0.8520 -0.1816
 7841SOL     OW34984   0.597   4.004   3.629  0.0092 -0.1565  0.5838
 7841SOL    HW134985   0.669   4.026   3.570  0.3142  0.3834  1.1561
 7841SOL    HW234986   0.594   4.074   3.695  2.3328  0.3989  0.1004
 7842SOL     OW34987   1.182   1.109   2.711 -0.1557 -0.6886  0.3339
 7842SOL    HW134988   1.171   1.109   2.615 -0.2726  0.5964  0.3457
 7842SOL    HW234989   1.250   1.043   2.717  0.1131 -0.2894  1.6415
 7843SOL     OW34990   0.465   0.713   4.933 -0.5646 -0.3109 -0.1860
 7843SOL    HW134991   0.383   0.665   4.920 -1.2076  1.0192 -0.9641
 7843SOL    HW234992   0.501   0.691   4.847  1.0995 -2.1134  0.9563
 7844SOL     OW34993   1.022   4.274   2.592 -0.5258 -0.7659  0.1777
 7844SOL    HW134994   1.073   4.288   2.672 -3.4336 -1.6423  2.1634
 7844SOL    HW234995   1.092   4.258   2.528  0.1021  0.8091  0.4749
 7845SOL     OW34996   0.466   1.024   6.720  0.4534 -0.4670  0.0763
 7845SOL    HW134997   0.534   0.998   6.781  1.7231  1.0146 -0.7212
 7845SOL    HW234998   0.505   1.022   6.632  3.4313 -0.2099  1.4044
 7846SOL     OW34999   2.124   0.300   8.447  0.1713 -0.6902 -0.3680
 7846SOL    HW135000   2.107   0.218   8.400  1.6326 -1.2195  0.0137
 7846SOL    HW235001   2.099   0.362   8.379 -0.9376 -0.9015 -0.1517
 7847SOL     OW35002   4.435   3.054   7.786  0.8928  0.3728  0.0226
 7847SOL    HW135003   4.371   3.071   7.855 -0.5228 -2.1257 -0.6593
 7847SOL    HW235004   4.487   3.130   7.811 -1.2841  1.4931  1.2180
 7848SOL     OW35005   2.430   3.152   7.187  0.1148 -0.1416  0.2061
 7848SOL    HW135006   2.434   3.221   7.254  2.0866  0.1465 -0.2077
 7848SOL    HW235007   2.508   3.160   7.132  0.7731  0.5188  1.2127
 7849SOL     OW35008   2.403   2.206   8.073 -0.4653 -0.6167  0.5640
 7849SOL    HW135009   2.497   2.195   8.062 -0.3465  1.1535 -0.2257
 7849SOL    HW235010   2.389   2.196   8.167  3.3118 -0.2491  1.1887
 7850SOL     OW35011   0.700   0.469  15.792  0.3025  0.0630 -0.7950
 7850SOL    HW135012   0.747   0.430  15.719  0.3861 -0.4545 -0.4639
 7850SOL    HW235013   0.776   0.515  15.829 -0.9647  1.5103 -0.0084
 7851SOL     OW35014   3.803   3.899   6.563  0.0269 -0.4277  0.6041
 7851SOL    HW135015   3.888   3.868   6.593  0.8873  0.4689 -0.9365
 7851SOL    HW235016   3.827   3.974   6.508 -3.2971 -1.7869 -2.6968
 7852SOL     OW35017   2.366   0.628   6.789  0.3105  0.0076 -0.4185
 7852SOL    HW135018   2.305   0.702   6.782  1.3844  0.8747 -0.4473
 7852SOL    HW235019   2.331   0.581   6.864 -1.0542 -0.1686 -1.1624
 7853SOL     OW35020   3.217   3.395   8.310 -0.2206  0.5058  0.1904
 7853SOL    HW135021   3.256   3.473   8.271  0.4298 -1.2212 -2.6238
 7853SOL    HW235022   3.123   3.408   8.298 -0.3755 -0.1008  0.7299
 7854SOL     OW35023   4.516   3.530   6.193 -0.1578 -0.2476  0.0906
 7854SOL    HW135024   4.495   3.608   6.243  2.1757  1.1278 -1.0491
 7854SOL    HW235025   4.470   3.467   6.247  0.6407  1.2178  2.4550
 7855SOL     OW35026   3.012   2.803  14.978  0.3186 -0.7971  0.0035
 7855SOL    HW135027   2.949   2.842  15.038  2.5933  0.8515  1.2884
 7855SOL    HW235028   3.074   2.874  14.965  0.5548 -0.7106  1.7236
 7856SOL     OW35029   4.500   2.768  12.519  0.1094 -0.4360  0.5407
 7856SOL    HW135030   4.546   2.692  12.484 -1.5640 -0.7146 -1.0198
 7856SOL    HW235031   4.482   2.820  12.441  0.0357 -0.7742  0.3353
 7857SOL     OW35032   3.003   0.893   6.341  0.2538  1.0721  0.3093
 7857SOL    HW135033   3.042   0.962   6.287 -0.7462  0.2764 -1.4275
 7857SOL    HW235034   2.922   0.930   6.378 -1.9620 -1.7216 -1.7633
 7858SOL     OW35035   1.258   1.308  15.759 -0.7403 -0.4819 -1.0301
 7858SOL    HW135036   1.190   1.325  15.824 -2.1033 -1.0971 -2.2977
 7858SOL    HW235037   1.223   1.241  15.701 -3.7486 -1.6133  2.1353
 7859SOL     OW35038   1.985   0.210  15.373  0.2442  0.2975 -0.2225
 7859SOL    HW135039   1.892   0.208  15.394  0.6215 -3.2257  1.1164
 7859SOL    HW235040   1.996   0.305  15.363 -1.7085  0.5393 -0.0410
 7860SOL     OW35041   2.990   4.113  13.550 -0.0410  0.3431 -0.2589
 7860SOL    HW135042   2.960   4.044  13.491 -0.1824  0.8484 -0.7676
 7860SOL    HW235043   3.029   4.061  13.620 -0.0250  0.6196 -0.0642
 7861SOL     OW35044   4.025   4.572   3.785  0.4968 -0.5713  0.2417
 7861SOL    HW135045   4.066   4.610   3.707  0.8389  1.5456  1.4426
 7861SOL    HW235046   3.938   4.554   3.750  1.1707 -2.2149 -0.5570
 7862SOL     OW35047   1.660   2.877  11.402  0.2576 -0.2654  0.7077
 7862SOL    HW135048   1.734   2.821  11.425  1.1295  1.7962  2.9634
 7862SOL    HW235049   1.593   2.844  11.462 -0.8798 -0.3501 -0.6156
 7863SOL     OW35050   2.677   0.839   1.353  0.2744  0.0896  0.0185
 7863SOL    HW135051   2.712   0.752   1.373 -1.9871 -0.9178 -0.4030
 7863SOL    HW235052   2.738   0.894   1.402  2.0300 -0.1098 -1.9217
 7864SOL     OW35053   0.038   3.569  16.597 -0.5565 -0.4153 -0.4720
 7864SOL    HW135054   0.050   3.537  16.686 -0.9358  0.5662 -0.0657
 7864SOL    HW235055   4.690   3.513  16.591  0.6281 -2.1607  0.5990
 7865SOL     OW35056   0.522   0.085   2.245  0.6401  0.2459 -0.4483
 7865SOL    HW135057   0.610   0.065   2.277  0.2248 -0.5849  0.1759
 7865SOL    HW235058   0.550   0.143   2.174 -2.6158 -0.3079 -2.1890
 7866SOL     OW35059   2.418   0.127   6.658 -0.1723  0.8928 -0.2098
 7866SOL    HW135060   2.360   0.069   6.608  0.4917 -0.5203  0.6598
 7866SOL    HW235061   2.425   0.201   6.598  1.1430  1.2247  0.3536
 7867SOL     OW35062   1.616   4.106   5.059 -0.0287  0.2046  0.2459
 7867SOL    HW135063   1.566   4.184   5.035 -0.4037  0.0317  0.4738
 7867SOL    HW235064   1.610   4.051   4.981 -1.8053  0.1572  0.4333
 7868SOL     OW35065   2.154   1.857   2.135 -0.5810  0.1291  0.0146
 7868SOL    HW135066   2.127   1.946   2.114  0.6009 -0.1730 -2.7291
 7868SOL    HW235067   2.096   1.809   2.076  0.2548  1.8911 -2.2502
 7869SOL     OW35068   0.079   2.876   0.379  0.0404  0.0041  0.9914
 7869SOL    HW135069   0.061   2.798   0.433 -0.6038 -1.0390 -0.7452
 7869SOL    HW235070   0.017   2.942   0.410 -3.7182 -2.0063 -2.2991
 7870SOL     OW35071   2.563   1.696   3.272 -0.0173  0.6418 -0.5399
 7870SOL    HW135072   2.471   1.673   3.255 -0.6902  1.4135  2.0456
 7870SOL    HW235073   2.606   1.704   3.187  1.2269 -0.3583 -0.0119
 7871SOL     OW35074   1.870   1.139  16.651 -0.5976  0.8153 -0.3744
 7871SOL    HW135075   1.949   1.116  16.604 -0.8181 -2.1943  0.6980
 7871SOL    HW235076   1.859   1.075  16.722  1.2694 -0.0881 -0.9240
 7872SOL     OW35077   2.388   1.965   6.502 -0.4977  0.6847  0.1538
 7872SOL    HW135078   2.455   1.924   6.558 -2.4568  0.7010  2.4806
 7872SOL    HW235079   2.413   1.922   6.420  1.1969  0.1142  0.9601
 7873SOL     OW35080   4.698   4.199  14.297 -0.4077  0.0460  0.1997
 7873SOL    HW135081   4.646   4.251  14.358 -0.5454  0.8643 -0.6125
 7873SOL    HW235082   4.648   4.117  14.297  0.4011 -0.4418 -0.5337
 7874SOL     OW35083   3.169   3.490   6.819 -0.4417 -0.3377 -0.0822
 7874SOL    HW135084   3.198   3.401   6.836  0.0534 -0.1231  0.1985
 7874SOL    HW235085   3.179   3.499   6.724  2.2161  0.1326  0.2321
 7875SOL     OW35086   3.164   1.114   1.347  0.2675 -0.1049 -0.2774
 7875SOL    HW135087   3.089   1.171   1.365  0.3983  0.6826 -2.2277
 7875SOL    HW235088   3.192   1.146   1.261 -0.9444  0.0517 -0.6226
 7876SOL     OW35089   3.664   0.206   7.537 -0.2718  0.0373 -0.4637
 7876SOL    HW135090   3.616   0.260   7.601  2.6227 -0.0096  1.7492
 7876SOL    HW235091   3.752   0.243   7.540  0.3481 -1.7840  3.9773
 7877SOL     OW35092   1.218   0.479   1.961  0.0036 -0.2746  0.2327
 7877SOL    HW135093   1.312   0.462   1.967  0.2502  0.9113 -0.2835
 7877SOL    HW235094   1.213   0.501   1.868 -2.6305 -1.4052  0.1209
 7878SOL     OW35095   1.330   2.339  14.634  0.6673 -0.1250  0.5370
 7878SOL    HW135096   1.328   2.432  14.613 -2.1579 -0.0658  0.9725
 7878SOL    HW235097   1.416   2.304  14.614  1.4511  0.5855  2.6505
 7879SOL     OW35098   4.105   1.818  10.198 -0.3196 -0.4430  0.6620
 7879SOL    HW135099   4.165   1.788  10.130  0.8051 -0.4447  1.6464
 7879SOL    HW235100   4.063   1.892  10.155 -0.8719 -0.9238  0.3835
 7880SOL     OW35101   0.311   2.869  17.323 -0.3555  0.4173 -0.0019
 7880SOL    HW135102   0.266   2.920  17.255 -1.3607  1.0353  1.1395
 7880SOL    HW235103   0.405   2.887  17.314 -0.6259  1.0720 -1.5524
 7881SOL     OW35104   2.658   1.932   5.459  0.2605 -0.2024  0.4878
 7881SOL    HW135105   2.582   1.963   5.509  0.4208  1.3354 -0.2193
 7881SOL    HW235106   2.624   1.891   5.379  1.5701  1.1923 -0.7890
 7882SOL     OW35107   1.533   2.845   3.656  0.0646 -0.5994 -0.1278
 7882SOL    HW135108   1.584   2.766   3.670  1.1975  0.4376  1.6404
 7882SOL    HW235109   1.492   2.852   3.742  0.3751  1.8201 -0.1807
 7883SOL     OW35110   0.240   3.705   7.752  0.2146 -0.4443 -0.0461
 7883SOL    HW135111   0.167   3.759   7.722 -0.2056 -1.9197 -1.7102
 7883SOL    HW235112   0.229   3.628   7.696 -0.5062  0.0664 -0.6075
 7884SOL     OW35113   3.056   2.688   6.880 -0.4550 -0.0878 -0.3105
 7884SOL    HW135114   3.099   2.680   6.795 -2.5711  0.4559 -1.4453
 7884SOL    HW235115   3.081   2.611   6.930  1.5893  0.8166  0.0472
 7885SOL     OW35116   2.303   3.355   5.334 -0.8895 -0.2413 -0.4655
 7885SOL    HW135117   2.288   3.365   5.240  2.5286 -1.3162 -1.1195
 7885SOL    HW235118   2.233   3.291   5.345 -0.3428 -0.4187  2.0643
 7886SOL     OW35119   1.235   0.810   6.204 -0.0406  0.0999  0.3295
 7886SOL    HW135120   1.279   0.737   6.247  0.7820  0.5923  0.3170
 7886SOL    HW235121   1.239   0.877   6.272 -0.6363  0.5810 -0.1077
 7887SOL     OW35122   3.145   1.515   8.749  0.0531 -0.2356 -0.1922
 7887SOL    HW135123   3.066   1.559   8.718 -2.2231 -3.8089  0.6454
 7887SOL    HW235124   3.155   1.441   8.689  0.2853  0.0260 -0.4776
 7888SOL     OW35125   3.902   1.919   4.651 -0.2394  0.5040  0.3909
 7888SOL    HW135126   3.816   1.879   4.643  0.7998 -1.0477 -3.4427
 7888SOL    HW235127   3.885   2.006   4.616 -2.3390 -0.3667 -0.7046
 7889SOL     OW35128   4.412   2.685   6.052 -0.1758 -0.3092 -0.1018
 7889SOL    HW135129   4.363   2.744   5.994 -2.0244 -1.7150  0.0203
 7889SOL    HW235130   4.399   2.595   6.023  0.4670 -0.1493 -0.8730
 7890SOL     OW35131   1.797   1.635  11.337  0.2686  0.0408 -0.3866
 7890SOL    HW135132   1.862   1.625  11.267  0.9040  0.6707  0.1156
 7890SOL    HW235133   1.847   1.690  11.397 -1.1931 -0.0578  0.9018
 7891SOL     OW35134   3.272   4.462   2.943  0.1496  0.4691 -0.2859
 7891SOL    HW135135   3.313   4.539   2.982  2.9776 -0.0773 -2.1596
 7891SOL    HW235136   3.303   4.392   2.999 -0.1704  0.2483 -0.3842
 7892SOL     OW35137   1.152   3.680  15.045  0.0753 -0.5498  0.4306
 7892SOL    HW135138   1.092   3.681  15.120  0.2389  0.5649  0.5518
 7892SOL    HW235139   1.101   3.726  14.979  0.4851 -0.1837  0.3708
 7893SOL     OW35140   0.652   3.462   3.867 -1.4878 -0.4618 -0.3005
 7893SOL    HW135141   0.658   3.439   3.775 -1.5512  0.2479 -0.4821
 7893SOL    HW235142   0.614   3.549   3.854 -0.8641  0.0597  1.2962
 7894SOL     OW35143   1.863   0.094   4.430 -0.1532  0.3650  0.4095
 7894SOL    HW135144   1.933   0.029   4.441  1.6463  1.9770 -1.6563
 7894SOL    HW235145   1.900   0.160   4.372 -1.5432 -0.1998 -1.1099
 7895SOL     OW35146   1.722   3.504   8.910  0.2527  0.0230 -0.0949
 7895SOL    HW135147   1.716   3.590   8.867  0.5143 -1.0737 -2.3082
 7895SOL    HW235148   1.769   3.526   8.990 -1.1095  0.2285  0.6616
 7896SOL     OW35149   0.500   2.109   9.185  0.0737  0.0105  0.1261
 7896SOL    HW135150   0.407   2.123   9.203 -0.1040 -3.2375  1.8309
 7896SOL    HW235151   0.537   2.120   9.272  0.0485 -0.8144  0.2400
 7897SOL     OW35152   4.621   4.361   8.631  0.0829 -0.0711  0.3371
 7897SOL    HW135153   4.687   4.294   8.614  0.6546  1.7913 -4.8377
 7897SOL    HW235154   4.647   4.394   8.717 -0.9672 -1.5434  1.2135
 7898SOL     OW35155   3.667   2.440   5.921 -0.4716 -0.5012  0.1833
 7898SOL    HW135156   3.725   2.470   5.851  1.8060 -1.9550  1.4533
 7898SOL    HW235157   3.719   2.362   5.941 -0.3623 -0.8546 -1.4986
 7899SOL     OW35158   2.358   1.834   5.056  0.3965 -0.2764  0.6633
 7899SOL    HW135159   2.419   1.880   4.999 -0.2678 -0.1688  0.0361
 7899SOL    HW235160   2.320   1.768   4.998 -2.0547  0.9651  0.8437
 7900SOL     OW35161   0.487   3.985  15.503 -0.1124  0.0291 -0.1682
 7900SOL    HW135162   0.567   3.969  15.452 -0.3547  1.9232 -1.1216
 7900SOL    HW235163   0.482   4.080  15.508  0.9467 -0.0122  1.5596
 7901SOL     OW35164   4.663   4.723  10.600 -0.4260  0.3630 -0.7362
 7901SOL    HW135165   4.613   4.670  10.538 -2.9075  2.6546 -0.7233
 7901SOL    HW235166   4.700   0.054  10.535 -0.7225 -0.3483 -1.5523
 7902SOL     OW35167   0.711   2.684   6.567  0.3290 -0.5175  0.4522
 7902SOL    HW135168   0.625   2.719   6.590  0.4854  0.7520 -0.9082
 7902SOL    HW235169   0.747   2.743   6.501 -1.9800  1.9836  1.4032
 7903SOL     OW35170   3.091   3.003   2.510  0.0136 -0.5593 -0.0793
 7903SOL    HW135171   3.074   2.972   2.421 -4.6716  1.9541 -0.0142
 7903SOL    HW235172   3.109   2.917   2.549  0.1385 -0.6735 -0.3868
 7904SOL     OW35173   2.714   1.356   1.274 -0.0208 -0.3013  0.4507
 7904SOL    HW135174   2.697   1.413   1.350 -1.7697 -1.2882  0.7905
 7904SOL    HW235175   2.642   1.295   1.261 -0.7429  0.8686 -1.1316
 7905SOL     OW35176   1.547   4.683   3.187 -0.3156 -0.7549  0.6603
 7905SOL    HW135177   1.488   0.015   3.142 -0.2222 -1.1671 -0.0214
 7905SOL    HW235178   1.514   4.596   3.167 -2.2493  0.0547  0.3735
 7906SOL     OW35179   1.476   2.944  12.677 -0.9792  0.2504 -0.4391
 7906SOL    HW135180   1.400   2.939  12.619  0.4442 -3.0738 -2.0536
 7906SOL    HW235181   1.475   3.029  12.720 -0.7512  0.0887 -0.1125
 7907SOL     OW35182   2.420   4.241   4.164  0.6023  0.1971 -0.1279
 7907SOL    HW135183   2.353   4.175   4.183  1.0093  0.3178  1.7449
 7907SOL    HW235184   2.397   4.289   4.085  1.1137 -0.4554 -0.6691
 7908SOL     OW35185   3.966   2.392   3.418  0.2640 -0.4513  0.2274
 7908SOL    HW135186   4.025   2.345   3.359 -1.2474 -1.9444 -0.0791
 7908SOL    HW235187   3.881   2.371   3.380 -0.0457 -0.3456  0.8579
 7909SOL     OW35188   2.950   4.072   1.286  0.2389 -0.1184  0.4952
 7909SOL    HW135189   3.003   4.018   1.228  1.1439 -0.3234  1.5094
 7909SOL    HW235190   2.962   4.163   1.261  0.4066 -0.6525 -1.3675
 7910SOL     OW35191   4.578   3.738  10.751 -0.1896  0.4137  0.5719
 7910SOL    HW135192   4.670   3.740  10.778 -0.7000 -0.1102  2.3444
 7910SOL    HW235193   4.562   3.829  10.776 -1.2703 -0.7493  4.1331
 7911SOL     OW35194   4.583   3.084   3.170 -0.1453 -0.1055  0.2148
 7911SOL    HW135195   4.578   3.006   3.226  1.1444  0.3434  0.9531
 7911SOL    HW235196   4.545   3.149   3.228 -2.4806 -2.1753  0.9975
 7912SOL     OW35197   0.645   1.760   6.506  0.1025 -0.9712  0.0114
 7912SOL    HW135198   0.616   1.669   6.514  4.1617 -2.3886 -1.1397
 7912SOL    HW235199   0.737   1.760   6.532 -0.4470 -0.1065  1.9032
 7913SOL     OW35200   2.131   0.158   7.489  0.7184  0.2408 -0.3547
 7913SOL    HW135201   2.157   0.163   7.582 -0.5098  0.2084 -0.0153
 7913SOL    HW235202   2.213   0.118   7.460  0.8447  0.4709 -0.3148
 7914SOL     OW35203   0.938   4.309  11.916 -0.4147  0.0699 -0.1715
 7914SOL    HW135204   0.985   4.392  11.903  0.4426 -0.5038 -0.6971
 7914SOL    HW235205   1.009   4.247  11.933  0.0108  0.9309  1.2653
 7915SOL     OW35206   2.666   1.934  13.894 -0.2221  0.7112 -0.0819
 7915SOL    HW135207   2.622   1.875  13.954  1.7397 -2.1982 -1.5015
 7915SOL    HW235208   2.613   1.917  13.816  1.3432  0.7038 -1.1402
 7916SOL     OW35209   2.222   1.020   8.265  0.6156 -0.0281  0.3046
 7916SOL    HW135210   2.241   0.949   8.327  1.2218  0.3765  0.5801
 7916SOL    HW235211   2.204   1.088   8.329 -0.1083 -0.0796  0.1526
 7917SOL     OW35212   3.020   3.644   5.802  0.3968 -0.1943  0.2141
 7917SOL    HW135213   3.016   3.726   5.852 -0.7806  0.7273 -1.3560
 7917SOL    HW235214   3.000   3.678   5.714 -0.8890 -0.4247  0.4067
 7918SOL     OW35215   2.382   4.708   0.933 -0.2406  0.1718  0.4267
 7918SOL    HW135216   2.359   4.631   0.881 -1.7926  1.2058 -0.3935
 7918SOL    HW235217   2.298   0.021   0.951 -0.8967 -0.2065 -1.8278
 7919SOL     OW35218   4.348   4.573   1.763  0.3306  0.8241  0.5718
 7919SOL    HW135219   4.359   4.650   1.708  3.1539 -2.0734 -2.9048
 7919SOL    HW235220   4.384   4.598   1.849 -3.2470  0.0145  2.3219
 7920SOL     OW35221   3.657   3.140   8.407 -0.1353 -0.1896 -0.2959
 7920SOL    HW135222   3.562   3.145   8.417  0.1462  0.2473  2.1661
 7920SOL    HW235223   3.678   3.170   8.496 -0.1501  1.5392 -0.8846
 7921SOL     OW35224   1.318   2.083  12.794 -0.4625 -0.3135 -0.1494
 7921SOL    HW135225   1.406   2.104  12.824  0.4103 -1.3761 -1.9931
 7921SOL    HW235226   1.326   2.105  12.701  1.2774  0.1724  0.1180
 7922SOL     OW35227   4.294   1.116   7.659  0.0183  0.1120  0.2062
 7922SOL    HW135228   4.374   1.082   7.619  0.1755 -0.5787  1.0874
 7922SOL    HW235229   4.319   1.203   7.690  1.5671  0.3648 -1.7892
 7923SOL     OW35230   0.971   0.314  12.756 -0.2692 -0.6036 -0.0519
 7923SOL    HW135231   1.016   0.259  12.691 -0.7825 -0.2356 -0.7245
 7923SOL    HW235232   0.902   0.346  12.697  0.4710  2.0925  0.5297
 7924SOL     OW35233   3.017   1.231   0.351 -0.4526 -0.2825  0.5884
 7924SOL    HW135234   3.032   1.136   0.346 -2.2260 -0.6843  2.7006
 7924SOL    HW235235   2.923   1.226   0.368 -0.4105 -0.4799  0.7652
 7925SOL     OW35236   1.814   0.280   5.663 -0.1930 -0.1709 -0.1639
 7925SOL    HW135237   1.855   0.367   5.661 -0.3069 -0.0884  1.0528
 7925SOL    HW235238   1.768   0.281   5.747  0.4639  0.2233  0.1867
 7926SOL     OW35239   1.134   2.126  10.024  0.2340 -0.0531 -0.7663
 7926SOL    HW135240   1.218   2.171  10.013  0.6603 -0.6741 -0.0518
 7926SOL    HW235241   1.120   2.118  10.118  0.4854 -1.0272 -0.8097
 7927SOL     OW35242   4.504   2.370  10.405 -0.1305 -0.2837 -0.4159
 7927SOL    HW135243   4.460   2.350  10.487  1.2097 -0.9231  0.1405
 7927SOL    HW235244   4.431   2.406  10.355 -0.3239  0.3549  0.3250
 7928SOL     OW35245   2.942   3.063  17.075 -0.0995 -0.2486 -0.0951
 7928SOL    HW135246   2.936   3.038  16.982 -1.1029  2.6269 -0.8223
 7928SOL    HW235247   2.867   3.122  17.077 -0.1555 -0.2944 -0.7038
 7929SOL     OW35248   4.115   0.636   2.304  0.2719  0.2803  0.3507
 7929SOL    HW135249   4.079   0.723   2.317 -1.5407 -0.7462  2.2983
 7929SOL    HW235250   4.152   0.641   2.215  1.1891 -1.3745  0.6297
 7930SOL     OW35251   2.850   0.081  12.348  0.1822 -0.8444  0.0723
 7930SOL    HW135252   2.770   0.072  12.297 -1.5898  1.4800  2.4058
 7930SOL    HW235253   2.901   0.006  12.316 -0.2481 -1.1167  0.0191
 7931SOL     OW35254   0.178   3.081  13.710  0.0868  0.4900  0.0310
 7931SOL    HW135255   0.127   3.143  13.762 -1.8922 -2.9466  2.1548
 7931SOL    HW235256   0.248   3.069  13.776 -0.5825 -0.1617  0.6207
 7932SOL     OW35257   2.903   3.662   5.278  0.5208  0.5604 -0.1603
 7932SOL    HW135258   2.998   3.663   5.265  0.3575 -0.8733 -1.4348
 7932SOL    HW235259   2.865   3.622   5.200  2.1280 -2.0815  0.4319
 7933SOL     OW35260   3.907   2.161   4.571  0.2340 -0.2278  0.1854
 7933SOL    HW135261   3.995   2.147   4.537 -0.0456 -0.7662 -0.3074
 7933SOL    HW235262   3.885   2.235   4.513 -0.7537 -1.0390 -0.4869
 7934SOL     OW35263   2.433   3.651   4.311  0.2293  0.1286  0.0252
 7934SOL    HW135264   2.368   3.642   4.380 -0.3772 -1.0989 -0.7124
 7934SOL    HW235265   2.423   3.569   4.263 -1.2328 -0.1378  0.8203
 7935SOL     OW35266   0.236   0.158   1.860 -0.1325 -0.3189 -0.0401
 7935SOL    HW135267   0.321   0.194   1.885 -0.2659  0.5177 -0.7995
 7935SOL    HW235268   0.224   0.081   1.916 -1.5283  0.6075  0.9295
 7936SOL     OW35269   1.290   2.962  15.076  0.2418 -0.0794 -0.3780
 7936SOL    HW135270   1.385   2.970  15.077  0.4168 -2.2435  0.9238
 7936SOL    HW235271   1.264   3.052  15.096 -1.3676 -1.0384  1.8797
 7937SOL     OW35272   4.331   2.348   7.936 -0.4770  0.7169 -0.4062
 7937SOL    HW135273   4.388   2.390   8.000 -0.9306 -0.3465  0.6965
 7937SOL    HW235274   4.245   2.363   7.975 -0.6507 -1.7919  0.1588
 7938SOL     OW35275   4.241   0.059   9.749  0.3141  0.1328  0.0417
 7938SOL    HW135276   4.296   0.134   9.725 -0.9717  0.8247 -0.7641
 7938SOL    HW235277   4.280   4.728   9.686 -0.2051  0.1993 -0.3371
 7939SOL     OW35278   1.087   1.358   2.440  0.3961 -0.0160 -0.3256
 7939SOL    HW135279   1.042   1.290   2.390 -2.1016 -0.6096  2.6881
 7939SOL    HW235280   1.165   1.307   2.461 -1.0671 -2.2729 -0.4109
 7940SOL     OW35281   3.016   4.325   8.858 -0.0115  0.5454  0.0988
 7940SOL    HW135282   2.938   4.292   8.902  0.1333  1.3282  0.9509
 7940SOL    HW235283   2.986   4.403   8.812 -1.1888  0.4623  0.7359
 7941SOL     OW35284   3.303   4.510  15.505  0.1912 -0.1164  0.2581
 7941SOL    HW135285   3.319   4.604  15.495 -0.3899  0.0638  1.0368
 7941SOL    HW235286   3.279   4.509  15.597 -0.1043 -0.8253  0.1759
 7942SOL     OW35287   0.847   0.976  14.699 -0.2742 -0.1345  0.1631
 7942SOL    HW135288   0.783   0.925  14.650 -1.3104 -0.2198  1.6031
 7942SOL    HW235289   0.904   0.906  14.731 -1.1474 -0.1300  1.7750
 7943SOL     OW35290   1.418   3.117  12.268 -0.1981 -0.0637 -0.6402
 7943SOL    HW135291   1.384   3.167  12.342  0.2053 -0.0471 -0.4677
 7943SOL    HW235292   1.358   3.043  12.262 -2.0225  1.1897  1.9091
 7944SOL     OW35293   2.054   4.273   3.613  0.2457 -0.2163  0.3123
 7944SOL    HW135294   2.056   4.238   3.702  2.2857 -0.8260  0.0259
 7944SOL    HW235295   2.118   4.218   3.567  0.6772  0.8240 -0.3392
 7945SOL     OW35296   4.293   1.471   4.244 -0.4815 -0.5677  0.2668
 7945SOL    HW135297   4.282   1.395   4.186 -2.2824 -1.5263  1.8739
 7945SOL    HW235298   4.203   1.499   4.255  0.0227  1.4726 -0.8580
 7946SOL     OW35299   2.078   2.852   9.493 -0.4236 -0.2463  0.0887
 7946SOL    HW135300   2.010   2.806   9.443 -0.9156  1.4415 -0.7850
 7946SOL    HW235301   2.140   2.872   9.424  0.7584 -0.1534  1.1857
 7947SOL     OW35302   3.485   0.919   2.935 -0.0839  0.1534  0.1904
 7947SOL    HW135303   3.425   0.861   2.982  2.0088 -1.5324  0.7785
 7947SOL    HW235304   3.421   0.967   2.882  0.0544  0.1218 -0.0058
 7948SOL     OW35305   1.652   0.015   4.976 -0.2093 -0.2952 -0.9647
 7948SOL    HW135306   1.582   4.709   5.031 -0.0255  0.2956 -0.3559
 7948SOL    HW235307   1.625   0.098   4.937  0.9513 -0.7051 -2.6858
 7949SOL     OW35308   0.141   3.666   4.396 -0.1992  0.5518 -0.2012
 7949SOL    HW135309   0.046   3.661   4.389 -0.1966 -0.3533  0.3300
 7949SOL    HW235310   0.158   3.727   4.468 -1.1166  0.5238  0.0413
 7950SOL     OW35311   2.989   2.669   1.767 -0.1458  0.1453 -0.3931
 7950SOL    HW135312   3.076   2.633   1.752  0.3721  0.4726  1.7854
 7950SOL    HW235313   2.986   2.664   1.863 -1.9485  1.9280 -0.3534
 7951SOL     OW35314   1.071   2.617   6.506  0.0792 -0.2957  0.0683
 7951SOL    HW135315   1.098   2.707   6.490  3.8568 -1.3794  0.3102
 7951SOL    HW235316   1.023   2.641   6.585 -1.6535 -1.4414 -0.6500
 7952SOL     OW35317   1.224   4.009   4.551 -0.4783 -0.1302 -0.0268
 7952SOL    HW135318   1.318   4.010   4.572 -0.1977  0.5305 -1.3394
 7952SOL    HW235319   1.213   3.915   4.564 -1.5628  0.0871  0.5842
 7953SOL     OW35320   2.605   1.765   8.807 -0.4219  0.1008  0.0315
 7953SOL    HW135321   2.643   1.833   8.864  0.1370 -2.3189  2.5368
 7953SOL    HW235322   2.646   1.787   8.724 -2.0551 -0.2676 -0.8667
 7954SOL     OW35323   0.392   0.809  17.092 -0.2488 -0.2415 -0.1676
 7954SOL    HW135324   0.456   0.741  17.071  0.8541  1.5288 -2.4981
 7954SOL    HW235325   0.409   0.854  17.009 -0.6945  0.6110  0.2133
 7955SOL     OW35326   1.455   0.804   0.493 -0.8950 -0.4403 -0.2380
 7955SOL    HW135327   1.372   0.817   0.538 -0.1538  0.1692  0.9444
 7955SOL    HW235328   1.438   0.725   0.442 -0.2227  0.0202 -1.1795
 7956SOL     OW35329   3.614   1.439   5.192 -0.5619 -0.0616 -0.5103
 7956SOL    HW135330   3.557   1.400   5.125 -1.2165 -3.7057  2.1456
 7956SOL    HW235331   3.592   1.399   5.276  1.0319 -2.0622 -1.0190
 7957SOL     OW35332   1.142   4.713  17.256  0.6180  0.8186 -0.6726
 7957SOL    HW135333   1.236   4.717  17.237  0.6180  0.8701 -0.6621
 7957SOL    HW235334   1.133   0.058  17.316  1.1731 -0.1015  0.5236
 7958SOL     OW35335   1.605   0.514  11.150 -0.1695  0.7847 -0.2066
 7958SOL    HW135336   1.611   0.445  11.084 -1.0716  0.6160 -0.0998
 7958SOL    HW235337   1.687   0.502  11.197  0.7221  0.4543 -1.8355
 7959SOL     OW35338   2.070   3.880   6.987  0.8902  0.1529  0.0650
 7959SOL    HW135339   1.995   3.922   6.945 -0.3732 -1.5732  0.5914
 7959SOL    HW235340   2.136   3.880   6.917  0.9363  3.1022  0.0976
 7960SOL     OW35341   3.202   1.636   6.405 -0.1444 -0.3000 -0.2136
 7960SOL    HW135342   3.259   1.677   6.469  0.5060 -0.2169 -0.8560
 7960SOL    HW235343   3.127   1.692   6.424 -1.8069 -2.3129 -0.7334
 7961SOL     OW35344   0.558   0.191  14.027  0.4760  0.3648 -0.1909
 7961SOL    HW135345   0.575   0.201  13.934 -2.5218  1.3348 -0.6379
 7961SOL    HW235346   0.632   0.236  14.068  0.2991  1.2918 -0.8827
 7962SOL     OW35347   2.529   0.655  16.053 -0.4069  0.2088  0.9856
 7962SOL    HW135348   2.588   0.613  16.116 -0.3009 -2.6688 -0.9902
 7962SOL    HW235349   2.593   0.663  15.982 -2.6629  1.1548 -0.9658
 7963SOL     OW35350   4.233   1.041   8.034 -0.2207  0.0878 -0.4549
 7963SOL    HW135351   4.168   1.030   8.104 -0.2325  2.1618 -0.1585
 7963SOL    HW235352   4.172   1.052   7.961 -2.0052  1.0767  1.1720
 7964SOL     OW35353   0.652   3.094   0.665  0.2910  0.3281  0.0268
 7964SOL    HW135354   0.670   3.027   0.598 -0.9422 -0.1579  0.1727
 7964SOL    HW235355   0.559   3.078   0.676  0.4540 -0.9769 -0.4420
 7965SOL     OW35356   4.536   0.066  14.757  0.1303  0.2894 -0.3878
 7965SOL    HW135357   4.523   0.160  14.748  1.1843  0.5239  0.4766
 7965SOL    HW235358   4.497   0.030  14.677 -0.9362 -1.0874  0.7527
 7966SOL     OW35359   3.164   1.412   7.977 -0.3087  0.0518  0.0778
 7966SOL    HW135360   3.231   1.461   7.931  1.1826 -0.7019  1.4551
 7966SOL    HW235361   3.146   1.352   7.904 -0.2490  0.5350 -0.3325
 7967SOL     OW35362   2.628   4.205   3.123 -0.7967  1.0248  0.2213
 7967SOL    HW135363   2.653   4.296   3.116 -0.3104  0.9580  1.0463
 7967SOL    HW235364   2.543   4.209   3.079 -1.3085  0.6642  1.1581
 7968SOL     OW35365   2.819   3.300  16.312 -0.7995  0.4608  0.2409
 7968SOL    HW135366   2.902   3.252  16.309 -0.5893  0.8196  0.2191
 7968SOL    HW235367   2.836   3.364  16.243  1.3752  1.0501  1.3245
 7969SOL     OW35368   0.955   0.025   7.007 -0.5160  0.3089  0.7356
 7969SOL    HW135369   0.919   4.716   7.087 -0.9291  0.6056  0.6882
 7969SOL    HW235370   1.036   4.702   7.002  0.3478  1.8997 -2.1084
 7970SOL     OW35371   4.511   4.669  12.817  0.2073  0.4062 -0.0914
 7970SOL    HW135372   4.429   4.647  12.860  0.5337 -1.1136 -0.2231
 7970SOL    HW235373   4.574   4.606  12.854  0.6734  1.1339  0.3563
 7971SOL     OW35374   0.224   0.418   3.918  0.6013  1.0775  0.0783
 7971SOL    HW135375   0.170   0.489   3.883 -0.2467  0.0262 -0.7385
 7971SOL    HW235376   0.300   0.434   3.863  1.1914  3.0450  1.4585
 7972SOL     OW35377   4.526   3.731   4.213 -0.2875  0.1532 -0.2593
 7972SOL    HW135378   4.534   3.685   4.297 -1.8245 -1.2940 -0.9178
 7972SOL    HW235379   4.598   3.684   4.171  0.0221  0.4303 -0.0384
 7973SOL     OW35380   4.039   3.578   3.980 -0.8037  0.7902  0.1468
 7973SOL    HW135381   3.968   3.596   4.041 -1.2088  0.2228 -0.1617
 7973SOL    HW235382   4.118   3.584   4.035 -1.1027  0.7558  0.5832
 7974SOL     OW35383   3.241   3.225   2.139  0.0620 -0.0533 -0.1900
 7974SOL    HW135384   3.323   3.214   2.091  0.3203 -0.4975  0.3512
 7974SOL    HW235385   3.234   3.136   2.172  1.9522  0.4552  1.5558
 7975SOL     OW35386   1.562   3.397   5.529  0.1318  0.2470 -0.6284
 7975SOL    HW135387   1.517   3.467   5.481 -1.0284  1.1973  1.8536
 7975SOL    HW235388   1.530   3.322   5.480 -3.6740  0.1443  2.0088
 7976SOL     OW35389   0.580   4.518  10.839 -0.4021 -0.5986  0.5905
 7976SOL    HW135390   0.519   4.586  10.867 -0.8505 -1.0729  0.7549
 7976SOL    HW235391   0.662   4.563  10.860 -1.0154  1.4207 -1.3072
 7977SOL     OW35392   1.102   0.823   5.488  0.3643  0.1464 -0.4589
 7977SOL    HW135393   1.012   0.823   5.521  0.8883  1.5459  0.9228
 7977SOL    HW235394   1.095   0.882   5.413 -1.1334  0.6905  0.1212
 7978SOL     OW35395   4.137   0.983   5.027  0.0491  0.4115 -0.1546
 7978SOL    HW135396   4.228   0.952   5.023 -1.0944 -2.9171 -0.5516
 7978SOL    HW235397   4.123   1.025   4.943 -1.6993  0.0991 -0.0157
 7979SOL     OW35398   2.248   2.655   3.759 -0.3599 -0.2853  0.1368
 7979SOL    HW135399   2.230   2.609   3.841  0.4059  0.8090  0.9228
 7979SOL    HW235400   2.212   2.741   3.781  1.0098  0.3883 -0.2290
 7980SOL     OW35401   0.661   4.017  10.435  0.3860  0.7461 -0.4913
 7980SOL    HW135402   0.586   3.969  10.471  1.4329 -0.2875  0.3021
 7980SOL    HW235403   0.622   4.087  10.384 -1.1973  0.6926  0.6328
 7981SOL     OW35404   4.186   3.243   4.901  0.0386  0.1993 -0.3212
 7981SOL    HW135405   4.177   3.159   4.856 -2.1137 -0.0610  0.6076
 7981SOL    HW235406   4.267   3.225   4.950 -0.4646  0.4570  0.5818
 7982SOL     OW35407   2.774   4.414   5.084 -0.1427 -0.2182  0.2633
 7982SOL    HW135408   2.715   4.481   5.118 -0.5592 -1.7910  2.6305
 7982SOL    HW235409   2.763   4.343   5.148 -1.5384  0.5491  0.8901
 7983SOL     OW35410   2.516   0.866   8.693  0.2806 -0.1071  0.0676
 7983SOL    HW135411   2.580   0.802   8.722  0.2456  0.3253  1.0684
 7983SOL    HW235412   2.431   0.837   8.726  0.0097 -0.0949 -0.6099
 7984SOL     OW35413   1.214   3.378   9.560  0.3175  0.4478 -0.5017
 7984SOL    HW135414   1.286   3.376   9.496 -0.0562  3.8182 -1.0293
 7984SOL    HW235415   1.272   3.363   9.634 -0.9529  1.9933  0.7988
 7985SOL     OW35416   2.621   1.334   7.636  0.0655  0.0768 -0.3445
 7985SOL    HW135417   2.626   1.242   7.662 -1.4511 -0.2365 -1.1636
 7985SOL    HW235418   2.527   1.352   7.643  0.1182  1.5021 -2.9445
 7986SOL     OW35419   1.802   1.122  10.254  0.1918 -0.0352  0.1609
 7986SOL    HW135420   1.717   1.129  10.212 -0.9108  2.4821  2.8382
 7986SOL    HW235421   1.866   1.128  10.182  1.3640  0.7344  1.2641
 7987SOL     OW35422   3.615   1.067  15.102  0.1433  0.0709  0.1727
 7987SOL    HW135423   3.612   1.013  15.181 -0.2961 -1.9401 -1.2138
 7987SOL    HW235424   3.685   1.129  15.123  0.3473 -0.6051  1.5122
 7988SOL     OW35425   1.175   2.873   9.331 -0.3770 -0.3585 -0.2969
 7988SOL    HW135426   1.235   2.946   9.317 -1.4996  0.7928  0.8843
 7988SOL    HW235427   1.121   2.894   9.407  0.3459 -1.1201  0.4177
 7989SOL     OW35428   2.981   4.709   8.173 -0.3853  0.1370 -0.4515
 7989SOL    HW135429   2.899   0.028   8.185 -0.4694  0.0038 -0.4969
 7989SOL    HW235430   2.962   4.663   8.091 -2.2928 -0.0246  0.0851
 7990SOL     OW35431   2.782   0.312   7.349  0.1540 -0.1769  0.1563
 7990SOL    HW135432   2.811   0.337   7.261  0.3758 -0.6870  0.0884
 7990SOL    HW235433   2.866   0.279   7.381  0.7192  0.6373 -0.4550
 7991SOL     OW35434   0.508   1.792   8.341 -0.6826 -0.1981 -0.6056
 7991SOL    HW135435   0.472   1.710   8.377  0.8023 -1.2917 -1.6074
 7991SOL    HW235436   0.600   1.770   8.328 -0.9717 -1.5514 -0.3883
 7992SOL     OW35437   0.324   0.241   7.199  0.0468  0.0485  0.0501
 7992SOL    HW135438   0.352   0.160   7.243  1.5174  0.7056  0.3227
 7992SOL    HW235439   0.403   0.296   7.200  0.0868 -0.0450  1.9813
 7993SOL     OW35440   2.780   2.882   6.246 -0.1139 -0.2251 -0.3349
 7993SOL    HW135441   2.698   2.884   6.196  1.0287 -0.3685 -2.2287
 7993SOL    HW235442   2.747   2.900   6.333  0.1040  1.6543 -0.6456
 7994SOL     OW35443   3.075   4.041  12.512 -0.0820 -0.2537  0.2092
 7994SOL    HW135444   3.061   4.078  12.598  0.5023  1.1420 -0.3062
 7994SOL    HW235445   3.053   4.117  12.458 -1.4559 -2.4579 -2.3459
 7995SOL     OW35446   1.953   1.299   3.652  0.9543 -0.9728 -0.5571
 7995SOL    HW135447   1.899   1.221   3.646 -0.3568 -0.0588 -0.6706
 7995SOL    HW235448   1.960   1.318   3.745 -0.9218  1.9328 -1.0016
 7996SOL     OW35449   4.073   0.836   8.642  0.0442 -0.5911  0.0209
 7996SOL    HW135450   4.035   0.752   8.666 -2.2932  0.4071 -0.1614
 7996SOL    HW235451   4.164   0.826   8.671  0.1219  0.0919  0.0320
 7997SOL     OW35452   4.155   3.428  15.488  0.1377  0.1900 -0.1705
 7997SOL    HW135453   4.222   3.385  15.540 -1.0488 -2.2813 -0.6765
 7997SOL    HW235454   4.143   3.502  15.548 -2.2692 -1.6734  1.6449
 7998SOL     OW35455   4.542   3.618   2.251  0.3941 -0.2832 -0.2333
 7998SOL    HW135456   4.594   3.660   2.182  1.8982  0.1293  1.1672
 7998SOL    HW235457   4.488   3.690   2.285  2.1881  1.1164 -0.3647
 7999SOL     OW35458   1.926   2.855   7.679 -0.3283  0.6708 -0.0012
 7999SOL    HW135459   1.886   2.892   7.601 -1.0675 -0.4227 -0.1391
 7999SOL    HW235460   1.850   2.823   7.728  0.1924 -1.9237 -0.8953
 8000SOL     OW35461   2.681   3.149  17.595 -0.2861  0.2553 -0.5448
 8000SOL    HW135462   2.738   3.073  17.588  0.8228  1.2061 -1.7543
 8000SOL    HW235463   2.597   3.125  17.635  0.8868  0.2414  1.8942
 8001SOL     OW35464   0.335   3.391   1.802  0.1948 -0.1045 -0.0774
 8001SOL    HW135465   0.276   3.462   1.775  0.7423  0.8036  1.0639
 8001SOL    HW235466   0.331   3.326   1.732 -1.3919 -0.4914  0.3785
 8002SOL     OW35467   2.920   1.677   3.219 -0.2235  0.1968 -0.0859
 8002SOL    HW135468   2.949   1.758   3.177 -0.0816  0.6044  0.8054
 8002SOL    HW235469   2.914   1.631   3.135  2.2780 -0.0544 -0.1115
 8003SOL     OW35470   0.376   1.808   2.887 -0.4269 -0.2403  0.1081
 8003SOL    HW135471   0.436   1.759   2.943  0.4124 -0.1102 -0.6628
 8003SOL    HW235472   0.314   1.825   2.957  0.2743 -0.5680  0.8077
 8004SOL     OW35473   2.484   0.095   4.484  0.5244 -0.0171 -0.3554
 8004SOL    HW135474   2.501   0.169   4.426 -2.5262  0.2667 -0.9099
 8004SOL    HW235475   2.481   0.019   4.426  0.5194 -0.2459 -0.0592
 8005SOL     OW35476   2.696   3.341  17.367 -0.0054 -0.4415  0.2875
 8005SOL    HW135477   2.714   3.276  17.435  0.1441  0.5008  1.1470
 8005SOL    HW235478   2.632   3.397  17.411  0.0473  0.2655 -0.5329
 8006SOL     OW35479   4.261   3.734   3.794  0.2256  0.0493  0.5204
 8006SOL    HW135480   4.351   3.752   3.820 -0.1462  2.3540  0.2463
 8006SOL    HW235481   4.223   3.701   3.875  0.9248 -1.1174  0.3738
 8007SOL     OW35482   3.269   4.316   8.146  0.3173  0.7295  0.6300
 8007SOL    HW135483   3.217   4.321   8.227 -4.5102 -1.2087 -2.3093
 8007SOL    HW235484   3.340   4.376   8.165  0.1304  1.4528 -0.9326
 8008SOL     OW35485   2.097   4.088   2.261  0.0884 -0.0917 -0.0841
 8008SOL    HW135486   2.154   4.082   2.337  2.8779  0.7716 -2.1140
 8008SOL    HW235487   2.012   4.081   2.303  1.5530 -1.0754  2.6827
 8009SOL     OW35488   1.204   3.280   3.130  0.2435  0.0749  0.0230
 8009SOL    HW135489   1.289   3.259   3.170  0.4067  1.2173  0.3009
 8009SOL    HW235490   1.186   3.197   3.087  2.6074 -0.0809 -0.6889
 8010SOL     OW35491   0.149   4.028   6.217  0.1328 -0.2228 -0.7108
 8010SOL    HW135492   0.234   4.071   6.231 -0.5280  0.9838 -0.4675
 8010SOL    HW235493   0.083   4.091   6.245 -1.4981 -1.1268 -2.5144
 8011SOL     OW35494   0.407   3.986   8.556  0.3159 -0.1208 -0.7340
 8011SOL    HW135495   0.377   4.038   8.482 -1.6316 -1.1656 -0.6577
 8011SOL    HW235496   0.325   3.966   8.602  1.1369 -0.3268  0.6447
 8012SOL     OW35497   1.935   2.555   5.049  0.3628 -0.0405 -0.4777
 8012SOL    HW135498   1.915   2.628   4.991 -0.5039  1.9894  2.3165
 8012SOL    HW235499   1.958   2.603   5.129 -2.2026  0.3725  0.0219
 8013SOL     OW35500   4.588   0.633   7.214 -0.3575 -0.0866  0.1072
 8013SOL    HW135501   4.520   0.627   7.148 -0.9618 -2.2757  0.9244
 8013SOL    HW235502   4.545   0.660   7.296 -0.6984 -0.2302 -0.0271
 8014SOL     OW35503   3.015   3.395  14.125 -0.4910  0.1619  0.2907
 8014SOL    HW135504   2.928   3.433  14.122 -0.2235  0.8616  1.7552
 8014SOL    HW235505   2.997   3.305  14.154 -2.2778  0.6670  0.7095
 8015SOL     OW35506   4.567   2.657   9.662 -0.3556  0.3813 -0.7408
 8015SOL    HW135507   4.572   2.706   9.744  1.1023  2.1214 -1.8642
 8015SOL    HW235508   4.626   2.698   9.599 -0.3355 -0.4869 -1.2915
 8016SOL     OW35509   4.428   2.424   6.882 -0.5713 -0.2144  0.7350
 8016SOL    HW135510   4.468   2.511   6.880  2.4483 -1.5869  1.4141
 8016SOL    HW235511   4.432   2.414   6.787  0.5838 -0.9645  0.8569
 8017SOL     OW35512   4.095   3.419   5.055 -0.5320  0.3039 -0.1219
 8017SOL    HW135513   4.167   3.418   5.118 -0.5093  0.6006 -0.1436
 8017SOL    HW235514   4.117   3.350   4.993 -0.5665  1.0138 -0.9226
 8018SOL     OW35515   1.671   4.083   3.544 -0.1909  0.3385  0.0320
 8018SOL    HW135516   1.586   4.039   3.548  0.4435 -0.6931  2.0139
 8018SOL    HW235517   1.729   4.007   3.531 -1.4475 -0.4442 -0.9351
 8019SOL     OW35518   0.100   0.356   8.340 -0.2729  0.3429  0.7411
 8019SOL    HW135519   0.131   0.431   8.289  0.6059 -0.8209 -0.4338
 8019SOL    HW235520   0.012   0.382   8.368 -0.8722 -1.4634  0.5657
 8020SOL     OW35521   4.006   4.022  11.446  0.4840 -0.3445 -0.1404
 8020SOL    HW135522   4.004   4.112  11.415  0.5489 -0.2311  0.1872
 8020SOL    HW235523   4.054   3.984  11.373 -0.7770 -3.4987  0.6669
 8021SOL     OW35524   1.552   0.230   4.817 -0.3357 -0.0605  0.0292
 8021SOL    HW135525   1.542   0.300   4.753  1.2347  0.1497  0.0111
 8021SOL    HW235526   1.485   0.176   4.775 -0.7904 -0.4407  1.2383
 8022SOL     OW35527   0.591   0.624  13.182  0.0086 -0.3049  0.1221
 8022SOL    HW135528   0.587   0.715  13.151  2.7567 -0.4092 -0.4819
 8022SOL    HW235529   0.552   0.635  13.269 -2.3256  0.2783 -0.9835
 8023SOL     OW35530   2.597   3.632  17.644  0.2222 -0.1546 -0.7056
 8023SOL    HW135531   2.585   3.569  17.716  1.3077 -1.7072 -1.8724
 8023SOL    HW235532   2.552   3.574  17.582  0.3506  1.3482 -2.1874
 8024SOL     OW35533   3.684   2.579   2.825  0.0863  0.1909 -0.2060
 8024SOL    HW135534   3.675   2.585   2.730 -0.1296  1.4306 -0.1096
 8024SOL    HW235535   3.593   2.561   2.846 -0.4063  0.7313 -1.8905
 8025SOL     OW35536   3.333   0.939   2.569  0.0324  0.1912  0.0546
 8025SOL    HW135537   3.329   1.012   2.631  0.5801 -0.9526  1.4306
 8025SOL    HW235538   3.423   0.954   2.539 -1.3055  5.7436 -1.1690
 8026SOL     OW35539   0.964   4.519   1.512 -0.1361 -0.3087 -0.1165
 8026SOL    HW135540   0.946   4.478   1.597  0.2352 -0.2681 -0.0195
 8026SOL    HW235541   0.882   4.562   1.490 -0.8772 -1.5415  0.2144
 8027SOL     OW35542   0.871   1.046   1.683 -0.2264 -0.2499  0.1502
 8027SOL    HW135543   0.958   1.046   1.643 -0.5546  0.0170 -0.5664
 8027SOL    HW235544   0.824   1.004   1.611  0.5740 -3.8792  1.7286
 8028SOL     OW35545   1.780   1.184  14.401  0.2107 -0.1775  0.3708
 8028SOL    HW135546   1.862   1.152  14.438  0.4477  1.7440  1.5387
 8028SOL    HW235547   1.718   1.159  14.470 -2.3733 -1.0450 -2.2707
 8029SOL     OW35548   0.517   3.215   4.894 -0.1280  0.4575  0.1279
 8029SOL    HW135549   0.481   3.168   4.970  1.0633 -0.1792  0.2947
 8029SOL    HW235550   0.534   3.149   4.828  0.4070 -1.2132  1.9397
 8030SOL     OW35551   3.253   1.622   3.529 -0.1396  0.5388  0.1230
 8030SOL    HW135552   3.325   1.602   3.589 -1.9867  1.3663  2.6474
 8030SOL    HW235553   3.291   1.675   3.460  1.9027 -1.8721 -0.5687
 8031SOL     OW35554   0.086   3.444   1.049  0.3328  0.7741 -0.1064
 8031SOL    HW135555   0.118   3.524   1.008 -1.2238  0.9307 -0.9986
 8031SOL    HW235556   0.164   3.415   1.097  0.4735  0.1717 -0.7014
 8032SOL     OW35557   2.981   3.495  16.112 -0.4213  0.4435  0.0571
 8032SOL    HW135558   3.057   3.543  16.145  1.5717 -2.6515 -0.0446
 8032SOL    HW235559   2.912   3.548  16.151 -2.0819 -1.1869 -0.6570
 8033SOL     OW35560   3.070   3.685   6.353 -0.3423  0.5216  0.3654
 8033SOL    HW135561   3.090   3.733   6.273  1.0329  0.2289  0.5362
 8033SOL    HW235562   2.976   3.674   6.338 -0.0955 -0.5205 -0.4217
 8034SOL     OW35563   0.581   1.752   4.831 -0.3478  0.5391  0.2341
 8034SOL    HW135564   0.600   1.775   4.922 -4.7141  1.3213  0.9487
 8034SOL    HW235565   0.501   1.700   4.845 -1.3210  1.9464 -0.0522
 8035SOL     OW35566   3.209   0.193   0.008 -0.2518 -0.2114  0.0515
 8035SOL    HW135567   3.177   0.152   0.088 -0.0050 -0.9697 -0.2341
 8035SOL    HW235568   3.230   0.278   0.046  1.0376 -0.8876  0.8791
 8036SOL     OW35569   1.462   3.474   4.070  0.1196 -0.0998  0.1528
 8036SOL    HW135570   1.380   3.524   4.077  0.2193  0.0865  0.0078
 8036SOL    HW235571   1.502   3.490   4.156  0.1785 -1.5042  0.3727
 8037SOL     OW35572   2.200   3.869  11.700 -0.9770  0.4103  0.3511
 8037SOL    HW135573   2.203   3.914  11.616 -0.1816  2.2316  1.3690
 8037SOL    HW235574   2.269   3.906  11.755 -1.2427  0.6846  0.4955
 8038SOL     OW35575   0.561   3.349   6.734  0.4057  0.3925  0.5265
 8038SOL    HW135576   0.532   3.269   6.691  1.4896  0.9235 -1.2076
 8038SOL    HW235577   0.486   3.408   6.724 -0.8687 -0.9555  2.0500
 8039SOL     OW35578   0.537   0.350   5.637  0.1432  0.5126 -0.1354
 8039SOL    HW135579   0.581   0.291   5.575 -0.1991 -0.6771  0.7570
 8039SOL    HW235580   0.562   0.437   5.605 -0.2588  1.1743  1.3879
 8040SOL     OW35581   0.370   1.091   6.157 -0.0476  0.0079 -0.0484
 8040SOL    HW135582   0.329   1.123   6.076  1.0171  0.4468 -0.4061
 8040SOL    HW235583   0.360   1.169   6.213 -0.6663  0.6942 -1.1072
 8041SOL     OW35584   4.194   1.553   5.340 -0.2441  0.2394 -0.0486
 8041SOL    HW135585   4.243   1.609   5.399 -1.2685  1.3030 -0.2076
 8041SOL    HW235586   4.117   1.607   5.319 -1.0317 -0.2084  1.6835
 8042SOL     OW35587   0.605   2.019   0.720  1.1349 -0.0208  0.0657
 8042SOL    HW135588   0.664   1.954   0.759  0.7800  0.0885  0.7916
 8042SOL    HW235589   0.543   2.012   0.793 -0.9296  0.7571 -1.6033
 8043SOL     OW35590   3.067   4.698   5.287 -0.3691  0.1966 -0.0651
 8043SOL    HW135591   3.110   4.627   5.238 -1.1204  0.2319 -0.7729
 8043SOL    HW235592   3.132   4.729   5.351  0.6844  1.2431 -1.6254
 8044SOL     OW35593   4.066   0.703   4.300 -0.2344 -0.1813  0.5887
 8044SOL    HW135594   4.137   0.670   4.246  2.0931  2.2499  2.1432
 8044SOL    HW235595   3.993   0.718   4.240 -1.9345 -1.1590  2.4238
 8045SOL     OW35596   1.912   0.147   9.683  0.4576  0.9503 -0.4730
 8045SOL    HW135597   1.959   0.064   9.674 -0.0808  0.4286  1.6184
 8045SOL    HW235598   1.967   0.187   9.751  0.1003 -0.1052  0.4342
 8046SOL     OW35599   1.344   4.664   5.949 -0.2880  0.0967 -0.6880
 8046SOL    HW135600   1.346   4.573   5.918  1.3077 -0.4883  1.1583
 8046SOL    HW235601   1.401   4.658   6.025  0.0591 -0.3343 -0.9832
 8047SOL     OW35602   0.633   3.132   7.639 -0.3529  0.1322 -0.2861
 8047SOL    HW135603   0.617   3.185   7.717 -0.8399 -1.9334  1.0080
 8047SOL    HW235604   0.618   3.051   7.687 -3.2226  0.6641 -0.3255
 8048SOL     OW35605   0.463   3.579   8.278  0.4044 -0.0912 -0.1853
 8048SOL    HW135606   0.528   3.629   8.229  0.2927 -0.1433 -0.3901
 8048SOL    HW235607   0.451   3.640   8.351 -2.0431 -0.3878 -0.3352
 8049SOL     OW35608   0.640   1.207  16.651 -0.2983 -0.3257 -0.1584
 8049SOL    HW135609   0.724   1.166  16.630 -1.1426 -0.6616 -2.8994
 8049SOL    HW235610   0.649   1.226  16.745 -0.6805  2.8723 -0.7807
 8050SOL     OW35611   3.093   4.332   2.209 -0.0463  0.3083  0.1147
 8050SOL    HW135612   3.080   4.360   2.118 -0.4445 -1.8578 -0.5008
 8050SOL    HW235613   3.006   4.353   2.242 -0.4175  1.9493 -1.9163
 8051SOL     OW35614   1.444   3.619  11.764 -0.0901  0.6548  0.2145
 8051SOL    HW135615   1.446   3.533  11.806  0.3126  0.3056 -0.5181
 8051SOL    HW235616   1.531   3.619  11.725 -0.8072  3.0312 -1.4461
 8052SOL     OW35617   0.246   3.084   1.343 -0.3084  0.1980 -0.1062
 8052SOL    HW135618   0.315   3.114   1.284  0.4789 -1.6082 -0.0994
 8052SOL    HW235619   0.239   2.991   1.324 -1.0013  0.4099 -0.8943
 8053SOL     OW35620   1.075   3.089   9.501 -0.6765 -0.0459 -0.1012
 8053SOL    HW135621   1.115   3.105   9.587  0.7974 -0.5869 -0.6788
 8053SOL    HW235622   1.124   3.156   9.453  0.4006  0.6003  1.8971
 8054SOL     OW35623   3.891   1.230   7.742  0.1030  0.2654  0.1888
 8054SOL    HW135624   3.892   1.139   7.713  1.4727 -0.1206  1.4418
 8054SOL    HW235625   3.825   1.275   7.689 -0.0551  0.7918  0.8334
 8055SOL     OW35626   2.194   4.126   7.656  0.2240  0.2128 -0.1619
 8055SOL    HW135627   2.255   4.072   7.606  1.2194 -0.7639  2.0710
 8055SOL    HW235628   2.188   4.199   7.596 -0.3847 -0.2737 -0.6846
 8056SOL     OW35629   4.060   1.286   1.385 -0.1633 -0.0223 -0.1284
 8056SOL    HW135630   3.974   1.262   1.351  0.2581 -1.2186 -0.3660
 8056SOL    HW235631   4.043   1.285   1.479 -2.4755 -1.0810 -0.5554
 8057SOL     OW35632   2.866   1.955   1.783 -0.2151  0.2538  0.1897
 8057SOL    HW135633   2.863   2.024   1.716  1.3003 -0.8431 -0.9986
 8057SOL    HW235634   2.774   1.955   1.809 -0.1065 -0.2660  0.5607
 8058SOL     OW35635   0.504   3.780   7.744  0.2396  0.3287 -0.2008
 8058SOL    HW135636   0.550   3.706   7.705 -0.2485  0.7467 -1.5511
 8058SOL    HW235637   0.416   3.743   7.750  0.5465 -0.5986 -1.3976
 8059SOL     OW35638   0.367   1.589   3.085  0.0782 -0.4743  0.5371
 8059SOL    HW135639   0.353   1.663   3.144 -1.1455 -1.5979  1.6484
 8059SOL    HW235640   0.397   1.516   3.139  0.5388 -1.3941 -0.9681
 8060SOL     OW35641   0.711   3.001   1.689  0.4942 -0.4234 -0.6089
 8060SOL    HW135642   0.769   2.925   1.687 -0.1482 -0.9156 -0.7136
 8060SOL    HW235643   0.626   2.965   1.717  0.4582  0.5554  0.5295
 8061SOL     OW35644   0.487   2.593   4.511 -0.5953 -0.3899  0.2707
 8061SOL    HW135645   0.459   2.670   4.560 -3.0250 -0.4718 -1.0043
 8061SOL    HW235646   0.580   2.586   4.535 -0.2783 -1.5040 -1.2681
 8062SOL     OW35647   3.077   2.099   1.855 -0.2001 -0.2461 -0.1690
 8062SOL    HW135648   3.152   2.070   1.802 -0.9974 -1.6308 -0.5397
 8062SOL    HW235649   3.012   2.029   1.850 -0.8723  0.1613  2.9693
 8063SOL     OW35650   2.459   3.503   4.627 -0.2075 -0.1676 -0.1566
 8063SOL    HW135651   2.463   3.562   4.551 -1.9596 -1.1904 -1.0537
 8063SOL    HW235652   2.366   3.506   4.649 -0.5552 -1.0749 -1.5057
 8064SOL     OW35653   1.988   3.356  15.346  0.1235 -0.3120 -0.1949
 8064SOL    HW135654   1.907   3.332  15.391  0.2339  3.1400  1.7746
 8064SOL    HW235655   1.966   3.428  15.287 -2.6959 -0.9563  0.0538
 8065SOL     OW35656   1.842   0.263   0.113  0.0400 -0.1112  0.1187
 8065SOL    HW135657   1.755   0.232   0.140 -0.0677 -1.1662 -1.4248
 8065SOL    HW235658   1.855   0.217   0.030 -1.1501 -0.5889  0.1968
 8066SOL     OW35659   4.561   4.374  17.470 -0.3474  0.4707  0.5902
 8066SOL    HW135660   4.627   4.305  17.480 -0.6049  0.1410  0.0167
 8066SOL    HW235661   4.569   4.434  17.544 -0.0949  1.6323 -0.3769
 8067SOL     OW35662   2.418   0.037   0.587 -0.4521 -0.1423  0.0337
 8067SOL    HW135663   2.499   0.087   0.582  0.1898 -1.5885 -4.0592
 8067SOL    HW235664   2.454   4.680   0.608  0.8032  0.1068 -1.0606
 8068SOL     OW35665   4.226   2.593  10.441 -0.5851  0.4159  0.5506
 8068SOL    HW135666   4.132   2.576  10.439 -0.0877 -2.3800  0.1679
 8068SOL    HW235667   4.249   2.558  10.527 -2.5946 -0.5848  0.6733
 8069SOL     OW35668   4.292   1.636  15.670 -0.4436  0.1912 -0.4138
 8069SOL    HW135669   4.249   1.553  15.692  0.5343 -0.1467  0.2248
 8069SOL    HW235670   4.215   1.692  15.664  0.1856  0.9213 -1.5992
 8070SOL     OW35671   1.950   1.476   9.048 -0.0735  0.4632 -0.1226
 8070SOL    HW135672   1.935   1.538   8.977  1.9138 -0.6174 -1.4992
 8070SOL    HW235673   2.018   1.516   9.103 -0.9102 -1.3389  2.2318
 8071SOL     OW35674   4.577   3.098   6.231  0.0284 -0.1728  0.0695
 8071SOL    HW135675   4.500   3.082   6.176  0.9814  0.1361 -1.3715
 8071SOL    HW235676   4.634   3.141   6.167 -0.5537  0.1835 -0.2070
 8072SOL     OW35677   1.331   1.927   4.647  0.3665 -0.0991 -0.4998
 8072SOL    HW135678   1.248   1.889   4.675  0.0614  1.2949  0.4682
 8072SOL    HW235679   1.295   2.000   4.595  1.0862  0.8306  0.3192
 8073SOL     OW35680   3.977   3.517   9.604 -0.5583 -0.1601  0.1915
 8073SOL    HW135681   4.008   3.607   9.605 -0.6499 -0.1422  1.2820
 8073SOL    HW235682   3.883   3.523   9.617 -0.9091 -0.9117 -1.8502
 8074SOL     OW35683   3.381   1.153   1.917  0.3645  0.1472  0.1857
 8074SOL    HW135684   3.416   1.074   1.876 -0.3048  1.1846 -2.3528
 8074SOL    HW235685   3.289   1.133   1.934  0.2813  1.5842  1.3724
 8075SOL     OW35686   1.339   1.573  12.688 -0.1554  0.1283  0.1309
 8075SOL    HW135687   1.314   1.665  12.686 -0.7042  0.0206  1.6424
 8075SOL    HW235688   1.426   1.584  12.727 -0.4428  0.1158  0.7815
 8076SOL     OW35689   2.004   3.807   7.693 -0.8159 -0.0848  0.2596
 8076SOL    HW135690   1.966   3.828   7.778  1.9233  3.1492  0.6920
 8076SOL    HW235691   1.934   3.751   7.660 -0.1144 -0.6779 -0.2154
 8077SOL     OW35692   4.045   2.642  11.846 -0.6523 -0.3587 -0.2985
 8077SOL    HW135693   4.124   2.666  11.798 -0.7403 -0.2941 -0.4127
 8077SOL    HW235694   3.998   2.716  11.806 -0.6822  0.1156  0.6143
 8078SOL     OW35695   1.320   0.424  14.725 -0.0248 -0.3348  0.5580
 8078SOL    HW135696   1.389   0.491  14.726  1.3847 -1.7742 -1.2274
 8078SOL    HW235697   1.328   0.394  14.635  0.6795  1.1154  0.1256
 8079SOL     OW35698   1.525   0.547   8.451 -0.6234  0.4153 -0.0364
 8079SOL    HW135699   1.481   0.497   8.382 -1.0639  0.0939  0.4769
 8079SOL    HW235700   1.484   0.633   8.444  0.3842  1.0978  2.6537
 8080SOL     OW35701   0.244   1.257  13.308 -0.0830 -0.3973  0.1206
 8080SOL    HW135702   0.255   1.192  13.378 -0.8652 -0.5485  0.1051
 8080SOL    HW235703   0.150   1.248  13.292  0.6711 -3.1222 -2.6232
 8081SOL     OW35704   3.371   4.253   5.027  0.5193 -0.7827  0.0260
 8081SOL    HW135705   3.372   4.193   4.952 -1.4018  1.0645 -1.5010
 8081SOL    HW235706   3.450   4.300   5.001 -1.0791  1.0510 -1.5731
 8082SOL     OW35707   0.823   2.206   7.771  0.1289 -0.3205 -0.4825
 8082SOL    HW135708   0.830   2.213   7.866 -0.2570 -0.4246 -0.4452
 8082SOL    HW235709   0.883   2.134   7.754 -0.5990 -0.9904 -0.2128
 8083SOL     OW35710   2.920   1.767   1.202 -0.0115  0.2029  0.1182
 8083SOL    HW135711   2.962   1.762   1.117 -2.9356 -2.4943 -1.1720
 8083SOL    HW235712   2.849   1.705   1.184 -0.6177  0.1949  2.5008
 8084SOL     OW35713   2.303   1.373   7.878 -0.2821  0.0581  0.5447
 8084SOL    HW135714   2.270   1.416   7.799  1.7067 -1.6496 -1.1764
 8084SOL    HW235715   2.373   1.435   7.899  1.4335 -0.9152 -2.4665
 8085SOL     OW35716   2.291   1.440   4.347  0.1802 -0.7478  0.1080
 8085SOL    HW135717   2.307   1.446   4.252  0.4567  2.5613  0.3522
 8085SOL    HW235718   2.230   1.366   4.352 -2.1192  1.2257  0.9954
 8086SOL     OW35719   1.226   0.536  15.540  0.1829  0.0912 -0.0648
 8086SOL    HW135720   1.256   0.560  15.452  1.0896 -0.2781  0.1397
 8086SOL    HW235721   1.183   0.453  15.518  1.8612 -0.4829 -1.1750
 8087SOL     OW35722   3.370   4.596  16.087 -0.1492  0.2295  0.0954
 8087SOL    HW135723   3.329   4.510  16.092 -0.6923  0.2947 -3.5305
 8087SOL    HW235724   3.447   4.559  16.044 -2.3660 -3.2299 -0.9203
 8088SOL     OW35725   2.024   2.027   7.858 -0.3907  0.2448 -0.4642
 8088SOL    HW135726   1.995   1.936   7.867 -0.6936  0.4406  0.6060
 8088SOL    HW235727   2.035   2.062   7.947  2.2964 -1.0350 -0.2942
 8089SOL     OW35728   3.612   0.544   6.382  0.2180 -0.9961  0.9141
 8089SOL    HW135729   3.526   0.503   6.372 -0.5216  0.2234  2.2263
 8089SOL    HW235730   3.585   0.630   6.351  1.6115 -1.0166 -0.3583
 8090SOL     OW35731   1.459   0.344  11.320  0.4057  0.1862  0.4644
 8090SOL    HW135732   1.497   0.259  11.341  1.9215  0.9164  0.7125
 8090SOL    HW235733   1.532   0.401  11.294  0.1829  0.0933 -0.3623
 8091SOL     OW35734   4.131   2.843   3.019 -0.1769  0.4121 -0.0672
 8091SOL    HW135735   4.219   2.879   3.015  0.4840 -1.5499 -3.0025
 8091SOL    HW235736   4.116   2.848   3.114 -0.5550 -5.7023  0.1958
 8092SOL     OW35737   1.825   2.925   1.906  0.2618 -0.0803  0.1824
 8092SOL    HW135738   1.795   3.015   1.916  0.0246  0.0658 -1.8491
 8092SOL    HW235739   1.790   2.898   1.821  2.4625 -1.5321 -0.2621
 8093SOL     OW35740   1.422   1.211   5.246  0.2310 -0.1907  0.4707
 8093SOL    HW135741   1.441   1.131   5.198  0.6172  0.2822 -0.1533
 8093SOL    HW235742   1.377   1.162   5.315 -1.1618 -1.1316 -1.1010
 8094SOL     OW35743   1.503   2.780   0.687  0.3319 -0.1941  0.2708
 8094SOL    HW135744   1.511   2.801   0.594 -0.2875 -0.1548  0.2281
 8094SOL    HW235745   1.551   2.698   0.698  0.3916 -0.1736  0.1625
 8095SOL     OW35746   4.194   1.784   9.906 -0.2822 -0.5775 -0.4325
 8095SOL    HW135747   4.127   1.731   9.864 -0.4867  0.8250 -1.8679
 8095SOL    HW235748   4.255   1.799   9.834  1.7980 -1.7412  1.1021
 8096SOL     OW35749   3.649   3.943  13.508 -0.0191 -0.2120  0.1001
 8096SOL    HW135750   3.555   3.955  13.499 -0.1085 -0.6910  0.4176
 8096SOL    HW235751   3.662   3.892  13.587  1.1152 -2.9291 -1.8369
 8097SOL     OW35752   0.392   4.141   8.335  0.3936  0.2807 -0.9745
 8097SOL    HW135753   0.309   4.189   8.337 -0.2476 -0.8023 -1.0041
 8097SOL    HW235754   0.378   4.075   8.267 -0.9543 -1.7296  1.2519
 8098SOL     OW35755   1.579   4.544   5.399 -0.0813  1.0145  0.2533
 8098SOL    HW135756   1.606   4.581   5.315 -1.1400 -1.1277 -1.0421
 8098SOL    HW235757   1.624   4.601   5.461  0.3654 -0.8135  1.6331
 8099SOL     OW35758   2.340   1.115  11.693 -0.5296 -0.1561  0.4332
 8099SOL    HW135759   2.373   1.192  11.647 -1.7581  0.8941  1.3124
 8099SOL    HW235760   2.249   1.144  11.698 -0.6339 -0.3050 -0.5929
 8100SOL     OW35761   0.334   0.021  15.581 -0.2182  0.1756 -0.5848
 8100SOL    HW135762   0.255   0.053  15.539  0.2492  2.4158  0.2377
 8100SOL    HW235763   0.311   0.009  15.673  1.1445 -1.1519 -0.3966
 8101SOL     OW35764   1.571   3.826   2.063  0.5083  0.1802 -0.2965
 8101SOL    HW135765   1.568   3.734   2.037 -0.9818 -0.0301  0.6216
 8101SOL    HW235766   1.665   3.833   2.082  0.5386 -0.2418 -0.2902
 8102SOL     OW35767   0.023   3.102   8.319 -0.2133 -0.2083 -0.3951
 8102SOL    HW135768   0.047   3.070   8.232 -1.6092  2.9692 -1.9405
 8102SOL    HW235769   4.658   3.093   8.334 -0.0674 -1.5571 -0.2074
 8103SOL     OW35770   3.468   3.389   5.751 -0.2394 -0.0753 -0.4447
 8103SOL    HW135771   3.554   3.425   5.730  1.3940 -2.0949  2.9993
 8103SOL    HW235772   3.411   3.439   5.691  0.1819 -2.0046 -2.4451
 8104SOL     OW35773   3.031   2.257   4.823  0.1208  0.3457 -0.4453
 8104SOL    HW135774   2.964   2.237   4.758  0.6289 -0.1720 -0.8097
 8104SOL    HW235775   2.972   2.246   4.898 -0.2792 -0.1256 -0.8290
 8105SOL     OW35776   1.057   4.207   2.898 -0.0047  0.4076  0.2104
 8105SOL    HW135777   0.967   4.235   2.918  0.1484  0.5167  0.7548
 8105SOL    HW235778   1.034   4.114   2.899 -0.5809  0.5541  0.9961
 8106SOL     OW35779   3.167   4.513   1.987 -0.1605 -0.8279 -0.6829
 8106SOL    HW135780   3.138   4.580   2.049 -0.3555 -1.6953  0.1721
 8106SOL    HW235781   3.116   4.539   1.911  0.5349  0.5072 -0.6840
 8107SOL     OW35782   3.188   2.045   4.659  0.3692 -0.1382 -0.0985
 8107SOL    HW135783   3.214   2.086   4.577  1.2253 -0.1024  0.1854
 8107SOL    HW235784   3.097   2.073   4.666 -0.2713 -2.1369 -0.4299
 8108SOL     OW35785   3.011   3.017   9.727  0.0009  0.5674 -0.2587
 8108SOL    HW135786   2.992   3.062   9.809  1.2193 -1.0551  0.9374
 8108SOL    HW235787   3.081   2.956   9.751 -2.6668 -3.1442 -1.9505
 8109SOL     OW35788   1.013   0.354   0.492  0.4533  0.2348 -0.4987
 8109SOL    HW135789   1.012   0.262   0.468 -1.8387  0.0828  0.2147
 8109SOL    HW235790   1.088   0.354   0.551  0.9346 -0.8661 -1.1147
 8110SOL     OW35791   0.268   2.457   6.024  0.0511 -0.0834  0.2878
 8110SOL    HW135792   0.190   2.458   5.969 -0.7988  1.3791  1.5166
 8110SOL    HW235793   0.233   2.483   6.109 -0.3694  0.5952 -0.0980
 8111SOL     OW35794   3.640   0.645   3.999  0.2491  0.3312 -0.1937
 8111SOL    HW135795   3.547   0.642   4.024  0.1953 -2.0172 -0.6798
 8111SOL    HW235796   3.641   0.599   3.915  0.2133 -0.9283  0.5011
 8112SOL     OW35797   1.686   2.528   5.267 -0.6047  0.1424  0.4037
 8112SOL    HW135798   1.718   2.547   5.355 -2.5673  1.1707  0.8958
 8112SOL    HW235799   1.767   2.550   5.220 -0.5901 -1.3018 -0.2511
 8113SOL     OW35800   2.316   1.643   4.867 -0.7659 -0.0136 -0.0659
 8113SOL    HW135801   2.264   1.658   4.787 -0.5789 -1.1675 -0.3996
 8113SOL    HW235802   2.400   1.614   4.834 -1.2074 -0.3513 -0.8978
 8114SOL     OW35803   2.092   3.710   8.923  0.3081 -0.2861  0.3495
 8114SOL    HW135804   2.034   3.786   8.921 -0.5756 -0.9840 -0.3159
 8114SOL    HW235805   2.107   3.689   9.015  1.9786 -1.5716 -0.2048
 8115SOL     OW35806   0.357   1.523  17.266  0.1933 -0.1239 -0.1502
 8115SOL    HW135807   0.311   1.529  17.182 -2.5352  0.4173  1.3973
 8115SOL    HW235808   0.446   1.526  17.232 -0.3538 -1.5943 -1.7215
 8116SOL     OW35809   4.016   0.143   1.233  0.0177  0.2080 -0.4738
 8116SOL    HW135810   3.924   0.125   1.216  0.2559  0.0477 -1.5552
 8116SOL    HW235811   4.047   0.076   1.172  0.5074  0.9316 -1.0083
 8117SOL     OW35812   3.269   3.762  15.140 -0.3619  0.3984 -0.2177
 8117SOL    HW135813   3.347   3.713  15.111 -1.3403 -0.6475 -1.0853
 8117SOL    HW235814   3.255   3.749  15.234  2.3429  0.5090  0.2092
 8118SOL     OW35815   1.685   1.333   2.617 -0.2658 -0.5268  0.5666
 8118SOL    HW135816   1.665   1.331   2.524  0.7667 -1.9667  0.3692
 8118SOL    HW235817   1.708   1.425   2.625 -1.2011 -0.2478 -0.0123
 8119SOL     OW35818   1.049   2.736   1.469  0.2938 -0.0869  0.4174
 8119SOL    HW135819   0.979   2.720   1.406  0.8274 -0.1805 -0.1413
 8119SOL    HW235820   1.041   2.832   1.474  0.8668 -0.0856  1.3791
 8120SOL     OW35821   2.123   0.169  14.890 -0.1969  0.5369  0.0646
 8120SOL    HW135822   2.036   0.197  14.860  1.0887  1.8734 -2.3763
 8120SOL    HW235823   2.171   0.251  14.900  1.2265  0.1142 -3.0972
 8121SOL     OW35824   0.111   2.011  12.089  0.4178  0.2457 -0.5840
 8121SOL    HW135825   0.126   2.102  12.116  0.8514 -0.1035  0.3446
 8121SOL    HW235826   0.101   1.959  12.169 -1.3334  1.5740  0.0660
 8122SOL     OW35827   0.931   0.885   3.375 -0.7789 -0.3836 -0.8005
 8122SOL    HW135828   0.989   0.900   3.301 -1.5704  1.2277 -1.1122
 8122SOL    HW235829   0.933   0.790   3.380  1.2801 -0.1221  2.9809
 8123SOL     OW35830   2.082   0.919   7.380 -0.1354  0.0787 -0.7432
 8123SOL    HW135831   2.112   0.830   7.360 -1.3811 -1.4332  4.0457
 8123SOL    HW235832   2.004   0.890   7.428  0.0933 -1.9251 -1.6063
 8124SOL     OW35833   2.512   3.222  15.666  0.3131  0.4433 -0.1666
 8124SOL    HW135834   2.491   3.177  15.584 -0.8790 -0.7081  0.7623
 8124SOL    HW235835   2.606   3.238  15.659  0.5762 -1.7766 -1.8476
 8125SOL     OW35836   1.656   3.385   8.497 -1.1235  0.0637  0.0910
 8125SOL    HW135837   1.583   3.329   8.526  0.0158  0.1080  3.0134
 8125SOL    HW235838   1.663   3.365   8.404 -1.7949  1.1544 -0.1905
 8126SOL     OW35839   2.196   3.699   7.259  0.3984  0.4676 -0.0695
 8126SOL    HW135840   2.272   3.707   7.316  0.5226  1.1273 -0.3254
 8126SOL    HW235841   2.121   3.736   7.305 -0.5937 -0.2778 -1.1035
 8127SOL     OW35842   0.918   1.568  10.340 -0.0900  0.5139  0.0024
 8127SOL    HW135843   0.877   1.506  10.402  1.7244 -1.4110 -0.7234
 8127SOL    HW235844   0.955   1.631  10.401 -1.7418  1.1424  0.3687
 8128SOL     OW35845   4.249   3.418   8.447 -0.9358 -0.2932  0.4259
 8128SOL    HW135846   4.159   3.441   8.425 -0.4717  0.9586 -0.1420
 8128SOL    HW235847   4.235   3.325   8.464  0.0615 -0.9889 -2.6261
 8129SOL     OW35848   4.141   2.787   1.503  0.2008 -0.3075 -0.0667
 8129SOL    HW135849   4.228   2.747   1.496  1.3451  2.1410  0.2190
 8129SOL    HW235850   4.086   2.710   1.518 -0.2756 -0.1949 -1.2728
 8130SOL     OW35851   0.183   1.899   2.410  0.0017 -0.0295  0.1692
 8130SOL    HW135852   0.263   1.949   2.427  0.5763 -0.6495 -0.7788
 8130SOL    HW235853   0.136   1.960   2.354  1.8113 -0.4372 -1.7803
 8131SOL     OW35854   0.414   2.432   3.571  0.3766  0.2549 -0.1332
 8131SOL    HW135855   0.373   2.349   3.594  1.4137 -0.1596  0.2585
 8131SOL    HW235856   0.506   2.421   3.595  0.2441 -0.0768  0.2149
 8132SOL     OW35857   0.009   3.803   7.616 -0.4930  0.1080 -0.4140
 8132SOL    HW135858   4.669   3.868   7.601  1.5780  2.1172 -1.2481
 8132SOL    HW235859   0.039   3.795   7.526  1.7274 -0.7548  0.4112
 8133SOL     OW35860   3.029   0.719   6.733 -0.0849 -0.0413  0.1700
 8133SOL    HW135861   3.018   0.729   6.827 -0.9676  1.4843 -0.1053
 8133SOL    HW235862   3.071   0.634   6.717  0.3752  0.0291  1.0230
 8134SOL     OW35863   4.369   3.904  12.159 -0.1431 -0.1168  0.1296
 8134SOL    HW135864   4.411   3.820  12.179 -1.2627 -1.2572 -2.2917
 8134SOL    HW235865   4.351   3.933  12.248 -0.5132 -1.0715  0.3672
 8135SOL     OW35866   3.907   3.740   1.361 -0.0512 -0.1947 -0.3280
 8135SOL    HW135867   3.978   3.676   1.361 -1.0012 -1.2652  0.1326
 8135SOL    HW235868   3.836   3.676   1.358 -1.1239  1.0273 -1.0988
 8136SOL     OW35869   2.596   3.020   4.863  0.1131 -0.0263 -0.0086
 8136SOL    HW135870   2.582   3.088   4.798  1.9284  0.1950 -0.1651
 8136SOL    HW235871   2.586   3.064   4.948  0.0306 -0.7375  0.3462
 8137SOL     OW35872   2.829   3.456   5.699  0.2020 -0.1306  0.2928
 8137SOL    HW135873   2.876   3.376   5.723  0.7296 -0.0304 -0.4288
 8137SOL    HW235874   2.890   3.523   5.728 -0.3890 -0.0979  1.4734
 8138SOL     OW35875   2.363   4.243  12.034  0.1804  0.0006  0.1892
 8138SOL    HW135876   2.299   4.309  12.060  2.2952  2.4465 -0.8783
 8138SOL    HW235877   2.431   4.294  11.990 -0.1488 -0.0259 -0.3559
 8139SOL     OW35878   1.967   1.058   9.885  0.1520 -0.3345  0.3410
 8139SOL    HW135879   2.014   1.005   9.821 -1.4848 -0.5542 -0.6661
 8139SOL    HW235880   2.042   1.108   9.918 -0.7351 -0.4996  2.6267
 8140SOL     OW35881   2.242   4.685   6.513  0.1401  0.2079 -0.3060
 8140SOL    HW135882   2.195   4.607   6.544 -0.6829  1.1622  0.8526
 8140SOL    HW235883   2.171   0.008   6.477 -1.5254 -1.8556 -0.0031
 8141SOL     OW35884   3.315   0.906   9.120 -0.4322 -0.4389 -0.2806
 8141SOL    HW135885   3.378   0.957   9.069 -1.2476  0.5082 -0.3095
 8141SOL    HW235886   3.319   0.943   9.208 -1.9495  1.8016 -1.1848
 8142SOL     OW35887   1.190   1.152   0.494  0.8166  0.0311  0.8024
 8142SOL    HW135888   1.118   1.112   0.446  1.1755 -1.1046  1.2055
 8142SOL    HW235889   1.243   1.186   0.422  0.6208 -0.8825  0.2277
 8143SOL     OW35890   2.801   1.532   6.330  0.3839 -0.2287 -0.0965
 8143SOL    HW135891   2.867   1.565   6.390 -1.2795  2.4788  0.2487
 8143SOL    HW235892   2.830   1.441   6.329 -0.0239 -0.3521 -1.4932
 8144SOL     OW35893   4.008   0.974   3.030 -0.2764  0.2178 -0.0446
 8144SOL    HW135894   4.010   0.891   3.077  2.9581  1.3469  1.7954
 8144SOL    HW235895   3.919   0.964   2.995  0.5298 -0.1741 -1.9692
 8145SOL     OW35896   4.115   3.586   0.760 -0.0207 -0.0034 -0.0071
 8145SOL    HW135897   4.171   3.553   0.830 -0.6131 -0.1439  0.3973
 8145SOL    HW235898   4.067   3.650   0.813  0.2580 -0.4532  0.7969
 8146SOL     OW35899   3.946   3.764   9.833  0.2206 -0.8197  0.6293
 8146SOL    HW135900   3.939   3.673   9.860  1.6139 -0.2900  2.7431
 8146SOL    HW235901   3.891   3.752   9.756  2.3442  1.2609 -1.1806
 8147SOL     OW35902   0.487   0.512   7.213 -0.0435  0.2553  0.6736
 8147SOL    HW135903   0.581   0.523   7.229  0.1398  1.0991 -0.9356
 8147SOL    HW235904   0.472   0.536   7.122 -0.6537 -2.9820 -0.0400
 8148SOL     OW35905   4.087   0.116   2.415 -0.0084  0.1882  0.0117
 8148SOL    HW135906   4.065   0.193   2.363 -2.6758 -1.4977 -1.3778
 8148SOL    HW235907   4.032   0.050   2.373  0.6440  1.4557 -2.8497
 8149SOL     OW35908   2.090   0.763   6.543 -0.1816 -0.2011 -0.1390
 8149SOL    HW135909   2.163   0.807   6.500 -0.5952  1.4545  0.8540
 8149SOL    HW235910   2.103   0.775   6.637 -0.3558 -0.6561 -0.0576
 8150SOL     OW35911   1.404   2.872   8.289  0.1020 -0.2271 -0.2908
 8150SOL    HW135912   1.396   2.811   8.215 -3.1807 -1.1750  0.8478
 8150SOL    HW235913   1.445   2.946   8.245 -1.1533  0.1183 -0.9138
 8151SOL     OW35914   4.410   1.756   6.208  0.3124  0.3387  0.8707
 8151SOL    HW135915   4.394   1.663   6.198  1.0611  0.2368  0.6121
 8151SOL    HW235916   4.395   1.774   6.301  1.3343  0.7323  0.9590
 8152SOL     OW35917   1.468   0.238  12.935 -0.8540  0.1585  0.8334
 8152SOL    HW135918   1.421   0.301  12.990  1.4866  1.7485  0.9996
 8152SOL    HW235919   1.524   0.184  12.990 -1.4846 -1.5196 -0.1380
 8153SOL     OW35920   4.221   1.293   6.846  0.4730  0.2842 -0.2606
 8153SOL    HW135921   4.195   1.278   6.755  1.6649  0.4721 -0.6199
 8153SOL    HW235922   4.156   1.360   6.865  0.5251  0.0444  0.7431
 8154SOL     OW35923   1.469   3.551   2.411 -0.4721 -0.7614  0.0721
 8154SOL    HW135924   1.515   3.483   2.361 -1.0858 -0.0349 -1.4847
 8154SOL    HW235925   1.542   3.612   2.414  0.6433 -1.9983 -1.7907
 8155SOL     OW35926   2.097   1.647   3.574  0.5796  0.3693 -0.2011
 8155SOL    HW135927   2.155   1.578   3.607 -0.8460 -0.0177  1.4513
 8155SOL    HW235928   2.067   1.683   3.657  0.2883 -0.4294  0.0380
 8156SOL     OW35929   2.713   1.943   7.584 -0.4209  0.1240  0.1076
 8156SOL    HW135930   2.657   1.875   7.622  0.0481 -0.2552  0.1154
 8156SOL    HW235931   2.658   2.022   7.585 -0.2884  0.1937  1.9868
 8157SOL     OW35932   0.515   0.615  11.672 -0.1385 -0.0510 -0.1343
 8157SOL    HW135933   0.550   0.530  11.700 -0.8074 -0.2658  0.0601
 8157SOL    HW235934   0.430   0.590  11.637  0.9782 -1.8300 -1.5694
 8158SOL     OW35935   3.885   2.975   1.078 -0.1147  0.0766  0.3194
 8158SOL    HW135936   3.947   2.904   1.095  1.5807  1.4439 -0.1558
 8158SOL    HW235937   3.807   2.922   1.094 -1.8485  2.1703 -1.2062
 8159SOL     OW35938   3.608   1.336   0.745  0.5522  0.0248  0.8207
 8159SOL    HW135939   3.598   1.255   0.694 -0.7312  0.1942  0.8268
 8159SOL    HW235940   3.603   1.407   0.681  0.0926  1.5127  2.5274
 8160SOL     OW35941   1.011   3.897   6.433  0.1312 -0.4444 -0.2672
 8160SOL    HW135942   1.100   3.874   6.462  1.0671  1.8413 -1.2538
 8160SOL    HW235943   1.021   3.855   6.347 -0.0150 -0.8646 -0.0769
 8161SOL     OW35944   3.254   1.572   4.939 -0.1223 -0.0670  0.0182
 8161SOL    HW135945   3.311   1.636   4.982 -0.1092  0.2480 -0.4742
 8161SOL    HW235946   3.197   1.632   4.891 -2.4647 -2.4251 -0.1790
 8162SOL     OW35947   4.012   2.182   0.859  0.6844  0.1572  0.0001
 8162SOL    HW135948   4.006   2.257   0.800 -2.3213 -0.8799 -1.0467
 8162SOL    HW235949   4.082   2.143   0.807  0.1577  0.0810 -0.6643
 8163SOL     OW35950   3.244   3.511   6.512 -0.0283 -0.1440  0.0911
 8163SOL    HW135951   3.206   3.570   6.447 -1.6969  0.6877  1.7993
 8163SOL    HW235952   3.217   3.427   6.475 -0.9905  1.4043 -2.7096
 8164SOL     OW35953   2.806   1.347   1.810 -0.7949  0.0992  0.2147
 8164SOL    HW135954   2.822   1.414   1.743 -1.4580 -2.2401 -2.2689
 8164SOL    HW235955   2.882   1.350   1.867 -0.0885  0.5684 -0.7526
 8165SOL     OW35956   0.019   1.322   4.964  0.1690 -0.0178 -0.4162
 8165SOL    HW135957   0.039   1.409   4.929 -1.2699 -0.1662 -1.6050
 8165SOL    HW235958   0.105   1.285   4.944  1.2333  1.9652  0.4304
 8166SOL     OW35959   4.568   3.705   1.762  0.8210  0.8588  0.4068
 8166SOL    HW135960   4.617   3.765   1.818 -1.8254  1.5628  1.9746
 8166SOL    HW235961   4.539   3.766   1.695  0.2446 -1.8235 -1.7909
 8167SOL     OW35962   0.372   2.717   2.382  0.1461 -0.0178 -0.2044
 8167SOL    HW135963   0.464   2.743   2.389 -0.1931  0.9632  0.8133
 8167SOL    HW235964   0.328   2.801   2.396 -0.1861 -0.7128  2.8981
 8168SOL     OW35965   4.717   0.417   4.996 -0.1412  0.3861 -0.2232
 8168SOL    HW135966   0.035   0.380   5.071 -2.5018  1.6340  1.8417
 8168SOL    HW235967   4.686   0.339   4.949  0.7304  1.5628 -2.7265
 8169SOL     OW35968   3.902   0.647   6.380 -0.0838  0.7106  0.1299
 8169SOL    HW135969   3.900   0.646   6.476  0.1354 -1.7692  0.0881
 8169SOL    HW235970   3.810   0.628   6.360 -0.2104  0.4972  0.9257
 8170SOL     OW35971   0.601   3.634  13.526  0.6519 -0.3192 -0.3209
 8170SOL    HW135972   0.622   3.713  13.476  2.7263 -0.1138  0.8509
 8170SOL    HW235973   0.679   3.618  13.580 -1.0190 -0.7904  1.9403
 8171SOL     OW35974   1.467   3.416   5.806 -0.3727  0.2673 -0.5535
 8171SOL    HW135975   1.524   3.383   5.736 -1.8111  1.0145 -2.0995
 8171SOL    HW235976   1.486   3.509   5.794 -0.8482  0.7051  2.1709
 8172SOL     OW35977   4.415   2.897   3.040  0.3708 -0.3829  0.0800
 8172SOL    HW135978   4.486   2.890   2.976 -0.1672  1.1803 -0.6723
 8172SOL    HW235979   4.456   2.961   3.097 -0.0148  0.3848 -0.5053
 8173SOL     OW35980   4.543   4.590   7.066  0.0245 -0.6461 -0.1995
 8173SOL    HW135981   4.568   4.543   6.987 -0.7303 -0.0396 -0.7885
 8173SOL    HW235982   4.461   4.546   7.085 -0.4069  0.1765 -0.1525
 8174SOL     OW35983   2.702   0.006   2.730 -0.6697 -0.0721  0.3367
 8174SOL    HW135984   2.654   0.060   2.667  1.0398  1.2111  0.1509
 8174SOL    HW235985   2.659   0.036   2.810 -3.6011  1.1369 -1.6456
 8175SOL     OW35986   1.669   2.831  13.187 -0.3087  0.6828  0.1032
 8175SOL    HW135987   1.635   2.815  13.275 -0.8321  0.0080 -0.2180
 8175SOL    HW235988   1.707   2.918  13.186 -1.4796  1.2041  0.2784
 8176SOL     OW35989   1.841   1.061   3.697 -0.2728 -0.2348  0.2110
 8176SOL    HW135990   1.777   1.002   3.737 -3.1997  2.4243 -0.5354
 8176SOL    HW235991   1.925   1.015   3.702 -0.1806 -0.0383  0.5034
 8177SOL     OW35992   3.404   0.258  14.686  0.4227 -0.3760  0.2657
 8177SOL    HW135993   3.493   0.241  14.655  0.7363  0.7813  0.5355
 8177SOL    HW235994   3.371   0.210  14.610 -2.9617  2.0388  0.1912
 8178SOL     OW35995   2.258   3.121  14.680 -0.0460 -0.1767  0.2132
 8178SOL    HW135996   2.336   3.084  14.722 -0.4773 -0.3979  0.8040
 8178SOL    HW235997   2.251   3.085  14.591 -0.2150  1.5039 -0.4592
 8179SOL     OW35998   1.776   3.980   3.097  0.7782  0.1606 -0.7957
 8179SOL    HW135999   1.836   4.052   3.115  2.6345 -1.2267 -1.4145
 8179SOL    HW236000   1.823   3.940   3.024 -1.9209  0.3331 -2.6231
 8180SOL     OW36001   2.889   2.845   5.803  0.0283  1.0486  0.4749
 8180SOL    HW136002   2.896   2.858   5.708 -1.5045 -1.3207  0.0507
 8180SOL    HW236003   2.794   2.853   5.804  0.0128  1.0275 -0.6956
 8181SOL     OW36004   3.813   2.633   8.813  0.3477 -0.4585 -0.4109
 8181SOL    HW136005   3.761   2.634   8.733  1.2708 -1.8978 -1.0271
 8181SOL    HW236006   3.812   2.546   8.853  0.4737  0.4022  1.4800
 8182SOL     OW36007   1.513   3.570   3.616  0.1191 -0.8487 -0.5967
 8182SOL    HW136008   1.436   3.588   3.671  0.8758  2.7707 -0.7521
 8182SOL    HW236009   1.491   3.604   3.529  0.2195 -0.6516 -0.5450
 8183SOL     OW36010   3.977   4.634   9.259  0.6905  0.3344 -0.1285
 8183SOL    HW136011   4.003   4.565   9.320  0.2997  2.5415  2.4951
 8183SOL    HW236012   3.948   4.707   9.313  0.3406  0.0860  0.0153
 8184SOL     OW36013   0.695   4.076  12.734  0.1860  0.5169  0.1744
 8184SOL    HW136014   0.720   4.028  12.655 -0.7032  0.6745 -0.1979
 8184SOL    HW236015   0.663   4.158  12.696 -0.0741  1.0807  1.6154
 8185SOL     OW36016   1.312   3.099   5.219  0.3505 -0.0795  0.1989
 8185SOL    HW136017   1.245   3.167   5.209  0.3341 -0.2610 -0.8733
 8185SOL    HW236018   1.331   3.079   5.127 -0.5334  1.4949 -0.3215
 8186SOL     OW36019   0.628   0.821  16.761 -0.1834 -0.5503 -0.1304
 8186SOL    HW136020   0.535   0.818  16.740 -0.0277 -0.0533 -0.8854
 8186SOL    HW236021   0.667   0.871  16.689  1.6173 -2.0626 -0.2240
 8187SOL     OW36022   1.149   4.449   9.225  0.0299 -0.7158  0.2091
 8187SOL    HW136023   1.084   4.439   9.156 -0.7522 -2.1441  1.1573
 8187SOL    HW236024   1.098   4.468   9.304  0.0412 -0.0522  0.0597
 8188SOL     OW36025   0.336   4.210   9.484 -0.1458 -0.9005  0.3064
 8188SOL    HW136026   0.269   4.164   9.535 -0.6980 -0.2672  0.1500
 8188SOL    HW236027   0.285   4.278   9.440  0.4470 -1.1780 -0.8323
 8189SOL     OW36028   3.384   4.202   2.667  0.1692 -0.0392  0.0385
 8189SOL    HW136029   3.343   4.117   2.653 -1.4402  0.5656  1.0349
 8189SOL    HW236030   3.444   4.180   2.738 -2.0719 -2.5266  1.1756
 8190SOL     OW36031   4.540   4.247   3.167 -0.9479  0.3250 -0.6400
 8190SOL    HW136032   4.583   4.194   3.234 -3.4845 -1.4749 -0.4533
 8190SOL    HW236033   4.461   4.195   3.157  1.1980 -2.6881 -1.9966
 8191SOL     OW36034   2.942   2.596   2.723 -0.1745 -0.1716 -0.4621
 8191SOL    HW136035   2.943   2.545   2.642  0.8303  0.6028 -0.9340
 8191SOL    HW236036   2.852   2.590   2.756 -0.4265 -3.6238 -1.7593
 8192SOL     OW36037   4.150   4.309   4.309 -0.3223  0.0266 -0.0985
 8192SOL    HW136038   4.180   4.218   4.309  1.0367  0.4647  1.0223
 8192SOL    HW236039   4.093   4.326   4.234 -1.9869 -2.9432  0.4941
 8193SOL     OW36040   2.794   3.900  11.321  0.0375 -0.6930 -0.4275
 8193SOL    HW136041   2.762   3.948  11.245  0.9142  0.7467  0.1094
 8193SOL    HW236042   2.817   3.977  11.373 -1.2166 -0.0145 -0.8847
 8194SOL     OW36043   2.727   1.422   8.666 -0.1026  0.2483 -0.0343
 8194SOL    HW136044   2.672   1.451   8.739 -0.1096  0.6451 -0.1979
 8194SOL    HW236045   2.767   1.344   8.705 -2.1383 -0.6389  0.2802
 8195SOL     OW36046   2.200   3.733   2.110 -0.1573  0.0753  0.0928
 8195SOL    HW136047   2.295   3.736   2.114 -0.1476 -1.4289  0.8722
 8195SOL    HW236048   2.184   3.642   2.087 -0.0263 -0.0313  0.4303
 8196SOL     OW36049   4.013   0.058   7.343 -0.4592  0.0570  0.0015
 8196SOL    HW136050   4.092   0.113   7.344 -0.0080 -0.6504  1.8609
 8196SOL    HW236051   3.954   0.097   7.406 -0.1427 -0.9553  0.9299
 8197SOL     OW36052   1.481   2.148   7.462 -0.4061  0.3475  0.0828
 8197SOL    HW136053   1.418   2.220   7.458  0.1750  0.7468 -2.0802
 8197SOL    HW236054   1.443   2.096   7.533  2.6969  0.0912  1.5214
 8198SOL     OW36055   4.289   3.515  13.393 -0.2198  0.2350 -0.0168
 8198SOL    HW136056   4.271   3.423  13.413  0.1343  0.0657 -0.4791
 8198SOL    HW236057   4.219   3.538  13.332 -1.3161 -3.0021  0.0582
 8199SOL     OW36058   1.844   4.654   5.773  0.5339  0.0939 -0.1526
 8199SOL    HW136059   1.921   4.707   5.754  1.0843 -0.2329  1.1231
 8199SOL    HW236060   1.878   4.564   5.769  1.3680  0.4773 -1.4798
 8200SOL     OW36061   3.866   4.153  10.085  0.0594  0.0379 -0.0880
 8200SOL    HW136062   3.837   4.064  10.108  1.6521  0.5523  3.9491
 8200SOL    HW236063   3.956   4.138  10.054  0.3755 -1.3423  1.4189
 8201SOL     OW36064   2.039   2.017  15.159 -0.4533 -0.2317 -0.3168
 8201SOL    HW136065   2.072   2.012  15.069 -0.7190  2.0664 -0.5408
 8201SOL    HW236066   2.121   2.023  15.207 -0.0992  1.3991 -1.1060
 8202SOL     OW36067   2.658   0.997   4.785  0.2526 -0.8283  0.2242
 8202SOL    HW136068   2.731   0.946   4.751 -0.6486 -0.6541 -1.9698
 8202SOL    HW236069   2.698   1.032   4.865  1.3258 -1.2614 -0.1314
 8203SOL     OW36070   1.606   2.318   9.889  0.0077 -0.1673 -0.2222
 8203SOL    HW136071   1.613   2.338   9.796 -1.0687  1.2283  0.0083
 8203SOL    HW236072   1.690   2.273   9.902  0.2135 -0.0372 -1.1220
 8204SOL     OW36073   3.963   2.840   9.399  0.1563 -0.0971 -0.2195
 8204SOL    HW136074   4.021   2.771   9.368  0.6854  0.4777 -0.5138
 8204SOL    HW236075   4.003   2.918   9.361  2.4685  0.7175  3.9023
 8205SOL     OW36076   0.902   3.778   5.391 -0.0667 -0.2081 -0.0766
 8205SOL    HW136077   0.828   3.820   5.436 -0.2878  0.2880 -0.9128
 8205SOL    HW236078   0.913   3.697   5.440  1.2328  0.0032 -0.0128
 8206SOL     OW36079   0.144   0.069   2.305  0.0532 -0.2671  0.1290
 8206SOL    HW136080   0.117   4.725   2.249  1.0154 -1.5671  1.3624
 8206SOL    HW236081   0.201   0.027   2.369 -0.8475 -1.5903  0.0596
 8207SOL     OW36082   2.267   0.804  10.596 -0.4301 -0.6402 -0.1722
 8207SOL    HW136083   2.194   0.858  10.626 -0.8485 -1.0433 -0.4503
 8207SOL    HW236084   2.302   0.842  10.515 -1.4720  0.2874 -0.1886
 8208SOL     OW36085   0.858   3.427  17.048  0.6344 -0.6495 -0.4373
 8208SOL    HW136086   0.816   3.504  17.087  0.9276 -0.9729  0.5011
 8208SOL    HW236087   0.851   3.441  16.953  2.7866 -1.4818 -0.7211
 8209SOL     OW36088   3.563   2.667   6.819 -0.1536 -0.0068 -0.0614
 8209SOL    HW136089   3.554   2.698   6.909 -1.0441  1.5748 -0.6952
 8209SOL    HW236090   3.524   2.741   6.772  0.6765  0.3793 -0.1281
 8210SOL     OW36091   1.128   2.914   8.140 -0.0038  0.3807  0.4712
 8210SOL    HW136092   1.206   2.961   8.167  0.6424 -0.8401  0.7409
 8210SOL    HW236093   1.062   2.971   8.179 -1.6030 -0.4203 -1.0515
 8211SOL     OW36094   0.824   0.272   8.101  1.0422 -0.3266 -1.0246
 8211SOL    HW136095   0.852   0.186   8.131  0.6003 -0.3602 -0.7147
 8211SOL    HW236096   0.902   0.287   8.046  0.5473  0.0384 -1.6277
 8212SOL     OW36097   3.113   3.809   7.710  0.4637 -0.0799 -0.1774
 8212SOL    HW136098   3.146   3.857   7.785  2.0784 -1.1173 -0.2394
 8212SOL    HW236099   3.161   3.846   7.636 -1.8526 -0.3324 -1.8195
 8213SOL     OW36100   2.121   3.026   5.903  0.5979  0.1345 -0.0353
 8213SOL    HW136101   2.110   2.936   5.873  0.7386  0.3479 -0.7424
 8213SOL    HW236102   2.106   3.062   5.815  1.0754  2.1220  0.6988
 8214SOL     OW36103   2.430   3.130   3.803 -0.2003  0.2343 -0.2752
 8214SOL    HW136104   2.465   3.178   3.728  2.1049 -0.0459  0.6155
 8214SOL    HW236105   2.474   3.045   3.802 -1.3939 -0.3734 -0.6258
 8215SOL     OW36106   4.200   1.138  12.176  0.0142  0.8691  0.0655
 8215SOL    HW136107   4.170   1.198  12.244  1.5028  0.7687  0.8060
 8215SOL    HW236108   4.120   1.094  12.145  0.0892  0.6212  0.2215
 8216SOL     OW36109   2.381   3.490   2.053 -1.1032 -0.1654 -0.6000
 8216SOL    HW136110   2.287   3.490   2.034 -1.7036  2.5444  2.4715
 8216SOL    HW236111   2.396   3.396   2.062  0.5111  0.4146  2.6779
 8217SOL     OW36112   4.363   3.826   5.005  0.1422 -0.0313  0.1019
 8217SOL    HW136113   4.312   3.750   4.978 -0.0008  0.7720 -1.8479
 8217SOL    HW236114   4.318   3.905   4.974 -1.1345 -1.0747 -0.7246
 8218SOL     OW36115   3.906   1.428  13.764 -0.1028 -0.1276 -0.5886
 8218SOL    HW136116   3.942   1.440  13.676  0.7471 -0.1292 -0.2442
 8218SOL    HW236117   3.818   1.465  13.762  0.0094  0.3723  4.0125
 8219SOL     OW36118   0.350   2.693   1.555 -0.3633 -0.5072  0.1790
 8219SOL    HW136119   0.284   2.624   1.556 -1.7498  0.8197 -0.5646
 8219SOL    HW236120   0.329   2.730   1.469  1.3845  0.0669 -0.0022
 8220SOL     OW36121   2.177   1.961   2.651  0.4456  0.4870 -0.5082
 8220SOL    HW136122   2.111   1.993   2.712 -1.3908  0.8367 -2.6440
 8220SOL    HW236123   2.121   1.947   2.575 -2.0021  1.2958  1.1645
 8221SOL     OW36124   0.001   0.718   3.977 -0.0755  0.3321 -0.4306
 8221SOL    HW136125   4.661   0.652   3.985  1.4570 -1.2751 -0.4981
 8221SOL    HW236126   0.046   0.702   4.060  1.7069  2.7654 -0.8992
 8222SOL     OW36127   2.282   4.343   8.874 -0.5196  0.2174 -0.7063
 8222SOL    HW136128   2.334   4.322   8.952  0.0790  0.8117 -0.9481
 8222SOL    HW236129   2.349   4.392   8.827  0.4307  0.5181  0.9349
 8223SOL     OW36130   1.069   4.202  11.381  0.5150 -0.3412 -0.4417
 8223SOL    HW136131   1.064   4.119  11.334  0.5452  1.3225 -3.3547
 8223SOL    HW236132   1.054   4.260  11.307 -0.0851  0.1648  0.0671
 8224SOL     OW36133   0.725   2.675   6.111  0.4984  0.1149 -0.4290
 8224SOL    HW136134   0.646   2.704   6.158 -0.4796 -1.9320 -0.8350
 8224SOL    HW236135   0.714   2.580   6.116 -0.7762  0.3392  1.1710
 8225SOL     OW36136   4.332   2.586  14.772 -0.3202 -0.2135  0.1147
 8225SOL    HW136137   4.420   2.554  14.754  0.2407  0.7252  1.1283
 8225SOL    HW236138   4.298   2.497  14.776 -0.0565 -0.3513 -0.8675
 8226SOL     OW36139   1.905   4.576  10.606 -0.2109 -0.5463  0.2245
 8226SOL    HW136140   1.837   4.509  10.597  0.2451 -1.2503  1.9983
 8226SOL    HW236141   1.928   4.584  10.514 -0.3293 -1.9296  0.0766
 8227SOL     OW36142   2.209   4.684  17.666 -0.3941  0.0700  0.6465
 8227SOL    HW136143   2.193   4.590  17.661  2.6280 -0.3120 -1.7748
 8227SOL    HW236144   2.155   4.721   0.019  1.3449  0.3947  1.8367
 8228SOL     OW36145   4.270   0.937   3.714  0.7628  0.1262  0.5117
 8228SOL    HW136146   4.249   1.008   3.652 -1.2963 -1.2948 -0.4143
 8228SOL    HW236147   4.222   0.867   3.670  1.8960  1.1218 -2.3355
 8229SOL     OW36148   0.320   3.820   2.350  0.0579  0.4129  0.1759
 8229SOL    HW136149   0.285   3.806   2.438 -1.7469  1.2116 -0.4155
 8229SOL    HW236150   0.355   3.732   2.336  0.3163  0.2394  1.8288
 8230SOL     OW36151   2.223   2.358  17.620  0.1586 -0.0663  0.1391
 8230SOL    HW136152   2.291   2.372  17.686 -0.0064 -0.0774  0.3139
 8230SOL    HW236153   2.185   2.445  17.609  2.5564  0.8173 -1.0031
 8231SOL     OW36154   1.542   2.837   4.243  0.0665  0.1917  0.1459
 8231SOL    HW136155   1.528   2.900   4.313 -0.9472 -0.1677  0.2665
 8231SOL    HW236156   1.460   2.830   4.194  1.2965  0.2660 -1.9178
 8232SOL     OW36157   1.481   2.863  11.897  0.4065 -0.0459  0.0575
 8232SOL    HW136158   1.475   2.773  11.928 -3.5729  0.4020  0.5587
 8232SOL    HW236159   1.398   2.898  11.930  0.7014  1.6125 -0.9260
 8233SOL     OW36160   3.124   4.514   9.479  0.0928 -0.4761  0.4001
 8233SOL    HW136161   3.166   4.435   9.446  0.2958 -1.1111  2.1453
 8233SOL    HW236162   3.165   4.582   9.425 -0.1507 -0.8679 -0.2730
 8234SOL     OW36163   2.519   1.756  13.743 -0.0631 -0.1024 -0.6554
 8234SOL    HW136164   2.445   1.696  13.749 -0.4692  0.5277  0.5872
 8234SOL    HW236165   2.540   1.740  13.651  0.6522  0.2046 -0.5444
 8235SOL     OW36166   4.672   3.552   2.520 -0.0505  0.3043  0.2127
 8235SOL    HW136167   4.628   3.560   2.435  1.2686 -2.0133 -0.7011
 8235SOL    HW236168   4.616   3.611   2.570  0.8860  1.9222 -0.6211
 8236SOL     OW36169   0.906   2.128   8.040 -0.0409  0.0289  0.1505
 8236SOL    HW136170   0.880   2.202   8.094  0.2629 -1.1039  1.8463
 8236SOL    HW236171   0.987   2.102   8.086 -1.8241 -0.9784  2.7171
 8237SOL     OW36172   3.615   4.456   5.096  0.2261 -0.5200 -0.1782
 8237SOL    HW136173   3.694   4.435   5.145 -0.3337 -2.1624  0.0450
 8237SOL    HW236174   3.561   4.501   5.161  0.2922  0.0209 -0.5057
 8238SOL     OW36175   2.919   1.262  10.925  0.6623  0.0640 -0.1486
 8238SOL    HW136176   2.965   1.297  11.001  0.3784 -0.8859  0.4633
 8238SOL    HW236177   2.848   1.325  10.922  0.5972  0.0784  1.7525
 8239SOL     OW36178   1.344   0.378   3.961  0.3913 -0.1577  0.6005
 8239SOL    HW136179   1.271   0.316   3.964 -1.0331  1.4222 -1.6453
 8239SOL    HW236180   1.407   0.306   3.966 -0.4964 -1.2835 -4.0819
 8240SOL     OW36181   4.181   1.924  10.449  0.1323  0.5652 -0.2593
 8240SOL    HW136182   4.151   1.860  10.513 -0.5467 -0.6266 -1.7475
 8240SOL    HW236183   4.144   1.895  10.365  0.3405 -0.8183  0.1278
 8241SOL     OW36184   3.234   3.259  10.343 -0.0574 -0.3895 -0.3153
 8241SOL    HW136185   3.258   3.273  10.251  0.8347  2.8734  0.4252
 8241SOL    HW236186   3.139   3.262  10.330  0.0511  0.2836 -1.0104
 8242SOL     OW36187   3.880   0.066   7.989  0.7911  0.0637  0.0998
 8242SOL    HW136188   3.906   0.142   7.936  1.4921  0.1536  0.5777
 8242SOL    HW236189   3.786   0.078   7.999  0.8585 -0.4727  1.3730
 8243SOL     OW36190   1.406   1.872   6.664 -0.2148 -0.1010  0.2071
 8243SOL    HW136191   1.406   1.858   6.570 -0.9591 -1.0891  0.3590
 8243SOL    HW236192   1.336   1.808   6.678  2.4203 -2.6428  1.6099
 8244SOL     OW36193   3.014   0.144   6.210 -0.1354  0.1434  0.4045
 8244SOL    HW136194   2.977   0.135   6.298 -0.5207 -0.8931  0.1441
 8244SOL    HW236195   3.015   0.238   6.194  2.5007  0.1790  0.7644
 8245SOL     OW36196   0.560   0.648   6.559  0.5005 -0.3251 -0.5653
 8245SOL    HW136197   0.543   0.667   6.466 -3.0750 -0.4688  0.0848
 8245SOL    HW236198   0.608   0.565   6.555 -1.3554 -1.4228 -0.1133
 8246SOL     OW36199   1.327   1.990   7.671  0.0112 -0.6115 -0.3444
 8246SOL    HW136200   1.238   1.990   7.636 -0.4120  0.8114  0.7165
 8246SOL    HW236201   1.314   2.030   7.757  2.5919 -0.2784 -0.0977
 8247SOL     OW36202   1.824   1.874  13.784 -0.3674  0.1702 -0.1357
 8247SOL    HW136203   1.838   1.885  13.690  0.6174  1.8454  0.1968
 8247SOL    HW236204   1.913   1.881  13.820 -0.4386 -0.8263  0.2155
 8248SOL     OW36205   3.837   2.450   9.023 -0.0908 -0.2058 -0.5737
 8248SOL    HW136206   3.776   2.492   9.083 -1.4954 -0.5270 -1.7688
 8248SOL    HW236207   3.904   2.409   9.077  0.0505  0.0434 -0.5600
 8249SOL     OW36208   2.190   2.169   7.433 -0.2547 -0.3961  0.0975
 8249SOL    HW136209   2.196   2.260   7.406 -1.4936 -0.8402 -1.7058
 8249SOL    HW236210   2.157   2.181   7.522  0.4794 -0.0429  0.3166
 8250SOL     OW36211   1.633   3.411   1.689 -0.3386 -0.3190  0.2528
 8250SOL    HW136212   1.685   3.341   1.727  2.0133  0.7218 -1.0825
 8250SOL    HW236213   1.562   3.356   1.655  0.0746 -0.6484 -0.0610
 8251SOL     OW36214   3.298   2.304   1.641 -0.1116  0.3963 -0.1090
 8251SOL    HW136215   3.203   2.305   1.642 -0.1227 -2.7841  0.9329
 8251SOL    HW236216   3.328   2.247   1.570  1.7842 -0.1092  1.0908
 8252SOL     OW36217   0.993   1.362   0.110 -0.0748 -0.2126 -0.5018
 8252SOL    HW136218   0.940   1.351   0.031 -0.1020  0.2727 -0.5496
 8252SOL    HW236219   0.923   1.362   0.175 -0.9718 -0.6502 -1.4593
 8253SOL     OW36220   0.932   4.343   3.261  0.2089  0.5461  0.2950
 8253SOL    HW136221   1.008   4.342   3.203  0.9412  0.7411  1.2498
 8253SOL    HW236222   0.907   4.251   3.257 -2.2534  1.2882 -1.2090
 8254SOL     OW36223   4.506   0.430  10.692 -0.2069 -0.5017 -0.6364
 8254SOL    HW136224   4.456   0.371  10.748 -0.0843 -0.9336 -0.9824
 8254SOL    HW236225   4.442   0.429  10.621 -2.1779 -2.2884  1.1853
 8255SOL     OW36226   3.048   0.426   1.565 -0.8221  0.4754  0.4334
 8255SOL    HW136227   2.986   0.411   1.637 -2.5605 -0.4045 -1.2272
 8255SOL    HW236228   3.056   0.343   1.518  2.9462  0.7610  0.6095
 8256SOL     OW36229   4.281   3.473   0.959  0.4779  0.5230  0.2711
 8256SOL    HW136230   4.329   3.401   0.918  1.1080  0.5852  0.8991
 8256SOL    HW236231   4.255   3.432   1.041  1.9592 -0.1723  0.3922
 8257SOL     OW36232   1.212   0.527   2.861  0.3443  0.5630  0.2036
 8257SOL    HW136233   1.127   0.520   2.819  1.7122 -0.7952 -2.3686
 8257SOL    HW236234   1.270   0.490   2.794 -1.1379 -1.2320 -0.0699
 8258SOL     OW36235   0.126   3.713   3.840 -0.4029 -0.9217  0.0589
 8258SOL    HW136236   0.151   3.805   3.827  0.0134 -1.3966 -2.4215
 8258SOL    HW236237   0.123   3.702   3.745  2.2345 -1.2623  0.0180
 8259SOL     OW36238   1.863   4.283   4.523  0.6118  0.4678 -0.3505
 8259SOL    HW136239   1.770   4.305   4.527  0.7572  1.3629 -2.0388
 8259SOL    HW236240   1.894   4.365   4.484  1.3713  0.1771 -0.3684
 8260SOL     OW36241   0.910   0.142   4.162 -0.4223 -0.3523 -0.6132
 8260SOL    HW136242   0.918   0.089   4.082 -0.2271 -1.4282  0.1129
 8260SOL    HW236243   0.970   0.096   4.221  0.3890 -0.3194 -1.4054
 8261SOL     OW36244   4.347   1.588  15.331  0.1056  0.3082  0.4513
 8261SOL    HW136245   4.389   1.673  15.340 -0.3566  0.4576  1.1648
 8261SOL    HW236246   4.399   1.527  15.385 -1.7226 -2.4492 -0.9014
 8262SOL     OW36247   0.078   0.524  10.913  0.2733 -0.5928 -0.0552
 8262SOL    HW136248   0.019   0.561  10.847 -1.1857 -0.8851  1.0986
 8262SOL    HW236249   0.113   0.599  10.962  2.2388 -1.4242 -0.1629
 8263SOL     OW36250   3.774   0.980   3.219 -0.2691 -0.4807  0.0514
 8263SOL    HW136251   3.742   1.067   3.242 -0.5449 -0.6470  0.2813
 8263SOL    HW236252   3.782   0.997   3.125 -0.8291  5.3348  1.0784
 8264SOL     OW36253   1.211   0.910   5.222 -0.8375  0.1184 -0.2390
 8264SOL    HW136254   1.263   0.848   5.275  3.0349  3.7633  0.2401
 8264SOL    HW236255   1.283   0.946   5.171  0.8151 -2.4078  0.2887
 8265SOL     OW36256   1.191   3.924  17.373 -0.0163 -0.5714  0.3671
 8265SOL    HW136257   1.182   3.976  17.293  0.3612 -0.3426  0.4779
 8265SOL    HW236258   1.101   3.916  17.404 -0.2467 -0.5633 -0.2861
 8266SOL     OW36259   0.862   0.971   6.288 -0.1142 -0.4263  1.3379
 8266SOL    HW136260   0.844   0.935   6.375 -0.3645 -0.0395  1.4498
 8266SOL    HW236261   0.923   1.041   6.312 -0.0711 -0.3126  0.8972
 8267SOL     OW36262   1.284   1.569   2.845  0.2659  0.0112  0.1626
 8267SOL    HW136263   1.352   1.634   2.829  1.8988 -2.4927 -3.0719
 8267SOL    HW236264   1.210   1.596   2.790  0.5211  0.3450 -0.0227
 8268SOL     OW36265   0.736   4.315  11.447 -0.0973 -0.3112 -0.6981
 8268SOL    HW136266   0.797   4.353  11.384 -2.5756  1.5927 -1.9715
 8268SOL    HW236267   0.738   4.373  11.522  0.2261 -0.2914 -0.7231
 8269SOL     OW36268   4.081   0.990   7.797  0.1000  0.4093 -0.5195
 8269SOL    HW136269   4.015   0.991   7.727 -0.0085  1.4929 -0.4081
 8269SOL    HW236270   4.156   1.030   7.753  0.4310 -1.1001 -1.3400
 8270SOL     OW36271   4.344   3.323  15.670  0.6914 -0.3118 -0.3469
 8270SOL    HW136272   4.437   3.305  15.657  0.4083 -1.2403 -1.0261
 8270SOL    HW236273   4.353   3.393  15.736 -1.1074 -0.3060 -0.0903
 8271SOL     OW36274   3.663   0.487  15.500 -0.1409 -0.0335  0.5427
 8271SOL    HW136275   3.736   0.425  15.496 -0.1656 -0.0451  0.2970
 8271SOL    HW236276   3.698   0.549  15.436 -2.6167  1.2510  0.4479
 8272SOL     OW36277   1.294   3.071   4.380 -0.5734  0.3281  0.2460
 8272SOL    HW136278   1.348   3.092   4.303  1.7727 -2.4220  1.1557
 8272SOL    HW236279   1.226   3.138   4.374 -2.8006 -2.1079 -1.3807
 8273SOL     OW36280   0.873   3.629   8.998  0.0305  0.3492  0.4694
 8273SOL    HW136281   0.854   3.663   9.085 -2.8847 -1.0583  0.3967
 8273SOL    HW236282   0.789   3.625   8.951  0.4916 -0.7447 -0.2715
 8274SOL     OW36283   4.297   3.721   8.817  0.4779 -0.1630 -0.7080
 8274SOL    HW136284   4.242   3.797   8.836 -1.0314 -1.2040 -0.9922
 8274SOL    HW236285   4.235   3.649   8.828 -0.1888  0.8478  2.3150
 8275SOL     OW36286   1.221   1.523   7.209  0.1683 -0.0336  0.3552
 8275SOL    HW136287   1.151   1.541   7.272  0.3737  1.0851  0.2554
 8275SOL    HW236288   1.235   1.610   7.172  0.0434  0.2913  1.0628
 8276SOL     OW36289   4.033   2.755   4.952  0.4076  0.4795 -0.2721
 8276SOL    HW136290   3.965   2.713   5.005 -0.2301 -2.6003 -3.5031
 8276SOL    HW236291   4.021   2.706   4.871 -3.2996 -0.3302  0.7818
 8277SOL     OW36292   1.244   1.379  13.555  0.0532  0.2033  0.2492
 8277SOL    HW136293   1.269   1.427  13.633 -0.2741 -1.0550  1.1279
 8277SOL    HW236294   1.209   1.451  13.503 -1.4535  0.3961  1.5680
 8278SOL     OW36295   0.904   1.811  15.901  0.0738 -0.0229 -0.2288
 8278SOL    HW136296   0.906   1.837  15.809  2.0200  1.6265  0.2971
 8278SOL    HW236297   0.820   1.845  15.932 -0.2203  0.0146 -1.0464
 8279SOL     OW36298   2.958   4.139   6.424  0.4309 -0.3175  0.1233
 8279SOL    HW136299   3.023   4.118   6.356 -1.7430 -0.3550 -1.9340
 8279SOL    HW236300   3.008   4.169   6.499 -1.8912  0.0957  1.5027
 8280SOL     OW36301   4.551   1.538   1.099  0.8114 -0.5554 -0.2444
 8280SOL    HW136302   4.589   1.496   1.176 -0.5756  2.4517  2.0503
 8280SOL    HW236303   4.524   1.458   1.054  0.2814  1.3153 -3.2998
 8281SOL     OW36304   1.522   3.515   4.335 -0.0598 -0.1310 -0.0891
 8281SOL    HW136305   1.456   3.582   4.354  0.1119  0.1355 -0.4399
 8281SOL    HW236306   1.542   3.501   4.428 -0.9997  1.6629  0.3855
 8282SOL     OW36307   4.297   1.647   7.531  0.0554 -0.4262 -0.1749
 8282SOL    HW136308   4.211   1.609   7.513 -0.5088  1.5504 -1.6523
 8282SOL    HW236309   4.358   1.580   7.502  0.5417  0.0891 -0.3308
 8283SOL     OW36310   4.207   4.100   6.112 -0.2726  0.1029 -0.1604
 8283SOL    HW136311   4.165   4.131   6.032  0.9962  0.9164 -0.5231
 8283SOL    HW236312   4.134   4.055   6.155  1.0001 -0.4230  1.4630
 8284SOL     OW36313   3.568   1.348   7.904  0.3269  0.2308  0.0366
 8284SOL    HW136314   3.505   1.419   7.904  0.7047  0.5659 -1.3349
 8284SOL    HW236315   3.648   1.392   7.934 -0.5095  0.2130  2.3315
 8285SOL     OW36316   2.146   0.633  13.714 -0.3590  0.1655  0.2964
 8285SOL    HW136317   2.197   0.701  13.670 -1.0537 -0.7942 -1.9871
 8285SOL    HW236318   2.127   0.578  13.638  4.1312 -0.3604 -0.4476
 8286SOL     OW36319   3.163   4.428  12.168 -0.4792 -0.2127 -0.0789
 8286SOL    HW136320   3.220   4.467  12.102  1.3087  0.0227  1.6039
 8286SOL    HW236321   3.085   4.406  12.117 -0.1770 -0.7421 -0.3149
 8287SOL     OW36322   0.734   1.793   2.339 -0.2581  0.2081 -0.2409
 8287SOL    HW136323   0.657   1.799   2.284 -0.2311  2.2450 -0.0639
 8287SOL    HW236324   0.805   1.772   2.278 -2.2724  0.2920 -2.6007
 8288SOL     OW36325   3.533   0.432   8.276 -0.3107 -0.1503 -0.0201
 8288SOL    HW136326   3.559   0.509   8.327  2.5980 -2.0255  1.3268
 8288SOL    HW236327   3.439   0.441   8.295 -0.5748 -1.4890 -0.7185
 8289SOL     OW36328   2.035   1.238  10.163 -0.3857 -0.2458 -0.1757
 8289SOL    HW136329   2.116   1.212  10.119 -0.6258 -0.0928 -0.7029
 8289SOL    HW236330   2.013   1.320  10.119  0.4912  0.4939  0.7663
 8290SOL     OW36331   0.632   0.154   7.315  0.5036  0.2154 -0.0224
 8290SOL    HW136332   0.682   0.118   7.388  0.6810 -1.5368 -0.9986
 8290SOL    HW236333   0.617   0.241   7.351 -0.1874 -0.5326  1.4838
 8291SOL     OW36334   4.615   2.091   5.553 -0.1234  0.1261 -0.2654
 8291SOL    HW136335   4.662   2.122   5.630  0.1734 -0.5438 -0.1817
 8291SOL    HW236336   4.617   1.996   5.561 -0.3626  0.2277  1.0147
 8292SOL     OW36337   1.620   3.560  15.372 -0.0895 -0.1517  0.0202
 8292SOL    HW136338   1.651   3.649  15.353  0.1835 -0.6297 -1.7235
 8292SOL    HW236339   1.681   3.551  15.445 -0.5383  3.3852  0.8659
 8293SOL     OW36340   4.716   4.480   4.879  0.1559  0.4401 -0.3659
 8293SOL    HW136341   4.719   4.412   4.812 -1.5340 -1.4789  1.5122
 8293SOL    HW236342   0.064   4.457   4.931  0.2217  0.9069 -0.2624
 8294SOL     OW36343   3.930   2.137   2.601  0.3473  0.2653 -0.1505
 8294SOL    HW136344   4.002   2.197   2.583  0.8079 -0.3087 -0.2416
 8294SOL    HW236345   3.867   2.207   2.612  0.9944  0.3718  2.8197
 8295SOL     OW36346   3.488   1.877  11.273  0.1597  0.9595  0.0889
 8295SOL    HW136347   3.454   1.912  11.355 -1.7708  0.1525 -0.3680
 8295SOL    HW236348   3.544   1.953  11.255  1.7424 -0.4663 -1.0244
 8296SOL     OW36349   4.132   3.589   7.577 -0.2272 -0.5679  0.1055
 8296SOL    HW136350   4.140   3.567   7.484  3.9251 -0.7418  0.4939
 8296SOL    HW236351   4.191   3.663   7.585  2.1546 -2.4033 -0.5993
 8297SOL     OW36352   1.979   0.099  12.648  0.3707 -0.2021  0.0914
 8297SOL    HW136353   2.068   0.067  12.666  0.4761 -0.5869 -1.1033
 8297SOL    HW236354   1.943   0.026  12.597 -2.4117 -0.2867  2.1711
 8298SOL     OW36355   3.704   2.359   3.562 -0.3379  0.4962 -0.3164
 8298SOL    HW136356   3.756   2.280   3.574 -0.3790  0.5455  0.1741
 8298SOL    HW236357   3.637   2.336   3.626 -1.3775  0.7368 -1.3166
 8299SOL     OW36358   4.311   3.463   7.960  0.3959 -0.3146  0.9998
 8299SOL    HW136359   4.249   3.501   8.022  0.3303  0.1107  0.6737
 8299SOL    HW236360   4.254   3.418   7.897  3.4950 -0.3341 -1.7959
 8300SOL     OW36361   3.460   4.657   6.228 -0.0277 -0.2133 -0.0341
 8300SOL    HW136362   3.476   4.574   6.184 -1.2125 -1.4814  1.8723
 8300SOL    HW236363   3.468   4.629   6.320  3.4943 -1.7448 -0.8327
 8301SOL     OW36364   1.400   2.091  11.840  0.3984 -0.0528 -0.4533
 8301SOL    HW136365   1.424   1.998  11.848  1.4583  0.2726  0.0935
 8301SOL    HW236366   1.336   2.104  11.909  2.0567 -2.0599  1.4798
 8302SOL     OW36367   3.445   4.507   5.394  0.0486  0.2311 -0.1487
 8302SOL    HW136368   3.365   4.502   5.341  0.2250 -0.8264 -0.3032
 8302SOL    HW236369   3.484   4.584   5.352  2.2257 -0.3431  0.8469
 8303SOL     OW36370   0.858   0.516  16.683  0.0964 -0.5863  0.0154
 8303SOL    HW136371   0.843   0.595  16.632  0.0158 -1.5276 -1.3994
 8303SOL    HW236372   0.925   0.556  16.740  0.1988  0.3191 -0.7456
 8304SOL     OW36373   1.138   3.154   7.649 -0.0924 -0.5167  0.1258
 8304SOL    HW136374   1.065   3.112   7.695  0.5448 -2.4692 -0.6211
 8304SOL    HW236375   1.193   3.203   7.710 -1.1890  1.9355 -0.8919
 8305SOL     OW36376   1.234   3.790   5.898 -0.1661 -0.9434 -0.1295
 8305SOL    HW136377   1.307   3.822   5.845 -1.5558  0.3809 -1.2362
 8305SOL    HW236378   1.254   3.700   5.924 -0.0337 -1.3054 -1.4765
 8306SOL     OW36379   0.679   2.641  13.868  0.1348 -0.2797 -0.5461
 8306SOL    HW136380   0.597   2.673  13.905  0.1466  0.8951 -1.5236
 8306SOL    HW236381   0.650   2.603  13.785  1.0516 -2.5126  0.1652
 8307SOL     OW36382   2.829   0.643   7.883 -1.0431  0.4750 -0.0683
 8307SOL    HW136383   2.749   0.694   7.886 -0.3085  1.6337 -0.1568
 8307SOL    HW236384   2.881   0.675   7.957  0.9224 -0.1729 -1.1554
 8308SOL     OW36385   3.920   1.567   1.356 -0.1026  0.1834  0.8653
 8308SOL    HW136386   3.926   1.575   1.261  0.1816 -0.7690  0.7986
 8308SOL    HW236387   3.841   1.616   1.376  0.2091  1.1463 -0.3026
 8309SOL     OW36388   0.308   0.269   6.515  0.3290 -0.0383  0.0663
 8309SOL    HW136389   0.240   0.214   6.554  0.3449 -1.7065 -2.2722
 8309SOL    HW236390   0.260   0.315   6.447  0.9587 -0.6585 -0.7887
 8310SOL     OW36391   2.906   4.523   8.676 -0.5328  0.3573 -0.3416
 8310SOL    HW136392   2.949   4.559   8.599 -0.8576  0.4512 -0.4776
 8310SOL    HW236393   2.866   4.600   8.716 -0.0019  0.6753 -0.4269
 8311SOL     OW36394   0.577   4.115   8.858 -0.4660  0.1676  0.2185
 8311SOL    HW136395   0.582   4.164   8.776  2.4586 -0.0435  0.2755
 8311SOL    HW236396   0.497   4.160   8.887  2.1895  3.7201  2.0448
 8312SOL     OW36397   2.310   1.758   9.039 -0.3075  0.3157 -0.2543
 8312SOL    HW136398   2.380   1.817   9.070 -2.1243  3.2428 -1.7631
 8312SOL    HW236399   2.325   1.758   8.945 -0.0803 -0.1746 -0.2224
 8313SOL     OW36400   0.713   1.782   2.001 -0.1689  0.3547 -0.1450
 8313SOL    HW136401   0.743   1.753   1.915 -0.6204 -0.0171 -0.1737
 8313SOL    HW236402   0.744   1.873   1.998  1.4511 -0.1897 -0.2209
 8314SOL     OW36403   2.944   4.614  15.752 -0.3989 -0.5108 -0.0062
 8314SOL    HW136404   3.003   4.673  15.704 -1.3457 -0.3534 -0.9643
 8314SOL    HW236405   2.983   4.611  15.839 -0.3697  0.7843  0.0210
 8315SOL     OW36406   2.291   4.471   2.341 -0.4580 -0.0703 -0.3087
 8315SOL    HW136407   2.369   4.527   2.335  0.2590 -1.1368 -0.8354
 8315SOL    HW236408   2.293   4.449   2.248 -0.0967 -2.4822  0.2886
 8316SOL     OW36409   0.430   3.145   9.379  0.3841  0.2872  0.3239
 8316SOL    HW136410   0.392   3.229   9.405 -2.1759  0.0676 -2.6816
 8316SOL    HW236411   0.417   3.145   9.284 -1.5920  0.4677  0.6069
 8317SOL     OW36412   0.863   2.060   5.676 -0.6604  0.0225  0.8984
 8317SOL    HW136413   0.928   2.122   5.645 -0.0430  0.0607  2.2976
 8317SOL    HW236414   0.913   2.024   5.749 -1.0279 -0.4135  0.9331
 8318SOL     OW36415   1.457   4.168   0.625 -0.5540 -0.1891  0.0135
 8318SOL    HW136416   1.483   4.125   0.543  0.9462 -1.0804  0.9621
 8318SOL    HW236417   1.422   4.099   0.681 -1.6231  2.3714  2.5035
 8319SOL     OW36418   1.000   3.856   1.183 -0.2192  0.2523  0.1861
 8319SOL    HW136419   1.024   3.767   1.159  0.5841 -0.1445  2.5283
 8319SOL    HW236420   0.989   3.866   1.278  1.2687 -2.0398  0.5908
 8320SOL     OW36421   4.160   3.996   3.979  0.0946  0.1424 -0.8383
 8320SOL    HW136422   4.193   4.029   4.063  2.6406 -2.2295 -0.9012
 8320SOL    HW236423   4.065   4.006   3.989  0.2587  1.9092 -1.2273
 8321SOL     OW36424   3.765   2.216  11.725 -0.1640 -0.0287  0.1252
 8321SOL    HW136425   3.757   2.134  11.677 -2.9959  0.1016  0.3894
 8321SOL    HW236426   3.678   2.256  11.719 -0.2276 -0.1905 -0.0328
 8322SOL     OW36427   3.000   3.456  15.651 -0.2026  0.2364 -0.1424
 8322SOL    HW136428   2.998   3.415  15.738  1.0301  0.5811  0.0471
 8322SOL    HW236429   3.045   3.382  15.609 -2.1876 -0.3397 -1.2174
 8323SOL     OW36430   2.619   1.529   8.908 -0.2881  0.1949 -0.2901
 8323SOL    HW136431   2.599   1.619   8.882 -1.1770 -0.2827 -1.2234
 8323SOL    HW236432   2.608   1.535   9.003  0.1500  2.4177 -0.3728
 8324SOL     OW36433   3.995   1.257  16.830 -0.2863  0.2412  0.3789
 8324SOL    HW136434   4.034   1.253  16.917 -0.4152  0.6691  0.4549
 8324SOL    HW236435   4.013   1.168  16.799  1.5261  1.0098 -0.7569
 8325SOL     OW36436   1.701   2.841  15.393  0.1660 -0.2552 -0.6313
 8325SOL    HW136437   1.698   2.935  15.409  0.2662 -0.2812 -0.4596
 8325SOL    HW236438   1.633   2.827  15.327 -0.5950 -2.0542  0.5426
 8326SOL     OW36439   2.768   2.995   2.371  0.2674  0.3426 -0.0407
 8326SOL    HW136440   2.679   3.013   2.402  0.1453 -1.9895  0.9991
 8326SOL    HW236441   2.774   3.066   2.307  0.0347  1.4748  1.1879
 8327SOL     OW36442   4.106   3.261   2.606  0.5304  0.6447 -0.5348
 8327SOL    HW136443   4.048   3.238   2.534 -0.8853  0.1245  0.7636
 8327SOL    HW236444   4.136   3.174   2.633  2.3343  1.0423 -1.3158
 8328SOL     OW36445   2.401   0.889   4.730  0.1892  0.3818 -0.9208
 8328SOL    HW136446   2.466   0.955   4.706  1.2038 -0.3928 -0.3103
 8328SOL    HW236447   2.400   0.894   4.826 -1.7718 -0.3595 -0.9157
 8329SOL     OW36448   2.239   0.862   8.829  0.6077 -0.1844  0.4907
 8329SOL    HW136449   2.177   0.807   8.877 -0.6449  1.4562  0.7538
 8329SOL    HW236450   2.276   0.909   8.905  0.2368  1.4886 -0.3555
 8330SOL     OW36451   2.009   2.059   6.258  0.5276 -0.2872  0.0568
 8330SOL    HW136452   2.012   2.129   6.323 -0.5996  1.4986 -1.8143
 8330SOL    HW236453   2.072   2.093   6.195  0.5665 -0.9490 -0.2689
 8331SOL     OW36454   3.022   0.844  10.052 -0.1944 -0.5773 -0.6578
 8331SOL    HW136455   2.947   0.813  10.001 -3.0071  0.6020  2.7146
 8331SOL    HW236456   3.017   0.940  10.057 -0.9289 -0.7027  1.3588
 8332SOL     OW36457   1.337   3.598  15.794  0.1868 -0.7230  0.4571
 8332SOL    HW136458   1.375   3.592  15.706 -0.3465 -0.4195  0.2127
 8332SOL    HW236459   1.276   3.670  15.784 -0.5048 -1.4106 -0.2979
 8333SOL     OW36460   0.661   2.107   4.912  0.0931  0.0901  0.0260
 8333SOL    HW136461   0.725   2.100   4.982  1.8572  1.3545 -1.4640
 8333SOL    HW236462   0.612   2.031   4.943 -1.3353  0.8086 -0.4574
 8334SOL     OW36463   0.489   2.123  12.042 -0.4999 -0.2607 -0.3463
 8334SOL    HW136464   0.567   2.179  12.035 -1.2069  0.8042  0.3567
 8334SOL    HW236465   0.427   2.181  11.997 -2.5121 -3.1780 -1.2836
 8335SOL     OW36466   1.874   0.893   5.988  0.0666  0.2122  0.0307
 8335SOL    HW136467   1.944   0.914   6.049  0.1433  0.8758 -0.2856
 8335SOL    HW236468   1.923   0.859   5.913  1.8191 -1.3947  1.9184
 8336SOL     OW36469   3.357   0.627   9.148 -0.2770 -0.8137 -0.2971
 8336SOL    HW136470   3.385   0.584   9.066 -0.3151 -0.1579 -0.6538
 8336SOL    HW236471   3.339   0.717   9.120  1.7154 -0.1969  0.4251
 8337SOL     OW36472   4.637   2.544  12.453  0.4070  0.5205  0.5045
 8337SOL    HW136473   4.671   2.511  12.370 -0.4238  2.1440 -0.4876
 8337SOL    HW236474   4.699   2.506  12.515  1.6643 -1.6827 -2.1103
 8338SOL     OW36475   0.636   0.847   7.301 -0.2301 -0.2014  0.0855
 8338SOL    HW136476   0.546   0.817   7.312 -0.9295  0.6054 -3.7478
 8338SOL    HW236477   0.646   0.923   7.359 -0.2596  0.1840 -0.4204
 8339SOL     OW36478   4.515   1.052   7.500  0.2083 -0.2916 -0.2639
 8339SOL    HW136479   4.479   1.029   7.414  0.5949 -0.2324 -0.4414
 8339SOL    HW236480   4.537   0.968   7.541 -0.9667 -0.7941 -0.6387
 8340SOL     OW36481   2.935   1.772   9.017  0.3462  0.5364 -0.2236
 8340SOL    HW136482   2.996   1.707   9.051 -1.0501 -1.4192 -1.4740
 8340SOL    HW236483   2.922   1.724   8.935 -1.3389  0.7131 -0.0530
 8341SOL     OW36484   0.062   3.269   9.472  0.0940  0.0021 -0.3890
 8341SOL    HW136485   4.716   3.318   9.438  0.0222 -0.5348 -1.0138
 8341SOL    HW236486   0.134   3.310   9.424  0.1993  1.1720  0.7717
 8342SOL     OW36487   1.977   1.331   2.819 -0.1555  0.3465  0.1574
 8342SOL    HW136488   1.994   1.380   2.899  1.8864 -0.4661  0.2162
 8342SOL    HW236489   1.908   1.383   2.779 -1.0682 -0.8557  0.1473
 8343SOL     OW36490   1.750   2.066   5.599 -0.6449  0.2212 -0.2686
 8343SOL    HW136491   1.713   2.075   5.687 -1.0551 -1.0245 -0.3105
 8343SOL    HW236492   1.678   2.035   5.544 -0.5954  0.9394 -0.7273
 8344SOL     OW36493   3.606   2.516   4.260  0.4249 -0.1600 -0.2207
 8344SOL    HW136494   3.616   2.561   4.176  0.4252  0.8808  0.3282
 8344SOL    HW236495   3.548   2.442   4.244  0.5899 -0.6794  1.5578
 8345SOL     OW36496   2.477   3.988   2.224 -0.4329  0.3713 -0.4764
 8345SOL    HW136497   2.427   3.995   2.143  0.2983  1.6746 -0.8256
 8345SOL    HW236498   2.527   3.907   2.213  0.8730  0.9867  0.7490
 8346SOL     OW36499   2.066   0.672  13.400  0.3418  0.2999  0.0912
 8346SOL    HW136500   2.087   0.646  13.310 -2.1898  2.2868 -1.0725
 8346SOL    HW236501   1.976   0.641  13.402  0.7568 -0.9324 -0.1773
 8347SOL     OW36502   2.560   3.279   4.731  0.5156  0.8074 -0.4158
 8347SOL    HW136503   2.548   3.374   4.726  1.1450  0.8380 -1.4314
 8347SOL    HW236504   2.596   3.264   4.644 -0.4144  3.2925 -1.2194
 8348SOL     OW36505   1.104   4.675   7.856  0.1607 -0.3598  0.1109
 8348SOL    HW136506   1.193   4.692   7.825 -1.2314  0.4795 -3.4742
 8348SOL    HW236507   1.115   4.581   7.871 -0.8455 -0.6139 -0.7125
 8349SOL     OW36508   1.810   3.423   9.634  0.6377 -0.0862  0.0798
 8349SOL    HW136509   1.841   3.508   9.666 -3.2121  1.9868 -1.7682
 8349SOL    HW236510   1.815   3.370   9.713  1.3587  0.3236  0.3039
 8350SOL     OW36511   3.833   0.736   4.464  0.0490  0.2468 -0.3632
 8350SOL    HW136512   3.894   0.685   4.411  1.5263  1.7550 -0.1278
 8350SOL    HW236513   3.883   0.817   4.473  1.0026 -0.1037 -2.3805
 8351SOL     OW36514   3.735   1.532  17.068 -0.1349  0.1516  0.3004
 8351SOL    HW136515   3.826   1.522  17.094  0.9031  3.3855 -2.1029
 8351SOL    HW236516   3.720   1.624  17.089  0.1065  0.6018 -1.5272
 8352SOL     OW36517   2.877   0.324   5.064 -0.3878 -0.4375 -0.4542
 8352SOL    HW136518   2.855   0.305   4.973  0.6838  1.1567 -1.0215
 8352SOL    HW236519   2.818   0.397   5.082  0.6015  0.5753 -1.4233
 8353SOL     OW36520   0.131   3.070   0.902  0.0325  0.6507  0.4673
 8353SOL    HW136521   0.126   2.988   0.852  0.1485  2.6735 -2.8872
 8353SOL    HW236522   0.052   3.060   0.955  1.5406  0.8740  2.7574
 8354SOL     OW36523   3.661   0.008  10.600  0.8510 -0.5473 -0.4602
 8354SOL    HW136524   3.588   0.015  10.539 -0.5725  0.4252  1.3708
 8354SOL    HW236525   3.727   0.074  10.578 -0.4066  0.1225 -2.1481
 8355SOL     OW36526   0.215   3.198   3.247 -0.1010 -0.1569 -0.0587
 8355SOL    HW136527   0.166   3.192   3.329 -0.8005 -1.2881 -0.5508
 8355SOL    HW236528   0.305   3.181   3.272 -0.1326  0.5987  0.6027
 8356SOL     OW36529   4.434   3.969   3.226 -0.3813  0.3929 -0.2191
 8356SOL    HW136530   4.511   3.953   3.281 -1.0334 -1.1040  0.2508
 8356SOL    HW236531   4.406   3.882   3.198  0.6836  0.3237 -1.0705
 8357SOL     OW36532   3.233   2.580  12.221  0.1940  0.0886 -0.0873
 8357SOL    HW136533   3.173   2.654  12.233 -0.4059 -0.2951 -0.7100
 8357SOL    HW236534   3.239   2.581  12.125  0.9315 -0.0073 -0.0431
 8358SOL     OW36535   1.122   4.488   3.684 -0.3416  0.5815 -0.4078
 8358SOL    HW136536   1.038   4.481   3.638 -1.8602 -0.5258  2.5716
 8358SOL    HW236537   1.102   4.470   3.775  0.9488 -2.3526 -0.6814
 8359SOL     OW36538   4.047   1.168   8.862 -0.5095  0.0955 -0.4063
 8359SOL    HW136539   4.028   1.170   8.768 -0.7657  1.0116 -0.3279
 8359SOL    HW236540   4.104   1.091   8.870  1.8860  1.8853 -0.4728
 8360SOL     OW36541   1.560   0.233   8.016 -0.3866 -0.2457 -0.3936
 8360SOL    HW136542   1.625   0.233   8.087  1.5122 -0.9751 -2.1530
 8360SOL    HW236543   1.591   0.314   7.975  0.4721 -0.0264  0.6666
 8361SOL     OW36544   2.024   0.994   9.491 -0.6024  0.4546  0.1940
 8361SOL    HW136545   2.080   1.070   9.506  0.6358  0.1176 -2.8312
 8361SOL    HW236546   2.030   0.949   9.575  1.1963 -0.5510 -0.4576
 8362SOL     OW36547   0.996   2.564   1.701  0.0274  0.6635  0.2529
 8362SOL    HW136548   0.985   2.610   1.618 -0.5281 -0.2726 -0.1925
 8362SOL    HW236549   1.070   2.510   1.675  0.4246  1.0907  0.4915
 8363SOL     OW36550   1.368   2.909   7.760  0.1632  0.1212 -0.3301
 8363SOL    HW136551   1.417   2.986   7.790  1.6021 -0.3687 -1.4233
 8363SOL    HW236552   1.404   2.847   7.824  0.4624  0.4676 -0.1624
 8364SOL     OW36553   2.106   1.694   6.694  0.0723  0.1270  0.0894
 8364SOL    HW136554   2.035   1.749   6.728  0.5041  0.7060  0.0524
 8364SOL    HW236555   2.126   1.640   6.770  1.2314 -1.0554 -1.0479
 8365SOL     OW36556   4.606   2.353   2.546  0.0083  0.0348  0.3402
 8365SOL    HW136557   4.564   2.315   2.624 -2.6774 -0.0979 -1.1714
 8365SOL    HW236558   4.696   2.332   2.569 -0.9739 -1.8676  2.4733
 8366SOL     OW36559   2.625   1.114   8.618  0.1012 -0.1870 -0.1837
 8366SOL    HW136560   2.583   1.028   8.622 -0.4867  0.0298 -1.7200
 8366SOL    HW236561   2.678   1.124   8.698 -0.9159  0.2185  0.4457
 8367SOL     OW36562   2.236   1.898   7.448 -0.4539  0.2717 -0.4367
 8367SOL    HW136563   2.242   1.923   7.540  1.2963 -4.4332  0.7482
 8367SOL    HW236564   2.210   1.979   7.405 -0.9422  0.0092 -0.6355
 8368SOL     OW36565   1.667   1.222   8.833  0.0784 -0.1616  0.0689
 8368SOL    HW136566   1.698   1.245   8.921 -1.4578  0.7294  0.3805
 8368SOL    HW236567   1.678   1.126   8.837  1.2655 -0.0329 -0.0423
 8369SOL     OW36568   4.179   4.387  15.345  0.0851 -0.1365  0.3880
 8369SOL    HW136569   4.130   4.325  15.291  1.8759  0.9354 -2.4171
 8369SOL    HW236570   4.235   4.434  15.284  0.2250  1.4952  1.7767
 8370SOL     OW36571   2.177   1.060   5.684  0.2187  0.8601 -0.3700
 8370SOL    HW136572   2.221   1.061   5.768 -1.0612 -2.3135  0.3437
 8370SOL    HW236573   2.253   1.033   5.631  1.0986  0.6466  1.0137
 8371SOL     OW36574   3.791   4.406   8.416  0.0081 -0.2051  0.3910
 8371SOL    HW136575   3.788   4.428   8.323  2.5919 -2.5470 -0.2357
 8371SOL    HW236576   3.772   4.313   8.430 -2.2049  0.4619  1.8253
 8372SOL     OW36577   1.852   1.246   2.327  0.4463 -0.1913  0.0969
 8372SOL    HW136578   1.790   1.319   2.332 -1.3985 -1.6318 -1.2681
 8372SOL    HW236579   1.912   1.273   2.396 -1.7496 -0.8142  2.2528
 8373SOL     OW36580   1.008   2.554   8.743 -0.3113  0.4982  0.7672
 8373SOL    HW136581   0.970   2.567   8.830 -1.7459  0.3548  0.1456
 8373SOL    HW236582   0.937   2.588   8.689 -0.5411  1.2771  1.5675
 8374SOL     OW36583   1.201   3.491   5.149 -0.7753  0.1978 -0.2745
 8374SOL    HW136584   1.166   3.438   5.221  1.5841 -0.2008  0.5652
 8374SOL    HW236585   1.145   3.460   5.077  0.1047 -1.1398 -0.3945
 8375SOL     OW36586   0.221   3.454   3.124 -0.2956  0.0089 -0.6009
 8375SOL    HW136587   0.225   3.368   3.166  0.7240 -0.2843 -1.2994
 8375SOL    HW236588   0.225   3.421   3.035 -0.6819 -1.7350  0.0291
 8376SOL     OW36589   4.595   0.946   3.983 -0.0863 -0.0799 -0.1602
 8376SOL    HW136590   4.514   0.895   3.983  0.5496 -1.0983  0.5040
 8376SOL    HW236591   4.651   0.869   3.997  0.2182  0.6314  2.5316
 8377SOL     OW36592   4.133   1.998  14.799 -0.3255 -0.2574  0.4779
 8377SOL    HW136593   4.217   2.037  14.822 -0.9639  0.9327  0.7643
 8377SOL    HW236594   4.142   1.955  14.714  2.3115 -1.1190  1.1830
 8378SOL     OW36595   3.538   3.696   2.457 -0.0209 -0.4185 -0.0346
 8378SOL    HW136596   3.566   3.766   2.397  0.5303 -0.7445 -0.1632
 8378SOL    HW236597   3.443   3.706   2.458  0.1788  1.4310 -0.1560
 8379SOL     OW36598   4.256   1.226   8.425 -0.5574 -0.0439  0.2970
 8379SOL    HW136599   4.305   1.244   8.345  1.2839  1.2903  1.7277
 8379SOL    HW236600   4.267   1.306   8.476  0.7727 -0.1687  0.2097
 8380SOL     OW36601   0.492   0.921   4.039 -0.3254 -0.2989  0.1909
 8380SOL    HW136602   0.413   0.963   4.005 -0.4130  0.1273  0.9190
 8380SOL    HW236603   0.486   0.833   4.002 -0.3454 -0.0185 -0.4770
 8381SOL     OW36604   1.929   3.355   2.296 -0.0638 -0.0316 -0.4476
 8381SOL    HW136605   2.000   3.387   2.353  0.4725 -2.0119 -0.0044
 8381SOL    HW236606   1.868   3.323   2.363  2.0096 -0.2873  1.3204
 8382SOL     OW36607   0.354   4.409  16.403 -0.0367 -0.7301 -0.1477
 8382SOL    HW136608   0.269   4.422  16.362  0.0055  2.0334  0.6124
 8382SOL    HW236609   0.342   4.435  16.494 -1.8311 -3.5966  0.4234
 8383SOL     OW36610   1.968   0.529   5.769  0.1357  0.1612 -0.1238
 8383SOL    HW136611   2.063   0.521   5.777 -0.0096 -0.9558  0.5113
 8383SOL    HW236612   1.966   0.565   5.681 -0.3668 -1.2905 -0.7060
 8384SOL     OW36613   0.144   2.183   4.895 -0.7183  0.1481  0.1166
 8384SOL    HW136614   0.124   2.266   4.936  0.5926  1.2754 -1.5335
 8384SOL    HW236615   0.092   2.183   4.814 -0.5105 -0.1092 -0.0167
 8385SOL     OW36616   4.110   0.700  11.877  0.0498 -0.2037 -0.0161
 8385SOL    HW136617   4.135   0.792  11.866 -0.8180  0.2041  1.4189
 8385SOL    HW236618   4.092   0.675  11.787 -0.9404 -0.1546  0.1715
 8386SOL     OW36619   3.927   3.299   1.365  0.0122  0.1898  0.5254
 8386SOL    HW136620   3.848   3.258   1.399  0.9575 -2.4515 -0.5014
 8386SOL    HW236621   3.951   3.254   1.285 -1.6326  0.8216 -0.3321
 8387SOL     OW36622   4.001   2.300   8.678  0.5790 -0.2320 -0.3663
 8387SOL    HW136623   4.051   2.222   8.701 -1.1985 -0.9865  0.8513
 8387SOL    HW236624   3.915   2.270   8.707  0.7465  0.8466  1.2378
 8388SOL     OW36625   0.615   1.967   3.660  0.3841 -0.0272 -0.0463
 8388SOL    HW136626   0.587   2.000   3.574  1.0166  0.8775  0.0953
 8388SOL    HW236627   0.554   2.006   3.723  0.0295  1.1619 -1.1147
 8389SOL     OW36628   2.024   1.379   1.649  0.5283 -0.1887 -0.0637
 8389SOL    HW136629   1.974   1.432   1.587 -1.7428 -1.4430  0.6915
 8389SOL    HW236630   1.978   1.296   1.638 -0.4486  0.2833  0.4233
 8390SOL     OW36631   1.846   0.646   3.634  0.2455 -0.0024  0.5403
 8390SOL    HW136632   1.884   0.573   3.586 -0.7952 -0.4468  0.3746
 8390SOL    HW236633   1.767   0.666   3.583  0.9474 -0.4120 -0.6799
 8391SOL     OW36634   1.038   1.709   4.210 -0.1480 -0.6340 -0.4680
 8391SOL    HW136635   1.011   1.619   4.192 -0.3942 -0.2653 -1.9870
 8391SOL    HW236636   0.964   1.753   4.169 -1.4777 -2.5177 -0.0767
 8392SOL     OW36637   3.330   3.930   3.682 -0.5004  0.1963  0.1195
 8392SOL    HW136638   3.364   3.967   3.763  1.2455 -2.0498  0.4013
 8392SOL    HW236639   3.347   3.996   3.614 -3.1248  0.6340 -0.1407
 8393SOL     OW36640   3.445   2.683   9.081 -0.1462 -0.2330 -0.5935
 8393SOL    HW136641   3.515   2.619   9.093  3.2076  3.4129 -0.3589
 8393SOL    HW236642   3.437   2.704   9.174 -0.0512 -0.8868 -0.4388
 8394SOL     OW36643   3.823   2.155   4.854  0.1423  0.3637 -0.2200
 8394SOL    HW136644   3.840   2.128   4.763 -1.2440 -1.7203  0.1381
 8394SOL    HW236645   3.778   2.081   4.893  1.8726  0.9023  2.8181
 8395SOL     OW36646   1.444   4.014   2.316 -0.2902  0.0143 -0.4235
 8395SOL    HW136647   1.531   3.975   2.307  0.3738  1.4863 -0.4193
 8395SOL    HW236648   1.443   4.004   2.411 -3.2994  2.1406 -0.2278
 8396SOL     OW36649   1.589   0.602   8.961  0.0434 -0.4598 -0.3788
 8396SOL    HW136650   1.540   0.563   8.889 -2.2548 -0.5016  1.2028
 8396SOL    HW236651   1.675   0.610   8.921  0.7655 -4.6748  0.3944
 8397SOL     OW36652   2.591   3.820   8.159 -0.2796  0.1732  0.3080
 8397SOL    HW136653   2.628   3.738   8.126 -1.6974 -0.5555  0.5544
 8397SOL    HW236654   2.539   3.790   8.233 -1.6265  0.4642 -0.5219
 8398SOL     OW36655   4.118   3.158   3.984  0.3109  0.2110 -0.2858
 8398SOL    HW136656   4.036   3.198   4.012  2.2990  4.0718  0.0737
 8398SOL    HW236657   4.122   3.211   3.904  0.4516  0.7776  0.0982
 8399SOL     OW36658   1.224   1.556  12.158  0.3613 -0.3236  0.4239
 8399SOL    HW136659   1.224   1.460  12.153 -0.0457 -0.2927 -0.2203
 8399SOL    HW236660   1.142   1.576  12.112  0.8158 -0.6208 -0.5150
 8400SOL     OW36661   3.649   4.183   8.556 -0.1033 -0.0275 -0.0204
 8400SOL    HW136662   3.584   4.243   8.520 -0.0976  0.5073  0.8628
 8400SOL    HW236663   3.604   4.100   8.548 -2.5353  1.2963  0.0037
 8401SOL     OW36664   1.648   0.876   4.388 -0.2461 -0.4319 -0.1552
 8401SOL    HW136665   1.711   0.926   4.336 -0.1526 -0.4444 -0.0528
 8401SOL    HW236666   1.564   0.874   4.341 -1.1681  2.3994  1.3710
 8402SOL     OW36667   2.980   3.175  17.567  0.0402  0.1472  0.1713
 8402SOL    HW136668   2.939   3.260  17.557 -0.5848 -0.2697 -0.7124
 8402SOL    HW236669   3.018   3.166  17.480  1.3026  0.2408  0.7000
 8403SOL     OW36670   0.390   2.919   9.705 -0.1657  0.0332 -0.1183
 8403SOL    HW136671   0.360   3.001   9.744  2.1080  0.0636  1.5717
 8403SOL    HW236672   0.483   2.922   9.729 -0.1323 -1.2206 -0.0664
 8404SOL     OW36673   1.612   2.499   0.287  0.6380 -0.5133  0.3686
 8404SOL    HW136674   1.686   2.525   0.233  0.9451 -0.6988  0.6933
 8404SOL    HW236675   1.542   2.541   0.238  0.5434 -1.5554 -0.4027
 8405SOL     OW36676   4.020   2.623  14.568 -0.2493 -0.0834  0.2484
 8405SOL    HW136677   3.978   2.641  14.653 -0.5819  1.7590 -0.3084
 8405SOL    HW236678   4.100   2.675  14.578  0.0548 -0.7358  1.3136
 8406SOL     OW36679   3.206   0.275  12.936 -0.1331  0.0171 -0.3110
 8406SOL    HW136680   3.112   0.258  12.924  0.4060 -0.5235 -3.6200
 8406SOL    HW236681   3.244   0.222  12.867 -0.2528  0.1046 -0.4448
 8407SOL     OW36682   2.511   3.289   6.732 -0.1084 -0.3868 -0.8793
 8407SOL    HW136683   2.524   3.299   6.826  3.1594  1.5573 -1.5500
 8407SOL    HW236684   2.500   3.377   6.695 -0.3623 -0.5705 -1.2534
 8408SOL     OW36685   4.551   4.682   4.820  0.1920 -0.2385 -0.2951
 8408SOL    HW136686   4.602   4.605   4.846 -0.8368 -0.8940 -0.2115
 8408SOL    HW236687   4.523   4.650   4.734  0.2492 -2.2826  0.4403
 8409SOL     OW36688   1.360   0.233   1.249 -0.3496 -0.5101  0.2902
 8409SOL    HW136689   1.451   0.219   1.277 -0.4813 -0.8521  0.5546
 8409SOL    HW236690   1.390   0.253   1.161 -2.8701  0.5515 -0.3234
 8410SOL     OW36691   0.697   4.706  17.325 -0.1902 -0.0737 -0.3484
 8410SOL    HW136692   0.613   0.009  17.360  0.8047  1.1698  0.9114
 8410SOL    HW236693   0.752   0.056  17.330 -1.2088  0.4975  2.0906
 8411SOL     OW36694   0.680   4.370   3.111 -0.5516  0.1250  0.6447
 8411SOL    HW136695   0.721   4.341   3.029  2.0318  2.7421  0.9941
 8411SOL    HW236696   0.758   4.371   3.168 -1.0794  2.4166  1.3303
 8412SOL     OW36697   1.049   4.488   4.370  0.0741  0.1042  0.2011
 8412SOL    HW136698   0.958   4.510   4.348  0.6902  2.5627  0.0354
 8412SOL    HW236699   1.089   4.567   4.335 -1.5570  0.5553 -0.6538
 8413SOL     OW36700   3.529   3.333   8.702 -0.3762 -0.1638 -0.0595
 8413SOL    HW136701   3.471   3.273   8.655 -0.7871  0.7223 -0.7035
 8413SOL    HW236702   3.551   3.289   8.783  2.1677  0.3023 -0.4943
 8414SOL     OW36703   0.286   0.489   4.908 -0.4470  0.6338  0.3489
 8414SOL    HW136704   0.336   0.408   4.904  0.1591  1.0990 -1.5102
 8414SOL    HW236705   0.212   0.465   4.853  0.0775  0.7743 -0.4159
 8415SOL     OW36706   3.422   3.109   8.569  0.3164  0.0058  0.0174
 8415SOL    HW136707   3.357   3.090   8.502 -0.5972  0.3948  0.7730
 8415SOL    HW236708   3.423   3.027   8.618  2.3722  0.2804  0.4257
 8416SOL     OW36709   4.614   2.617  13.746 -0.1037 -0.4487 -0.5844
 8416SOL    HW136710   4.556   2.692  13.761 -0.2902 -0.9913  1.3050
 8416SOL    HW236711   4.567   2.553  13.799  0.4479 -0.6486 -0.3281
 8417SOL     OW36712   2.263   2.844   8.633 -0.7628  0.2246 -0.0921
 8417SOL    HW136713   2.276   2.831   8.539  1.8710 -1.2946  0.4742
 8417SOL    HW236714   2.357   2.857   8.649 -0.6034 -0.5852 -0.3851
 8418SOL     OW36715   3.548   3.242   2.808  1.1812  0.3227  0.1050
 8418SOL    HW136716   3.521   3.150   2.817 -0.2306  0.7744  0.4863
 8418SOL    HW236717   3.459   3.276   2.812  1.0267 -0.0846  0.1942
 8419SOL     OW36718   0.070   3.212   4.307 -0.4889  0.0605  0.0622
 8419SOL    HW136719   0.154   3.218   4.351  0.5702 -1.1264 -1.7862
 8419SOL    HW236720   0.017   3.247   4.378  0.5791 -0.5264  1.1359
 8420SOL     OW36721   2.841   4.385  15.625  0.0574  0.2284 -0.1491
 8420SOL    HW136722   2.886   4.452  15.677  0.0683  1.1236 -1.3161
 8420SOL    HW236723   2.804   4.434  15.552 -0.6541 -0.3349 -0.1662
 8421SOL     OW36724   1.924   3.400   9.117 -0.3597 -0.1860 -0.5681
 8421SOL    HW136725   1.997   3.343   9.095  0.0288  0.3822 -0.7635
 8421SOL    HW236726   1.975   3.453   9.178  1.4412 -2.8434  0.2519
 8422SOL     OW36727   3.499   1.366   5.444 -0.3938  0.9204  0.4756
 8422SOL    HW136728   3.545   1.434   5.492  0.3727  0.8049 -0.1047
 8422SOL    HW236729   3.405   1.380   5.460 -0.6291  0.7010 -0.6578
 8423SOL     OW36730   2.393   2.591  14.070  0.4835 -0.3083  0.7389
 8423SOL    HW136731   2.392   2.564  13.978 -1.1092 -0.2784  0.7544
 8423SOL    HW236732   2.306   2.627  14.086  0.6999 -0.1190  1.4973
 8424SOL     OW36733   1.629   2.624  15.181 -0.1023  0.1176 -0.0125
 8424SOL    HW136734   1.547   2.667  15.202 -0.2849  0.4993 -1.5448
 8424SOL    HW236735   1.634   2.630  15.086  2.0571 -0.1951  0.0806
 8425SOL     OW36736   4.497   4.577   4.559 -0.4091 -0.0321 -0.1377
 8425SOL    HW136737   4.411   4.547   4.530 -0.5995 -0.1800  0.5651
 8425SOL    HW236738   4.554   4.527   4.501  0.4923 -0.3620  1.0208
 8426SOL     OW36739   3.966   2.566  16.268  0.0993 -0.2011  0.5196
 8426SOL    HW136740   4.036   2.501  16.278 -0.0744 -0.5148 -0.2979
 8426SOL    HW236741   3.957   2.574  16.173 -0.4360  0.2733  0.6157
 8427SOL     OW36742   0.178   0.964   8.802  0.4167  0.0488 -0.4038
 8427SOL    HW136743   0.269   0.937   8.815  0.7606  0.4511 -2.0266
 8427SOL    HW236744   0.132   0.880   8.809  0.8322 -0.2827 -1.7789
 8428SOL     OW36745   0.925   3.123   6.106  0.1695  0.0793  0.2353
 8428SOL    HW136746   0.914   3.146   6.198 -1.1710  0.9534 -0.1393
 8428SOL    HW236747   0.957   3.033   6.115 -0.8045 -0.2828  0.1407
 8429SOL     OW36748   1.578   2.219  12.713 -0.0295  0.1540  0.1926
 8429SOL    HW136749   1.631   2.299  12.700 -0.5192  0.3990 -0.2797
 8429SOL    HW236750   1.600   2.169  12.635  0.8804 -0.3365  0.7564
 8430SOL     OW36751   3.011   1.192  10.597 -0.0175 -0.1313  0.3209
 8430SOL    HW136752   3.033   1.230  10.512  0.3057  0.6183  0.7308
 8430SOL    HW236753   2.929   1.240  10.605 -0.7413 -1.4742  0.8535
 8431SOL     OW36754   1.763   3.977   6.072 -0.1127  0.5184 -0.0571
 8431SOL    HW136755   1.781   3.890   6.037  1.1954  1.3298 -1.4006
 8431SOL    HW236756   1.700   3.953   6.140 -1.1941  1.1005 -0.8725
 8432SOL     OW36757   2.340   4.191  14.782 -0.2264 -0.0212  0.1130
 8432SOL    HW136758   2.391   4.201  14.701 -1.2100  0.0823 -0.4981
 8432SOL    HW236759   2.265   4.143  14.745 -0.0262 -0.5502  0.3918
 8433SOL     OW36760   0.392   0.013   7.356  0.2003 -0.3976  0.6208
 8433SOL    HW136761   0.486   0.031   7.363 -0.4457  2.3205  2.1539
 8433SOL    HW236762   0.381   0.002   7.450 -0.7248  1.5827  0.7391
 8434SOL     OW36763   2.733   3.019  10.820  0.2100 -0.1899  0.3486
 8434SOL    HW136764   2.687   3.096  10.787 -0.2791 -0.6151  0.0404
 8434SOL    HW236765   2.731   2.963  10.743  1.5871  1.2018 -0.6993
 8435SOL     OW36766   0.020   4.100   5.837 -0.0638 -0.1006  0.1397
 8435SOL    HW136767   4.661   4.119   5.870 -0.2279  0.0416 -0.3730
 8435SOL    HW236768   0.064   4.185   5.843 -1.2401  0.5850 -0.9381
 8436SOL     OW36769   2.451   2.810  15.377  0.0782  0.4538  0.1725
 8436SOL    HW136770   2.515   2.870  15.415 -1.8013 -0.5612  5.0148
 8436SOL    HW236771   2.497   2.747  15.322  0.2486  1.8957 -1.3209
 8437SOL     OW36772   1.948   4.374   5.265  0.6195 -0.3277 -0.1310
 8437SOL    HW136773   1.878   4.438   5.252  0.3695 -0.4395  0.6517
 8437SOL    HW236774   2.021   4.433   5.248  0.0990  0.1727 -0.6021
 8438SOL     OW36775   3.701   1.418   7.516  0.1323  0.0027 -0.2885
 8438SOL    HW136776   3.652   1.430   7.434 -1.5737 -0.4294  0.6712
 8438SOL    HW236777   3.745   1.503   7.516  0.8746 -0.3664 -2.4338
 8439SOL     OW36778   2.243   3.872  15.223  0.2621 -0.1084 -0.5106
 8439SOL    HW136779   2.197   3.926  15.287 -0.2620 -1.0214 -0.1131
 8439SOL    HW236780   2.219   3.917  15.142  0.5849  0.3372 -0.3578
 8440SOL     OW36781   0.952   0.461   2.790  0.6021 -0.0688 -0.3673
 8440SOL    HW136782   0.890   0.452   2.863  1.6555 -2.0498  0.2870
 8440SOL    HW236783   0.978   0.369   2.783  0.4126 -0.2915  1.8185
 8441SOL     OW36784   0.420   3.404  12.791 -0.5923  0.4674 -0.5458
 8441SOL    HW136785   0.492   3.457  12.826 -0.8567  0.4450  0.0391
 8441SOL    HW236786   0.407   3.343  12.864  2.8648 -0.6670 -0.8839
 8442SOL     OW36787   2.617   1.829  15.443  0.1831 -0.4003 -0.2310
 8442SOL    HW136788   2.660   1.750  15.474  1.3578  1.1727  2.1403
 8442SOL    HW236789   2.594   1.877  15.522  0.9544  0.0612 -0.2875
 8443SOL     OW36790   2.145   2.759   5.780 -0.2332  0.2212  0.4635
 8443SOL    HW136791   2.199   2.740   5.702 -0.1315 -1.1226  0.8538
 8443SOL    HW236792   2.103   2.674   5.792  0.7789 -0.5600 -1.4249
 8444SOL     OW36793   3.191   0.893   5.635 -0.1447 -0.0503  0.0366
 8444SOL    HW136794   3.279   0.919   5.660 -0.0733  0.3020 -0.5947
 8444SOL    HW236795   3.171   0.823   5.698  2.1161 -0.3519  0.4183
 8445SOL     OW36796   3.980   3.037   8.172 -0.0105  0.2285 -0.1068
 8445SOL    HW136797   3.947   3.124   8.196  0.8570  1.0391 -1.8136
 8445SOL    HW236798   3.925   2.985   8.231 -0.1725  0.1076 -0.3609
 8446SOL     OW36799   1.097   1.521   4.591  0.2123 -0.6933  0.1946
 8446SOL    HW136800   1.056   1.446   4.546 -2.1731  1.7349 -1.6936
 8446SOL    HW236801   1.175   1.536   4.539 -2.1935 -0.3397 -3.3350
 8447SOL     OW36802   1.175   3.086   8.530  0.2849  0.0221 -0.1674
 8447SOL    HW136803   1.185   3.096   8.625  1.6826 -0.3725 -0.2789
 8447SOL    HW236804   1.206   2.998   8.512  0.6619 -0.2448  1.7098
 8448SOL     OW36805   2.935   3.908   0.915 -0.5407 -0.2831 -0.1763
 8448SOL    HW136806   2.910   3.994   0.882  1.0006  0.6801  1.2104
 8448SOL    HW236807   2.865   3.856   0.874  0.1767 -0.4044 -1.2513
 8449SOL     OW36808   1.150   0.028   4.238  0.3410  0.4591 -0.5217
 8449SOL    HW136809   1.203   0.074   4.303  1.0876 -1.8827  0.5361
 8449SOL    HW236810   1.209   0.007   4.166  0.1795 -0.2017 -0.4651
 8450SOL     OW36811   2.109   3.458   2.048 -0.1173 -1.0573 -0.3716
 8450SOL    HW136812   2.052   3.428   2.119  0.9268 -1.6304  0.2254
 8450SOL    HW236813   2.054   3.432   1.973  1.3699 -0.6703 -1.5982
 8451SOL     OW36814   4.296   3.033  14.190 -0.0962 -0.3012 -0.0871
 8451SOL    HW136815   4.367   2.969  14.185  0.5654  0.4675 -0.6168
 8451SOL    HW236816   4.291   3.050  14.284  2.7074  1.6430 -0.2924
 8452SOL     OW36817   0.039   4.368   2.382  0.0612  0.2311 -0.6204
 8452SOL    HW136818   0.017   4.417   2.461 -1.4162 -0.4708 -0.6035
 8452SOL    HW236819   4.684   4.349   2.341 -0.8987 -0.4411  1.6476
 8453SOL     OW36820   4.337   3.651  12.389 -0.0975  0.1995 -0.6504
 8453SOL    HW136821   4.370   3.646  12.299 -0.5144 -0.5822 -0.7569
 8453SOL    HW236822   4.412   3.647  12.448  0.2562 -0.8391 -1.1718
 8454SOL     OW36823   2.438   3.939   4.878  0.2700  0.2021  0.2253
 8454SOL    HW136824   2.347   3.941   4.848 -1.5803  1.0733  6.0098
 8454SOL    HW236825   2.464   4.031   4.884 -0.7727  0.5427 -0.3980
 8455SOL     OW36826   1.423   3.168   5.471 -0.1849  0.1283  0.5011
 8455SOL    HW136827   1.473   3.092   5.501 -0.9869 -0.5692  0.0624
 8455SOL    HW236828   1.378   3.129   5.396 -0.1678 -0.3213  0.7263
 8456SOL     OW36829   1.603   1.821   2.393 -0.9409  0.5278 -0.5409
 8456SOL    HW136830   1.560   1.783   2.317  0.4907  0.7605 -1.4777
 8456SOL    HW236831   1.588   1.915   2.377 -2.2604  0.2813 -0.7170
 8457SOL     OW36832   1.670   1.983  15.879  0.2018  0.6073 -0.4840
 8457SOL    HW136833   1.710   1.918  15.821  0.7319  0.5651 -0.0787
 8457SOL    HW236834   1.741   1.995  15.942 -0.6519 -4.2103  1.3649
 8458SOL     OW36835   2.607   1.257   7.920  0.3461 -0.2063 -0.1832
 8458SOL    HW136836   2.522   1.213   7.924 -1.2448  2.6868 -1.9751
 8458SOL    HW236837   2.578   1.348   7.912 -1.4350 -0.8467 -1.1544
 8459SOL     OW36838   3.099   4.281   1.047 -0.4250 -0.4431 -0.0638
 8459SOL    HW136839   3.149   4.259   1.125  0.2212  0.2267 -0.2880
 8459SOL    HW236840   3.011   4.252   1.070 -0.6243  1.0255  1.0248
 8460SOL     OW36841   3.387   2.511   8.132  0.0508  0.2240 -0.0804
 8460SOL    HW136842   3.301   2.502   8.172 -0.9533  0.7355 -2.1162
 8460SOL    HW236843   3.418   2.428   8.167  2.2367  0.3976 -1.6303
 8461SOL     OW36844   2.800   0.839   6.594 -0.6127 -0.1263 -0.1337
 8461SOL    HW136845   2.885   0.816   6.634 -0.4183 -1.0462 -1.0901
 8461SOL    HW236846   2.777   0.763   6.542  2.2565 -1.5129  0.6236
 8462SOL     OW36847   2.153   1.771  13.153 -0.0920 -0.0223 -0.1539
 8462SOL    HW136848   2.072   1.819  13.140 -0.9557 -1.3023  0.4594
 8462SOL    HW236849   2.216   1.840  13.133 -3.1504  2.7538 -0.0181
 8463SOL     OW36850   0.498   3.892  15.776 -0.2234 -0.1830 -0.1677
 8463SOL    HW136851   0.580   3.843  15.785  0.5371  1.3885  1.4182
 8463SOL    HW236852   0.500   3.912  15.682 -0.7675 -0.6269 -0.2729
 8464SOL     OW36853   2.772   0.627   1.700  0.2340 -0.0142 -0.0208
 8464SOL    HW136854   2.849   0.681   1.718 -1.2083  1.4649  1.7065
 8464SOL    HW236855   2.699   0.686   1.721  0.9627  1.5127 -1.7581
 8465SOL     OW36856   0.078   0.773   3.727 -0.0443  0.6291 -0.0241
 8465SOL    HW136857   4.728   0.813   3.689 -1.6769 -1.9747  0.6203
 8465SOL    HW236858   0.052   0.755   3.817 -2.3662  2.3236 -0.3417
 8466SOL     OW36859   0.226   1.459   3.750  0.1051  0.6966 -0.3250
 8466SOL    HW136860   0.163   1.460   3.678 -2.0025 -1.9356  1.4499
 8466SOL    HW236861   0.169   1.482   3.823  0.4498  1.8016 -0.4164
 8467SOL     OW36862   2.037   2.266   8.406 -0.5210 -0.3241  0.7397
 8467SOL    HW136863   2.056   2.357   8.429 -2.1159  0.1165  0.2897
 8467SOL    HW236864   1.980   2.291   8.334 -1.6890 -0.2855  1.6861
 8468SOL     OW36865   1.145   1.112  15.612 -0.0953 -0.4550  0.2613
 8468SOL    HW136866   1.053   1.097  15.588  0.3597 -0.8330 -1.2741
 8468SOL    HW236867   1.179   1.125  15.523 -0.8220 -1.7318 -0.2092
 8469SOL     OW36868   1.847   1.296   0.047 -0.0445  0.5444 -0.1795
 8469SOL    HW136869   1.859   1.333   0.135  1.8070 -0.0948 -0.1825
 8469SOL    HW236870   1.838   1.207   0.079 -0.6015 -0.1004 -2.1434
 8470SOL     OW36871   1.891   4.553   4.104 -0.8479  0.0808 -0.2127
 8470SOL    HW136872   1.978   4.593   4.110 -0.4410 -1.0290  1.3047
 8470SOL    HW236873   1.879   4.563   4.009 -0.5866  0.1941 -0.2350
 8471SOL     OW36874   0.718   2.209   7.504 -0.5852 -0.3738  0.1200
 8471SOL    HW136875   0.623   2.215   7.513 -0.2249 -1.1802  4.2694
 8471SOL    HW236876   0.739   2.211   7.597  1.7186  1.5739 -0.4448
 8472SOL     OW36877   4.542   2.985  11.027 -0.0145 -0.0322  0.3462
 8472SOL    HW136878   4.462   2.936  11.043 -0.7502  1.2442  0.5699
 8472SOL    HW236879   4.600   2.918  10.992 -1.3601  0.0525 -2.0065
 8473SOL     OW36880   2.964   2.887   6.605 -0.1116  0.7246 -0.0211
 8473SOL    HW136881   2.926   2.926   6.527  1.7130  3.1599  0.3220
 8473SOL    HW236882   3.033   2.948   6.631  1.4562 -1.0826  0.0645
 8474SOL     OW36883   1.035   2.155   7.456  0.1561 -0.1227 -0.2455
 8474SOL    HW136884   1.053   2.232   7.509 -0.7968  0.3705 -0.6521
 8474SOL    HW236885   0.940   2.161   7.448  0.0066  0.6612  2.1699
 8475SOL     OW36886   2.135   1.280   6.960  0.7389 -0.0008 -0.3442
 8475SOL    HW136887   2.144   1.185   6.952 -0.6958 -0.2917  1.4571
 8475SOL    HW236888   2.047   1.290   6.924  1.4528 -1.3871 -2.4754
 8476SOL     OW36889   0.408   2.142   3.184  0.0065  0.2747  0.3428
 8476SOL    HW136890   0.405   2.125   3.089  0.6825  0.6224  0.2615
 8476SOL    HW236891   0.423   2.237   3.185  1.1795  0.0713  1.1759
 8477SOL     OW36892   4.659   4.286   3.994 -0.0580 -0.1274 -0.1755
 8477SOL    HW136893   4.567   4.281   4.020 -0.1995 -1.2208 -0.9356
 8477SOL    HW236894   4.663   4.351   3.923 -3.0964 -1.1882 -1.3202
 8478SOL     OW36895   0.754   0.277   6.355 -0.3077  0.8457  0.0499
 8478SOL    HW136896   0.772   0.186   6.332  1.7576  1.7830 -2.0379
 8478SOL    HW236897   0.662   0.282   6.331 -0.1565  0.6564 -0.5579
 8479SOL     OW36898   2.407   1.531   0.276 -0.6060 -0.2105 -0.0258
 8479SOL    HW136899   2.317   1.505   0.255 -0.8380  0.1663  0.4833
 8479SOL    HW236900   2.402   1.582   0.357  1.9939  1.2323 -0.8025
 8480SOL     OW36901   3.485   0.295   1.667 -0.6750  0.3359 -0.0951
 8480SOL    HW136902   3.507   0.384   1.640  2.9398  0.0197  1.7708
 8480SOL    HW236903   3.575   0.275   1.694 -0.9987 -1.1816 -0.1695
 8481SOL     OW36904   2.073   2.749  14.643 -0.3854  0.0922  0.4663
 8481SOL    HW136905   1.999   2.711  14.690 -1.8460  1.0281 -1.0615
 8481SOL    HW236906   2.029   2.807  14.580  1.7488  1.2480  0.0433
 8482SOL     OW36907   3.258   4.190   0.805 -0.1837 -0.4115 -0.1673
 8482SOL    HW136908   3.215   4.237   0.876 -1.2276 -0.2597 -0.8819
 8482SOL    HW236909   3.181   4.140   0.774 -2.3588  1.5870  2.0146
 8483SOL     OW36910   1.775   3.382   7.934 -0.3805 -0.3860  0.3829
 8483SOL    HW136911   1.820   3.313   7.885  1.3471  0.6906  0.4475
 8483SOL    HW236912   1.753   3.443   7.863 -1.2876  0.2471  1.2148
 8484SOL     OW36913   2.614   3.559   3.496  0.0592  0.3754  0.3181
 8484SOL    HW136914   2.646   3.473   3.469 -0.7680  0.0551  0.3488
 8484SOL    HW236915   2.521   3.534   3.497  0.3814 -0.8588  0.1972
 8485SOL     OW36916   3.614   0.521   8.006  0.0896 -0.1371  0.3508
 8485SOL    HW136917   3.554   0.506   8.079 -1.4751  2.5725 -0.3900
 8485SOL    HW236918   3.629   0.616   8.001 -1.1772 -0.0182 -1.2098
 8486SOL     OW36919   3.773   1.290   8.242  0.0093  0.1222  0.1491
 8486SOL    HW136920   3.830   1.321   8.172  2.4432 -0.3682  1.9053
 8486SOL    HW236921   3.833   1.234   8.292  1.2921 -0.2156 -1.7897
 8487SOL     OW36922   4.398   1.263   3.463  0.2748  0.0403 -0.0362
 8487SOL    HW136923   4.379   1.332   3.400 -0.2249  0.3952  0.5070
 8487SOL    HW236924   4.439   1.310   3.535  0.6176  0.4020 -0.4686
 8488SOL     OW36925   4.419   0.620   5.760 -0.0218  0.8754  0.0090
 8488SOL    HW136926   4.424   0.617   5.665 -1.3868 -1.2348 -0.0044
 8488SOL    HW236927   4.510   0.632   5.787  0.3211  1.5171 -1.4444
 8489SOL     OW36928   1.550   0.464   4.649  0.5234  0.2908 -0.0299
 8489SOL    HW136929   1.500   0.544   4.631 -0.6438 -0.6268 -0.8830
 8489SOL    HW236930   1.641   0.490   4.636  0.5948 -0.7268 -1.5927
 8490SOL     OW36931   1.926   0.499  17.521 -1.0664  0.8648  0.5192
 8490SOL    HW136932   2.009   0.526  17.481  0.4237 -2.4601  1.3943
 8490SOL    HW236933   1.917   0.407  17.498 -0.5796  0.5334  1.6582
 8491SOL     OW36934   2.295   2.391   2.189  0.0773 -0.2020  0.2305
 8491SOL    HW136935   2.293   2.353   2.101  2.7153 -3.6691  1.6593
 8491SOL    HW236936   2.295   2.482   2.159 -1.6115 -0.8220 -1.6409
 8492SOL     OW36937   2.995   0.084   9.176 -0.1393  0.5436  0.0482
 8492SOL    HW136938   3.082   0.074   9.215  0.2875  0.3681 -0.9680
 8492SOL    HW236939   2.972   4.720   9.164  2.9784 -0.3309  0.8014
 8493SOL     OW36940   2.047   3.644   2.762  0.3600 -0.1884  0.2793
 8493SOL    HW136941   2.130   3.597   2.754  0.5717 -0.0686  1.8931
 8493SOL    HW236942   2.046   3.705   2.688  3.2738 -0.1008  0.3159
 8494SOL     OW36943   3.374   0.153   5.718 -0.1626  0.5960  0.1448
 8494SOL    HW136944   3.469   0.154   5.732 -0.3472 -1.0548  1.5107
 8494SOL    HW236945   3.339   0.088   5.779  1.4760 -0.4253  0.0037
 8495SOL     OW36946   2.224   0.386   3.079 -0.0832  0.1951 -0.1774
 8495SOL    HW136947   2.147   0.404   3.026 -0.4323 -1.7190 -0.3295
 8495SOL    HW236948   2.249   0.305   3.033 -0.6605  1.1774 -2.1943
 8496SOL     OW36949   3.757   2.196   8.141  0.3065  0.0796 -0.0744
 8496SOL    HW136950   3.823   2.212   8.073  1.6693  2.0404  1.6805
 8496SOL    HW236951   3.802   2.251   8.205  0.2392  0.9104 -0.7374
 8497SOL     OW36952   2.935   2.942   1.781 -0.1581  0.3201  0.1947
 8497SOL    HW136953   2.899   2.872   1.726  0.1404  1.4421 -1.4505
 8497SOL    HW236954   2.870   2.959   1.849 -0.3239  0.9145 -0.1073
 8498SOL     OW36955   2.962   4.531   5.806  0.7703  0.0525  0.0623
 8498SOL    HW136956   2.983   4.607   5.860 -1.1199 -0.4498  1.5083
 8498SOL    HW236957   3.005   4.552   5.723 -3.1585  0.1667 -1.9630
 8499SOL     OW36958   3.001   2.980   0.049 -0.5573 -0.4162  0.3521
 8499SOL    HW136959   2.911   2.951   0.063 -0.6273  0.6275  2.1588
 8499SOL    HW236960   2.979   3.048  17.702 -1.5955 -0.3190  0.8239
 8500SOL     OW36961   3.613   2.416  15.716 -0.0400 -0.6872 -0.3614
 8500SOL    HW136962   3.630   2.479  15.787  1.0259 -1.4615  0.0655
 8500SOL    HW236963   3.706   2.393  15.714 -0.2187 -1.3864 -0.3692
 8501SOL     OW36964   0.313   4.239   8.883  0.1544  0.7043 -0.0329
 8501SOL    HW136965   0.296   4.275   8.796 -0.5922  1.5294  0.4517
 8501SOL    HW236966   0.241   4.177   8.887  1.0592 -0.3847 -0.5955
 8502SOL     OW36967   4.058   0.942   6.832  0.1575 -0.4372  0.4265
 8502SOL    HW136968   4.018   0.855   6.829 -0.2133 -0.2843  1.0398
 8502SOL    HW236969   4.113   0.939   6.753 -0.2896  0.5348  0.0822
 8503SOL     OW36970   1.959   2.653   1.352  0.0410 -0.1049 -0.5034
 8503SOL    HW136971   1.865   2.666   1.356 -0.1762 -1.5767 -1.0260
 8503SOL    HW236972   1.974   2.587   1.420 -0.1985 -0.9981 -1.3140
 8504SOL     OW36973   1.700   2.112   7.689  0.0760 -0.0988 -0.0621
 8504SOL    HW136974   1.759   2.187   7.682 -0.1192 -0.0959 -1.6288
 8504SOL    HW236975   1.625   2.156   7.729 -0.0316  1.4122 -1.8791
 8505SOL     OW36976   3.884   2.677   1.533  0.7727 -0.2135 -0.3537
 8505SOL    HW136977   3.829   2.755   1.523  0.6017 -0.3048 -0.1413
 8505SOL    HW236978   3.837   2.640   1.608  2.4356 -0.1649  0.6995
 8506SOL     OW36979   4.618   2.508   4.407  0.5343  0.5908  0.8339
 8506SOL    HW136980   4.687   2.491   4.471  2.1342  2.1331 -0.4838
 8506SOL    HW236981   4.658   2.475   4.326  2.1867  0.3054  1.7712
 8507SOL     OW36982   1.681   1.493  17.672 -0.4010 -0.2367 -0.1663
 8507SOL    HW136983   1.645   1.534   0.035  1.9972 -0.0728  0.8575
 8507SOL    HW236984   1.730   1.417  17.704 -0.4843 -0.2408 -0.0478
 8508SOL     OW36985   0.209   2.931   2.438 -0.2194 -0.2136 -0.8708
 8508SOL    HW136986   0.193   3.009   2.385 -2.5710 -0.7071 -0.8538
 8508SOL    HW236987   0.144   2.874   2.398  0.6011 -0.9047 -1.2262
 8509SOL     OW36988   1.401   2.471  12.851 -0.1678 -0.3137  0.3007
 8509SOL    HW136989   1.476   2.531  12.842  0.8352 -1.5657  0.3384
 8509SOL    HW236990   1.433   2.396  12.800 -0.7558 -1.5102  1.7096
 8510SOL     OW36991   2.631   4.399   8.331 -0.2678  0.0224  0.3154
 8510SOL    HW136992   2.666   4.424   8.246 -1.8443  0.3381 -0.2359
 8510SOL    HW236993   2.586   4.320   8.301 -0.0010  0.0742 -0.2234
 8511SOL     OW36994   3.440   1.520   4.181  0.3258 -0.3272 -0.5003
 8511SOL    HW136995   3.354   1.548   4.151  0.9071  0.3102 -1.5576
 8511SOL    HW236996   3.474   1.475   4.104  1.5332 -1.9123  0.9591
 8512SOL     OW36997   2.546   0.788   7.836 -0.1549  0.0295  0.3395
 8512SOL    HW136998   2.517   0.815   7.923  2.6085 -1.1639  1.6065
 8512SOL    HW236999   2.543   0.694   7.853 -0.3332  0.2681  1.6159
 8513SOL     OW37000   3.826   4.653   7.626  0.0913 -0.1384  0.3330
 8513SOL    HW137001   3.808   4.726   7.686  1.3558 -1.3613  2.1807
 8513SOL    HW237002   3.887   4.601   7.678 -2.7497 -2.0970  1.7170
 8514SOL     OW37003   4.243   1.931   1.006 -0.5241  0.0422 -0.7494
 8514SOL    HW137004   4.247   1.959   0.914  2.5092  2.4407  0.1086
 8514SOL    HW237005   4.335   1.918   1.029 -0.1311  1.0280 -1.6924
 8515SOL     OW37006   3.460   0.802   5.912  0.2742  0.3462 -0.3349
 8515SOL    HW137007   3.395   0.851   5.961 -1.8695 -0.8175 -2.0033
 8515SOL    HW237008   3.519   0.776   5.983  0.7089 -0.3063 -0.9261
 8516SOL     OW37009   0.524   3.931   6.509 -0.4793  0.4894  0.0285
 8516SOL    HW137010   0.540   3.985   6.431 -0.3261 -1.2095 -1.1168
 8516SOL    HW237011   0.615   3.936   6.538 -0.1109 -0.9305 -0.8996
 8517SOL     OW37012   0.089   4.489  11.712  0.1690  0.7779  0.0518
 8517SOL    HW137013   0.098   4.393  11.714  1.0220  0.9082  2.5910
 8517SOL    HW237014   0.010   4.512  11.761 -0.1850 -1.1551  0.4262
 8518SOL     OW37015   2.313   4.371  17.058  0.0416  0.3511 -0.4764
 8518SOL    HW137016   2.307   4.389  16.964  0.8261 -1.1358 -0.8064
 8518SOL    HW237017   2.384   4.307  17.065  1.0134  1.0934 -3.4008
 8519SOL     OW37018   3.629   0.044  14.831  0.1598 -0.2890 -0.1739
 8519SOL    HW137019   3.720   0.056  14.803  0.0449 -0.3929 -0.5960
 8519SOL    HW237020   3.626   4.687  14.873  1.3497 -0.9808 -1.5194
 8520SOL     OW37021   4.653   1.145   5.138  0.2608 -0.2831  0.4910
 8520SOL    HW137022   4.679   1.062   5.096 -0.7462 -1.1882  1.6581
 8520SOL    HW237023   4.677   1.209   5.072 -1.6482  0.2024  0.2739
 8521SOL     OW37024   4.656   2.870   9.349 -0.2083 -0.6141 -0.2430
 8521SOL    HW137025   4.721   2.876   9.278  2.4102 -1.2670  2.1180
 8521SOL    HW237026   4.697   2.818   9.418  0.7396  0.9166  0.3491
 8522SOL     OW37027   4.073   1.634  17.394 -0.1368 -0.1647 -0.3985
 8522SOL    HW137028   4.057   1.587  17.312 -0.1941 -0.7448 -0.0534
 8522SOL    HW237029   3.985   1.648  17.428 -0.1948 -3.4569  0.7937
 8523SOL     OW37030   1.400   2.660   9.037  0.4870  0.5025  0.8107
 8523SOL    HW137031   1.479   2.625   8.995 -0.0379 -0.8733  0.9480
 8523SOL    HW237032   1.344   2.680   8.963  0.6205 -0.3993  0.4589
 8524SOL     OW37033   3.369   3.964  13.492  0.3632 -0.0002  0.0591
 8524SOL    HW137034   3.314   3.899  13.449 -0.5025 -1.3651  3.1846
 8524SOL    HW237035   3.315   4.038  13.464  0.2492  0.4889  1.5596
 8525SOL     OW37036   0.418   3.833   6.873 -0.0659 -0.7486 -0.3760
 8525SOL    HW137037   0.355   3.905   6.867  0.1486 -0.4838  0.6983
 8525SOL    HW237038   0.399   3.814   6.965 -2.3317 -1.4989 -0.9834
 8526SOL     OW37039   0.769   3.179   2.739 -0.3825  0.7345 -0.2011
 8526SOL    HW137040   0.780   3.250   2.675 -1.1333  0.7192 -0.3528
 8526SOL    HW237041   0.748   3.108   2.679 -2.9730  1.9962 -0.7983
 8527SOL     OW37042   3.236   1.398   0.459 -0.1373  0.2307  0.1369
 8527SOL    HW137043   3.172   1.348   0.407 -0.9689 -0.6980  2.0541
 8527SOL    HW237044   3.177   1.442   0.521 -1.8533 -0.6180 -0.8882
 8528SOL     OW37045   1.735   1.691   4.519 -0.3998 -0.0977  0.6091
 8528SOL    HW137046   1.665   1.704   4.583 -0.3263 -0.5159  0.7775
 8528SOL    HW237047   1.761   1.606   4.556  0.0631 -0.5228 -0.7066
 8529SOL     OW37048   4.083   3.604   7.282  0.1709  0.0193 -0.6431
 8529SOL    HW137049   4.054   3.688   7.246  1.0764  0.7022  0.2173
 8529SOL    HW237050   4.169   3.597   7.241  0.7181  0.9524  0.3300
 8530SOL     OW37051   2.014   2.579   4.181  0.1135  0.2737  0.7670
 8530SOL    HW137052   2.065   2.644   4.230  2.2767  0.2763 -1.5031
 8530SOL    HW237053   1.928   2.620   4.188 -0.0504  0.2374 -0.9483
 8531SOL     OW37054   2.852   0.781   9.843  0.2229 -0.4192  0.2957
 8531SOL    HW137055   2.893   0.718   9.783  1.8571  0.5138  0.4451
 8531SOL    HW237056   2.761   0.756   9.825  0.8893 -0.5823 -2.9907
 8532SOL     OW37057   1.369   2.726  15.230 -0.7614 -0.0332 -0.6277
 8532SOL    HW137058   1.352   2.738  15.324 -1.3558  0.6877 -0.8262
 8532SOL    HW237059   1.325   2.804  15.196 -1.4975  0.5187  1.5776
 8533SOL     OW37060   1.518   2.672   1.736  0.4193  0.1248  0.4482
 8533SOL    HW137061   1.493   2.730   1.809  1.7392  0.7203  0.4313
 8533SOL    HW237062   1.514   2.584   1.772 -0.4576  0.0371  0.1205
 8534SOL     OW37063   3.425   0.677   2.690 -0.6650  0.1895  0.1488
 8534SOL    HW137064   3.435   0.761   2.644  0.3542  0.5038  0.9374
 8534SOL    HW237065   3.432   0.627   2.609  1.1370  0.1354  0.3413
 8535SOL     OW37066   3.981   3.993   2.994 -0.6405 -0.5250 -0.1029
 8535SOL    HW137067   3.926   3.952   2.927  1.4825 -4.2964  0.5100
 8535SOL    HW237068   4.070   3.961   2.981 -0.8711 -1.4452  0.5918
 8536SOL     OW37069   3.445   3.574   6.953  0.4309  0.0831  0.1860
 8536SOL    HW137070   3.351   3.564   6.935  0.3467  0.0864  0.6127
 8536SOL    HW237071   3.481   3.533   6.875  0.7058  1.9279 -0.6662
 8537SOL     OW37072   3.884   2.542   3.117  0.5015 -0.1114  0.4361
 8537SOL    HW137073   3.963   2.500   3.151  0.4232 -1.8715 -1.5457
 8537SOL    HW237074   3.880   2.619   3.174 -0.9993 -0.3384  0.6217
 8538SOL     OW37075   3.767   3.882   8.382  0.0331 -0.2623  0.4104
 8538SOL    HW137076   3.678   3.852   8.364 -0.7945  2.1271  0.5183
 8538SOL    HW237077   3.811   3.829   8.315  1.3530 -0.0497  1.1010
 8539SOL     OW37078   3.730   1.716   5.440 -0.1227 -0.4414 -0.3580
 8539SOL    HW137079   3.669   1.677   5.502  1.6648 -0.0803  1.6260
 8539SOL    HW237080   3.813   1.682   5.472  1.2148  2.5679 -0.6455
 8540SOL     OW37081   0.486   4.204  10.262  0.1105  0.4528 -0.3991
 8540SOL    HW137082   0.449   4.233  10.179 -1.3011  0.4927  0.2342
 8540SOL    HW237083   0.410   4.208  10.321 -0.0783 -0.4338 -0.5812
 8541SOL     OW37084   4.041   4.297   6.791 -0.1461 -0.0593  0.1270
 8541SOL    HW137085   4.080   4.280   6.705 -1.0459 -3.0711  0.3176
 8541SOL    HW237086   3.947   4.302   6.780 -0.4127 -1.5603  1.7099
 8542SOL     OW37087   3.268   1.080   3.174  0.3321  0.3923  0.0226
 8542SOL    HW137088   3.182   1.118   3.192  0.6058  0.1790  1.8298
 8542SOL    HW237089   3.301   1.149   3.117 -0.2036 -0.7944 -1.7373
 8543SOL     OW37090   1.532   3.594   8.648 -0.5013 -0.4128 -0.3521
 8543SOL    HW137091   1.582   3.526   8.604 -2.4527 -1.2656 -1.2572
 8543SOL    HW237092   1.598   3.660   8.671 -0.1360 -1.1010  0.5621
 8544SOL     OW37093   2.474   3.039   2.507  0.1224  0.1069  0.3974
 8544SOL    HW137094   2.388   3.024   2.469  0.4989 -0.2637 -0.3134
 8544SOL    HW237095   2.493   2.948   2.529  1.3370  0.5728  1.2789
 8545SOL     OW37096   1.751   0.302   7.085 -0.1601  0.1998 -0.2761
 8545SOL    HW137097   1.752   0.363   7.011  1.7390  0.8705  0.3017
 8545SOL    HW237098   1.845   0.290   7.071 -0.4865 -1.5552 -0.9386
 8546SOL     OW37099   3.988   4.419  14.837 -0.2230  0.1135 -0.2187
 8546SOL    HW137100   4.059   4.368  14.877 -0.8332  0.4852  1.3652
 8546SOL    HW237101   3.991   4.375  14.752  2.9979  1.1507 -0.6312
 8547SOL     OW37102   0.636   3.611   8.832 -0.4766  0.5943 -0.0898
 8547SOL    HW137103   0.663   3.617   8.740  0.2799  1.8761  0.2203
 8547SOL    HW237104   0.614   3.701   8.856 -0.1184  0.5263  0.4947
 8548SOL     OW37105   0.506   0.171  10.707  0.3577  0.3396 -0.7371
 8548SOL    HW137106   0.442   0.176  10.778  1.8618  1.5683  0.4992
 8548SOL    HW237107   0.560   0.107  10.754  1.8607 -0.8680 -4.0831
 8549SOL     OW37108   4.094   2.234   3.625  0.3366 -0.5648 -0.0142
 8549SOL    HW137109   4.032   2.163   3.644 -1.0118  0.5317 -0.2544
 8549SOL    HW237110   4.038   2.266   3.554 -1.1614 -1.9484  0.5355
 8550SOL     OW37111   3.112   3.893   4.084  0.4519 -0.3587  0.4979
 8550SOL    HW137112   3.049   3.917   4.152 -0.7615  0.8097 -1.0170
 8550SOL    HW237113   3.190   3.920   4.132 -0.0012 -1.0222  1.5968
 8551SOL     OW37114   0.701   2.853  13.536 -0.0777 -0.1047  0.3039
 8551SOL    HW137115   0.786   2.878  13.573  0.5669 -1.1426 -0.4627
 8551SOL    HW237116   0.644   2.930  13.541  1.3838  1.0378 -0.3701
 8552SOL     OW37117   3.720   2.712   2.232  0.6861 -0.4562 -0.4949
 8552SOL    HW137118   3.811   2.739   2.248  1.2834 -2.4481 -0.4684
 8552SOL    HW237119   3.725   2.699   2.138  0.5902  1.6570 -0.7790
 8553SOL     OW37120   1.711   3.849   9.119  0.0322 -0.2760  0.0577
 8553SOL    HW137121   1.661   3.768   9.129 -1.0649  0.6201  1.7927
 8553SOL    HW237122   1.800   3.826   9.146  0.6904  1.5770 -0.5513
 8554SOL     OW37123   3.526   0.370  15.270 -0.5872 -0.2405  0.1736
 8554SOL    HW137124   3.556   0.283  15.297 -0.7719 -0.0300  1.0532
 8554SOL    HW237125   3.566   0.420  15.341 -0.5425  2.1999 -1.5992
 8555SOL     OW37126   1.471   2.707   6.262  0.2189  0.3736  0.3805
 8555SOL    HW137127   1.386   2.674   6.234  0.3938 -1.0923  1.5788
 8555SOL    HW237128   1.532   2.647   6.220  2.5789  2.1906  1.1372
 8556SOL     OW37129   3.345   3.911   4.487  0.6606  0.3021  0.3100
 8556SOL    HW137130   3.275   3.948   4.541 -0.1110 -0.0974 -0.3950
 8556SOL    HW237131   3.416   3.960   4.527  2.1827  0.1804 -2.2320
 8557SOL     OW37132   1.197   1.888   9.776 -0.0231 -0.4973  0.0813
 8557SOL    HW137133   1.104   1.911   9.781 -0.3642 -1.5174 -1.6414
 8557SOL    HW237134   1.204   1.880   9.871  0.0476  0.6384  0.1797
 8558SOL     OW37135   2.131   2.439   4.402 -0.3498  0.0093 -0.5824
 8558SOL    HW137136   2.069   2.369   4.424  0.1845  0.3360  1.9728
 8558SOL    HW237137   2.080   2.482   4.333 -2.5125 -2.0055 -0.2612
 8559SOL     OW37138   4.356   1.836   5.378 -0.2410 -0.1121  0.2807
 8559SOL    HW137139   4.435   1.800   5.337  0.2595  1.9028 -0.4762
 8559SOL    HW237140   4.328   1.892   5.307  1.1603  2.5862  1.8610
 8560SOL     OW37141   3.878   0.995   7.613  0.0239 -0.4920  0.2690
 8560SOL    HW137142   3.783   1.008   7.608  0.4813  2.5457 -0.4950
 8560SOL    HW237143   3.900   1.009   7.521 -0.6457  3.6224  0.7412
 8561SOL     OW37144   0.019   4.496   0.502 -0.4346  0.2052  0.4252
 8561SOL    HW137145   0.108   4.519   0.530  0.3780  0.2432 -2.1937
 8561SOL    HW237146   0.011   4.543   0.419  0.2361 -0.9710 -0.3191
 8562SOL     OW37147   0.257   3.673   1.352  0.0714  0.2265 -0.2164
 8562SOL    HW137148   0.163   3.676   1.334 -0.3343 -0.1609  1.8008
 8562SOL    HW237149   0.294   3.709   1.272 -0.0501 -0.4722 -0.5802
 8563SOL     OW37150   3.589   1.214   0.468 -0.1581  0.6571 -0.8234
 8563SOL    HW137151   3.586   1.131   0.420  2.0364 -0.9343  1.7932
 8563SOL    HW237152   3.669   1.248   0.427  0.0110 -0.5516 -1.4967
 8564SOL     OW37153   4.219   2.108  14.521 -0.5357 -0.0892  0.6235
 8564SOL    HW137154   4.126   2.131  14.518 -0.3949  0.3503 -0.6541
 8564SOL    HW237155   4.232   2.082  14.429  2.1152  2.4138  0.3013
 8565SOL     OW37156   3.654   2.112   1.600  0.0915  0.1085 -0.2118
 8565SOL    HW137157   3.576   2.157   1.568 -0.1673  0.2164  0.5687
 8565SOL    HW237158   3.737   2.154   1.577 -0.2639 -0.3774 -2.3390
 8566SOL     OW37159   4.393   1.932   1.510  0.1837 -0.2543  0.0179
 8566SOL    HW137160   4.329   1.985   1.462 -0.4897 -0.2813  0.8840
 8566SOL    HW237161   4.380   1.853   1.459 -1.9078 -0.2288  0.5243
 8567SOL     OW37162   2.848   4.529  11.277 -0.3436  0.0446  0.0613
 8567SOL    HW137163   2.858   4.471  11.353  1.1206  1.4167  0.9056
 8567SOL    HW237164   2.856   4.616  11.314 -0.8301 -0.0389  0.3644
 8568SOL     OW37165   4.577   1.834  17.466 -0.3016 -0.2984 -0.4873
 8568SOL    HW137166   4.614   1.747  17.455  1.7789  0.4691  0.3597
 8568SOL    HW237167   4.488   1.810  17.438 -0.6181 -1.6853  1.6693
 8569SOL     OW37168   3.234   2.798   7.821 -0.8048 -0.0263  0.6232
 8569SOL    HW137169   3.188   2.881   7.831 -1.7828 -0.2967 -1.6290
 8569SOL    HW237170   3.216   2.760   7.907 -1.0255 -1.9262 -0.2359
 8570SOL     OW37171   4.446   0.086   1.673 -0.3054  0.3275  0.0030
 8570SOL    HW137172   4.473   0.085   1.765  0.9628  1.4532 -0.3633
 8570SOL    HW237173   4.447   0.179   1.652  0.0811  0.3258  0.0201
 8571SOL     OW37174   0.509   0.393   6.255  0.4172  0.4970 -0.3098
 8571SOL    HW137175   0.510   0.489   6.249 -2.9220  0.6706  1.7290
 8571SOL    HW237176   0.417   0.374   6.275  0.6248  1.7482  1.8137
 8572SOL     OW37177   1.901   4.299   9.473 -0.1845 -0.0977 -0.0647
 8572SOL    HW137178   1.931   4.279   9.562  1.6194 -1.2882 -0.9407
 8572SOL    HW237179   1.813   4.266   9.487  0.0983 -0.4883  0.7973
 8573SOL     OW37180   2.537   1.835   4.653 -0.0231  0.0586  0.1108
 8573SOL    HW137181   2.601   1.840   4.582 -1.5107  0.7927 -1.1954
 8573SOL    HW237182   2.462   1.792   4.611 -0.0217  0.6850 -0.5458
 8574SOL     OW37183   2.234   2.864   8.126 -0.1770 -0.1353  0.0725
 8574SOL    HW137184   2.272   2.948   8.100 -2.3674  0.5230 -0.9479
 8574SOL    HW237185   2.146   2.881   8.093 -1.0190  0.2856  2.5264
 8575SOL     OW37186   4.279   0.819   2.617  0.5228  0.0434 -0.1763
 8575SOL    HW137187   4.221   0.851   2.685  0.8374  0.4445 -0.0957
 8575SOL    HW237188   4.364   0.831   2.659  0.3851  2.5654 -0.6133
 8576SOL     OW37189   2.560   1.623  13.517 -0.2642 -0.7650  0.5828
 8576SOL    HW137190   2.568   1.625  13.422  1.8599  2.5360  0.8180
 8576SOL    HW237191   2.643   1.582  13.544  2.7427  4.6852 -0.3478
 8577SOL     OW37192   0.510   0.287   1.039  0.0599  0.1555 -0.0185
 8577SOL    HW137193   0.510   0.330   0.954  1.1293 -0.0715 -0.1329
 8577SOL    HW237194   0.493   0.195   1.017  3.0452 -0.8632  1.8028
 8578SOL     OW37195   2.408   1.995   3.962  0.6416  0.1315 -0.8228
 8578SOL    HW137196   2.402   1.915   3.910 -0.9220  1.2233 -2.3289
 8578SOL    HW237197   2.366   2.050   3.896 -0.5390 -0.5363 -0.6291
 8579SOL     OW37198   3.855   2.345  15.792 -0.2596  0.4919 -0.0383
 8579SOL    HW137199   3.850   2.282  15.864  1.6198 -0.1522 -0.4821
 8579SOL    HW237200   3.938   2.321  15.752  0.7083  1.7281  1.2154
 8580SOL     OW37201   3.255   3.854   4.981  0.4621  0.3950 -1.0108
 8580SOL    HW137202   3.313   3.917   4.937  0.2982  1.9840  1.0649
 8580SOL    HW237203   3.280   3.857   5.073 -1.9634 -2.5479 -0.2467
 8581SOL     OW37204   4.172   0.338   9.100  0.0665  0.6375  0.5057
 8581SOL    HW137205   4.208   0.373   9.181  0.8529  0.5450  0.1881
 8581SOL    HW237206   4.202   0.404   9.038  1.7585  1.4625  2.2239
 8582SOL     OW37207   1.281   0.422  12.992  0.4728 -0.2789  0.1729
 8582SOL    HW137208   1.287   0.467  12.907  1.1406 -0.2259  0.2496
 8582SOL    HW237209   1.206   0.470  13.028  1.1758  1.0590 -0.1424
 8583SOL     OW37210   0.262   0.683   4.536 -0.4796  0.1017 -0.4345
 8583SOL    HW137211   0.230   0.600   4.500  1.2890 -1.1741  0.9300
 8583SOL    HW237212   0.313   0.717   4.462  0.3461 -1.4214 -0.5602
 8584SOL     OW37213   0.855   3.373  13.919 -0.2860 -0.6136 -0.4030
 8584SOL    HW137214   0.868   3.450  13.863  2.1129 -0.9983 -0.3772
 8584SOL    HW237215   0.761   3.356  13.908 -0.3094 -0.2226 -0.7886
 8585SOL     OW37216   2.972   1.144  15.907  0.3980  0.0546 -0.2700
 8585SOL    HW137217   2.952   1.110  15.820 -1.5368  2.1439 -0.6386
 8585SOL    HW237218   2.936   1.079  15.968 -0.6706  0.8609 -0.0578
 8586SOL     OW37219   1.382   2.636  15.784  0.2055 -0.2501 -0.2672
 8586SOL    HW137220   1.453   2.584  15.747  1.0006  2.1971 -2.1910
 8586SOL    HW237221   1.414   2.720  15.752 -0.8691 -0.0045 -0.7125
 8587SOL     OW37222   2.246   2.396  11.201  0.5082 -0.3105  0.2771
 8587SOL    HW137223   2.232   2.384  11.107 -0.1282 -2.0455  0.5799
 8587SOL    HW237224   2.317   2.333  11.214  2.4202  2.0716  1.3411
 8588SOL     OW37225   2.045   0.185  17.427  0.3998  0.4873 -0.0334
 8588SOL    HW137226   2.097   0.140  17.493 -1.1378 -1.5152 -0.1490
 8588SOL    HW237227   2.049   0.123  17.354 -0.7344  0.0374  0.2859
 8589SOL     OW37228   4.116   4.065   2.763 -0.3568  0.0914 -0.0316
 8589SOL    HW137229   4.172   4.062   2.840 -1.2000  0.9928  0.6222
 8589SOL    HW237230   4.173   4.115   2.705  0.1003  1.8453  1.9369
 8590SOL     OW37231   1.310   4.453   4.478 -0.1342  0.3574 -0.5333
 8590SOL    HW137232   1.227   4.440   4.433  0.0544 -0.5226 -0.6227
 8590SOL    HW237233   1.282   4.421   4.564  1.4849 -1.4197 -0.6721
 8591SOL     OW37234   3.254   4.614   6.881 -0.8683  0.8591  0.0540
 8591SOL    HW137235   3.324   4.556   6.851  0.4213  2.3449  0.1746
 8591SOL    HW237236   3.260   4.598   6.975 -1.3822  0.1303 -0.0370
 8592SOL     OW37237   3.055   0.181   1.448 -0.4694 -0.3884 -0.3333
 8592SOL    HW137238   3.054   0.129   1.528 -0.9810  0.6018  0.3005
 8592SOL    HW237239   3.100   0.128   1.382 -1.2984 -0.7387 -0.6240
 8593SOL     OW37240   4.408   0.234   6.761 -0.3764  0.2387  0.0698
 8593SOL    HW137241   4.380   0.148   6.732  1.5156  0.0675 -1.2901
 8593SOL    HW237242   4.500   0.242   6.733  0.1973 -4.4200  0.6716
 8594SOL     OW37243   3.743   2.490   9.683 -0.4130  0.0223 -0.4153
 8594SOL    HW137244   3.702   2.567   9.721 -0.8737 -0.3900 -0.0765
 8594SOL    HW237245   3.743   2.427   9.755 -0.2541  0.5605  0.0508
 8595SOL     OW37246   4.561   2.072   7.502 -0.1770 -0.0313 -0.0856
 8595SOL    HW137247   4.528   1.998   7.553 -1.6829 -0.0061 -1.0394
 8595SOL    HW237248   4.599   2.033   7.424 -0.4937 -1.1737  0.3282
 8596SOL     OW37249   1.309   3.667   4.951 -0.2703 -0.8902  0.1201
 8596SOL    HW137250   1.248   3.630   5.015  1.6844  0.4322  2.7721
 8596SOL    HW237251   1.245   3.735   4.929 -0.2202 -0.5278  1.0802
 8597SOL     OW37252   3.152   2.596  11.933  0.3257 -0.1918 -0.4989
 8597SOL    HW137253   3.106   2.615  11.852 -0.8688 -0.0933  0.2095
 8597SOL    HW237254   3.126   2.671  11.987  1.9495 -0.4039  0.5904
 8598SOL     OW37255   0.927   0.713  16.525 -0.5289 -0.1194 -0.0963
 8598SOL    HW137256   0.995   0.729  16.590 -0.6030  0.1286 -0.0783
 8598SOL    HW237257   0.899   0.801  16.498 -0.5444 -0.4594 -1.1820
 8599SOL     OW37258   0.845   4.580   8.456  0.3471 -0.3049 -0.2070
 8599SOL    HW137259   0.907   4.550   8.522  2.7308  1.4315 -1.6676
 8599SOL    HW237260   0.876   4.533   8.379 -1.0970 -0.9684 -0.3892
 8600SOL     OW37261   3.449   4.301   5.556  0.0265 -0.3333  0.2671
 8600SOL    HW137262   3.443   4.351   5.638 -1.0060  0.2365 -0.1469
 8600SOL    HW237263   3.441   4.377   5.498 -0.0928 -0.7953 -0.3221
 8601SOL     OW37264   4.017   2.504   4.491 -0.4122  1.0017  0.7314
 8601SOL    HW137265   3.965   2.583   4.502 -1.0594  0.4301  1.7539
 8601SOL    HW237266   3.948   2.447   4.455  0.1045  0.8680 -0.0412
 8602SOL     OW37267   1.082   3.096   7.191 -0.0322 -0.4868  0.1879
 8602SOL    HW137268   1.103   3.089   7.284  1.6495  3.0702  0.0646
 8602SOL    HW237269   1.160   3.145   7.165 -0.8392  0.4564 -0.4852
 8603SOL     OW37270   3.376   2.700   3.125  0.1530  0.1943  0.2306
 8603SOL    HW137271   3.346   2.645   3.198  0.2143  0.4008  0.4132
 8603SOL    HW237272   3.453   2.737   3.169  1.0717 -1.9883  0.4604
 8604SOL     OW37273   0.796   3.965   6.598 -0.0568 -0.4849  0.2678
 8604SOL    HW137274   0.832   4.023   6.665 -1.5620  3.3849 -2.3342
 8604SOL    HW237275   0.879   3.938   6.559  0.0181  0.8812 -0.4956
 8605SOL     OW37276   2.981   3.761   2.680 -0.2306 -0.2048 -0.0562
 8605SOL    HW137277   3.014   3.706   2.752 -3.3077 -1.1894  0.5966
 8605SOL    HW237278   2.986   3.847   2.723  1.9223  0.4373 -1.6013
 8606SOL     OW37279   3.072   3.322   3.462  0.4525 -0.3675  0.1371
 8606SOL    HW137280   3.121   3.366   3.392  0.8011 -0.9313  0.0260
 8606SOL    HW237281   3.098   3.231   3.447  1.4798 -0.2338  1.1076
 8607SOL     OW37282   2.377   1.055   7.713  0.5122  0.3067 -0.1365
 8607SOL    HW137283   2.356   1.064   7.806  0.3277  0.1244 -0.1632
 8607SOL    HW237284   2.298   1.093   7.675 -0.0152 -0.4823  0.1655
 8608SOL     OW37285   0.709   2.134   1.508  0.1297  0.0384  0.1231
 8608SOL    HW137286   0.774   2.100   1.569 -1.4068 -1.3299  0.9888
 8608SOL    HW237287   0.673   2.213   1.548 -1.8695 -1.8218  1.9778
 8609SOL     OW37288   2.798   1.699   4.168  0.2193 -0.3947 -0.3861
 8609SOL    HW137289   2.880   1.674   4.126 -1.0714 -2.3963 -1.7114
 8609SOL    HW237290   2.732   1.684   4.100 -0.1463 -1.9681  0.3017
 8610SOL     OW37291   4.094   3.019   0.453 -0.0794  0.0574 -0.3597
 8610SOL    HW137292   4.116   3.112   0.443  2.7507 -0.7996 -1.7212
 8610SOL    HW237293   4.178   2.977   0.436  0.4441  2.5508 -3.8698
 8611SOL     OW37294   0.614   2.362   5.596  0.3317 -0.4686 -0.2754
 8611SOL    HW137295   0.704   2.361   5.565  0.5733 -0.1166  0.3965
 8611SOL    HW237296   0.584   2.271   5.593 -0.2183 -0.2765 -0.7147
 8612SOL     OW37297   1.151   0.132   1.955 -0.5194  0.5148 -0.4536
 8612SOL    HW137298   1.151   0.217   2.000  0.9692 -0.1080  0.6893
 8612SOL    HW237299   1.229   0.089   1.989  0.0833  1.8810 -0.1082
 8613SOL     OW37300   0.145   4.696   6.326 -0.2249  0.6940 -0.1044
 8613SOL    HW137301   0.116   4.608   6.304 -1.9657  1.5968 -1.4251
 8613SOL    HW237302   0.139   4.693   6.421 -1.5587  1.2069 -0.1710
 8614SOL     OW37303   0.591   2.382   2.012 -0.0630  0.5478  0.2068
 8614SOL    HW137304   0.563   2.290   2.006  1.2770 -0.0249  2.6991
 8614SOL    HW237305   0.543   2.417   2.087  0.7819 -1.0372  1.4938
 8615SOL     OW37306   3.467   3.956   8.531  0.4742  0.1847 -0.0574
 8615SOL    HW137307   3.424   3.999   8.457  2.9401 -0.6346 -1.9940
 8615SOL    HW237308   3.467   3.863   8.510 -3.1100 -0.2088  1.6623
 8616SOL     OW37309   4.052   4.604  11.658  0.3125  0.4211  0.0150
 8616SOL    HW137310   4.023   4.560  11.738 -1.4479 -1.2340 -1.5490
 8616SOL    HW237311   4.085   4.526  11.612  1.2629  0.5429  0.4833
 8617SOL     OW37312   4.559   1.562   3.565  0.5037  0.2453  0.1416
 8617SOL    HW137313   4.625   1.600   3.623  0.6646  1.3833 -0.7884
 8617SOL    HW237314   4.494   1.529   3.626  2.1013  3.0763  3.3868
 8618SOL     OW37315   3.019   3.503  11.422 -0.0615  0.5282  0.2658
 8618SOL    HW137316   3.028   3.450  11.501 -0.0622  1.0593  0.6223
 8618SOL    HW237317   3.110   3.499  11.392 -0.0385 -0.8361  0.5031
 8619SOL     OW37318   4.052   4.659   7.122 -0.5279 -0.0316  0.1929
 8619SOL    HW137319   4.046   4.715   7.199 -0.8255  2.2066 -1.4839
 8619SOL    HW237320   3.966   4.617   7.122 -0.8400  0.5865 -1.7176
 8620SOL     OW37321   3.224   4.331   9.012 -0.7228  0.0422 -0.2062
 8620SOL    HW137322   3.207   4.253   9.064 -0.3648 -0.5667 -1.0185
 8620SOL    HW237323   3.156   4.320   8.946 -1.3702  3.5135 -0.1714
 8621SOL     OW37324   4.260   4.551   2.108  0.6892  0.7483  0.2688
 8621SOL    HW137325   4.166   4.552   2.090  0.7483 -0.3779 -0.0977
 8621SOL    HW237326   4.293   4.632   2.070  0.2768  0.2724 -1.1277
 8622SOL     OW37327   0.356   2.536   9.243  0.3517 -0.2741  0.0497
 8622SOL    HW137328   0.425   2.521   9.308 -1.7727  2.4591  2.9177
 8622SOL    HW237329   0.379   2.626   9.219  1.0699 -0.8455 -1.4311
 8623SOL     OW37330   4.035   2.084   5.846 -0.7554  0.0405 -0.4059
 8623SOL    HW137331   4.033   2.110   5.754  1.1244  1.8832  0.0828
 8623SOL    HW237332   4.106   2.021   5.856  0.7099  1.6903 -0.3724
 8624SOL     OW37333   1.330   1.201  15.394 -0.3154  0.2973  0.4912
 8624SOL    HW137334   1.366   1.278  15.440  1.9765 -0.0942 -0.6415
 8624SOL    HW237335   1.378   1.131  15.439 -1.1364  0.4682  1.6190
 8625SOL     OW37336   0.621   4.652   8.620  0.3691  0.0494  0.0418
 8625SOL    HW137337   0.610   0.006   8.666  2.0752  0.0157  0.5441
 8625SOL    HW237338   0.708   4.665   8.582  1.0344 -0.8709  1.2687
 8626SOL     OW37339   3.410   3.617   2.914 -0.4264 -0.7416  0.0548
 8626SOL    HW137340   3.355   3.548   2.877 -0.9914  0.1370 -0.7801
 8626SOL    HW237341   3.392   3.687   2.851  0.8931 -0.0369  0.4647
 8627SOL     OW37342   2.445   0.898   8.079 -0.2790  0.3223 -0.1000
 8627SOL    HW137343   2.408   0.863   8.160  0.2904  0.0477  0.0456
 8627SOL    HW237344   2.412   0.987   8.066  0.6013  0.4157 -1.7715
 8628SOL     OW37345   2.403   0.911   2.960 -0.5367  0.1871  0.2860
 8628SOL    HW137346   2.309   0.899   2.948  0.1586 -2.8278 -2.2338
 8628SOL    HW237347   2.411   1.005   2.943  2.1184 -0.0425  0.2680
 8629SOL     OW37348   3.054   2.288   7.542  0.5268 -0.5528 -0.4565
 8629SOL    HW137349   3.041   2.238   7.462 -1.8985  1.3881 -1.2676
 8629SOL    HW237350   3.112   2.226   7.586  1.0337 -1.0150 -1.7794
 8630SOL     OW37351   3.644   3.664   6.553 -0.0310 -0.1150 -0.3796
 8630SOL    HW137352   3.686   3.749   6.544  1.7627 -0.8848  0.6180
 8630SOL    HW237353   3.717   3.601   6.548 -0.7533 -0.8157 -2.0561
 8631SOL     OW37354   2.171   2.182   5.718 -0.1507 -0.6051  0.5553
 8631SOL    HW137355   2.078   2.180   5.694 -0.6244  0.4490  2.2607
 8631SOL    HW237356   2.170   2.113   5.785  1.2600 -1.4671 -0.3170
 8632SOL     OW37357   1.934   1.364   2.081 -0.0845  0.3643 -0.6161
 8632SOL    HW137358   1.951   1.303   2.153  2.3042  0.7403 -0.8554
 8632SOL    HW237359   1.916   1.447   2.126  0.1616 -0.6233  1.3177
 8633SOL     OW37360   0.671   2.857   2.863  0.1202 -0.4261 -0.1167
 8633SOL    HW137361   0.661   2.763   2.881 -2.1404  0.5433  3.6789
 8633SOL    HW237362   0.705   2.864   2.774 -0.9606 -0.5070 -0.5341
 8634SOL     OW37363   4.608   4.444   8.318 -0.0965 -0.2164 -0.5992
 8634SOL    HW137364   4.562   4.371   8.358  0.6681  0.3334  1.2727
 8634SOL    HW237365   4.585   4.522   8.368  0.3449 -1.7145  1.8949
 8635SOL     OW37366   4.483   0.175   7.811  0.2450  0.5252  0.3294
 8635SOL    HW137367   4.458   0.092   7.771  0.7002  0.3030  0.4986
 8635SOL    HW237368   4.472   0.226   7.730  1.1013  0.0096 -0.1100
 8636SOL     OW37369   0.642   0.697   5.766  0.2576  0.1416  0.2825
 8636SOL    HW137370   0.628   0.732   5.854  1.5465  1.5264 -0.0568
 8636SOL    HW237371   0.568   0.640   5.746 -0.3964  0.8203  0.7490
 8637SOL     OW37372   1.247   1.850  10.043  0.0357 -0.3010 -0.1567
 8637SOL    HW137373   1.241   1.778  10.106 -2.4454  2.1754  2.4156
 8637SOL    HW237374   1.197   1.920  10.085  0.8493  0.7902 -0.9927
 8638SOL     OW37375   3.894   2.753   3.302  0.5667 -0.4081 -0.3318
 8638SOL    HW137376   3.928   2.695   3.370  0.9450 -1.7612 -1.6798
 8638SOL    HW237377   3.960   2.821   3.287  1.1184 -0.5072  1.5795
 8639SOL     OW37378   0.456   3.334   8.616 -0.0764  0.0510 -0.1759
 8639SOL    HW137379   0.380   3.351   8.560 -0.0767 -0.0876 -0.2182
 8639SOL    HW237380   0.447   3.410   8.673 -1.8835  0.2433 -0.7238
 8640SOL     OW37381   3.975   2.779   8.671 -0.4842  0.0314  0.2726
 8640SOL    HW137382   3.934   2.728   8.742 -1.2498  1.5863  0.9364
 8640SOL    HW237383   4.046   2.718   8.651 -0.7671 -0.4972  0.8675
 8641SOL     OW37384   0.405   1.797   8.960 -0.1536 -0.1056  0.3764
 8641SOL    HW137385   0.390   1.740   9.035 -1.2711  0.3044  0.4656
 8641SOL    HW237386   0.331   1.779   8.901  1.6502 -2.4993 -1.1865
 8642SOL     OW37387   1.107   1.980   2.743  1.4063 -0.5210  0.3011
 8642SOL    HW137388   1.127   1.994   2.651 -1.3147 -2.6820 -0.6378
 8642SOL    HW237389   1.135   2.065   2.777  3.4183 -1.6035  1.3831
 8643SOL     OW37390   2.666   1.117  13.943 -0.3116  0.0925 -0.2529
 8643SOL    HW137391   2.675   1.113  14.038  0.6412 -0.4982 -0.3631
 8643SOL    HW237392   2.749   1.086  13.907 -1.0378 -1.5124 -0.5458
 8644SOL     OW37393   2.882   4.006   3.365 -0.0312  0.7536 -0.1122
 8644SOL    HW137394   2.829   3.926   3.360 -0.6575  1.0040  2.8264
 8644SOL    HW237395   2.822   4.075   3.394  1.6682  2.5872 -0.9569
 8645SOL     OW37396   1.552   4.039   4.380  0.1162 -0.1411  0.2765
 8645SOL    HW137397   1.543   4.134   4.380  0.1640 -0.1264  2.2666
 8645SOL    HW237398   1.578   4.033   4.472  1.5906  0.1374 -0.1242
 8646SOL     OW37399   0.205   0.692   6.929  0.7597  0.4912 -0.0357
 8646SOL    HW137400   0.295   0.683   6.960  1.1401 -0.9225 -1.5461
 8646SOL    HW237401   0.217   0.728   6.841  4.9829 -0.8018  0.0250
 8647SOL     OW37402   0.370   1.063   4.450  0.0201 -0.3835  0.1109
 8647SOL    HW137403   0.398   0.972   4.439 -1.4608 -0.7701 -0.4540
 8647SOL    HW237404   0.335   1.078   4.362 -0.1812 -3.0322 -0.2697
 8648SOL     OW37405   4.604   4.683   4.296  0.2924  0.5052 -0.2294
 8648SOL    HW137406   4.511   4.666   4.311  0.5687 -0.5887  0.2386
 8648SOL    HW237407   4.635   0.019   4.359  0.2820  0.2207  0.0686
 8649SOL     OW37408   2.063   1.185   9.102  0.0040 -0.2826  0.3866
 8649SOL    HW137409   2.006   1.116   9.139 -0.7910  0.2471  0.1577
 8649SOL    HW237410   2.035   1.246   9.170  0.3092 -1.0563  1.2174
 8650SOL     OW37411   3.237   3.597  15.672  0.1430 -0.2800  0.3902
 8650SOL    HW137412   3.288   3.557  15.742  1.0419 -0.4328 -0.3420
 8650SOL    HW237413   3.159   3.542  15.670  0.5978 -0.9091  0.1411
 8651SOL     OW37414   3.212   3.597  14.179  0.4590  0.2836 -0.6307
 8651SOL    HW137415   3.272   3.537  14.223  0.7357 -0.0664 -1.4889
 8651SOL    HW237416   3.150   3.530  14.151  0.8682 -1.4814  2.6444
 8652SOL     OW37417   3.824   1.931  16.207 -0.4151 -0.3706  0.1688
 8652SOL    HW137418   3.757   1.958  16.145 -1.9556 -0.8741  1.6179
 8652SOL    HW237419   3.901   1.909  16.154  0.2802  0.2319  0.9176
 8653SOL     OW37420   4.227   2.045   1.335  0.2612 -0.2292  0.4033
 8653SOL    HW137421   4.136   2.030   1.307 -0.5743  1.4100  2.2235
 8653SOL    HW237422   4.258   2.121   1.286  1.0789 -0.9927 -0.2415
 8654SOL     OW37423   2.499   1.982   9.069  0.0284  0.1498 -0.0589
 8654SOL    HW137424   2.517   2.012   9.158 -0.5679  1.9813 -0.5589
 8654SOL    HW237425   2.547   2.038   9.009  2.0616 -1.2632  0.2523
 8655SOL     OW37426   3.440   0.757   1.484  0.5170 -0.0772 -0.2281
 8655SOL    HW137427   3.366   0.736   1.541  0.4871  1.7738  0.4201
 8655SOL    HW237428   3.401   0.761   1.396  1.2397  3.4551 -0.4015
 8656SOL     OW37429   1.183   4.250   1.583  0.6568  0.1872  0.1593
 8656SOL    HW137430   1.117   4.281   1.645  0.7788  1.1383 -0.1959
 8656SOL    HW237431   1.265   4.292   1.609  0.6384 -0.2613  0.9422
 8657SOL     OW37432   2.030   4.440  16.430 -0.1888 -0.0635  0.3028
 8657SOL    HW137433   1.978   4.517  16.408  0.4173 -0.4967 -2.6950
 8657SOL    HW237434   2.095   4.477  16.490  0.7988 -1.7353  0.2672
 8658SOL     OW37435   1.605   2.775  10.747  0.4987  0.6313  0.4977
 8658SOL    HW137436   1.529   2.718  10.760  0.3539  0.7280  0.0807
 8658SOL    HW237437   1.676   2.732  10.794 -0.6529 -0.2281  1.4381
 8659SOL     OW37438   4.063   3.578  14.827 -0.6398 -0.1119 -0.7052
 8659SOL    HW137439   4.087   3.658  14.780 -2.3238  0.0883 -1.1995
 8659SOL    HW237440   4.083   3.591  14.920 -0.7709 -2.2652 -0.3946
 8660SOL     OW37441   4.546   3.055  11.563  0.8935 -0.0534  0.1784
 8660SOL    HW137442   4.558   2.977  11.618  4.1685 -0.1402 -0.6884
 8660SOL    HW237443   4.509   3.005  11.490  1.2726  0.9521 -0.6977
 8661SOL     OW37444   0.468   0.256   4.512 -0.4899 -0.3169  0.0815
 8661SOL    HW137445   0.486   0.204   4.434  0.5560  0.5256 -0.2449
 8661SOL    HW237446   0.542   0.316   4.522  0.1833 -1.0248 -0.6695
 8662SOL     OW37447   0.018   2.991   5.595 -0.3318 -0.9979  0.2583
 8662SOL    HW137448   0.111   2.971   5.584 -0.1597 -0.7652  1.2704
 8662SOL    HW237449   0.007   2.958   5.684 -1.0075  0.1431  0.5951
 8663SOL     OW37450   3.100   3.741   3.705  0.7648  0.2442 -0.1726
 8663SOL    HW137451   3.075   3.809   3.768 -0.6984  1.0980 -1.6695
 8663SOL    HW237452   3.189   3.722   3.736  0.7786  0.1474 -0.2736
 8664SOL     OW37453   0.375   4.124   3.334 -0.7196 -0.3031  0.1460
 8664SOL    HW137454   0.337   4.144   3.249 -0.1216 -1.2839 -0.3579
 8664SOL    HW237455   0.468   4.139   3.317 -0.3105 -0.9170  1.7769
 8665SOL     OW37456   0.377   2.092   2.425  0.4173  0.7819 -0.0566
 8665SOL    HW137457   0.427   2.124   2.350  0.7028  2.2109  0.7270
 8665SOL    HW237458   0.446   2.089   2.490  1.5360 -1.7133 -1.3793
 8666SOL     OW37459   3.720   3.628   1.993  0.1604 -0.2882 -0.4939
 8666SOL    HW137460   3.808   3.645   2.025  0.0163  0.0923 -0.3038
 8666SOL    HW237461   3.684   3.717   1.994 -3.5096 -1.8016  1.0473
 8667SOL     OW37462   4.131   2.429   3.187 -0.0993 -0.6533  0.3449
 8667SOL    HW137463   4.214   2.472   3.208 -0.1882 -0.8742  1.1560
 8667SOL    HW237464   4.153   2.336   3.184  0.1292 -0.6035  0.4861
 8668SOL     OW37465   4.093   1.811   4.488 -0.5418 -0.0383 -0.0572
 8668SOL    HW137466   4.020   1.842   4.542 -1.0748  0.3280 -0.9842
 8668SOL    HW237467   4.149   1.788   4.562 -0.7992 -1.8475 -0.4208
 8669SOL     OW37468   4.443   4.570   3.382  0.1866  0.2101 -0.8558
 8669SOL    HW137469   4.523   4.547   3.430 -1.1203 -2.0667  0.2276
 8669SOL    HW237470   4.473   4.653   3.344  1.6889  0.4350  0.7629
 8670SOL     OW37471   4.506   1.007   3.272 -0.5887 -0.4802 -0.0509
 8670SOL    HW137472   4.429   1.040   3.318  1.6521  0.9064  2.7184
 8670SOL    HW237473   4.536   1.092   3.239 -1.5621  0.1901  0.7939
 8671SOL     OW37474   2.371   0.995   1.394  0.0628  0.4118  0.3186
 8671SOL    HW137475   2.450   0.948   1.421 -0.9119  0.1495  2.7325
 8671SOL    HW237476   2.310   0.922   1.400  1.4433 -0.8888 -1.6644
 8672SOL     OW37477   0.154   2.696  13.798  0.0164  0.3224  0.1501
 8672SOL    HW137478   0.068   2.656  13.792  0.6104 -0.8935 -0.1626
 8672SOL    HW237479   0.154   2.758  13.725  0.8833 -0.4201 -0.4822
 8673SOL     OW37480   1.804   0.844   4.828  0.3661 -0.0127  0.1946
 8673SOL    HW137481   1.869   0.865   4.760 -1.4376  0.0387 -1.5209
 8673SOL    HW237482   1.753   0.924   4.825  0.8972  0.3469  0.9331
 8674SOL     OW37483   3.642   1.184   3.633 -0.2910 -0.4180  0.1655
 8674SOL    HW137484   3.674   1.094   3.626  0.9052 -0.0091  0.4511
 8674SOL    HW237485   3.697   1.222   3.702  0.6806 -0.5948 -0.5237
 8675SOL     OW37486   3.984   1.586  12.261  0.3393  0.8401 -0.4015
 8675SOL    HW137487   3.900   1.573  12.306  0.4165 -0.8442 -0.7400
 8675SOL    HW237488   3.989   1.680  12.242 -0.3258  1.1042  0.7499
 8676SOL     OW37489   2.892   4.327  11.090  0.3289 -0.9675 -0.3026
 8676SOL    HW137490   2.824   4.272  11.130  0.0063 -0.3658 -0.0132
 8676SOL    HW237491   2.888   4.396  11.157  0.9449  0.3556 -1.6300
 8677SOL     OW37492   0.983   3.059  13.575  0.4419  0.1909  0.5031
 8677SOL    HW137493   1.015   3.094  13.658  0.1809 -3.1709  2.0083
 8677SOL    HW237494   0.938   3.138  13.547 -2.0275 -1.8665 -1.3607
 8678SOL     OW37495   2.468   0.393   4.006 -0.4844  0.2317  0.3956
 8678SOL    HW137496   2.524   0.330   4.051 -1.1383  0.7115  1.8750
 8678SOL    HW237497   2.513   0.394   3.921  0.5089 -1.7856  0.9102
 8679SOL     OW37498   3.211   1.850   6.097 -0.4941  0.5299  0.0871
 8679SOL    HW137499   3.139   1.809   6.050  1.4978  1.0909 -3.5101
 8679SOL    HW237500   3.194   1.944   6.109  1.4104  0.9099 -0.1359
 8680SOL     OW37501   4.316   0.752  14.772 -0.4475  0.0421  0.0387
 8680SOL    HW137502   4.261   0.750  14.694 -0.8241 -0.2695  0.3118
 8680SOL    HW237503   4.257   0.799  14.831 -0.7428  0.1237 -0.3241
 8681SOL     OW37504   0.542   1.761  10.606  0.4079 -0.1761  0.3892
 8681SOL    HW137505   0.459   1.759  10.654 -0.3266  1.1855 -0.8239
 8681SOL    HW237506   0.519   1.742  10.516  0.0299  1.0454  0.2199
 8682SOL     OW37507   0.024   1.045   4.417 -0.6028  0.0439 -0.0063
 8682SOL    HW137508   4.719   0.979   4.357 -0.0501 -0.6480  0.4537
 8682SOL    HW237509   0.022   1.125   4.363  2.5485  1.4999  2.0490
 8683SOL     OW37510   4.573   2.642   4.767 -0.1879 -0.1857 -0.4675
 8683SOL    HW137511   4.651   2.679   4.727  0.0266 -0.7539 -0.5749
 8683SOL    HW237512   4.506   2.681   4.711 -2.3019 -1.1213  1.4255
 8684SOL     OW37513   3.882   0.549   8.360 -0.1660 -0.5477  0.2308
 8684SOL    HW137514   3.864   0.458   8.336  0.7486 -0.7637  0.3373
 8684SOL    HW237515   3.795   0.587   8.368 -0.0601 -0.1270 -0.5906
 8685SOL     OW37516   3.425   2.922   4.259 -0.2483  0.0581  0.1759
 8685SOL    HW137517   3.363   2.854   4.282 -2.5111  1.7790 -0.8240
 8685SOL    HW237518   3.448   2.899   4.169 -3.0605  3.7233 -1.5039
 8686SOL     OW37519   3.726   0.555   5.707  0.0359  0.3372 -0.1212
 8686SOL    HW137520   3.781   0.632   5.692  1.7741 -0.9924 -0.4641
 8686SOL    HW237521   3.786   0.481   5.709 -0.8420 -0.3319  1.5846
 8687SOL     OW37522   3.395   1.849   0.827  0.0844 -0.0875  0.6053
 8687SOL    HW137523   3.357   1.769   0.793  0.6900  0.1441 -0.6071
 8687SOL    HW237524   3.329   1.918   0.828 -0.2240 -0.3904  1.2937
 8688SOL     OW37525   4.103   2.050   8.749 -0.2523 -0.2825  0.4077
 8688SOL    HW137526   4.115   1.979   8.813  0.9109 -0.6653 -0.2450
 8688SOL    HW237527   4.073   1.994   8.677 -0.1976 -0.5602  0.5972
 8689SOL     OW37528   0.835   1.205   4.480  0.0777  0.5825 -0.1988
 8689SOL    HW137529   0.817   1.190   4.573  1.0215 -0.3864 -0.1832
 8689SOL    HW237530   0.748   1.217   4.442 -0.2522  0.9563  0.6714
 8690SOL     OW37531   3.282   1.933  17.075 -0.6432 -0.3930 -0.4062
 8690SOL    HW137532   3.208   1.875  17.090  0.1774 -1.5853 -0.9329
 8690SOL    HW237533   3.321   1.924  17.162  1.6842  1.3397 -1.2585
 8691SOL     OW37534   2.045   3.108   5.654 -0.9324  0.0914 -0.1120
 8691SOL    HW137535   2.019   3.025   5.612  0.7390  0.3197 -1.5845
 8691SOL    HW237536   2.022   3.179   5.594  1.4755  0.1797 -0.8974
 8692SOL     OW37537   4.422   4.112   2.270 -0.6977 -0.2528  0.9413
 8692SOL    HW137538   4.508   4.113   2.229 -1.1598  3.5852  0.1145
 8692SOL    HW237539   4.412   4.203   2.298 -0.0406  0.4732 -1.2101
 8693SOL     OW37540   0.968   0.597   3.975 -0.4404 -0.0143 -0.5511
 8693SOL    HW137541   1.003   0.574   3.889  2.0370  2.0301 -0.0871
 8693SOL    HW237542   0.915   0.672   3.951 -0.2545 -0.0864 -1.1840
 8694SOL     OW37543   0.810   4.582   3.725 -0.3797  0.1974 -0.0247
 8694SOL    HW137544   0.759   4.634   3.664 -0.0827  0.2492 -0.2308
 8694SOL    HW237545   0.826   4.498   3.682 -1.5248  0.2562 -0.5434
 8695SOL     OW37546   2.649   4.166   3.449  0.1131 -0.4094 -0.5949
 8695SOL    HW137547   2.643   4.164   3.354  0.3917  0.6602 -0.6250
 8695SOL    HW237548   2.606   4.247   3.476 -2.5303 -1.7757 -0.6386
 8696SOL     OW37549   4.075   1.518   7.406 -0.0635  0.8203  0.4883
 8696SOL    HW137550   4.080   1.480   7.318 -0.7403 -1.0957  1.2650
 8696SOL    HW237551   4.079   1.432   7.449  2.8778 -0.5854 -2.6607
 8697SOL     OW37552   2.646   3.369  10.228  0.1721  0.0838 -0.3758
 8697SOL    HW137553   2.573   3.318  10.264 -1.4628  1.5435 -1.6579
 8697SOL    HW237554   2.598   3.402  10.152 -1.4569 -0.3579  0.4615
 8698SOL     OW37555   1.657   3.798   4.388 -0.1463  0.2596  0.0303
 8698SOL    HW137556   1.564   3.792   4.408 -0.1157  0.8537  0.3172
 8698SOL    HW237557   1.653   3.892   4.371  0.5381 -0.5182 -4.6195
 8699SOL     OW37558   3.646   4.243   1.784  0.2117  0.5426  0.3943
 8699SOL    HW137559   3.567   4.279   1.744 -0.3389  0.7044  1.5959
 8699SOL    HW237560   3.712   4.271   1.722  0.3707 -0.2540  0.2037
 8700SOL     OW37561   1.495   4.460   8.713 -0.7351 -0.1078  0.1203
 8700SOL    HW137562   1.407   4.483   8.745 -0.8527 -1.2477  0.6032
 8700SOL    HW237563   1.501   4.536   8.655  1.2635 -0.8913 -0.6839
 8701SOL     OW37564   4.481   0.015   5.888 -0.3242  0.1127 -0.6544
 8701SOL    HW137565   4.416   0.008   5.818 -0.1686 -0.8659 -0.7059
 8701SOL    HW237566   4.556   0.037   5.832  1.2176  2.6317  2.4460
 8702SOL     OW37567   4.607   0.405   2.986 -0.4003 -0.1441 -0.6196
 8702SOL    HW137568   4.635   0.355   3.063 -2.5996 -2.1864 -1.1373
 8702SOL    HW237569   4.561   0.468   3.042  1.0771  0.8875 -0.5837
 8703SOL     OW37570   4.558   2.896   3.403 -0.5927  0.4709 -0.5797
 8703SOL    HW137571   4.617   2.950   3.457 -1.4294  1.4790 -0.6761
 8703SOL    HW237572   4.612   2.820   3.381  0.9562  1.5632 -0.5298
 8704SOL     OW37573   2.397   0.257   8.090 -0.0991  0.0020  0.0948
 8704SOL    HW137574   2.462   0.249   8.020  1.3024 -1.6871  1.5915
 8704SOL    HW237575   2.331   0.311   8.047 -1.4372 -2.7146 -1.3146
 8705SOL     OW37576   3.681   4.391   4.246  0.2770 -0.0384  0.1943
 8705SOL    HW137577   3.631   4.328   4.297 -0.8300  1.2066  0.6184
 8705SOL    HW237578   3.617   4.454   4.215  2.0853  1.0702 -1.3353
 8706SOL     OW37579   0.241   0.141   6.930 -0.4390  0.8481 -0.5308
 8706SOL    HW137580   0.253   0.218   6.874 -1.3727  1.0832 -0.3986
 8706SOL    HW237581   0.219   0.180   7.014  0.2335  0.1051 -0.0091
 8707SOL     OW37582   3.288   3.354   1.092  0.8395 -0.2798 -0.2276
 8707SOL    HW137583   3.334   3.438   1.094 -0.0052  0.2311 -2.0300
 8707SOL    HW237584   3.347   3.290   1.053  1.5367 -0.6770  1.5265
 8708SOL     OW37585   3.935   0.169   2.871  0.3827 -0.0917 -0.1469
 8708SOL    HW137586   3.839   0.167   2.880  0.5733  0.0156  2.0400
 8708SOL    HW237587   3.947   0.206   2.784 -1.2811 -1.2803 -0.8980
 8709SOL     OW37588   0.679   0.425   4.579  0.2537 -0.1371 -0.1086
 8709SOL    HW137589   0.763   0.468   4.600  0.4328  0.4795 -2.0578
 8709SOL    HW237590   0.623   0.502   4.580 -1.9696 -1.7963  1.7105
 8710SOL     OW37591   0.236   4.374   8.101  0.3347 -0.3373 -0.0612
 8710SOL    HW137592   0.188   4.449   8.137  2.0477  1.1726 -0.9151
 8710SOL    HW237593   0.258   4.398   8.010 -1.1332 -0.8127 -0.5392
 8711SOL     OW37594   0.043   4.526  10.738  0.5052  0.3154  0.8445
 8711SOL    HW137595   0.008   4.597  10.685  0.1948 -0.4814 -0.0256
 8711SOL    HW237596   0.090   4.573  10.806  0.4605 -0.0279  1.1135
 8712SOL     OW37597   2.084   2.104   2.050  0.2470 -0.4207 -0.2499
 8712SOL    HW137598   2.166   2.143   2.020  1.3069 -3.8102 -1.7585
 8712SOL    HW237599   2.026   2.110   1.974  0.8374 -0.1484 -0.6787
 8713SOL     OW37600   4.472   2.410   9.744 -0.6348  0.1506  0.1357
 8713SOL    HW137601   4.548   2.368   9.785 -0.0481  1.5228  0.4760
 8713SOL    HW237602   4.514   2.484   9.699  2.3753 -0.8289  1.3099
 8714SOL     OW37603   2.975   1.756   6.498 -0.0109 -0.3702  0.1258
 8714SOL    HW137604   2.898   1.793   6.454  4.2966  4.7141 -2.9690
 8714SOL    HW237605   2.976   1.807   6.579 -0.2431  2.1271 -1.4413
 8715SOL     OW37606   2.000   4.611  14.091  0.1316 -0.4944  0.0508
 8715SOL    HW137607   1.917   4.589  14.131  0.5198 -0.2900  0.9588
 8715SOL    HW237608   2.048   4.624  14.172 -0.5769  0.4811  0.3166
 8716SOL     OW37609   4.415   0.724   8.386  0.0923  0.4559  0.4110
 8716SOL    HW137610   4.386   0.754   8.473 -0.9277  0.3175  0.1177
 8716SOL    HW237611   4.383   0.800   8.339 -1.3682 -0.4918 -0.1305
 8717SOL     OW37612   0.426   1.324  11.633  0.0006  0.1354 -0.1842
 8717SOL    HW137613   0.411   1.248  11.689 -0.1746 -2.4828 -3.8091
 8717SOL    HW237614   0.508   1.357  11.670 -0.9285  0.5360  1.5015
 8718SOL     OW37615   0.423   2.784  13.913 -0.6210  0.6066 -0.5083
 8718SOL    HW137616   0.400   2.857  13.971 -1.3662 -0.6440  0.7794
 8718SOL    HW237617   0.339   2.748  13.884 -0.9877 -1.6169  3.2656
 8719SOL     OW37618   2.962   0.823   3.101 -0.6658  0.1692 -0.1204
 8719SOL    HW137619   2.963   0.794   3.009 -0.2956 -0.4259  0.0766
 8719SOL    HW237620   2.911   0.752   3.139 -1.0713 -0.4093 -1.7143
 8720SOL     OW37621   2.628   2.764   8.012 -0.1097  0.1554  0.2702
 8720SOL    HW137622   2.697   2.699   8.003 -0.9324 -0.4942 -1.3548
 8720SOL    HW237623   2.553   2.704   8.018  0.8476 -1.0218  0.4090
 8721SOL     OW37624   2.389   0.164  13.653 -0.0172  0.3523 -0.0503
 8721SOL    HW137625   2.354   0.076  13.663  0.8119  0.2157  1.7504
 8721SOL    HW237626   2.351   0.203  13.732 -0.6026  0.7092 -0.5139
 8722SOL     OW37627   1.442   1.214  13.424 -0.6219  0.0030 -0.0539
 8722SOL    HW137628   1.513   1.274  13.446 -1.3172  0.0039  2.2080
 8722SOL    HW237629   1.374   1.275  13.453  0.5944  0.5171  1.7011
 8723SOL     OW37630   0.725   0.031   7.533  0.6917  0.1513 -0.0591
 8723SOL    HW137631   0.816   0.013   7.508  0.4054 -2.1944  0.5927
 8723SOL    HW237632   0.683   4.674   7.537 -0.9539  1.0281  1.6673
 8724SOL     OW37633   2.027   0.165  14.361  0.7151 -0.0429  0.3440
 8724SOL    HW137634   1.933   0.151  14.347  0.9866 -0.6556 -0.8031
 8724SOL    HW237635   2.057   0.074  14.364 -2.7907 -1.1900  1.1872
 8725SOL     OW37636   3.624   4.077  14.477  0.6143 -0.1845 -0.1640
 8725SOL    HW137637   3.611   4.080  14.382  1.9558 -0.6368 -0.3656
 8725SOL    HW237638   3.531   4.091  14.493  0.8478 -1.9823  2.7247
 8726SOL     OW37639   2.789   1.360  10.630 -0.1209 -0.2670 -0.4010
 8726SOL    HW137640   2.795   1.419  10.705  1.4768  0.5229 -1.1339
 8726SOL    HW237641   2.725   1.298  10.664  1.3770 -1.6235 -0.0408
 8727SOL     OW37642   0.619   3.282   8.398  0.4964  0.7150  0.3930
 8727SOL    HW137643   0.557   3.330   8.453  0.8312  0.0224  1.3578
 8727SOL    HW237644   0.704   3.294   8.440 -0.1543  0.8091  1.6733
 8728SOL     OW37645   3.535   2.832   9.685 -0.0207  0.8001  0.0202
 8728SOL    HW137646   3.621   2.854   9.650 -0.2002  1.0928 -0.2326
 8728SOL    HW237647   3.562   2.758   9.739 -1.5600  0.0742 -0.2042
 8729SOL     OW37648   3.555   0.278  16.271 -0.1224  0.5396  0.0973
 8729SOL    HW137649   3.545   0.286  16.176  1.4890 -1.9961 -0.3044
 8729SOL    HW237650   3.568   0.183  16.274 -1.3248  0.3753  0.0237
 8730SOL     OW37651   0.574   4.241   3.724  0.6141 -0.0498 -0.4634
 8730SOL    HW137652   0.515   4.242   3.799 -0.0619  2.9851 -1.0730
 8730SOL    HW237653   0.507   4.260   3.659  0.2790  0.9945  0.2006
 8731SOL     OW37654   3.013   3.721   4.645 -0.1170 -0.3510 -0.0570
 8731SOL    HW137655   3.062   3.647   4.682 -3.7302 -2.6478  0.2200
 8731SOL    HW237656   2.960   3.675   4.580  0.6577 -0.3821 -0.6635
 8732SOL     OW37657   1.693   1.091  13.246  0.5612 -0.2330 -0.0960
 8732SOL    HW137658   1.609   1.137  13.256  0.8658  0.3056 -0.0479
 8732SOL    HW237659   1.751   1.164  13.267  1.0673 -0.6882  0.0926
 8733SOL     OW37660   3.447   2.153   1.387 -0.5240  0.6187 -0.3424
 8733SOL    HW137661   3.493   2.210   1.325  1.3646 -1.1138 -0.5693
 8733SOL    HW237662   3.378   2.134   1.324 -0.9737  3.5807 -0.7415
 8734SOL     OW37663   2.185   4.481   1.258 -0.1139  0.0810  0.0955
 8734SOL    HW137664   2.205   4.572   1.280 -2.1037  0.7438 -0.8241
 8734SOL    HW237665   2.157   4.491   1.167 -2.9067  1.7886  1.1560
 8735SOL     OW37666   4.524   3.732   3.841 -0.0633  0.2384 -0.1888
 8735SOL    HW137667   4.598   3.699   3.892  1.1467  0.9414 -1.4858
 8735SOL    HW237668   4.541   3.826   3.835  1.7167 -0.0559  0.1896
 8736SOL     OW37669   4.106   0.751   3.574  0.3507  0.0034  0.2538
 8736SOL    HW137670   4.017   0.721   3.595  0.4548 -1.8256 -1.9874
 8736SOL    HW237671   4.087   0.786   3.487  0.6293  1.8679  0.9491
 8737SOL     OW37672   0.335   0.170   3.891 -0.0686  0.0379  0.0454
 8737SOL    HW137673   0.415   0.219   3.875 -0.1770  0.6629  1.4510
 8737SOL    HW237674   0.267   0.232   3.919  0.4877  1.2397 -1.2589
 8738SOL     OW37675   0.687   4.106   7.053  0.1772 -0.3792  0.8263
 8738SOL    HW137676   0.773   4.146   7.040 -0.6748  1.0416 -0.3820
 8738SOL    HW237677   0.678   4.048   6.978 -2.0429  0.0038  0.7938
 8739SOL     OW37678   2.867   4.540   2.608 -0.3552 -0.3907  0.4689
 8739SOL    HW137679   2.878   4.457   2.655  2.4972 -1.0822 -1.4465
 8739SOL    HW237680   2.805   4.589   2.662 -1.7797 -1.1587 -0.4653
 8740SOL     OW37681   1.072   0.462   9.324  0.2341 -0.3635 -0.6878
 8740SOL    HW137682   1.107   0.382   9.284  1.1770  0.3856 -1.3690
 8740SOL    HW237683   1.077   0.438   9.416 -2.0385  1.0004 -0.2073
 8741SOL     OW37684   2.627   2.934   7.035  0.0443  0.2220 -0.5215
 8741SOL    HW137685   2.665   2.901   6.953 -0.3609 -0.5987 -0.3721
 8741SOL    HW237686   2.620   3.024   7.001 -0.5673  0.9946  1.6848
 8742SOL     OW37687   3.103   1.024   7.618  0.2436  0.0321 -0.0560
 8742SOL    HW137688   3.101   0.958   7.548 -1.0101 -0.9087  0.8468
 8742SOL    HW237689   3.015   1.061   7.616 -0.6080 -1.9382  0.6372
 8743SOL     OW37690   3.828   0.529  11.844 -0.2979 -0.4720  0.1797
 8743SOL    HW137691   3.810   0.436  11.832 -1.6232 -0.0849 -0.9393
 8743SOL    HW237692   3.855   0.554  11.755 -2.7941 -0.9678 -0.7363
 8744SOL     OW37693   1.206   2.006   2.488 -0.8310  0.5428 -0.3645
 8744SOL    HW137694   1.211   1.922   2.442 -0.7414 -0.5461  1.6247
 8744SOL    HW237695   1.157   2.057   2.423 -0.7668  1.1781  0.0867
 8745SOL     OW37696   2.922   3.641   3.427 -0.3326 -0.8299 -0.2655
 8745SOL    HW137697   2.957   3.553   3.418 -0.0954 -0.5982 -1.6730
 8745SOL    HW237698   2.996   3.688   3.465 -1.5643  1.1824 -0.3215
 8746SOL     OW37699   1.722   3.099   5.778 -0.2712 -0.1199 -0.1957
 8746SOL    HW137700   1.688   3.140   5.857  2.2713  2.2097 -0.3000
 8746SOL    HW237701   1.817   3.109   5.788 -0.2152 -1.5599  0.7152
 8747SOL     OW37702   1.029   0.793   2.685  0.7968  0.3688  0.0964
 8747SOL    HW137703   1.123   0.798   2.703  1.1210  2.1338 -1.9425
 8747SOL    HW237704   0.993   0.735   2.752 -0.8630 -0.3813 -1.4331
 8748SOL     OW37705   4.045   3.956   1.429 -0.3304 -0.4719  0.0529
 8748SOL    HW137706   4.112   3.910   1.480  1.3693  1.0867 -0.7629
 8748SOL    HW237707   3.985   3.883   1.415  0.7919 -1.2345 -0.8437
 8749SOL     OW37708   0.568   1.942   4.047  0.1208  0.4037  0.6509
 8749SOL    HW137709   0.557   1.921   4.140  1.8672 -0.3010  0.7021
 8749SOL    HW237710   0.660   1.913   4.044  0.3129  1.1570 -0.7484
 8750SOL     OW37711   2.275   1.245   2.329  0.0182 -0.5842 -0.3540
 8750SOL    HW137712   2.186   1.257   2.297  0.5228 -0.2556 -1.6393
 8750SOL    HW237713   2.268   1.323   2.384  0.3706 -0.0733 -1.0342
 8751SOL     OW37714   4.723   3.293   8.677 -0.0017 -0.4448  0.0828
 8751SOL    HW137715   0.009   3.365   8.615 -0.0618 -0.4952  0.0098
 8751SOL    HW237716   4.629   3.277   8.670 -0.2390 -0.1504  2.8115
 8752SOL     OW37717   3.370   0.644   4.086  0.1494 -0.0788 -0.2611
 8752SOL    HW137718   3.362   0.726   4.037 -2.4980  0.0480  0.4280
 8752SOL    HW237719   3.321   0.662   4.165  0.0481 -1.9818  0.1086
 8753SOL     OW37720   1.221   1.946   1.635 -0.7368 -0.1320  0.3236
 8753SOL    HW137721   1.259   1.932   1.548  0.2215  3.0768  0.2190
 8753SOL    HW237722   1.217   2.042   1.634  4.1915  0.0585  1.0429
 8754SOL     OW37723   3.297   1.783   6.599  0.8695  0.4051  0.4212
 8754SOL    HW137724   3.252   1.836   6.664 -0.9178 -0.6391  0.0152
 8754SOL    HW237725   3.363   1.751   6.660  1.0781 -0.2285 -0.1327
 8755SOL     OW37726   1.121   0.063   5.603 -0.8073  0.1263 -0.0326
 8755SOL    HW137727   1.112   4.718   5.664 -0.3886 -0.8301 -1.1231
 8755SOL    HW237728   1.062   0.130   5.638 -1.0718 -1.0486  1.8173
 8756SOL     OW37729   4.184   4.409  14.545  0.2198 -0.2333 -0.1974
 8756SOL    HW137730   4.179   4.373  14.456  0.3262  0.6371 -0.5628
 8756SOL    HW237731   4.275   4.440  14.539  0.6382 -1.4708 -0.2788
 8757SOL     OW37732   0.166   1.612   6.177 -0.2213 -0.5999 -0.0776
 8757SOL    HW137733   0.164   1.636   6.269 -2.0763 -2.3678  0.3475
 8757SOL    HW237734   0.077   1.626   6.144  0.0351 -0.3144 -0.6579
 8758SOL     OW37735   4.110   0.402   1.622 -0.1757  0.0559 -0.3055
 8758SOL    HW137736   4.122   0.473   1.685 -1.7475 -0.2080  0.2983
 8758SOL    HW237737   4.024   0.426   1.588 -0.5552  1.1887  1.4022
 8759SOL     OW37738   1.291   4.248   4.699  0.2848 -0.2382  0.4902
 8759SOL    HW137739   1.384   4.225   4.702  0.0728 -0.5416  4.6276
 8759SOL    HW237740   1.251   4.170   4.659  0.2455 -0.0034  0.0678
 8760SOL     OW37741   3.268   2.442   7.891  0.1783  0.7424 -0.2864
 8760SOL    HW137742   3.264   2.526   7.845 -0.5369  0.5942 -0.4996
 8760SOL    HW237743   3.341   2.452   7.952 -0.8469  0.6627  0.9701
 8761SOL     OW37744   4.225   3.774   9.973  0.2186 -0.7070 -0.1888
 8761SOL    HW137745   4.295   3.785   9.909  0.4578 -0.7983  0.0545
 8761SOL    HW237746   4.262   3.697  10.017 -0.7508 -1.3888 -0.5687
 8762SOL     OW37747   3.610   0.157  15.406 -0.0318  0.7242  0.6720
 8762SOL    HW137748   3.692   0.158  15.456  0.3013 -0.7863  0.1592
 8762SOL    HW237749   3.636   0.096  15.337 -1.8971 -0.2551  0.8362
 8763SOL     OW37750   2.709   4.281  15.854 -0.3199 -0.0736 -0.3047
 8763SOL    HW137751   2.694   4.368  15.889 -0.7959 -0.1198 -0.3986
 8763SOL    HW237752   2.733   4.298  15.763 -0.8699 -0.5228 -0.5362
 8764SOL     OW37753   1.151   2.420   8.240  0.3853 -0.0344  0.1104
 8764SOL    HW137754   1.174   2.355   8.307 -3.1517 -0.5148  0.8560
 8764SOL    HW237755   1.056   2.411   8.239  0.4736 -1.2832  1.7018
 8765SOL     OW37756   2.103   4.571   4.335 -0.0577 -0.1327  0.1899
 8765SOL    HW137757   2.168   4.543   4.272 -0.4456  0.2555 -0.3884
 8765SOL    HW237758   2.140   4.547   4.420  2.3088 -1.1486 -1.1467
 8766SOL     OW37759   3.550   0.120   6.025 -0.6617  0.0411 -0.3345
 8766SOL    HW137760   3.566   0.075   6.108 -2.0304 -0.7658 -0.5040
 8766SOL    HW237761   3.584   0.203   6.057 -1.5430 -0.6458  2.3350
 8767SOL     OW37762   0.790   1.963   8.368  0.6867  0.4791 -0.0034
 8767SOL    HW137763   0.860   1.967   8.433 -0.1543 -1.0767  1.0299
 8767SOL    HW237764   0.711   1.977   8.421  0.6666 -1.2188  0.4450
 8768SOL     OW37765   3.671   4.296   7.009 -0.6062  0.1328 -0.0754
 8768SOL    HW137766   3.590   4.294   7.058  0.8125  0.3966  2.2928
 8768SOL    HW237767   3.705   4.214   7.044  1.8544  0.8285 -0.8234
 8769SOL     OW37768   1.851   4.189   2.853  0.5821  0.1530 -0.1612
 8769SOL    HW137769   1.900   4.199   2.934  0.5911 -0.0210 -0.1442
 8769SOL    HW237770   1.900   4.121   2.806  1.3386 -0.0073  0.8513
 8770SOL     OW37771   3.237   4.088   6.970 -0.3077  0.2749  0.4950
 8770SOL    HW137772   3.159   4.067   7.021 -0.0885 -0.4212  0.5414
 8770SOL    HW237773   3.302   4.110   7.037 -0.0431 -1.0648  0.6733
 8771SOL     OW37774   3.649   4.600   1.848 -0.1192  0.2007  0.9268
 8771SOL    HW137775   3.650   4.560   1.761 -1.5485  2.3906 -0.1130
 8771SOL    HW237776   3.683   4.537   1.911 -0.2402 -0.1330  0.6603
 8772SOL     OW37777   4.110   4.190  10.820 -0.1148 -0.0468 -0.6395
 8772SOL    HW137778   4.057   4.259  10.778  0.6624  0.9493  0.0044
 8772SOL    HW237779   4.063   4.175  10.902 -0.8623  0.2606 -1.0075
 8773SOL     OW37780   2.055   3.145   5.359  0.6666 -0.1003 -0.5933
 8773SOL    HW137781   2.056   3.073   5.297  0.6691 -1.3492  0.8668
 8773SOL    HW237782   2.024   3.217   5.304 -1.1604 -0.6307 -0.2370
 8774SOL     OW37783   3.220   0.173   7.270  0.2098 -0.4024  0.1922
 8774SOL    HW137784   3.245   0.164   7.178 -0.9609  0.5671 -0.2228
 8774SOL    HW237785   3.306   0.194   7.305 -1.7672  3.0938  3.0013
 8775SOL     OW37786   1.954   2.500  13.148 -0.1607  0.1742  0.0617
 8775SOL    HW137787   1.970   2.460  13.234  0.3519  0.6998  0.2160
 8775SOL    HW237788   2.031   2.471  13.099 -0.8813 -1.3887 -0.1519
 8776SOL     OW37789   2.785   3.324   3.798  0.0596 -0.6048  0.1892
 8776SOL    HW137790   2.782   3.238   3.756 -0.5958 -0.1561 -0.6737
 8776SOL    HW237791   2.862   3.361   3.754  0.3384 -1.5485 -0.1083
 8777SOL     OW37792   1.482   1.067  12.921 -0.2050 -0.0773  0.5543
 8777SOL    HW137793   1.454   1.127  12.990  0.0213 -0.1440  0.7050
 8777SOL    HW237794   1.576   1.081  12.917 -0.6425  2.6726  0.3455
 8778SOL     OW37795   1.733   4.436  12.317  0.2839  0.1097  0.5545
 8778SOL    HW137796   1.732   4.481  12.402  3.2768  0.9647  0.1076
 8778SOL    HW237797   1.739   4.344  12.344  0.3107 -0.2228 -0.6046
 8779SOL     OW37798   3.475   2.176   8.135 -0.4834  0.0297 -0.0907
 8779SOL    HW137799   3.569   2.187   8.146 -0.7025  1.1939  0.6474
 8779SOL    HW237800   3.467   2.166   8.040 -0.1412 -1.8568  0.0915
 8780SOL     OW37801   3.997   1.452   6.897 -0.1515  0.4919 -0.4910
 8780SOL    HW137802   4.025   1.541   6.919 -0.6506  0.6397 -0.4655
 8780SOL    HW237803   3.936   1.481   6.828  0.4521  1.2667 -0.7120
 8781SOL     OW37804   0.114   3.302   3.722  0.2350  0.2721  0.3125
 8781SOL    HW137805   0.177   3.369   3.750  0.8590  0.2675 -1.0928
 8781SOL    HW237806   0.028   3.323   3.758  0.3255  0.0014  0.6901
 8782SOL     OW37807   3.471   1.780   1.635  0.2925  0.1857 -0.7130
 8782SOL    HW137808   3.493   1.782   1.541  1.7855  0.5321 -0.3525
 8782SOL    HW237809   3.517   1.700   1.658 -0.6505  0.1093  0.8925
 8783SOL     OW37810   2.386   1.834  14.798 -0.3112  0.0739  0.3371
 8783SOL    HW137811   2.446   1.878  14.858 -1.0699 -2.6400  3.1061
 8783SOL    HW237812   2.400   1.876  14.713 -0.8961  0.8677  0.6442
 8784SOL     OW37813   1.906   2.514  16.146  0.2280 -1.0203 -0.2105
 8784SOL    HW137814   1.993   2.547  16.123 -0.8770  0.3090 -2.4175
 8784SOL    HW237815   1.844   2.545  16.081 -0.9843 -0.4410  1.2237
 8785SOL     OW37816   3.739   3.210  16.024  0.1207 -0.1813  0.1531
 8785SOL    HW137817   3.674   3.265  16.068  1.8295  0.7059  1.5806
 8785SOL    HW237818   3.758   3.144  16.090 -0.2706 -1.2264 -0.7873
 8786SOL     OW37819   4.645   1.933  10.625 -0.1223  0.2354 -0.1517
 8786SOL    HW137820   4.728   1.979  10.633  0.3595 -0.7968  0.7883
 8786SOL    HW237821   4.687   1.863  10.574  0.8409  1.4604 -1.0534
 8787SOL     OW37822   3.995   3.786  13.082 -0.1825  1.4316  0.5727
 8787SOL    HW137823   3.966   3.806  13.171  0.6320 -0.3887  1.2536
 8787SOL    HW237824   3.906   3.771  13.052  0.7063 -1.1903 -0.7874
 8788SOL     OW37825   0.935   1.879   4.553 -0.1390 -0.0645  0.1023
 8788SOL    HW137826   0.896   1.804   4.598  0.4602  0.3935  1.3785
 8788SOL    HW237827   0.867   1.947   4.543 -0.3960 -0.0702  1.8269
 8789SOL     OW37828   2.997   0.158   7.428  0.7632 -0.2123 -0.1244
 8789SOL    HW137829   3.046   0.126   7.504  0.5749 -0.4423 -0.0981
 8789SOL    HW237830   3.072   0.173   7.370  0.0709 -1.0397 -1.2187
 8790SOL     OW37831   1.208   4.482   6.361  0.5960  0.9260  0.2994
 8790SOL    HW137832   1.179   4.449   6.276 -0.2468  0.0725  0.9236
 8790SOL    HW237833   1.243   4.570   6.345  0.1434  1.0486 -0.0195
 8791SOL     OW37834   3.269   4.329  12.827 -0.3362 -0.1013 -0.4252
 8791SOL    HW137835   3.341   4.311  12.766 -0.7355  0.8552 -1.1721
 8791SOL    HW237836   3.240   4.418  12.809 -0.2544  0.3541  1.6541
 8792SOL     OW37837   0.603   2.904   5.161 -0.1753  0.3623  0.1391
 8792SOL    HW137838   0.578   2.836   5.099  1.7888 -0.3784  0.1786
 8792SOL    HW237839   0.697   2.896   5.172  0.1163 -0.0386 -2.7230
 8793SOL     OW37840   1.669   3.542  13.632  0.2308  0.4606 -0.0309
 8793SOL    HW137841   1.618   3.621  13.618 -1.5590 -0.8561 -0.9083
 8793SOL    HW237842   1.756   3.575  13.606  0.5198 -0.0551  0.2893
 8794SOL     OW37843   0.865   2.012   6.805  0.1548  0.5047  0.3282
 8794SOL    HW137844   0.820   1.973   6.880  0.2381 -0.3592 -0.0665
 8794SOL    HW237845   0.798   2.032   6.740 -0.6314  1.2909  1.3879
 8795SOL     OW37846   3.888   2.446   1.941  0.0607  0.1557 -0.3179
 8795SOL    HW137847   3.881   2.541   1.946 -1.5124  0.0950 -1.2984
 8795SOL    HW237848   3.983   2.432   1.938  0.1528  0.8001 -0.4203
 8796SOL     OW37849   2.477   1.969   7.058  0.3283  0.4329  0.0006
 8796SOL    HW137850   2.559   1.920   7.046  1.2851  1.5971  1.7870
 8796SOL    HW237851   2.503   2.049   7.103  1.3088 -0.4806  1.0986
 8797SOL     OW37852   3.640   0.626   6.954 -0.0693 -0.2233 -0.8224
 8797SOL    HW137853   3.706   0.556   6.959 -0.3250 -0.4800 -1.1068
 8797SOL    HW237854   3.623   0.631   6.861 -2.3872 -0.1043 -0.3851
 8798SOL     OW37855   4.101   1.207   4.877 -0.4143 -0.0904 -0.0229
 8798SOL    HW137856   4.066   1.247   4.798  2.1737  0.5821 -0.8323
 8798SOL    HW237857   4.105   1.288   4.927  0.2493 -0.9690  1.3551
 8799SOL     OW37858   0.474   3.392   5.572 -0.5602  0.6950 -0.1766
 8799SOL    HW137859   0.487   3.327   5.641  1.2387  0.4863 -0.7215
 8799SOL    HW237860   0.491   3.344   5.491 -0.2448 -0.3425  0.5110
 8800SOL     OW37861   0.372   0.829   0.164  0.2798  0.3925 -0.4622
 8800SOL    HW137862   0.300   0.828   0.227  1.1646 -1.5500  0.5002
 8800SOL    HW237863   0.324   0.817   0.082  2.0608  1.4000 -1.6550
 8801SOL     OW37864   4.425   0.330   2.622 -0.3942 -0.0231 -0.0623
 8801SOL    HW137865   4.378   0.373   2.693 -0.6201  1.1681 -0.9471
 8801SOL    HW237866   4.378   0.357   2.543 -1.6810 -1.2659  0.2703
 8802SOL     OW37867   2.465   3.525   3.194 -0.1634  0.5232  0.7322
 8802SOL    HW137868   2.503   3.611   3.214  3.0424 -0.4779 -1.0046
 8802SOL    HW237869   2.549   3.489   3.164  0.1313 -0.1126  2.3236
 8803SOL     OW37870   3.585   2.632   9.852 -0.2768  0.2007 -0.5405
 8803SOL    HW137871   3.500   2.640   9.893 -0.1718  0.5140 -0.3879
 8803SOL    HW237872   3.635   2.650   9.932 -2.6603  0.3740  0.8852
 8804SOL     OW37873   4.036   2.588  12.826 -0.1038 -0.2554 -0.0461
 8804SOL    HW137874   4.085   2.613  12.748  1.5753 -0.2979  0.9787
 8804SOL    HW237875   4.070   2.653  12.888  0.5330 -0.2593 -0.3938
 8805SOL     OW37876   2.686   3.083  14.346 -0.7415  0.0103 -0.2042
 8805SOL    HW137877   2.613   3.047  14.295 -0.0252 -0.7052 -0.7153
 8805SOL    HW237878   2.631   3.109  14.420  0.6463 -1.6522  1.4127
 8806SOL     OW37879   1.830   1.496   8.511  0.3098  0.2218 -0.0794
 8806SOL    HW137880   1.916   1.453   8.511 -0.6360 -1.6660 -1.1306
 8806SOL    HW237881   1.829   1.536   8.424  1.0087  0.1973 -0.0984
 8807SOL     OW37882   4.223   1.543   3.940 -0.5200  0.4381 -1.2650
 8807SOL    HW137883   4.191   1.478   4.002  2.4103 -0.4938 -0.7047
 8807SOL    HW237884   4.313   1.545   3.972 -0.8705  0.6519 -0.2925
 8808SOL     OW37885   4.717   0.716   6.641  0.8087  0.3101  0.2327
 8808SOL    HW137886   4.645   0.665   6.678 -0.7050  2.3316  0.0788
 8808SOL    HW237887   4.674   0.799   6.622 -2.3456 -1.7819 -1.8094
 8809SOL     OW37888   3.581   0.002   3.878 -0.1688 -0.4333 -0.3559
 8809SOL    HW137889   3.522   0.078   3.873 -0.8550 -0.9144  0.5926
 8809SOL    HW237890   3.657   0.045   3.918 -0.8107  1.1111 -0.7689
 8810SOL     OW37891   2.029   4.599  15.618 -0.6286  0.5322 -0.0521
 8810SOL    HW137892   2.046   4.505  15.615 -0.6317  0.5274  0.0652
 8810SOL    HW237893   1.957   4.598  15.681 -1.4259 -0.0849 -0.9801
 8811SOL     OW37894   3.603   0.099  13.839  0.0795  0.0737  0.5511
 8811SOL    HW137895   3.682   0.136  13.879  0.3134  1.3711 -1.0832
 8811SOL    HW237896   3.601   0.152  13.759 -1.3897  1.9244  1.8305
 8812SOL     OW37897   3.624   0.144   7.906 -0.6864 -0.1325 -0.4410
 8812SOL    HW137898   3.604   0.219   7.851  0.0351 -0.7022 -1.4742
 8812SOL    HW237899   3.600   0.170   7.995  2.6814  1.3519  0.0496
 8813SOL     OW37900   4.280   4.581   9.582 -0.5369 -0.1431  0.0884
 8813SOL    HW137901   4.188   4.599   9.562 -0.5024  0.7069  0.6612
 8813SOL    HW237902   4.302   4.579   9.489  1.4571  1.4744  0.5215
 8814SOL     OW37903   2.635   2.487   5.131 -0.9084  0.0470  0.3872
 8814SOL    HW137904   2.609   2.578   5.149 -2.3247 -0.6902  2.0304
 8814SOL    HW237905   2.721   2.505   5.094 -0.7847  0.8445  1.0463
 8815SOL     OW37906   4.018   4.176   3.718  0.3427  0.0728  0.5382
 8815SOL    HW137907   4.000   4.265   3.688  0.7442  0.0249  0.1615
 8815SOL    HW237908   3.932   4.135   3.723  0.7988 -0.7562  1.5368
 8816SOL     OW37909   4.161   1.147   3.565  0.5245 -0.1378  0.0462
 8816SOL    HW137910   4.235   1.193   3.525  1.3578 -1.4552  0.0854
 8816SOL    HW237911   4.092   1.142   3.500  0.5959  0.2228 -0.0598
 8817SOL     OW37912   0.947   3.048   9.962 -0.2650  0.4966 -0.0053
 8817SOL    HW137913   0.968   3.034  10.054 -1.2517  0.3966  0.1934
 8817SOL    HW237914   0.866   3.000   9.951 -1.3643  2.3931 -0.2273
 8818SOL     OW37915   3.596   1.619   7.698 -0.0590  0.1610 -0.0878
 8818SOL    HW137916   3.671   1.651   7.748  0.4354  0.2678 -0.9093
 8818SOL    HW237917   3.624   1.533   7.668  0.0494  0.4348 -0.7616
 8819SOL     OW37918   3.944   2.598  15.984 -0.2204  0.1947  0.2981
 8819SOL    HW137919   3.956   2.689  15.957 -1.3690  1.2851  3.4517
 8819SOL    HW237920   3.939   2.551  15.901  0.7850  2.4148 -1.0146
 8820SOL     OW37921   3.124   3.992   9.445  0.4378 -0.1994  0.5104
 8820SOL    HW137922   3.087   3.927   9.385  0.9711 -0.0824  0.0498
 8820SOL    HW237923   3.184   3.933   9.491  1.6323 -0.5095 -1.4621
 8821SOL     OW37924   2.034   2.915   7.944 -0.0970  0.0037  0.1359
 8821SOL    HW137925   1.986   2.860   8.007 -0.7555 -0.9310 -1.1718
 8821SOL    HW237926   1.998   2.895   7.857 -1.8873 -0.1235  0.8894
 8822SOL     OW37927   3.326   3.610   1.059  0.2020 -0.0828 -0.5096
 8822SOL    HW137928   3.303   3.614   0.966 -1.4447  2.5391  0.0032
 8822SOL    HW237929   3.238   3.597   1.094  1.4084 -3.3292  1.2728
 8823SOL     OW37930   0.490   3.997   1.684 -0.7655 -0.6063  0.0802
 8823SOL    HW137931   0.557   3.951   1.634 -1.1669  0.1045 -1.0888
 8823SOL    HW237932   0.415   4.002   1.625  0.2855 -2.0256 -1.3638
 8824SOL     OW37933   2.674   1.106   2.720  0.9404  0.5404  0.2962
 8824SOL    HW137934   2.611   1.038   2.695  1.3939  0.0502  0.4922
 8824SOL    HW237935   2.726   1.112   2.640 -0.2238  3.3846 -0.2680
 8825SOL     OW37936   3.026   3.522   7.668  0.2753 -0.2881  0.1384
 8825SOL    HW137937   3.096   3.456   7.665 -0.4018 -0.9347 -1.4508
 8825SOL    HW237938   3.077   3.596   7.699  0.2212 -0.5529  0.8555
 8826SOL     OW37939   0.551   1.179   3.181  0.0497  0.3502  0.4669
 8826SOL    HW137940   0.638   1.159   3.215 -0.5401  0.3234  1.9660
 8826SOL    HW237941   0.563   1.212   3.092 -0.4336 -0.8243 -0.0299
 8827SOL     OW37942   0.705   0.812  13.644 -0.1393  0.2073  0.6175
 8827SOL    HW137943   0.692   0.897  13.601 -0.2490 -1.4560 -2.5822
 8827SOL    HW237944   0.801   0.810  13.646 -0.1637 -0.5321  1.2079
 8828SOL     OW37945   0.456   3.711   3.327 -0.4964 -0.3554 -0.1728
 8828SOL    HW137946   0.386   3.748   3.381 -0.7356  0.0410 -0.7543
 8828SOL    HW237947   0.467   3.633   3.381 -0.5204  0.2122  0.6693
 8829SOL     OW37948   4.037   1.808   5.453  0.1358  0.4156 -0.2499
 8829SOL    HW137949   4.081   1.887   5.485  0.0555 -0.4827  2.0710
 8829SOL    HW237950   4.010   1.832   5.364 -0.2733 -0.5943 -0.3983
 8830SOL     OW37951   0.585   4.537   4.430 -0.3801  0.2300 -0.3063
 8830SOL    HW137952   0.529   4.534   4.352  0.1333 -1.8343 -0.6218
 8830SOL    HW237953   0.671   4.536   4.388  0.8085  0.8283  2.1280
 8831SOL     OW37954   3.140   1.140   6.267  0.0945 -0.2757  0.2535
 8831SOL    HW137955   3.207   1.200   6.233  0.2428 -0.0802  0.8934
 8831SOL    HW237956   3.162   1.118   6.357  1.1980  0.5454  0.1821
 8832SOL     OW37957   3.422   2.593  13.879  0.1087  0.0435  0.3112
 8832SOL    HW137958   3.339   2.563  13.914  1.4684 -3.9820  0.0660
 8832SOL    HW237959   3.501   2.569  13.927  0.0682 -2.0842 -0.7160
 8833SOL     OW37960   3.702   2.992  17.179 -0.3394 -0.6380  0.2645
 8833SOL    HW137961   3.683   3.074  17.223  0.7172  0.0403 -0.5428
 8833SOL    HW237962   3.612   2.959  17.173  0.0581 -1.3509 -2.0587
 8834SOL     OW37963   3.830   3.547   4.337 -0.1143 -0.4235 -0.2828
 8834SOL    HW137964   3.823   3.534   4.242  2.4627  4.2613 -1.1120
 8834SOL    HW237965   3.771   3.477   4.366 -1.3489  0.5657 -0.4280
 8835SOL     OW37966   3.349   0.954  17.342  0.0167 -0.2894  0.2048
 8835SOL    HW137967   3.322   1.022  17.280  0.9196 -0.5622 -0.4793
 8835SOL    HW237968   3.325   1.002  17.421 -1.7596 -3.4136  1.5675
 8836SOL     OW37969   1.156   1.085   6.071 -0.1136 -0.3674  0.0338
 8836SOL    HW137970   1.219   1.044   6.130  0.0869  1.7875  1.3220
 8836SOL    HW237971   1.114   1.136   6.140  2.7460  2.6239 -0.4479
 8837SOL     OW37972   4.365   3.609   0.163 -0.6288 -0.0198 -0.2998
 8837SOL    HW137973   4.389   3.527   0.120 -1.1792 -0.7885  0.8789
 8837SOL    HW237974   4.274   3.617   0.137 -1.0522 -1.0932  0.8513
 8838SOL     OW37975   3.812   3.902   6.135 -0.8665 -0.5419 -0.2177
 8838SOL    HW137976   3.765   3.921   6.054 -0.6243  0.4710 -0.1221
 8838SOL    HW237977   3.765   3.832   6.180  0.1052 -0.2897  1.2039
 8839SOL     OW37978   0.238   3.283   8.831 -0.3542 -0.8966 -0.3217
 8839SOL    HW137979   0.264   3.373   8.814  0.6119 -1.0202  0.5112
 8839SOL    HW237980   0.158   3.277   8.778  0.5649 -0.3180 -1.7744
 8840SOL     OW37981   4.159   3.222  16.571 -0.3321 -0.2323  0.3515
 8840SOL    HW137982   4.213   3.157  16.525  1.5876  2.0884 -0.7353
 8840SOL    HW237983   4.085   3.234  16.512  0.1059 -0.0194 -0.1652
 8841SOL     OW37984   2.286   1.996   9.678 -0.4149 -0.0553 -0.4473
 8841SOL    HW137985   2.223   1.925   9.695 -0.0816 -0.7388 -2.0236
 8841SOL    HW237986   2.371   1.954   9.688  0.1674  1.2054 -0.1642
 8842SOL     OW37987   4.447   2.644   8.991 -0.0995 -0.4063  0.1099
 8842SOL    HW137988   4.415   2.689   9.070  1.6221 -0.4649  0.8370
 8842SOL    HW237989   4.363   2.604   8.966  0.2264 -0.6970 -0.4946
 8843SOL     OW37990   1.726   1.599   9.279  0.4033  0.0561  0.4783
 8843SOL    HW137991   1.652   1.558   9.235 -1.2458  0.6854  2.7013
 8843SOL    HW237992   1.764   1.630   9.196  0.4134  0.8277  0.7692
 8844SOL     OW37993   0.195   1.791  15.269 -0.0687 -0.2883  0.0507
 8844SOL    HW137994   0.275   1.773  15.218  2.0890  1.2857  2.8603
 8844SOL    HW237995   0.199   1.716  15.328  0.2739 -0.9329 -0.7761
 8845SOL     OW37996   1.658   0.819  15.660 -0.3273 -0.7379  0.1797
 8845SOL    HW137997   1.610   0.745  15.697  0.2580 -2.2339 -2.0198
 8845SOL    HW237998   1.712   0.846  15.734 -1.4025 -0.4426  0.8655
 8846SOL     OW37999   0.581   3.557  10.197 -0.1261  0.2985 -0.4882
 8846SOL    HW138000   0.594   3.576  10.104  0.0012  1.3393 -0.2489
 8846SOL    HW238001   0.485   3.552  10.206  0.1883 -1.2297  1.9992
 8847SOL     OW38002   0.159   2.383   9.128  0.3112  0.0253 -0.4520
 8847SOL    HW138003   0.076   2.432   9.129 -0.4899 -1.3360 -0.9039
 8847SOL    HW238004   0.208   2.464   9.140 -1.0004  0.4047  2.4728
 8848SOL     OW38005   3.373   3.134  12.711 -0.2189  0.0510 -0.2106
 8848SOL    HW138006   3.288   3.090  12.715  0.7517 -1.4944  3.3031
 8848SOL    HW238007   3.397   3.114  12.620 -0.5685 -0.0207 -0.2867
 8849SOL     OW38008   2.082   1.045   1.926 -0.2324 -0.3728 -0.1611
 8849SOL    HW138009   2.055   1.064   2.016 -0.7113 -0.7519 -0.2225
 8849SOL    HW238010   2.171   1.079   1.927  0.4843 -2.3436  2.5058
 8850SOL     OW38011   3.390   2.243   4.756 -0.8449  0.6181 -0.5983
 8850SOL    HW138012   3.331   2.310   4.791  0.0778  0.9053  0.4097
 8850SOL    HW238013   3.344   2.161   4.776 -0.1852  0.3736 -0.0984
 8851SOL     OW38014   1.342   0.424   1.609 -0.0808  0.4424  0.0634
 8851SOL    HW138015   1.265   0.475   1.632  1.1149  2.3950 -0.2706
 8851SOL    HW238016   1.303   0.356   1.554 -0.1727  0.4264  0.1476
 8852SOL     OW38017   2.157   2.399  10.684 -0.1978  0.2507  0.2643
 8852SOL    HW138018   2.251   2.403  10.697  0.1907  0.3335 -2.4355
 8852SOL    HW238019   2.137   2.479  10.634 -0.9395 -0.3669 -0.4415
 8853SOL     OW38020   2.481   3.049  17.331  0.2589  0.0142 -0.4403
 8853SOL    HW138021   2.404   3.021  17.281  0.9304 -2.2403 -0.2059
 8853SOL    HW238022   2.448   3.130  17.370  0.5412  0.3306 -0.8561
 8854SOL     OW38023   2.017   3.818  11.900  0.3820  0.2297  0.0205
 8854SOL    HW138024   2.074   3.809  11.823 -0.0755 -0.1998 -0.2639
 8854SOL    HW238025   2.019   3.912  11.919 -3.0945  0.2556  0.2018
 8855SOL     OW38026   0.920   4.549  17.300  0.3212 -0.1827 -0.1959
 8855SOL    HW138027   0.992   4.603  17.268 -0.6564  0.8935 -0.5384
 8855SOL    HW238028   0.844   4.607  17.298  0.3739 -0.0697  1.4973
 8856SOL     OW38029   0.883   3.700  13.893 -0.1080 -0.5342  0.3666
 8856SOL    HW138030   0.963   3.742  13.860  0.3159 -1.0434  0.7433
 8856SOL    HW238031   0.879   3.727  13.984  1.6180 -1.3248  0.6884
 8857SOL     OW38032   4.045   4.551  17.500  0.0927 -0.0903 -0.3860
 8857SOL    HW138033   4.103   4.476  17.481 -1.8490 -1.3418 -1.4023
 8857SOL    HW238034   4.088   4.620  17.450 -1.6403  0.5426 -0.9793
 8858SOL     OW38035   2.579   2.467   6.073  0.2808 -0.4265  0.1140
 8858SOL    HW138036   2.491   2.485   6.106  0.4955  2.8585 -1.0480
 8858SOL    HW238037   2.558   2.409   6.000 -1.5827  1.3581 -0.7793
 8859SOL     OW38038   3.356   4.679   3.115 -0.0734  0.1427 -0.5424
 8859SOL    HW138039   3.403   4.663   3.196  2.1794  0.7814 -1.7170
 8859SOL    HW238040   3.316   0.033   3.139  0.4641  0.9014 -2.2283
 8860SOL     OW38041   3.651   1.791   4.219  0.1073 -0.1106  0.5761
 8860SOL    HW138042   3.627   1.724   4.283 -0.3128 -1.4882 -1.0236
 8860SOL    HW238043   3.712   1.756   4.153  0.2310 -0.9877  1.1458
 8861SOL     OW38044   1.538   0.602  15.980 -0.2194 -0.4266 -0.0625
 8861SOL    HW138045   1.508   0.628  15.893  1.6668 -1.0407 -0.8813
 8861SOL    HW238046   1.631   0.623  15.988 -0.0248 -1.9229  1.7276
 8862SOL     OW38047   3.479   1.084   9.022 -0.1281 -0.6724  0.5279
 8862SOL    HW138048   3.574   1.091   9.024 -0.1622 -0.1555  0.3161
 8862SOL    HW238049   3.470   1.173   8.987  0.3171 -0.9819 -0.3778
 8863SOL     OW38050   4.108   0.342   7.130 -0.3906 -0.1591 -0.1757
 8863SOL    HW138051   4.189   0.312   7.173  0.6415  0.4177 -1.7353
 8863SOL    HW238052   4.124   0.293   7.049  2.9299  0.1241  0.3011
 8864SOL     OW38053   4.364   2.658   1.486  0.2474  0.1283 -0.2618
 8864SOL    HW138054   4.441   2.709   1.509  0.5368 -0.9136  1.1144
 8864SOL    HW238055   4.391   2.638   1.397 -0.3981 -2.5469  0.1442
 8865SOL     OW38056   4.401   1.863  15.364  0.1213  0.0341  0.1162
 8865SOL    HW138057   4.463   1.906  15.305  1.0418  0.8099  1.6657
 8865SOL    HW238058   4.327   1.922  15.351 -1.2146 -1.6615 -0.0805
 8866SOL     OW38059   1.856   0.105   5.455 -0.1991 -0.0564 -0.3917
 8866SOL    HW138060   1.838   0.175   5.518  1.7880  0.4534 -0.3872
 8866SOL    HW238061   1.786   0.043   5.473  0.4709 -0.9445 -0.8311
 8867SOL     OW38062   4.314   4.488  12.893  0.2632 -0.4143  0.0468
 8867SOL    HW138063   4.337   4.397  12.873 -0.4621 -0.4670 -0.5423
 8867SOL    HW238064   4.267   4.488  12.976 -0.3866 -1.7122 -0.3180
 8868SOL     OW38065   2.017   1.177   4.069  0.0995  0.0621  0.1286
 8868SOL    HW138066   2.038   1.085   4.061 -0.3454 -0.0250 -0.0627
 8868SOL    HW238067   2.089   1.218   4.021 -0.6369  1.2310  0.0146
 8869SOL     OW38068   3.906   2.708   6.177  0.2173 -0.1964  0.2478
 8869SOL    HW138069   3.901   2.782   6.116  2.6989  0.9537  1.4228
 8869SOL    HW238070   3.820   2.667   6.167 -0.0046 -0.0309  1.4734
 8870SOL     OW38071   2.650   2.347   4.363  0.2901  0.0129 -0.1824
 8870SOL    HW138072   2.642   2.272   4.422 -1.7765  0.7201  0.4489
 8870SOL    HW238073   2.577   2.404   4.386 -0.6256 -0.8400 -0.9635
 8871SOL     OW38074   2.299   2.288   9.529 -0.3289  0.4560  0.4570
 8871SOL    HW138075   2.316   2.235   9.607  1.1526  0.5302  0.1895
 8871SOL    HW238076   2.224   2.239   9.496  0.8622 -0.5494 -0.7649
 8872SOL     OW38077   0.455   3.850  16.038 -0.0124  0.2747 -0.0131
 8872SOL    HW138078   0.491   3.919  16.093 -0.6200  0.7116 -0.1672
 8872SOL    HW238079   0.473   3.897  15.957  1.7600  1.2803  0.9618
 8873SOL     OW38080   0.783   2.777  10.119  0.6448  0.0889  0.4556
 8873SOL    HW138081   0.723   2.748  10.187 -1.0917  2.1281 -0.1822
 8873SOL    HW238082   0.772   2.714  10.048 -1.1921  0.5046  0.3673
 8874SOL     OW38083   4.590   1.964  15.172  0.0850 -0.3273 -0.1613
 8874SOL    HW138084   4.658   1.901  15.148  2.2635  2.0722 -0.2268
 8874SOL    HW238085   4.593   2.032  15.104 -1.2409 -1.2895 -1.1854
 8875SOL     OW38086   1.640   1.933   3.516 -0.4295  0.6345  0.0803
 8875SOL    HW138087   1.555   1.924   3.472 -0.2962  0.7871 -0.2096
 8875SOL    HW238088   1.677   1.845   3.515 -1.8747  0.0397 -1.5509
 8876SOL     OW38089   4.023   4.721   8.251  0.1725 -0.4540 -0.1599
 8876SOL    HW138090   4.024   0.084   8.226 -0.6741 -0.4675 -0.2330
 8876SOL    HW238091   3.992   4.677   8.172 -0.9198 -0.0687  0.0542
 8877SOL     OW38092   0.676   3.014  13.855  0.5925 -0.8750  0.1307
 8877SOL    HW138093   0.590   3.053  13.838 -0.5320 -2.1391  2.9131
 8877SOL    HW238094   0.665   2.921  13.835 -0.8038 -0.3051 -1.7822
 8878SOL     OW38095   1.356   1.723   0.202 -0.5236  0.4395  0.2239
 8878SOL    HW138096   1.411   1.650   0.174  0.3387  0.8109  0.9367
 8878SOL    HW238097   1.285   1.667   0.236 -0.9248  1.7299  1.5365
 8879SOL     OW38098   4.160   1.057  14.646 -0.3447  0.5708 -0.0870
 8879SOL    HW138099   4.153   1.105  14.729 -1.3770 -1.0716  0.7648
 8879SOL    HW238100   4.249   1.072  14.614 -0.1287  0.8077  0.6276
 8880SOL     OW38101   2.237   0.326   1.131  0.1403  0.1424  0.1356
 8880SOL    HW138102   2.201   0.246   1.093 -2.4808  0.7174  1.4209
 8880SOL    HW238103   2.158   0.378   1.145 -0.5090 -0.3317 -1.6964
 8881SOL     OW38104   2.880   3.058   9.515 -0.6060 -0.0415 -0.0696
 8881SOL    HW138105   2.859   3.150   9.500  1.4302  0.5387  0.5859
 8881SOL    HW238106   2.902   3.049   9.607  0.4302  0.4854 -0.2601
 8882SOL     OW38107   0.628   2.277   4.533 -0.4480 -0.1933 -0.4630
 8882SOL    HW138108   0.559   2.259   4.470 -1.5622  0.8301  0.4652
 8882SOL    HW238109   0.620   2.373   4.539 -2.3156 -0.5124  2.4104
 8883SOL     OW38110   3.778   0.396   5.378 -0.5080 -0.1027  0.6893
 8883SOL    HW138111   3.870   0.416   5.359 -0.4087 -1.0322  0.1420
 8883SOL    HW238112   3.756   0.464   5.441  0.8285  0.4847  0.5239
 8884SOL     OW38113   2.994   0.755   1.708 -0.2910  0.3036 -0.0687
 8884SOL    HW138114   3.056   0.728   1.641  1.4178  0.0602  1.5945
 8884SOL    HW238115   3.048   0.809   1.766  0.6621 -3.1309  2.2506
 8885SOL     OW38116   0.061   2.041   4.065  0.1629  0.1653  0.0409
 8885SOL    HW138117   0.064   2.008   3.975  0.9505  0.2602  0.0390
 8885SOL    HW238118   0.081   2.134   4.057  1.6028 -0.2998 -1.6103
 8886SOL     OW38119   1.678   3.801   1.483  0.7025 -0.0984 -0.8492
 8886SOL    HW138120   1.744   3.869   1.498  1.0066 -0.5918  0.0439
 8886SOL    HW238121   1.609   3.849   1.436  0.7712 -1.2324 -2.0843
 8887SOL     OW38122   0.844   0.590   5.438 -0.1850  0.1463 -0.1878
 8887SOL    HW138123   0.761   0.556   5.472  0.0079  1.9214  2.0119
 8887SOL    HW238124   0.815   0.677   5.412 -1.5326 -0.5970 -1.2269
 8888SOL     OW38125   0.145   1.423   6.765 -0.5762  0.0232 -0.4274
 8888SOL    HW138126   0.070   1.374   6.796 -0.8923  0.9387  0.2298
 8888SOL    HW238127   0.109   1.505   6.731 -1.4067  0.8631  2.4947
 8889SOL     OW38128   1.058   1.685   1.351  0.7406  0.0459  0.0832
 8889SOL    HW138129   1.037   1.777   1.334 -0.6152 -0.0126  1.4413
 8889SOL    HW238130   1.153   1.696   1.340  0.6837  1.8740  1.2737
 8890SOL     OW38131   0.476   4.116   0.171  0.2431 -0.0525 -0.0907
 8890SOL    HW138132   0.472   4.142   0.079 -0.8699  0.2648  0.0478
 8890SOL    HW238133   0.423   4.037   0.179 -0.6535  0.3810 -1.7893
 8891SOL     OW38134   0.059   1.153   4.010 -0.1804  0.0804 -0.0326
 8891SOL    HW138135   4.725   1.083   3.998  0.9605 -0.9251 -0.1702
 8891SOL    HW238136   0.106   1.133   3.929 -1.4943  0.7777 -0.9672
 8892SOL     OW38137   1.770   2.719  15.991 -0.0263  0.5999  0.9403
 8892SOL    HW138138   1.731   2.755  15.911  0.9725  0.5563  0.4352
 8892SOL    HW238139   1.834   2.789  16.008  0.2276  0.8020 -0.8218
 8893SOL     OW38140   1.268   4.326   0.792  0.4530  0.6159 -0.0339
 8893SOL    HW138141   1.362   4.338   0.804  0.3419  1.2555  0.1759
 8893SOL    HW238142   1.270   4.248   0.736 -2.0389  1.5222 -1.4014
 8894SOL     OW38143   2.746   0.368   5.389 -0.0318  0.1694  0.4720
 8894SOL    HW138144   2.831   0.327   5.371  0.6332  0.7550  2.3026
 8894SOL    HW238145   2.766   0.423   5.465  0.1134  2.8215 -1.5009
 8895SOL     OW38146   0.233   1.126   2.710 -0.1248  0.4502  0.1952
 8895SOL    HW138147   0.140   1.120   2.728 -0.6057 -0.7291 -2.7164
 8895SOL    HW238148   0.251   1.041   2.670 -2.6844  0.1522 -0.2669
 8896SOL     OW38149   1.011   3.129  12.342  1.0825  0.4223  0.0546
 8896SOL    HW138150   1.055   3.213  12.340  2.1277 -0.1097  1.2152
 8896SOL    HW238151   0.921   3.160  12.336  0.9330  0.0634  0.4027
 8897SOL     OW38152   1.279   2.720   2.408 -0.4196 -0.2427  0.2789
 8897SOL    HW138153   1.350   2.668   2.371  0.4446  0.2994  1.1627
 8897SOL    HW238154   1.301   2.720   2.502 -0.3406  0.6866  0.2601
 8898SOL     OW38155   4.573   3.173   3.965  0.3359  0.2702 -0.0801
 8898SOL    HW138156   4.526   3.134   3.892  1.5738  0.0774 -0.7774
 8898SOL    HW238157   4.621   3.099   4.003 -1.3559  0.1161  1.7651
 8899SOL     OW38158   1.606   3.272   8.949  0.3570  0.4277  0.3860
 8899SOL    HW138159   1.653   3.349   8.917 -0.8115  0.5657 -1.0175
 8899SOL    HW238160   1.577   3.304   9.034  0.9859  0.3037  0.6415
 8900SOL     OW38161   2.297   3.417   8.376 -0.5495 -0.0447 -0.3285
 8900SOL    HW138162   2.303   3.407   8.281  1.1694  1.4240 -0.3732
 8900SOL    HW238163   2.231   3.486   8.374  0.7958  1.2562  0.4044
 8901SOL     OW38164   3.344   4.132   3.486  0.2595  0.3361  0.0089
 8901SOL    HW138165   3.304   4.146   3.400  1.9320 -1.9760 -1.1627
 8901SOL    HW238166   3.362   4.217   3.525  0.6009  0.3515 -0.1883
 8902SOL     OW38167   3.892   4.055   7.336 -0.3496  0.3291 -0.0150
 8902SOL    HW138168   3.861   4.022   7.421 -1.0339 -0.1219 -0.4431
 8902SOL    HW238169   3.816   4.038   7.281  0.3676  0.4428 -1.0210
 8903SOL     OW38170   2.671   4.459   5.838  0.6378  0.0292  0.2647
 8903SOL    HW138171   2.763   4.461   5.811  1.3037  0.2623  2.5319
 8903SOL    HW238172   2.626   4.507   5.768 -0.2105 -0.6484  0.3454
 8904SOL     OW38173   1.357   1.365  13.885  0.2824  0.2921 -0.2555
 8904SOL    HW138174   1.286   1.429  13.892 -0.8836 -1.0573  0.0244
 8904SOL    HW238175   1.412   1.398  13.814  1.4546  0.8774  0.9076
 8905SOL     OW38176   1.657   0.571   7.811 -0.6292  0.0579  0.7353
 8905SOL    HW138177   1.665   0.540   7.901  0.2617 -0.8922  0.3257
 8905SOL    HW238178   1.723   0.521   7.765 -0.4296  0.2933  0.7622
 8906SOL     OW38179   4.546   3.376   3.762 -0.3084 -0.4805 -1.0781
 8906SOL    HW138180   4.555   3.328   3.844  0.8411  0.1480 -0.8327
 8906SOL    HW238181   4.521   3.461   3.797 -0.4680  0.2615 -2.9925
 8907SOL     OW38182   4.358   0.694   2.978  0.1515 -0.7078 -0.0515
 8907SOL    HW138183   4.401   0.666   3.058  1.1035  3.1801  0.7892
 8907SOL    HW238184   4.412   0.767   2.949 -1.0222 -0.1643 -0.9105
 8908SOL     OW38185   1.157   1.054   6.930 -0.1032  0.4964 -0.2909
 8908SOL    HW138186   1.152   1.104   7.011  2.4231  0.8006 -0.3217
 8908SOL    HW238187   1.207   1.108   6.869  1.0331 -2.1742 -1.7562
 8909SOL     OW38188   1.417   4.357  13.469 -0.9199  0.1618 -0.6098
 8909SOL    HW138189   1.513   4.366  13.468 -0.7663 -0.8070  3.2465
 8909SOL    HW238190   1.400   4.430  13.529  0.6115 -0.2486  0.3281
 8910SOL     OW38191   0.384   1.243   9.324  0.1590  0.0806  0.0387
 8910SOL    HW138192   0.374   1.257   9.418 -0.1200 -0.5307  0.0980
 8910SOL    HW238193   0.476   1.214   9.329  0.0313 -0.2545  0.5125
 8911SOL     OW38194   0.065   4.126   4.198 -0.8292  0.2355  0.1531
 8911SOL    HW138195   0.117   4.066   4.144  1.2298  1.8965  0.2988
 8911SOL    HW238196   0.019   4.171   4.127 -0.0836  1.1144  0.2361
 8912SOL     OW38197   4.472   3.730   6.368  0.6284  0.0604  0.0362
 8912SOL    HW138198   4.561   3.761   6.387  0.2156  1.6070 -0.5717
 8912SOL    HW238199   4.434   3.794   6.308  0.4427 -0.8850 -0.8553
 8913SOL     OW38200   0.987   1.026  17.618 -0.4957 -0.2157  0.2913
 8913SOL    HW138201   0.967   1.010  17.710 -2.3178  2.1112  0.2987
 8913SOL    HW238202   0.902   1.056  17.585 -0.2633  1.3147  1.0826
 8914SOL     OW38203   1.007   2.513  14.839 -0.2463 -0.0524 -0.5189
 8914SOL    HW138204   0.952   2.473  14.772  2.3579 -1.7456 -1.6377
 8914SOL    HW238205   0.967   2.598  14.860  0.0337 -1.0861  4.1736
 8915SOL     OW38206   1.683   4.174   4.131  0.6726  0.4787 -0.2375
 8915SOL    HW138207   1.654   4.129   4.211  1.6485  1.1095  0.4604
 8915SOL    HW238208   1.673   4.264   4.162  1.6735  0.7565 -0.7403
 8916SOL     OW38209   0.076   2.012   3.777 -0.0823  0.1092  0.1569
 8916SOL    HW138210   0.042   2.010   3.687  1.9851 -3.1842 -0.5675
 8916SOL    HW238211   0.162   1.972   3.767 -0.8846 -1.2393 -1.3452
 8917SOL     OW38212   0.923   2.263   0.848 -0.1149  0.4360  0.2922
 8917SOL    HW138213   0.999   2.226   0.803  0.4307 -1.0855  2.4214
 8917SOL    HW238214   0.970   2.333   0.894  0.3773  1.1008 -1.2413
 8918SOL     OW38215   1.453   0.919   6.586  0.7229 -0.0009  0.0075
 8918SOL    HW138216   1.500   0.999   6.613  0.0311  0.2074  0.6032
 8918SOL    HW238217   1.381   0.961   6.539  0.8681 -0.2536 -0.4389
 8919SOL     OW38218   1.404   3.085   0.818 -0.1821 -0.1911  0.3338
 8919SOL    HW138219   1.308   3.094   0.815 -0.0833  0.2608 -1.1276
 8919SOL    HW238220   1.425   2.992   0.820  0.8716  0.0706  1.8197
 8920SOL     OW38221   0.364   0.890   8.118 -0.7491 -0.4095  0.2104
 8920SOL    HW138222   0.450   0.907   8.080 -0.4455  1.3894  1.7095
 8920SOL    HW238223   0.306   0.861   8.048 -0.0015 -0.8131 -0.2488
 8921SOL     OW38224   2.837   1.666   1.773  0.6435 -0.1211 -0.4559
 8921SOL    HW138225   2.866   1.755   1.793 -1.0382 -0.4103  3.2925
 8921SOL    HW238226   2.805   1.637   1.858  0.5665  0.3208 -0.3348
 8922SOL     OW38227   3.253   2.745   0.646 -0.3579 -0.2806  0.3196
 8922SOL    HW138228   3.224   2.655   0.659 -0.5692 -0.1125  0.9889
 8922SOL    HW238229   3.270   2.773   0.735  1.1962  0.1264 -0.0972
 8923SOL     OW38230   2.349   2.667  14.611  0.0206  0.4487 -0.3116
 8923SOL    HW138231   2.256   2.686  14.625 -0.4824 -1.5305 -0.9494
 8923SOL    HW238232   2.384   2.736  14.668 -0.7576  0.2674  0.3802
 8924SOL     OW38233   3.505   0.386   7.036 -0.2432 -0.1185 -0.8562
 8924SOL    HW138234   3.480   0.357   7.123 -0.7567  3.7369  0.2624
 8924SOL    HW238235   3.547   0.468   7.062  1.1829 -1.4645  0.9992
 8925SOL     OW38236   3.978   4.007   6.965 -0.0903 -0.8181  0.0626
 8925SOL    HW138237   4.010   4.010   6.875 -2.2372 -0.7142 -0.6931
 8925SOL    HW238238   4.052   3.961   7.006  0.6101 -0.8919 -1.2963
 8926SOL     OW38239   4.392   4.412   8.489  0.0534 -0.4509  0.3934
 8926SOL    HW138240   4.460   4.430   8.554  1.3657 -1.0396 -0.8092
 8926SOL    HW238241   4.324   4.368   8.539  0.2469 -1.4221 -0.2014
 8927SOL     OW38242   2.394   3.305   0.853 -0.2997 -0.0769  0.0275
 8927SOL    HW138243   2.299   3.320   0.851 -0.5744 -1.9553 -0.7361
 8927SOL    HW238244   2.402   3.214   0.824  2.6368  0.0992  0.2525
 8928SOL     OW38245   1.318   1.578  15.748  0.2392  0.3278 -0.4512
 8928SOL    HW138246   1.354   1.587  15.659  1.7759 -1.2315  0.0313
 8928SOL    HW238247   1.322   1.483  15.748  1.1270  0.3645 -0.9958
 8929SOL     OW38248   2.167   4.431   6.293  0.4603 -0.4060 -0.4497
 8929SOL    HW138249   2.099   4.364   6.291  0.3943 -0.4205  2.1787
 8929SOL    HW238250   2.146   4.468   6.379  2.0407  1.3490 -0.7939
 8930SOL     OW38251   3.796   3.734   0.187 -0.2834 -0.3501 -0.4830
 8930SOL    HW138252   3.759   3.780   0.262 -0.4801 -1.8864  0.3778
 8930SOL    HW238253   3.840   3.809   0.146  0.2974 -0.2007  0.4196
 8931SOL     OW38254   3.018   1.776  16.802 -0.0234  0.4742 -0.2171
 8931SOL    HW138255   3.005   1.792  16.896 -0.4693  0.6517 -0.3085
 8931SOL    HW238256   2.925   1.759  16.785  0.1213 -1.4643  0.9222
 8932SOL     OW38257   4.362   3.207   5.322 -0.7385  0.6082 -0.4011
 8932SOL    HW138258   4.386   3.214   5.415  0.8469  0.0091 -0.7709
 8932SOL    HW238259   4.313   3.125   5.316  0.8057 -0.4899  2.0747
 8933SOL     OW38260   4.201   1.895   9.507  0.0418  0.5956  0.1093
 8933SOL    HW138261   4.257   1.904   9.430  4.7768  2.9731  3.8314
 8933SOL    HW238262   4.257   1.900   9.584 -0.6234 -1.4900  0.7416
 8934SOL     OW38263   4.621   0.674  10.720  0.3225 -0.0677 -0.1925
 8934SOL    HW138264   4.657   0.662  10.632 -0.6416  0.4560 -0.6514
 8934SOL    HW238265   4.568   0.595  10.729 -0.9980  1.0022  1.3700
 8935SOL     OW38266   1.140   0.726   9.930 -0.5108 -0.1570 -0.0570
 8935SOL    HW138267   1.092   0.659   9.978 -0.9387 -0.3519 -0.7556
 8935SOL    HW238268   1.204   0.676   9.881  0.8903  0.5245  1.0776
 8936SOL     OW38269   2.567   4.471   2.688 -0.0940  0.3063  0.3038
 8936SOL    HW138270   2.596   4.536   2.752  0.6033 -1.0387  1.3663
 8936SOL    HW238271   2.571   4.517   2.604 -0.6641 -0.0897  0.0638
 8937SOL     OW38272   1.192   1.727   3.640 -0.0374 -0.0123 -0.1431
 8937SOL    HW138273   1.222   1.656   3.583  0.5256 -0.6675  0.9837
 8937SOL    HW238274   1.209   1.805   3.587 -0.5775 -1.0524 -1.8624
 8938SOL     OW38275   1.217   1.507   3.466  0.6329 -0.6170 -0.0085
 8938SOL    HW138276   1.217   1.576   3.399 -0.4293 -1.8659 -1.2847
 8938SOL    HW238277   1.279   1.442   3.432  0.8662 -0.1482 -0.4894
 8939SOL     OW38278   2.903   4.083  17.400 -0.0343  0.2189 -0.1790
 8939SOL    HW138279   2.898   4.178  17.409 -0.1272  0.0219  1.8909
 8939SOL    HW238280   2.968   4.071  17.331 -0.1121  1.6603 -0.5062
 8940SOL     OW38281   3.136   0.378   3.692  0.2756 -0.4954 -0.0768
 8940SOL    HW138282   3.221   0.349   3.659  0.6337  1.9167 -1.2851
 8940SOL    HW238283   3.135   0.469   3.661 -2.9684 -0.5746 -0.1564
 8941SOL     OW38284   2.384   0.037   5.083 -0.2358  0.4037 -0.7092
 8941SOL    HW138285   2.434   0.082   5.015  0.5037 -1.0360 -1.1247
 8941SOL    HW238286   2.298   0.054   5.045 -0.9173 -2.9753 -0.7446
 8942SOL     OW38287   3.414   4.488   5.984  0.1864  0.3695 -0.4835
 8942SOL    HW138288   3.450   4.400   5.985 -0.7689  0.0281  1.8730
 8942SOL    HW238289   3.357   4.477   5.908  1.7889 -0.1597 -1.6246
 8943SOL     OW38290   4.606   1.747   5.877  0.2672 -0.1948 -0.0523
 8943SOL    HW138291   4.567   1.660   5.879 -1.1143  0.4507  0.5746
 8943SOL    HW238292   4.550   1.799   5.819 -0.0209 -0.7523 -0.2672
 8944SOL     OW38293   2.437   2.406   3.484  0.1414  0.3131  0.0420
 8944SOL    HW138294   2.479   2.439   3.405  0.2145 -1.2079 -0.5627
 8944SOL    HW238295   2.456   2.474   3.549  0.0396 -0.7195  1.1596
 8945SOL     OW38296   1.771   1.555   1.629 -0.9391  0.4195 -0.0820
 8945SOL    HW138297   1.707   1.530   1.696  1.4501 -0.7545  1.8028
 8945SOL    HW238298   1.794   1.646   1.646  0.5937 -0.6063  3.3547
 8946SOL     OW38299   2.214   2.707   0.852  0.0943  0.9922  0.0760
 8946SOL    HW138300   2.174   2.706   0.939 -0.6376 -1.2342 -0.2947
 8946SOL    HW238301   2.291   2.762   0.867  0.3870  0.1392  1.7202
 8947SOL     OW38302   1.622   2.166   8.091  0.5466  0.0440 -0.4709
 8947SOL    HW138303   1.597   2.076   8.071  0.2944  0.1872 -0.7967
 8947SOL    HW238304   1.612   2.200   8.002 -0.7743  1.8366  0.3525
 8948SOL     OW38305   1.982   2.456   9.740  0.1001 -0.1108 -0.0802
 8948SOL    HW138306   2.026   2.470   9.656  0.1240  0.8393  0.0848
 8948SOL    HW238307   2.046   2.395   9.776 -1.0969 -1.3016  0.0374
 8949SOL     OW38308   1.948   3.194   6.018 -0.2884  0.1201 -0.6653
 8949SOL    HW138309   2.014   3.139   5.975  0.5302  0.3860  0.2422
 8949SOL    HW238310   1.885   3.126   6.044  1.3492 -1.7429 -1.5290
 8950SOL     OW38311   3.883   3.776  10.769 -0.3453  0.2731  0.1030
 8950SOL    HW138312   3.923   3.803  10.851  3.3524 -0.2850 -1.5167
 8950SOL    HW238313   3.952   3.713  10.748 -0.7904  0.4398 -1.8818
 8951SOL     OW38314   2.200   3.642  11.140  0.0927 -0.2655 -0.3898
 8951SOL    HW138315   2.233   3.559  11.105  1.2537  0.1194 -0.2021
 8951SOL    HW238316   2.276   3.697  11.122  0.1705 -0.4604 -0.6567
 8952SOL     OW38317   1.892   0.177   8.770 -0.7088  0.1171  0.6509
 8952SOL    HW138318   1.947   0.215   8.701  0.9119  0.8118  2.3517
 8952SOL    HW238319   1.906   0.234   8.845  0.4045  0.2956  0.3152
 8953SOL     OW38320   0.788   3.282   4.277 -0.4129 -0.2053  0.1647
 8953SOL    HW138321   0.837   3.283   4.194 -0.4685  0.0747  0.1361
 8953SOL    HW238322   0.703   3.241   4.258 -0.5325 -0.2300  0.7662
 8954SOL     OW38323   2.909   2.645   0.559 -0.0793 -0.3676  0.5315
 8954SOL    HW138324   2.958   2.579   0.609 -1.0989 -2.5131 -1.3033
 8954SOL    HW238325   2.822   2.612   0.579 -0.4028 -0.4498 -1.0384
 8955SOL     OW38326   3.544   3.660   5.517 -0.0635  0.3392 -0.1986
 8955SOL    HW138327   3.559   3.656   5.422 -1.8048  1.0128 -0.5102
 8955SOL    HW238328   3.471   3.598   5.520  0.4226 -0.2442 -0.4153
 8956SOL     OW38329   0.787   3.293   1.166 -0.3857  0.0921 -0.4460
 8956SOL    HW138330   0.840   3.214   1.164 -2.0079 -1.0320  1.4371
 8956SOL    HW238331   0.732   3.276   1.089  1.9394 -1.1211 -1.8308
 8957SOL     OW38332   0.776   0.837   5.342  0.2058  0.1404 -0.0575
 8957SOL    HW138333   0.697   0.873   5.302  0.5256 -0.0499 -0.8539
 8957SOL    HW238334   0.782   0.884   5.425 -1.5865 -0.1432  0.2416
 8958SOL     OW38335   3.617   1.189   8.466 -0.5877  0.6682  0.1977
 8958SOL    HW138336   3.606   1.240   8.545 -2.4333 -0.1105  0.4433
 8958SOL    HW238337   3.636   1.257   8.401 -1.6581 -1.9060 -2.8346
 8959SOL     OW38338   0.490   3.121   9.116 -0.3401 -0.2029  0.1413
 8959SOL    HW138339   0.542   3.191   9.077  1.1989  0.0817  2.6553
 8959SOL    HW238340   0.562   3.073   9.158 -1.7669 -1.4646  1.1602
 8960SOL     OW38341   3.747   0.563   4.926  0.0247  0.6812 -0.2177
 8960SOL    HW138342   3.760   0.598   5.014  2.0255  0.8163 -0.5815
 8960SOL    HW238343   3.750   0.637   4.866 -0.7721  2.2255  1.6499
 8961SOL     OW38344   2.590   1.965   2.297  0.0858  0.1889 -0.1821
 8961SOL    HW138345   2.522   1.898   2.294  0.1486  0.1531 -0.7114
 8961SOL    HW238346   2.636   1.954   2.214  2.2550  0.2360  1.0248
 8962SOL     OW38347   3.329   3.078  11.798 -0.8215 -0.6537  0.0721
 8962SOL    HW138348   3.313   3.158  11.848 -0.2771 -0.3545 -0.2327
 8962SOL    HW238349   3.366   3.111  11.717 -1.0523 -0.6702 -0.0382
 8963SOL     OW38350   3.433   2.507   2.917 -0.0857  0.1588  0.2697
 8963SOL    HW138351   3.351   2.457   2.923  0.3336 -0.6917 -0.9641
 8963SOL    HW238352   3.427   2.576   2.984  1.3441  0.7132 -0.1801
 8964SOL     OW38353   4.258   1.516   2.728 -0.1579 -0.1176  0.5584
 8964SOL    HW138354   4.228   1.428   2.706 -1.1329 -0.2830  2.5508
 8964SOL    HW238355   4.183   1.555   2.774 -0.2304 -0.2482  0.5522
 8965SOL     OW38356   1.167   1.429   1.968  0.0850 -0.3315 -0.3040
 8965SOL    HW138357   1.114   1.396   1.895  0.3227  0.7173 -0.9550
 8965SOL    HW238358   1.250   1.383   1.957 -1.8138 -3.7240 -0.3015
 8966SOL     OW38359   0.102   4.096   1.864  0.0704 -0.6406  0.2597
 8966SOL    HW138360   0.147   4.142   1.934 -1.0581 -2.2885  2.0820
 8966SOL    HW238361   0.181   4.045   1.846 -1.0682 -2.5772  0.7355
 8967SOL     OW38362   0.909   4.210  12.477  0.2644  0.3171  0.7933
 8967SOL    HW138363   0.987   4.155  12.489 -0.8038 -1.9647 -2.8820
 8967SOL    HW238364   0.904   4.222  12.383 -3.6090  1.4815  1.1446
 8968SOL     OW38365   4.554   1.932   4.113 -0.1237  0.1738 -0.1363
 8968SOL    HW138366   4.556   1.839   4.092  2.7972 -0.0047  0.9971
 8968SOL    HW238367   4.645   1.960   4.103 -0.2456  0.4911 -0.3760
 8969SOL     OW38368   1.753   2.437  12.753 -0.3398 -0.4682  0.4618
 8969SOL    HW138369   1.699   2.516  12.760  0.1920 -0.2505  2.1858
 8969SOL    HW238370   1.834   2.477  12.722  0.3192  0.0175  2.8180
 8970SOL     OW38371   4.695   2.593   9.170  0.0109  0.7026  0.3031
 8970SOL    HW138372   4.620   2.593   9.111  0.2241 -2.3306  0.0549
 8970SOL    HW238373   0.002   2.681   9.157  0.8552  0.1948 -0.8830
 8971SOL     OW38374   4.461   1.901   3.376  0.0345  0.7805 -0.1064
 8971SOL    HW138375   4.446   1.809   3.351  2.6049  0.7434 -1.5518
 8971SOL    HW238376   4.490   1.937   3.292 -0.7068  1.3609 -0.1130
 8972SOL     OW38377   3.189   2.515   5.886  0.3701 -0.1749 -0.7812
 8972SOL    HW138378   3.107   2.472   5.861 -0.0679 -0.2127  0.7202
 8972SOL    HW238379   3.258   2.452   5.865 -0.2174 -1.3489  0.8407
 8973SOL     OW38380   3.736   4.338   3.362 -0.6408 -0.6235 -0.3057
 8973SOL    HW138381   3.664   4.278   3.382 -0.6024 -0.9880 -1.2605
 8973SOL    HW238382   3.785   4.279   3.304 -1.1373 -2.0256  0.6957
 8974SOL     OW38383   2.750   1.999   6.057 -0.2311  0.0378 -0.3387
 8974SOL    HW138384   2.759   2.091   6.032 -1.8559 -0.0414 -1.2219
 8974SOL    HW238385   2.798   1.994   6.140 -2.0529  0.7481  0.7471
 8975SOL     OW38386   4.242   0.537   2.518  0.0517  0.0943 -0.5049
 8975SOL    HW138387   4.193   0.587   2.453 -2.4358  1.3287  2.3031
 8975SOL    HW238388   4.233   0.588   2.598 -0.0066  1.1726 -1.1973
 8976SOL     OW38389   0.055   0.452   9.572 -0.4043  0.0052  0.3164
 8976SOL    HW138390   0.075   0.388   9.641 -2.5860 -1.0240 -0.0052
 8976SOL    HW238391   0.139   0.464   9.527  0.5778 -1.0803  1.8602
 8977SOL     OW38392   2.978   2.824   0.346 -0.4063 -0.0125  0.3322
 8977SOL    HW138393   2.971   2.755   0.412 -0.4498 -0.4388 -0.1144
 8977SOL    HW238394   2.892   2.806   0.308 -0.4738 -1.4960  1.2101
 8978SOL     OW38395   1.035   2.035   7.817 -0.5016 -0.0278  0.3728
 8978SOL    HW138396   1.122   2.028   7.855 -1.1671 -0.8797  1.7583
 8978SOL    HW238397   0.976   2.064   7.887  1.2000  1.4172  1.1998
 8979SOL     OW38398   2.940   4.558   3.592 -0.6738 -0.1643 -0.1946
 8979SOL    HW138399   2.936   4.466   3.617 -0.2356 -0.2549 -0.4519
 8979SOL    HW238400   3.035   4.571   3.598 -0.7727  0.9688 -0.9629
 8980SOL     OW38401   4.297   3.570   7.084  0.4559 -0.1707  0.3114
 8980SOL    HW138402   4.391   3.585   7.080  0.0393  2.4196  0.0829
 8980SOL    HW238403   4.289   3.475   7.090 -0.1702 -0.1402 -0.0810
 8981SOL     OW38404   3.756   1.132   8.995  0.5551 -0.0195  0.6223
 8981SOL    HW138405   3.823   1.140   9.062  0.1657  0.7615  0.9144
 8981SOL    HW238406   3.775   1.212   8.946  1.6200 -1.4546 -1.3494
 8982SOL     OW38407   3.264   4.379   7.410 -0.4435  0.2966  0.7495
 8982SOL    HW138408   3.350   4.369   7.451 -0.2643 -2.2306 -0.2601
 8982SOL    HW238409   3.259   4.470   7.439  1.1817  0.3371  0.9108
 8983SOL     OW38410   1.383   1.300   3.375 -0.3669 -0.5232  0.6331
 8983SOL    HW138411   1.433   1.276   3.452  2.2530 -0.8913 -1.1799
 8983SOL    HW238412   1.333   1.222   3.349 -0.6922 -0.3429  0.7148
 8984SOL     OW38413   4.301   4.057  12.673  0.4224 -0.3370  0.2621
 8984SOL    HW138414   4.299   4.131  12.733  0.2737  0.7081 -1.0290
 8984SOL    HW238415   4.243   3.994  12.716 -0.6365 -1.3246 -2.5756
 8985SOL     OW38416   3.786   0.838   8.206  0.1277 -0.0072 -0.3673
 8985SOL    HW138417   3.860   0.880   8.250  0.4076 -0.6050 -0.2695
 8985SOL    HW238418   3.823   0.790   8.133 -0.5795 -2.2251  0.7210
 8986SOL     OW38419   3.092   3.549   6.045  0.4926  0.4500 -0.3394
 8986SOL    HW138420   3.069   3.579   5.957 -0.2076  1.4848  0.1882
 8986SOL    HW238421   3.022   3.491   6.073  1.9738 -1.3819 -0.4467
 8987SOL     OW38422   2.065   4.586   9.897 -0.3918  0.6207 -0.2892
 8987SOL    HW138423   2.049   4.587   9.802  0.5160 -0.7867 -0.4408
 8987SOL    HW238424   2.067   4.679   9.919  0.2721 -0.3540  3.7354
 8988SOL     OW38425   2.918   1.153   3.606 -0.2426 -0.0456 -0.1318
 8988SOL    HW138426   2.849   1.219   3.599  0.1893  0.5823  1.6690
 8988SOL    HW238427   2.995   1.210   3.602  1.0178 -1.9446 -3.2189
 8989SOL     OW38428   3.872   2.185  12.522  0.2181  0.4347 -0.6491
 8989SOL    HW138429   3.854   2.201  12.615  2.3905 -0.2588 -0.1086
 8989SOL    HW238430   3.795   2.239  12.505  0.7220  0.9126 -1.3803
 8990SOL     OW38431   1.189   1.818   6.892  0.6062  0.1529 -0.3104
 8990SOL    HW138432   1.268   1.806   6.944 -1.3204 -1.3703  2.3066
 8990SOL    HW238433   1.123   1.840   6.959  0.5139  0.4782 -0.5053
 8991SOL     OW38434   0.731   2.921   2.590 -0.2822  0.6095  0.6953
 8991SOL    HW138435   0.794   2.852   2.611 -0.0983  0.4893 -0.2679
 8991SOL    HW238436   0.680   2.879   2.521 -2.9086 -1.1765  3.7327
 8992SOL     OW38437   0.411   1.102  11.403  0.1865 -0.8892  0.9566
 8992SOL    HW138438   0.399   1.063  11.490  0.3311 -0.5134  1.1441
 8992SOL    HW238439   0.359   1.047  11.344  2.5065 -0.7968 -1.1620
 8993SOL     OW38440   2.988   3.994   7.444 -0.2382  0.3198  0.2893
 8993SOL    HW138441   3.059   3.935   7.469  0.2334  0.3412 -0.9679
 8993SOL    HW238442   3.036   4.059   7.393 -1.2075  0.3942 -0.5266
 8994SOL     OW38443   1.621   4.108   2.672  0.3085 -0.2215  0.5798
 8994SOL    HW138444   1.664   4.123   2.756 -0.6147  0.8429  0.8610
 8994SOL    HW238445   1.605   4.199   2.649  0.2662 -0.5943 -0.8775
 8995SOL     OW38446   0.918   0.557  13.515 -0.0016 -0.5367 -0.2581
 8995SOL    HW138447   0.977   0.626  13.545  0.8545 -0.8570 -1.1963
 8995SOL    HW238448   0.944   0.498  13.586 -1.0444 -1.9140 -1.0264
 8996SOL     OW38449   0.798   1.727   1.743 -0.4133 -0.1674  0.2188
 8996SOL    HW138450   0.814   1.660   1.677 -1.4368 -0.6142  0.4255
 8996SOL    HW238451   0.708   1.755   1.728 -0.6166 -0.3954  1.0233
 8997SOL     OW38452   1.732   1.576   1.964 -0.2103 -0.3841 -0.1758
 8997SOL    HW138453   1.694   1.534   1.887 -1.8392  1.5463 -0.4423
 8997SOL    HW238454   1.653   1.564   2.017 -1.4391 -2.5339 -2.4970
 8998SOL     OW38455   3.147   2.768  10.071 -0.2870 -0.1089  0.6534
 8998SOL    HW138456   3.061   2.733  10.098 -0.2802 -0.1054  0.6795
 8998SOL    HW238457   3.190   2.771  10.157  0.0497  1.3717  0.4268
 8999SOL     OW38458   0.348   2.434   2.487  0.3243 -0.3614 -0.8225
 8999SOL    HW138459   0.318   2.515   2.446  0.1852  0.6837  1.3486
 8999SOL    HW238460   0.296   2.370   2.440  0.0615 -1.3039  0.7370
 9000SOL     OW38461   0.485   1.654   2.527 -0.6207  0.3645 -0.4198
 9000SOL    HW138462   0.560   1.607   2.562 -2.3827 -1.7485  0.5379
 9000SOL    HW238463   0.495   1.633   2.434 -3.2482 -0.2607 -0.5810
 9001SOL     OW38464   0.073   0.754  14.459  0.0214  0.3500  0.1444
 9001SOL    HW138465   0.084   0.668  14.501  0.6681  0.5131  0.3175
 9001SOL    HW238466   0.026   0.798  14.530  1.4061  1.4071  0.4027
 9002SOL     OW38467   3.969   1.978  10.800  0.4793 -0.1655  0.2510
 9002SOL    HW138468   4.056   1.982  10.839  0.8263 -0.2990 -0.5068
 9002SOL    HW238469   3.997   1.985  10.709 -1.1066 -0.0022 -0.2355
 9003SOL     OW38470   0.348   3.916   5.569 -0.0897  0.0705  0.2869
 9003SOL    HW138471   0.381   3.982   5.508  0.0576  0.8457  1.1898
 9003SOL    HW238472   0.314   3.871   5.492 -0.5075 -1.8505  1.5971
 9004SOL     OW38473   3.235   2.056   7.603 -0.4273 -0.3685 -0.0484
 9004SOL    HW138474   3.250   2.063   7.509 -0.8687  1.0141 -0.0260
 9004SOL    HW238475   3.180   1.978   7.603 -0.3697 -0.4113  3.3969
 9005SOL     OW38476   0.353   4.213   3.057  0.1212 -0.1238 -0.8081
 9005SOL    HW138477   0.267   4.171   3.059  1.0527 -1.9109  1.5038
 9005SOL    HW238478   0.369   4.184   2.967  1.3039 -2.9912  0.3138
 9006SOL     OW38479   4.687   1.884   4.625  0.3035  0.2592  0.0272
 9006SOL    HW138480   4.707   1.977   4.617  0.7774  0.2009  0.5268
 9006SOL    HW238481   4.603   1.884   4.580  1.1916  1.8567 -1.6342
 9007SOL     OW38482   1.586   2.039   9.525 -0.1026  0.0750  0.2668
 9007SOL    HW138483   1.638   2.006   9.598  0.0605 -0.0623  0.0873
 9007SOL    HW238484   1.524   1.969   9.501  2.0570 -0.8815 -2.5336
 9008SOL     OW38485   2.841   3.302   4.872  0.2170  0.0250  0.4095
 9008SOL    HW138486   2.773   3.281   4.936  1.7394 -2.8103  1.1002
 9008SOL    HW238487   2.795   3.283   4.791 -0.0303 -0.7882  0.7496
 9009SOL     OW38488   1.351   0.584  12.209 -0.5967  0.7463  0.7322
 9009SOL    HW138489   1.444   0.596  12.189 -0.5536  0.5742  0.8272
 9009SOL    HW238490   1.350   0.529  12.288 -3.0984 -0.3986 -0.1029
 9010SOL     OW38491   0.882   3.187  16.328 -0.5149 -0.1955  0.4882
 9010SOL    HW138492   0.792   3.214  16.343 -0.6048  0.2093 -0.8052
 9010SOL    HW238493   0.903   3.264  16.276 -0.0648 -0.5440  0.1524
 9011SOL     OW38494   3.580   0.568   1.602  0.1391 -0.2035 -0.2965
 9011SOL    HW138495   3.535   0.636   1.554  1.8647  2.0497  1.2827
 9011SOL    HW238496   3.566   0.601   1.691  0.4143 -1.1679  0.1177
 9012SOL     OW38497   1.785   3.084   6.592 -0.1532  0.1630  0.1419
 9012SOL    HW138498   1.816   3.094   6.682  2.5757 -1.4088 -0.6381
 9012SOL    HW238499   1.768   2.991   6.583  0.7386  0.1557 -1.4178
 9013SOL     OW38500   3.507   3.152   5.588  0.4656  0.1247  0.2489
 9013SOL    HW138501   3.588   3.145   5.639 -0.1331  1.0045  1.3208
 9013SOL    HW238502   3.468   3.218   5.645  2.4117  0.9454  0.6485
 9014SOL     OW38503   3.071   4.247   7.293  0.8093  0.2372 -0.2588
 9014SOL    HW138504   3.147   4.276   7.343  1.0392  3.0673 -2.2170
 9014SOL    HW238505   3.041   4.335   7.268 -1.1991 -0.3778  0.0772
 9015SOL     OW38506   1.315   2.401  10.438 -0.3777 -0.2272 -0.2986
 9015SOL    HW138507   1.348   2.422  10.351  1.1553  0.1828  0.3829
 9015SOL    HW238508   1.397   2.403  10.487 -0.6278  0.2965  0.1022
 9016SOL     OW38509   4.452   1.394   0.868  0.5645 -0.0889 -0.3607
 9016SOL    HW138510   4.365   1.369   0.900  0.7583  1.2460  1.2046
 9016SOL    HW238511   4.438   1.357   0.781 -1.3464 -1.1255  0.3885
 9017SOL     OW38512   3.359   1.806   2.664  0.5509 -0.0070  0.6812
 9017SOL    HW138513   3.454   1.818   2.661  0.4288  0.8273  0.0324
 9017SOL    HW238514   3.339   1.810   2.570  1.0086  0.6419  0.6101
 9018SOL     OW38515   2.152   2.231   7.700  0.1980 -0.0653  0.5647
 9018SOL    HW138516   2.090   2.174   7.747  1.8316 -1.0752  1.4957
 9018SOL    HW238517   2.229   2.231   7.757 -1.4751 -0.0480  2.8571
 9019SOL     OW38518   4.330   0.425  10.430  0.2004 -0.1336  0.2460
 9019SOL    HW138519   4.360   0.377  10.352 -0.2464  3.5156 -2.1387
 9019SOL    HW238520   4.261   0.477  10.389  1.1414  1.7942  1.1349
 9020SOL     OW38521   0.755   2.639   7.369 -0.1099 -0.6710  0.5643
 9020SOL    HW138522   0.751   2.730   7.340 -0.2108 -0.4266  1.3499
 9020SOL    HW238523   0.850   2.637   7.378 -0.2338 -2.0358  1.5547
 9021SOL     OW38524   3.636   2.869   1.154 -0.0524  0.1944  0.2230
 9021SOL    HW138525   3.597   2.784   1.175 -0.8850 -0.0550 -2.3366
 9021SOL    HW238526   3.568   2.914   1.104 -1.0267 -0.4988  0.9470
 9022SOL     OW38527   2.454   4.637   8.052  0.2249 -0.2460 -0.4643
 9022SOL    HW138528   2.383   4.610   7.993  0.7959  0.1375 -1.3261
 9022SOL    HW238529   2.518   4.569   8.031  0.8198 -0.2939  1.6102
 9023SOL     OW38530   0.799   4.585   1.806 -0.0247  0.0098 -0.2287
 9023SOL    HW138531   0.812   4.627   1.891 -2.2364 -0.9109  0.5681
 9023SOL    HW238532   0.885   4.603   1.770 -0.0628  0.7528  0.0439
 9024SOL     OW38533   2.528   3.357   5.714  0.1300  0.1875  0.0854
 9024SOL    HW138534   2.591   3.382   5.782  1.6535 -1.6982 -0.6464
 9024SOL    HW238535   2.534   3.430   5.653  0.7510  0.0910  0.0292
 9025SOL     OW38536   3.343   2.134   7.350  0.1747 -0.4097  0.3019
 9025SOL    HW138537   3.339   2.222   7.388 -2.5661  0.8482 -2.9163
 9025SOL    HW238538   3.438   2.128   7.341  0.4618  0.1413  2.9496
 9026SOL     OW38539   4.416   0.502  14.871  0.0432 -0.3006  0.1634
 9026SOL    HW138540   4.422   0.542  14.957 -1.8153  2.2989 -0.8866
 9026SOL    HW238541   4.353   0.561  14.828  0.9433  0.6169  0.0925
 9027SOL     OW38542   3.358   2.297   0.926  0.2821 -0.2406  0.3251
 9027SOL    HW138543   3.320   2.298   1.014  1.4430 -1.6501  0.8406
 9027SOL    HW238544   3.309   2.371   0.889 -1.0844 -1.0279  0.5621
 9028SOL     OW38545   3.138   0.660   9.369  0.1835 -0.8008 -0.1257
 9028SOL    HW138546   3.218   0.692   9.410  0.8753 -2.0350 -0.5035
 9028SOL    HW238547   3.181   0.591   9.318 -1.0002 -2.1231  0.6669
 9029SOL     OW38548   0.371   0.619  11.263  0.0661  0.1180  1.0414
 9029SOL    HW138549   0.400   0.527  11.265  1.9366  0.6363 -1.0973
 9029SOL    HW238550   0.426   0.651  11.334  1.1212  0.9939 -0.1518
 9030SOL     OW38551   4.300   2.411   7.468  0.6258  0.3493  0.0708
 9030SOL    HW138552   4.233   2.416   7.536  0.7589  2.2070  0.0906
 9030SOL    HW238553   4.366   2.475   7.495  1.2270  0.2485 -1.1523
 9031SOL     OW38554   4.207   3.651   5.337 -0.2033  0.1941  0.1016
 9031SOL    HW138555   4.244   3.579   5.286 -0.6798  0.0436 -0.0228
 9031SOL    HW238556   4.117   3.626   5.319  0.8886 -2.0129 -2.1787
 9032SOL     OW38557   0.654   4.548  10.041 -0.4033 -0.1654  0.2833
 9032SOL    HW138558   0.697   4.545  10.127  2.5961  0.3409 -1.1935
 9032SOL    HW238559   0.700   4.476   9.998  1.7691  0.0427  2.2321
 9033SOL     OW38560   0.743   4.369   2.432 -0.8371 -0.0054  0.4964
 9033SOL    HW138561   0.827   4.354   2.475 -0.4233  0.8883  0.0170
 9033SOL    HW238562   0.776   4.384   2.343  0.5067  2.1618  1.3669
 9034SOL     OW38563   2.266   2.953  15.535  0.1762 -0.1070 -0.4316
 9034SOL    HW138564   2.320   3.029  15.514  1.1573 -0.6741  0.0212
 9034SOL    HW238565   2.320   2.887  15.491 -1.7361 -2.8475  1.3363
 9035SOL     OW38566   3.865   2.791   6.725  0.1981 -0.5362  0.6771
 9035SOL    HW138567   3.911   2.708   6.731 -2.2522 -1.8439  1.0981
 9035SOL    HW238568   3.819   2.790   6.809 -1.5859  0.6018 -0.2740
 9036SOL     OW38569   1.939   2.219   4.281  0.3136  0.1026 -0.3903
 9036SOL    HW138570   1.856   2.248   4.319  0.9300 -0.4890  1.3873
 9036SOL    HW238571   1.937   2.260   4.195  0.5459  1.4378  0.2352
 9037SOL     OW38572   2.302   0.445   0.571  0.0444  0.1101 -0.5220
 9037SOL    HW138573   2.287   0.361   0.615  3.8526 -0.4632 -0.3371
 9037SOL    HW238574   2.346   0.494   0.641  0.7838 -0.9339 -0.2550
 9038SOL     OW38575   4.012   2.460   5.321 -0.3285 -0.2375  0.3086
 9038SOL    HW138576   3.956   2.413   5.259 -2.1121  0.2888  1.5128
 9038SOL    HW238577   4.092   2.408   5.329 -0.4696 -0.5686 -0.4853
 9039SOL     OW38578   1.581   0.552   2.892 -0.1115 -0.0558  0.3549
 9039SOL    HW138579   1.662   0.602   2.885  0.2011 -0.3601  1.8667
 9039SOL    HW238580   1.533   0.600   2.824 -0.4800 -1.3919 -0.3223
 9040SOL     OW38581   2.071   0.060   5.727 -0.3097  0.1886 -0.4030
 9040SOL    HW138582   2.072   0.115   5.649 -1.4765 -0.2192 -0.7038
 9040SOL    HW238583   2.133   0.109   5.780  0.3752  0.1402 -1.1668
 9041SOL     OW38584   2.663   1.296   3.948 -0.0378  0.5945  0.9577
 9041SOL    HW138585   2.611   1.313   3.870  0.5844  0.2519  0.4629
 9041SOL    HW238586   2.668   1.200   3.952  0.2726  0.5678 -0.1932
 9042SOL     OW38587   3.657   3.759  13.700  0.2392  0.7507 -0.3243
 9042SOL    HW138588   3.751   3.762  13.718  0.0705  1.1966  0.4660
 9042SOL    HW238589   3.629   3.687  13.755  2.0376 -1.3548 -2.1399
 9043SOL     OW38590   3.537   1.454   3.294 -0.3541  0.4049  0.4160
 9043SOL    HW138591   3.551   1.437   3.201 -2.0240 -0.8885  0.3892
 9043SOL    HW238592   3.446   1.484   3.297 -0.8618 -1.0048 -0.8377
 9044SOL     OW38593   3.736   0.900   7.144  0.2321  0.2711 -0.3715
 9044SOL    HW138594   3.776   0.866   7.224  0.2986 -2.0079 -1.3890
 9044SOL    HW238595   3.720   0.990   7.172  1.4978 -0.1397  1.6920
 9045SOL     OW38596   3.638   3.153   9.181 -0.2996  0.4603 -0.4852
 9045SOL    HW138597   3.586   3.128   9.104  0.4357  0.2706 -0.9193
 9045SOL    HW238598   3.569   3.132   9.244  1.1029  0.1316  0.9386
 9046SOL     OW38599   3.144   0.178   8.104 -0.5371 -0.0784 -0.2132
 9046SOL    HW138600   3.121   0.201   8.014  1.4431  0.1482 -0.6794
 9046SOL    HW238601   3.088   0.101   8.107  0.0173 -0.5443 -1.8500
 9047SOL     OW38602   1.896   2.505   7.966 -0.4780  0.0516  0.0783
 9047SOL    HW138603   1.871   2.421   8.006  3.4152  0.7216  3.7985
 9047SOL    HW238604   1.991   2.494   7.959 -0.3987 -0.2500  1.5982
 9048SOL     OW38605   2.799   2.024  14.351  0.3397  0.4788 -0.0427
 9048SOL    HW138606   2.742   2.066  14.286 -1.7163  0.7963  1.9624
 9048SOL    HW238607   2.821   1.948  14.297 -0.6641  0.1189  0.0395
 9049SOL     OW38608   1.442   0.159   6.511 -0.1644 -0.1930  0.9545
 9049SOL    HW138609   1.496   0.190   6.584 -0.8713 -1.4591  1.9901
 9049SOL    HW238610   1.423   0.245   6.472  1.3397 -0.2588  0.0662
 9050SOL     OW38611   0.752   2.187   3.006 -0.3301 -0.5568 -0.4889
 9050SOL    HW138612   0.749   2.173   3.100  0.6881 -1.0405 -0.5239
 9050SOL    HW238613   0.699   2.266   3.001 -2.0638 -1.8891 -3.3197
 9051SOL     OW38614   1.266   1.447   3.124  0.7029  0.2807 -0.4437
 9051SOL    HW138615   1.276   1.441   3.029  0.9128 -3.1133 -0.2010
 9051SOL    HW238616   1.289   1.363   3.163 -2.0626 -0.5412 -0.6081
 9052SOL     OW38617   3.644   2.542   5.319 -0.2138  0.8462 -0.9916
 9052SOL    HW138618   3.626   2.498   5.236  0.8114  0.6693 -1.1235
 9052SOL    HW238619   3.570   2.601   5.329 -1.7616 -1.3994  0.8393
 9053SOL     OW38620   0.514   0.186  14.434  0.0980  0.5226  0.1587
 9053SOL    HW138621   0.515   0.229  14.520  1.2065 -0.5819  0.6872
 9053SOL    HW238622   0.421   0.188  14.410  0.8992 -0.9563 -3.0839
 9054SOL     OW38623   1.021   3.575   6.000  0.2741 -0.5621  0.2843
 9054SOL    HW138624   1.110   3.541   5.990  1.1095  1.0901  2.1631
 9054SOL    HW238625   1.004   3.531   6.083 -2.7993 -0.1575 -0.1143
 9055SOL     OW38626   3.837   2.945   5.966  0.1149  0.0953 -0.2392
 9055SOL    HW138627   3.803   2.902   5.887 -0.0653  0.6642 -0.4752
 9055SOL    HW238628   3.756   2.988   5.994 -0.4174  0.0397 -1.6602
 9056SOL     OW38629   3.495   3.507   4.468 -0.1261 -0.4214 -0.2886
 9056SOL    HW138630   3.419   3.566   4.477  1.7989  2.0595 -0.4288
 9056SOL    HW238631   3.453   3.425   4.444 -2.4109  0.5346  0.3723
 9057SOL     OW38632   1.809   4.481   7.526  0.2779  0.2917 -0.3324
 9057SOL    HW138633   1.901   4.509   7.530  0.1627  0.5801  0.3002
 9057SOL    HW238634   1.774   4.570   7.532 -0.1484  0.0735  0.3560
 9058SOL     OW38635   0.753   2.383   8.990  0.4651  0.0403 -0.3818
 9058SOL    HW138636   0.664   2.371   9.021 -0.2204  4.3723 -0.7014
 9058SOL    HW238637   0.743   2.362   8.897  1.5006 -0.7029 -0.3318
 9059SOL     OW38638   2.367   2.218  17.190 -0.2903  0.1836  0.0202
 9059SOL    HW138639   2.334   2.129  17.204  0.7369 -0.5719 -2.2127
 9059SOL    HW238640   2.288   2.255  17.229 -1.4310 -0.9143 -1.2407
 9060SOL     OW38641   1.949   4.388   8.701  0.3949 -0.4063  0.1458
 9060SOL    HW138642   1.945   4.464   8.759  2.6622  0.1304 -0.4216
 9060SOL    HW238643   1.861   4.380   8.664 -0.0835  0.6183  1.0547
 9061SOL     OW38644   2.147   2.431   7.369  0.7312 -0.1671  0.1818
 9061SOL    HW138645   2.080   2.476   7.317  1.7842  0.6021 -0.4999
 9061SOL    HW238646   2.173   2.503   7.426 -0.4086 -0.7517  1.4662
 9062SOL     OW38647   2.954   3.460   2.549  0.1910  0.5801 -0.2015
 9062SOL    HW138648   2.914   3.373   2.558 -0.1328  0.7417 -0.0590
 9062SOL    HW238649   2.952   3.498   2.637  1.9274  1.3876 -0.5153
 9063SOL     OW38650   0.414   1.120   5.719  0.2345  0.0038 -0.3182
 9063SOL    HW138651   0.449   1.182   5.654  1.6913 -1.6244 -1.0685
 9063SOL    HW238652   0.478   1.132   5.789 -2.2870 -0.5236  2.0710
 9064SOL     OW38653   4.124   4.089   9.996  0.0875 -0.6287  0.1413
 9064SOL    HW138654   4.132   4.077   9.901 -0.1914  2.6175 -0.2900
 9064SOL    HW238655   4.160   4.178  10.000  1.9343 -1.3938  0.3305
 9065SOL     OW38656   3.502   4.151   1.549  0.9487  0.0981  0.5067
 9065SOL    HW138657   3.439   4.100   1.498  0.7984  0.8827 -0.0897
 9065SOL    HW238658   3.570   4.088   1.573  0.2311  0.1892  2.7223
 9066SOL     OW38659   2.224   2.650   2.115 -0.5880  0.3551  0.4018
 9066SOL    HW138660   2.183   2.721   2.066  2.1752  0.0778 -2.3355
 9066SOL    HW238661   2.208   2.678   2.205 -2.6722  3.0758 -0.8347
 9067SOL     OW38662   0.165   4.009   8.654  0.1601  0.1121  0.7320
 9067SOL    HW138663   0.141   4.005   8.561 -1.0183 -2.1964  1.1644
 9067SOL    HW238664   0.096   3.963   8.700 -1.6052  0.3319 -1.6533
 9068SOL     OW38665   4.247   1.225   2.272 -0.0285  0.0908 -0.2272
 9068SOL    HW138666   4.171   1.193   2.224 -0.7544  2.5303 -0.6986
 9068SOL    HW238667   4.253   1.150   2.331 -1.1237  0.0421 -0.1873
 9069SOL     OW38668   2.834   3.918   6.814 -0.4471 -0.1316  0.0965
 9069SOL    HW138669   2.866   3.903   6.725 -0.1589  0.5151  0.0895
 9069SOL    HW238670   2.791   4.001   6.794 -0.7096 -0.0177  1.1440
 9070SOL     OW38671   0.786   4.701  17.657  0.1417  0.6290  0.3519
 9070SOL    HW138672   0.711   0.029  17.676 -1.2773 -1.1014 -0.0998
 9070SOL    HW238673   0.822   0.020  17.583 -0.6790  1.2602  0.3586
 9071SOL     OW38674   0.925   3.888  17.459 -0.1853 -0.0556  0.3457
 9071SOL    HW138675   0.836   3.914  17.482 -0.1080  1.0602 -0.6386
 9071SOL    HW238676   0.946   3.814  17.516 -0.5356 -0.7272 -0.3959
 9072SOL     OW38677   4.425   0.868   4.987  0.4137  1.0808 -0.2536
 9072SOL    HW138678   4.432   0.783   4.944 -0.1327 -0.2115  2.1874
 9072SOL    HW238679   4.519   0.877   5.004  1.1460 -0.6975 -3.5423
 9073SOL     OW38680   1.573   3.546  15.907  0.4189  0.5224 -0.8003
 9073SOL    HW138681   1.596   3.624  15.957 -0.3170 -0.3821  0.9549
 9073SOL    HW238682   1.488   3.565  15.868  0.1382  1.0901  0.0804
 9074SOL     OW38683   3.984   0.312   4.341 -0.0694  0.3624 -0.1422
 9074SOL    HW138684   3.941   0.335   4.259 -0.7178 -0.1344  0.0502
 9074SOL    HW238685   4.066   0.273   4.312  0.2948  0.8333  0.2655
 9075SOL     OW38686   2.028   2.087   4.832 -0.6176 -0.3596 -0.7063
 9075SOL    HW138687   2.100   2.147   4.849  0.7414 -2.4785  0.9787
 9075SOL    HW238688   2.003   2.067   4.922  0.2718  0.9737 -0.1623
 9076SOL     OW38689   0.320   3.795   7.143  0.1243 -0.3637 -0.1036
 9076SOL    HW138690   0.254   3.837   7.199 -1.1184  1.1816 -2.6959
 9076SOL    HW238691   0.322   3.710   7.186  1.0635  0.3223  1.2017
 9077SOL     OW38692   1.806   0.693   2.930 -0.2876 -0.1333  0.2264
 9077SOL    HW138693   1.817   0.678   3.024  0.0650  1.0649  0.3804
 9077SOL    HW238694   1.896   0.684   2.900 -0.5589 -0.5967 -0.4315
 9078SOL     OW38695   0.618   2.602  14.918 -0.1321  0.1123 -0.6295
 9078SOL    HW138696   0.678   2.677  14.924  0.4185 -0.1194 -3.2388
 9078SOL    HW238697   0.581   2.629  14.834 -1.0898 -1.7834 -0.8074
 9079SOL     OW38698   1.421   3.465   2.676 -0.1106  0.3068  0.1149
 9079SOL    HW138699   1.463   3.379   2.675 -3.4529 -1.3015  0.2339
 9079SOL    HW238700   1.432   3.490   2.584 -0.4569  1.1904  0.3154
 9080SOL     OW38701   2.969   3.462   3.211  0.3071 -0.4901  0.1452
 9080SOL    HW138702   3.064   3.474   3.211  0.4225 -1.3975 -0.5349
 9080SOL    HW238703   2.947   3.554   3.200  2.3852 -0.1689 -1.2822
 9081SOL     OW38704   3.266   0.195   3.377 -0.0032 -0.2956 -0.2070
 9081SOL    HW138705   3.176   0.163   3.387  0.3279 -1.2531 -0.3202
 9081SOL    HW238706   3.279   0.212   3.283  0.1478  0.9719  0.0386
 9082SOL     OW38707   0.947   1.901   3.012 -0.7407 -0.3850 -0.4089
 9082SOL    HW138708   1.040   1.884   2.997 -0.7221 -1.6883  1.1701
 9082SOL    HW238709   0.920   1.810   3.028 -1.8783  0.3211  1.7268
 9083SOL     OW38710   2.849   4.674   3.025 -0.2993 -0.3247  0.6371
 9083SOL    HW138711   2.921   4.629   2.981  0.5090  0.1692  1.4687
 9083SOL    HW238712   2.884   4.652   3.111  0.6647  1.3617  0.6710
 9084SOL     OW38713   3.258   0.413   8.267  0.3776 -0.2349 -0.0256
 9084SOL    HW138714   3.234   0.333   8.219  3.1415 -0.5083 -0.9353
 9084SOL    HW238715   3.174   0.457   8.272 -0.7395 -2.3631  0.1553
 9085SOL     OW38716   2.600   1.516   7.418 -0.2751  0.5254 -0.0287
 9085SOL    HW138717   2.622   1.452   7.486  2.8073  2.6750  0.9832
 9085SOL    HW238718   2.654   1.473   7.352 -1.5179 -2.0142  0.6236
 9086SOL     OW38719   0.547   0.273  14.914 -0.6355  0.3882 -0.4719
 9086SOL    HW138720   0.507   0.251  14.998  3.2129 -0.0488  1.2426
 9086SOL    HW238721   0.634   0.240  14.933 -0.8724  1.5456  2.5549
 9087SOL     OW38722   1.684   2.031   6.167 -0.0882  0.2162 -0.0571
 9087SOL    HW138723   1.732   1.979   6.231 -0.4603 -0.5128 -0.3746
 9087SOL    HW238724   1.740   2.050   6.092  2.5063  0.0241  1.8301
 9088SOL     OW38725   3.987   3.051  15.079 -0.3100  0.0424  0.6791
 9088SOL    HW138726   3.903   3.095  15.071 -0.5397 -0.1713  1.9454
 9088SOL    HW238727   4.016   3.105  15.153 -0.6093  0.8105  0.2378
 9089SOL     OW38728   1.800   3.421   4.147  0.0451  0.2428  0.3127
 9089SOL    HW138729   1.766   3.427   4.058 -0.9053 -0.2527  0.6464
 9089SOL    HW238730   1.822   3.512   4.165  1.9426 -0.4447  1.4951
 9090SOL     OW38731   1.872   2.563   6.781  0.1314  0.2117  0.1795
 9090SOL    HW138732   1.793   2.509   6.781  1.3505 -1.5322  1.5535
 9090SOL    HW238733   1.937   2.493   6.775 -0.4196 -0.4853  2.5469
 9091SOL     OW38734   3.411   4.544   9.035  0.4403  0.2277  0.0058
 9091SOL    HW138735   3.389   4.554   9.128 -2.4482 -0.0637 -0.6389
 9091SOL    HW238736   3.336   4.491   9.008  0.9353 -0.1669 -0.6047
 9092SOL     OW38737   4.679   1.223   3.186 -0.0297  0.0562 -0.0981
 9092SOL    HW138738   0.037   1.257   3.208 -0.1952  0.0347  0.6090
 9092SOL    HW238739   4.696   1.154   3.123 -1.8402 -1.0674  0.6325
 9093SOL     OW38740   2.957   2.798   3.604 -0.7109  0.0926 -0.6030
 9093SOL    HW138741   2.894   2.833   3.541 -1.8942 -2.6990 -0.9959
 9093SOL    HW238742   2.899   2.725   3.628 -0.0006 -0.2895 -0.0448
 9094SOL     OW38743   2.232   2.855   2.898  0.0880 -0.6942  0.4073
 9094SOL    HW138744   2.271   2.783   2.848  0.3882 -0.2729  0.0323
 9094SOL    HW238745   2.291   2.929   2.880 -2.0101  0.6310 -0.9883
 9095SOL     OW38746   0.791   3.251   4.982  0.4743  0.3939 -0.0639
 9095SOL    HW138747   0.722   3.273   4.920  0.8563  0.6409 -0.4038
 9095SOL    HW238748   0.749   3.265   5.067  0.4810 -1.5283  0.2607
 9096SOL     OW38749   3.076   4.274   6.787 -0.0386 -0.4357 -0.1978
 9096SOL    HW138750   3.031   4.324   6.855 -1.3206 -0.4526 -1.0494
 9096SOL    HW238751   3.094   4.189   6.828  0.9163 -0.1351  0.0186
 9097SOL     OW38752   0.357   4.694   8.161 -0.2441  0.1242  0.3080
 9097SOL    HW138753   0.351   0.029   8.232 -2.1637 -0.6122  0.8180
 9097SOL    HW238754   0.267   4.663   8.171 -0.0928  0.0921  1.4922
 9098SOL     OW38755   3.156   2.900   5.534 -0.0327  0.2947  0.5468
 9098SOL    HW138756   3.063   2.916   5.553 -0.5432 -2.8378  0.7148
 9098SOL    HW238757   3.164   2.806   5.554 -1.6814  0.2300  0.9880
 9099SOL     OW38758   4.258   3.333   1.181  0.1612 -0.0129 -0.6813
 9099SOL    HW138759   4.315   3.260   1.203  0.5472 -0.3078 -2.7198
 9099SOL    HW238760   4.177   3.282   1.185  1.4349 -1.9457  0.4676
 9100SOL     OW38761   1.723   2.858   5.982  0.0533 -0.4334 -0.4913
 9100SOL    HW138762   1.659   2.929   5.980 -0.6113 -0.9994  0.4628
 9100SOL    HW238763   1.717   2.849   6.077 -2.2863 -3.4333 -0.8762
 9101SOL     OW38764   1.312   2.191   8.635  0.5227 -0.1685 -0.3938
 9101SOL    HW138765   1.255   2.132   8.684  1.3956 -2.0144 -1.5559
 9101SOL    HW238766   1.394   2.142   8.646 -0.2259 -1.3763 -0.1169
 9102SOL     OW38767   2.502   4.155  14.547  0.2208  0.2930  0.0499
 9102SOL    HW138768   2.552   4.075  14.566  2.1067  1.5434  0.3367
 9102SOL    HW238769   2.580   4.211  14.548 -0.8274  1.6654  2.3105
 9103SOL     OW38770   1.555   2.291   7.849  0.1317 -0.1840  0.6663
 9103SOL    HW138771   1.465   2.315   7.872  0.2047  1.3693 -0.6911
 9103SOL    HW238772   1.593   2.376   7.829  2.2590 -1.3275 -0.1428
 9104SOL     OW38773   4.174   3.805   5.931 -0.3717  0.1391 -0.0229
 9104SOL    HW138774   4.098   3.856   5.903 -0.6563 -0.7592 -0.8782
 9104SOL    HW238775   4.243   3.820   5.867  0.3397 -1.2419  0.4160
 9105SOL     OW38776   3.847   2.326  11.236 -0.0841  0.0480 -0.8147
 9105SOL    HW138777   3.938   2.303  11.221  0.4043  1.1200  0.5052
 9105SOL    HW238778   3.829   2.366  11.151 -1.9176 -1.5313 -1.1729
 9106SOL     OW38779   2.831   1.721   5.514  0.4003 -0.2779 -0.5578
 9106SOL    HW138780   2.819   1.815   5.519  0.8159 -0.3540  1.9940
 9106SOL    HW238781   2.738   1.698   5.508 -0.1243  0.3449  4.7961
 9107SOL     OW38782   4.190   0.168   6.943  0.6830  0.2818  0.3694
 9107SOL    HW138783   4.261   0.198   6.887  0.2137 -0.7985 -0.8266
 9107SOL    HW238784   4.237   0.114   7.006 -0.1352  0.3611  1.0472
 9108SOL     OW38785   2.996   1.852  11.510 -0.8709  0.9023 -0.4253
 9108SOL    HW138786   3.044   1.932  11.531  0.6061 -0.1197  0.1061
 9108SOL    HW238787   2.974   1.866  11.418  0.3669  0.6499 -0.7610
 9109SOL     OW38788   2.739   1.831   2.823  0.7774  0.2975 -0.2988
 9109SOL    HW138789   2.810   1.772   2.797 -0.3650 -1.4483  0.5510
 9109SOL    HW238790   2.722   1.874   2.740 -0.2020  0.5341  0.0275
 9110SOL     OW38791   3.466   3.757   7.730 -0.1642 -0.4635 -0.2051
 9110SOL    HW138792   3.561   3.751   7.718 -0.3374 -0.9235 -1.3382
 9110SOL    HW238793   3.430   3.772   7.642 -0.5681 -0.3151 -0.0119
 9111SOL     OW38794   3.319   1.085   2.800 -0.4389 -0.0449  0.6846
 9111SOL    HW138795   3.232   1.045   2.811  0.5761 -2.4012  0.1899
 9111SOL    HW238796   3.299   1.175   2.825 -2.5871 -0.1710 -0.5756
 9112SOL     OW38797   1.146   3.497  14.560 -0.3664  0.0786  0.2152
 9112SOL    HW138798   1.170   3.535  14.644  0.1478  2.0586 -0.8218
 9112SOL    HW238799   1.056   3.531  14.553 -0.3462  0.0214 -0.3250
 9113SOL     OW38800   3.538   1.007   4.375 -0.1920  0.2528  0.2043
 9113SOL    HW138801   3.544   1.102   4.372  3.0445  0.0175 -0.2718
 9113SOL    HW238802   3.501   0.995   4.462  1.4569 -2.0810  0.5639
 9114SOL     OW38803   1.824   4.212   6.845  0.2231 -0.2509  0.2656
 9114SOL    HW138804   1.911   4.251   6.854 -0.6559  1.5262  1.0359
 9114SOL    HW238805   1.833   4.219   6.750  3.5814  1.0812  0.6626
 9115SOL     OW38806   3.314   0.510   3.037 -0.0911 -0.2794  0.3310
 9115SOL    HW138807   3.284   0.593   3.074 -0.3069 -0.2030 -0.0121
 9115SOL    HW238808   3.268   0.506   2.953 -2.2137  1.4560  1.4060
 9116SOL     OW38809   2.080   2.113   1.600  0.3076 -0.7177  0.4275
 9116SOL    HW138810   2.167   2.122   1.563  0.6639 -0.3664  1.3353
 9116SOL    HW238811   2.028   2.170   1.543  0.1005 -0.1965  1.1342
 9117SOL     OW38812   2.997   2.486   4.545  0.4707 -0.0436  0.7377
 9117SOL    HW138813   3.015   2.501   4.452  2.0277 -1.1426  0.8651
 9117SOL    HW238814   2.999   2.390   4.543  3.0759 -0.0063  1.0348
 9118SOL     OW38815   1.753   0.798   7.063 -0.2291  0.3041 -0.2853
 9118SOL    HW138816   1.737   0.857   7.137 -0.4196  2.1627 -1.7936
 9118SOL    HW238817   1.672   0.750   7.054  0.6883 -1.4289  0.7380
 9119SOL     OW38818   4.226   3.654   6.812 -0.6508  0.5223 -0.4835
 9119SOL    HW138819   4.307   3.693   6.847 -0.5291  1.0232 -1.3093
 9119SOL    HW238820   4.215   3.591   6.883  0.4211 -0.8337 -1.5250
 9120SOL     OW38821   1.047   1.672   1.909 -0.1264 -0.0072 -0.3306
 9120SOL    HW138822   0.994   1.664   1.830 -0.2281 -2.4257 -0.0042
 9120SOL    HW238823   1.071   1.580   1.917 -0.6413  0.0020  1.4183
 9121SOL     OW38824   0.083   3.187  12.251 -0.3038 -0.4583 -0.2404
 9121SOL    HW138825   0.084   3.181  12.155  1.9152 -0.6316 -0.1968
 9121SOL    HW238826   4.721   3.177  12.279 -0.5119  2.8487  0.3301
 9122SOL     OW38827   2.894   1.607   1.506 -0.1926 -0.0060  0.1420
 9122SOL    HW138828   2.888   1.620   1.601 -0.0809 -0.8726  0.2715
 9122SOL    HW238829   2.804   1.587   1.480 -0.0700 -0.1190 -0.1928
 9123SOL     OW38830   4.710   2.911   5.835  0.6667 -0.0464 -0.2876
 9123SOL    HW138831   0.047   2.939   5.899  0.0900  2.5678 -0.8396
 9123SOL    HW238832   4.638   2.973   5.852 -0.7172 -1.5352 -0.7983
 9124SOL     OW38833   1.437   2.942   8.726 -0.0352  0.3459 -0.4145
 9124SOL    HW138834   1.352   2.901   8.742  1.5443 -2.2976  1.1607
 9124SOL    HW238835   1.480   2.944   8.812  1.9505  1.4085 -1.4497
 9125SOL     OW38836   4.104   4.236   7.624 -0.0136 -0.2807 -0.0203
 9125SOL    HW138837   4.157   4.307   7.660  2.5870 -1.0537 -2.2920
 9125SOL    HW238838   4.115   4.254   7.531  1.0147 -3.3830 -0.5011
 9126SOL     OW38839   4.036   1.219   9.498 -0.4749  0.8687 -0.3294
 9126SOL    HW138840   3.955   1.195   9.453  1.1916 -1.6499 -1.9307
 9126SOL    HW238841   4.075   1.291   9.448 -1.0681  1.8299  0.5869
 9127SOL     OW38842   4.640   3.664   1.311  0.3244 -0.6113  0.0306
 9127SOL    HW138843   4.644   3.589   1.369 -1.0771 -0.8874 -0.2236
 9127SOL    HW238844   4.599   3.630   1.231 -0.2332 -0.4341  0.2405
 9128SOL     OW38845   0.760   3.432  14.595 -0.0589  0.1992 -0.1150
 9128SOL    HW138846   0.801   3.346  14.585  0.4102  0.4880 -0.6491
 9128SOL    HW238847   0.808   3.485  14.532 -2.0617 -0.5779 -2.2822
 9129SOL     OW38848   3.109   0.856   1.261  0.0764  0.2398 -0.2986
 9129SOL    HW138849   3.115   0.951   1.271 -1.3141  0.2390  0.5318
 9129SOL    HW238850   3.158   0.852   1.179 -1.0051  2.8567 -1.0729
 9130SOL     OW38851   0.856   1.599  13.225 -0.3379  0.3545 -0.3589
 9130SOL    HW138852   0.767   1.633  13.236 -0.3013  0.7017 -1.1088
 9130SOL    HW238853   0.875   1.545  13.302  0.2228  0.1020 -0.6768
 9131SOL     OW38854   0.672   0.536  14.545  0.3874 -0.1331 -0.0871
 9131SOL    HW138855   0.665   0.562  14.636 -1.7612 -0.0504 -0.2942
 9131SOL    HW238856   0.580   0.516  14.529 -0.1615  1.5665  0.9719
 9132SOL     OW38857   1.605   0.182  17.577  0.1219 -0.1332  0.4673
 9132SOL    HW138858   1.568   0.101  17.612 -0.6259 -0.3989 -0.9437
 9132SOL    HW238859   1.695   0.152  17.575  0.1676 -0.1116  1.6977
 9133SOL     OW38860   1.195   2.180   8.979 -0.3243  1.1192  0.1665
 9133SOL    HW138861   1.107   2.183   8.941  1.8639  0.3705 -4.9237
 9133SOL    HW238862   1.187   2.112   9.046  0.6669  1.4993  0.6776
 9134SOL     OW38863   0.358   3.602   5.408 -0.1698 -0.1759  0.5582
 9134SOL    HW138864   0.349   3.577   5.501  0.6600 -2.2454  0.0833
 9134SOL    HW238865   0.444   3.561   5.401 -1.0847 -1.9576 -0.2406
 9135SOL     OW38866   3.297   2.021   6.396 -0.5029 -0.1126 -0.8234
 9135SOL    HW138867   3.342   1.936   6.400 -1.3842 -0.6400 -1.9194
 9135SOL    HW238868   3.368   2.074   6.430 -2.6644  0.6432  2.5579
 9136SOL     OW38869   0.893   2.078   6.508  0.3571 -0.2144  0.4989
 9136SOL    HW138870   0.929   2.167   6.501  0.0401 -0.2235 -1.4442
 9136SOL    HW238871   0.974   2.028   6.501 -1.1093 -2.5601  0.3915
 9137SOL     OW38872   4.319   4.481   7.143  0.2304  0.4838 -0.4995
 9137SOL    HW138873   4.233   4.520   7.156  0.5430  0.9541  0.2021
 9137SOL    HW238874   4.293   4.395   7.111  1.1738  0.8511 -2.2552
 9138SOL     OW38875   3.745   2.546   7.679 -0.1110 -0.3672  0.5517
 9138SOL    HW138876   3.735   2.641   7.670  1.8693 -0.2976 -1.0502
 9138SOL    HW238877   3.790   2.541   7.763  0.5336 -0.8724  0.1732
 9139SOL     OW38878   0.427   1.277   3.717 -0.0852  0.2191 -0.5032
 9139SOL    HW138879   0.475   1.322   3.648  0.7148 -0.2342 -0.2341
 9139SOL    HW238880   0.342   1.321   3.710 -0.0970  0.1574 -0.7497
 9140SOL     OW38881   1.582   2.249   2.062 -0.3392 -0.1196 -0.1933
 9140SOL    HW138882   1.660   2.201   2.036  0.1994  0.9421 -0.5234
 9140SOL    HW238883   1.514   2.204   2.011  1.3057 -0.7607 -1.8073
 9141SOL     OW38884   2.341   1.144   3.727  0.0505 -0.2766 -0.1158
 9141SOL    HW138885   2.288   1.168   3.651  1.2865  3.7244  0.3283
 9141SOL    HW238886   2.339   1.048   3.729  0.1194 -0.2390  1.6400
 9142SOL     OW38887   3.051   1.510   0.624  0.3480  0.3761 -0.4039
 9142SOL    HW138888   3.014   1.485   0.709  1.0249  0.4237 -0.0855
 9142SOL    HW238889   2.972   1.539   0.579  1.1721 -1.7875 -3.1864
 9143SOL     OW38890   0.915   4.322   8.798  0.9216  0.0986 -0.1007
 9143SOL    HW138891   0.824   4.346   8.781  0.4700 -1.3664  0.3240
 9143SOL    HW238892   0.920   4.344   8.892  2.2605  1.1771 -0.4190
 9144SOL     OW38893   0.262   3.573   7.316 -0.4973 -0.7314 -0.7146
 9144SOL    HW138894   0.230   3.534   7.397  0.7333 -0.9750 -0.3578
 9144SOL    HW238895   0.193   3.640   7.312 -1.0737 -1.1400  2.4868
 9145SOL     OW38896   1.446   1.975   2.601  0.5215  0.5948  0.2028
 9145SOL    HW138897   1.497   1.929   2.535  1.0780  1.4718  0.0276
 9145SOL    HW238898   1.357   1.970   2.566  1.1680  0.7367 -1.4366
 9146SOL     OW38899   1.694   2.584   0.713  0.1119 -0.2428  0.4459
 9146SOL    HW138900   1.686   2.520   0.642 -3.1083  1.1230 -0.3938
 9146SOL    HW238901   1.728   2.536   0.789 -0.4344  0.5182  1.1617
 9147SOL     OW38902   1.552   3.646   9.098  0.0827  0.1787 -0.2079
 9147SOL    HW138903   1.526   3.625   9.009 -0.0545  0.6375 -0.2794
 9147SOL    HW238904   1.577   3.561   9.134 -0.9016 -0.3161 -0.6989
 9148SOL     OW38905   0.794   1.216   8.546  0.7501 -0.4629  0.0578
 9148SOL    HW138906   0.834   1.222   8.633  0.0438 -2.4515  0.5405
 9148SOL    HW238907   0.701   1.221   8.568  0.5227 -3.5599 -0.1650
 9149SOL     OW38908   1.356   2.171   8.235  0.2985 -0.3013  0.4138
 9149SOL    HW138909   1.422   2.102   8.248  1.6856  0.8070 -0.6704
 9149SOL    HW238910   1.288   2.136   8.293 -0.4702 -1.4974 -1.2421
 9150SOL     OW38911   1.724   4.063   0.867  0.1697 -0.6627  0.3698
 9150SOL    HW138912   1.779   4.136   0.838 -1.8693  0.3635 -0.8712
 9150SOL    HW238913   1.784   4.010   0.920  0.6451  0.8843  1.3841
 9151SOL     OW38914   3.130   4.550   5.563  0.0641 -0.5071 -0.4145
 9151SOL    HW138915   3.114   4.521   5.473  0.5500  0.2778 -0.7522
 9151SOL    HW238916   3.185   4.628   5.554  0.9091 -1.2640 -1.7784
 9152SOL     OW38917   3.225   0.944  13.707 -0.0697  0.3246  0.3578
 9152SOL    HW138918   3.190   0.953  13.618  0.5051 -0.5025  0.0515
 9152SOL    HW238919   3.192   1.021  13.752 -0.9802 -0.0656  0.3434
 9153SOL     OW38920   2.903   1.938   3.024 -0.1618 -0.6049  0.6688
 9153SOL    HW138921   2.865   1.916   2.939  0.2701  1.4749 -0.0729
 9153SOL    HW238922   2.851   2.011   3.057  1.5216  0.5428  0.8055
 9154SOL     OW38923   1.153   0.626  15.243 -0.1810 -0.6486 -0.3225
 9154SOL    HW138924   1.247   0.610  15.236 -0.1415 -0.9141  0.8826
 9154SOL    HW238925   1.133   0.667  15.159  0.3053 -2.1048 -1.1650
 9155SOL     OW38926   0.395   3.455  12.417  0.0754  0.1081  0.4084
 9155SOL    HW138927   0.449   3.525  12.381 -0.7773  0.8119  0.5111
 9155SOL    HW238928   0.345   3.504  12.482 -1.0824  2.2690 -2.0859
 9156SOL     OW38929   0.183   1.104   2.366 -0.4411 -0.4063 -0.0293
 9156SOL    HW138930   0.130   1.162   2.419  1.0894  2.4960 -1.6969
 9156SOL    HW238931   0.149   1.018   2.391 -1.2932  1.1630  4.0652
 9157SOL     OW38932   4.177   1.344   0.842 -0.6099  0.7209 -0.0084
 9157SOL    HW138933   4.155   1.303   0.926 -0.5288  2.6107  0.9460
 9157SOL    HW238934   4.145   1.280   0.779  3.3041 -0.9873 -0.2473
 9158SOL     OW38935   4.590   3.789  13.044 -0.5213  0.1791 -0.2669
 9158SOL    HW138936   4.620   3.823  12.960  0.5809 -0.3910 -0.1001
 9158SOL    HW238937   4.498   3.814  13.031 -0.8920 -0.1024  1.7502
 9159SOL     OW38938   0.944   1.529   6.093 -0.1347  0.0580  0.1153
 9159SOL    HW138939   0.894   1.528   6.011  0.8485 -3.2588 -0.4410
 9159SOL    HW238940   0.921   1.442   6.126 -0.5840 -0.0136 -0.3862
 9160SOL     OW38941   0.923   2.844   5.882 -0.0647 -0.0068  0.2713
 9160SOL    HW138942   0.946   2.751   5.883 -1.5584 -0.3517  2.5840
 9160SOL    HW238943   0.892   2.853   5.972 -0.1357 -2.0752  0.4563
 9161SOL     OW38944   4.076   1.797  16.382 -0.1616  0.0809  0.1433
 9161SOL    HW138945   4.078   1.829  16.292  1.1373 -0.8994 -0.1872
 9161SOL    HW238946   4.098   1.705  16.365 -1.0690 -0.6639  3.0235
 9162SOL     OW38947   1.872   4.532   1.191 -0.0240 -0.5251 -0.4503
 9162SOL    HW138948   1.884   4.439   1.206  1.1436 -0.2233  0.4581
 9162SOL    HW238949   1.869   4.532   1.095 -0.4988 -1.0702 -0.4324
 9163SOL     OW38950   0.731   0.680   0.153 -0.2410  0.0169 -0.1609
 9163SOL    HW138951   0.823   0.666   0.133 -0.0085  1.5554 -0.1576
 9163SOL    HW238952   0.743   0.719   0.240  1.6683  1.1870 -0.9506
 9164SOL     OW38953   1.061   3.999   5.945  0.3214  0.1812  0.0669
 9164SOL    HW138954   1.041   3.942   6.019 -0.1722 -0.2064 -0.3697
 9164SOL    HW238955   1.109   3.943   5.883  1.1476  1.1182 -0.1451
 9165SOL     OW38956   3.510   4.097   7.751  0.1865  0.2458 -0.2748
 9165SOL    HW138957   3.533   4.046   7.829  1.5793  2.0893  0.5068
 9165SOL    HW238958   3.434   4.140   7.790 -0.5090 -2.0176  0.8772
 9166SOL     OW38959   0.084   4.528   7.542  0.3556  0.1284  0.0547
 9166SOL    HW138960   0.095   4.459   7.476 -1.6625  0.3431 -0.4958
 9166SOL    HW238961   0.055   4.607   7.497  0.8267  1.1325  1.5048
 9167SOL     OW38962   4.613   0.224   1.477 -0.2693  0.5157 -0.1424
 9167SOL    HW138963   4.544   0.290   1.490  0.4016  1.0929  0.4861
 9167SOL    HW238964   4.664   0.235   1.557  0.8602 -0.2186 -0.7676
 9168SOL     OW38965   3.593   0.807   7.930 -0.0322  0.4152 -0.2883
 9168SOL    HW138966   3.564   0.892   7.965 -0.7063 -1.1588  3.0461
 9168SOL    HW238967   3.579   0.818   7.836  0.6015 -1.0246 -0.5456
 9169SOL     OW38968   0.017   2.878   7.434 -0.1584  0.1001  0.2559
 9169SOL    HW138969   4.727   2.841   7.348 -0.9329  1.9342 -0.3742
 9169SOL    HW238970   4.728   2.972   7.424  0.2558 -0.1880 -3.0745
 9170SOL     OW38971   0.476   4.324  11.377 -0.5292  0.0516  0.3415
 9170SOL    HW138972   0.449   4.296  11.464  1.3463 -1.5426  0.4016
 9170SOL    HW238973   0.570   4.320  11.391 -0.2245  1.4451 -1.4125
 9171SOL     OW38974   2.516   3.879   0.063 -0.0641  0.3269  0.3446
 9171SOL    HW138975   2.549   3.800   0.020 -0.2245  0.7510 -0.5497
 9171SOL    HW238976   2.441   3.906   0.010 -0.5103  0.4334  1.0317
 9172SOL     OW38977   0.812   0.403   8.448 -0.2669  0.2605  0.0222
 9172SOL    HW138978   0.739   0.407   8.386  0.8090  0.0900 -1.2556
 9172SOL    HW238979   0.819   0.308   8.456 -2.0201  0.1181 -0.2178
 9173SOL     OW38980   4.467   2.897  15.567 -0.1110  0.7386 -0.3465
 9173SOL    HW138981   4.477   2.978  15.517  3.9343  0.5138  0.0984
 9173SOL    HW238982   4.468   2.826  15.502  1.4721 -1.3006  1.8942
 9174SOL     OW38983   3.759   2.200   8.564 -0.3440 -0.4822  0.1176
 9174SOL    HW138984   3.744   2.110   8.535 -0.8199 -0.5893  0.6932
 9174SOL    HW238985   3.835   2.230   8.515  1.7055 -2.1709  2.2377
 9175SOL     OW38986   3.486   0.330   2.629 -0.3280 -0.1416 -0.1183
 9175SOL    HW138987   3.540   0.299   2.556 -0.8317 -0.2735 -0.4369
 9175SOL    HW238988   3.513   0.254   2.681  2.9814  1.4721  0.4455
 9176SOL     OW38989   1.958   4.130   6.250  0.1013  0.1891  0.7299
 9176SOL    HW138990   1.881   4.185   6.268 -0.5812 -0.8925  1.1272
 9176SOL    HW238991   1.919   4.065   6.192  0.9134 -0.0635  0.4690
 9177SOL     OW38992   0.509   1.358   3.950  0.5046  0.2940 -0.3330
 9177SOL    HW138993   0.592   1.405   3.940  0.2456  0.5461 -1.3743
 9177SOL    HW238994   0.488   1.340   3.858 -1.1464  1.2209 -0.1444
 9178SOL     OW38995   4.144   1.466   2.207 -0.4919  0.0222  0.1268
 9178SOL    HW138996   4.056   1.432   2.218 -0.7402  1.0075  1.1750
 9178SOL    HW238997   4.182   1.403   2.268 -0.7326 -0.2195  0.0251
 9179SOL     OW38998   2.594   4.042   8.023 -0.2528  0.2227 -0.6888
 9179SOL    HW138999   2.577   3.964   8.075  0.4006 -0.3084 -1.2614
 9179SOL    HW239000   2.661   4.002   7.966 -0.0522  0.3485 -0.5417
 9180SOL     OW39001   1.353   4.203  14.420  0.4404  0.4597 -0.6026
 9180SOL    HW139002   1.358   4.297  14.408  0.7522  0.6408  0.9736
 9180SOL    HW239003   1.292   4.179  14.350 -3.0940  1.1799  2.2627
 9181SOL     OW39004   0.386   2.016   3.870  0.7029  0.3528 -0.0373
 9181SOL    HW139005   0.331   1.947   3.907  0.4775  1.1741  1.1668
 9181SOL    HW239006   0.462   1.997   3.925  1.4612 -1.2729 -1.6199
 9182SOL     OW39007   4.109   1.545   5.823 -0.0662 -0.5269  0.2657
 9182SOL    HW139008   4.163   1.609   5.777 -2.0319 -0.1976 -1.6126
 9182SOL    HW239009   4.140   1.548   5.913 -1.4750 -2.0228  0.8064
 9183SOL     OW39010   4.294   4.614   2.847  0.0907  0.2710  0.0096
 9183SOL    HW139011   4.278   4.701   2.810 -1.0626  0.1771  0.2931
 9183SOL    HW239012   4.388   4.626   2.863 -0.3210  1.9267  1.2842
 9184SOL     OW39013   4.400   1.915   8.989 -0.3198 -0.0507  0.5036
 9184SOL    HW139014   4.415   2.007   9.010 -0.8828 -0.7524  4.0473
 9184SOL    HW239015   4.483   1.879   9.021 -0.6488 -1.2200  0.0548
 9185SOL     OW39016   2.861   1.682   7.497  0.9680 -0.2627  0.0337
 9185SOL    HW139017   2.862   1.612   7.562  0.3055 -1.0677 -0.8360
 9185SOL    HW239018   2.779   1.728   7.518  0.1531 -1.5226 -0.3903
 9186SOL     OW39019   1.802   0.237   8.495 -0.1273  0.0508 -0.0932
 9186SOL    HW139020   1.712   0.233   8.528 -0.0558 -0.9891 -0.0317
 9186SOL    HW239021   1.831   0.317   8.539 -4.0234  0.4614  1.7734
 9187SOL     OW39022   2.060   4.342   6.828  0.3580  0.1714 -0.6900
 9187SOL    HW139023   2.068   4.372   6.918  1.3139 -0.2762 -0.6264
 9187SOL    HW239024   2.136   4.285   6.826 -1.3426 -2.0481 -2.3267
 9188SOL     OW39025   1.570   2.699   5.681  0.1150 -0.0744  0.0546
 9188SOL    HW139026   1.538   2.641   5.750  0.1716  0.0538  0.1893
 9188SOL    HW239027   1.500   2.685   5.617 -0.6269 -0.8799  1.0449
 9189SOL     OW39028   1.278   2.116  13.076  0.1439  0.1057  0.0038
 9189SOL    HW139029   1.192   2.143  13.109 -0.0044  1.8018 -1.7757
 9189SOL    HW239030   1.260   2.069  12.995  0.2840  2.4551 -1.3630
 9190SOL     OW39031   2.566   3.778  11.255 -0.1166  0.5774  0.3133
 9190SOL    HW139032   2.609   3.695  11.278 -1.2136  0.5113  2.1237
 9190SOL    HW239033   2.625   3.835  11.304  0.3865 -0.3580  0.7892
 9191SOL     OW39034   1.049   4.582   6.564  0.6046  0.7292 -0.2649
 9191SOL    HW139035   1.124   4.635   6.590 -1.1146  3.6581 -1.3738
 9191SOL    HW239036   1.083   4.544   6.482 -0.8887  0.5655 -0.8100
 9192SOL     OW39037   3.259   2.754   2.894 -0.3439 -0.1150 -0.3073
 9192SOL    HW139038   3.270   2.752   2.989  3.0884  0.3917 -0.7079
 9192SOL    HW239039   3.320   2.686   2.865 -1.8031 -0.2964 -2.9880
 9193SOL     OW39040   0.790   2.426   7.163 -1.0432 -0.5721 -0.1769
 9193SOL    HW139041   0.759   2.500   7.216 -0.8910 -1.1032  0.6509
 9193SOL    HW239042   0.707   2.403   7.120 -1.1724 -0.7238  0.1546
 9194SOL     OW39043   0.261   2.204   3.551  0.4509  0.0489  0.2463
 9194SOL    HW139044   0.245   2.207   3.646  1.8900  0.6319  0.4630
 9194SOL    HW239045   0.171   2.220   3.521  0.7614  0.6632 -0.3302
 9195SOL     OW39046   4.077   2.376  10.286 -0.6167 -0.0518  0.4670
 9195SOL    HW139047   4.025   2.453  10.308  1.6353  0.9562  2.2374
 9195SOL    HW239048   4.135   2.397  10.212 -0.6199 -2.3030 -0.1735
 9196SOL     OW39049   1.857   0.112  17.593 -0.5780 -0.4855  0.0684
 9196SOL    HW139050   1.875   0.022  17.566 -1.0660 -0.3858 -0.5903
 9196SOL    HW239051   1.927   0.157  17.545  0.7579 -0.8583  1.6693
 9197SOL     OW39052   3.828   3.276   8.251 -0.3109 -0.2418  0.8675
 9197SOL    HW139053   3.771   3.353   8.261 -2.3729 -1.3584 -2.3100
 9197SOL    HW239054   3.768   3.218   8.299 -0.5824  0.1665  1.0226
 9198SOL     OW39055   3.812   0.240   6.630 -0.8326  0.1677  0.4178
 9198SOL    HW139056   3.895   0.194   6.619 -0.6611  0.5289  0.1983
 9198SOL    HW239057   3.769   0.235   6.545 -1.3854 -0.0859  0.7079
 9199SOL     OW39058   2.154   1.523   9.646 -0.1153  0.1184  0.2620
 9199SOL    HW139059   2.072   1.553   9.684  0.0650 -1.7479  2.1086
 9199SOL    HW239060   2.123   1.494   9.560 -0.0871 -0.0989  0.3239
 9200SOL     OW39061   0.209   0.028   5.015 -0.2620  0.5927  0.0679
 9200SOL    HW139062   0.147   0.090   4.976 -0.0813  0.1659 -0.8820
 9200SOL    HW239063   0.288   0.079   4.999 -0.7993  0.6454 -2.3735
 9201SOL     OW39064   0.243   1.942   5.846 -0.7424 -0.3230 -0.2257
 9201SOL    HW139065   0.256   2.033   5.870 -1.0202 -0.3401 -0.0070
 9201SOL    HW239066   0.293   1.898   5.915  0.6614 -0.9463 -1.6313
 9202SOL     OW39067   4.416   3.794   6.942  0.3951 -0.0450 -0.0301
 9202SOL    HW139068   4.426   3.841   6.860 -2.5107  0.7839  0.0616
 9202SOL    HW239069   4.356   3.853   6.989 -2.0478 -0.0970 -3.1294
 9203SOL     OW39070   1.528   4.655   6.753  0.2596 -0.2815 -0.7462
 9203SOL    HW139071   1.482   0.008   6.769 -0.5517 -1.1002  1.0893
 9203SOL    HW239072   1.592   4.688   6.690  0.7812 -0.4610 -0.3137
 9204SOL     OW39073   0.604   0.937   0.086  0.3480  0.0135 -0.5095
 9204SOL    HW139074   0.656   0.859   0.064 -0.2318 -0.7167  0.7368
 9204SOL    HW239075   0.531   0.901   0.135  0.8689 -0.8335 -0.3556
 9205SOL     OW39076   3.201   1.524   1.538  0.2655 -0.0551  0.3799
 9205SOL    HW139077   3.276   1.578   1.566 -0.6024  2.9847 -3.1682
 9205SOL    HW239078   3.212   1.450   1.598  1.8766  0.3361  0.5665
 9206SOL     OW39079   2.950   4.038  14.201 -0.2327  0.3482  0.3217
 9206SOL    HW139080   2.891   3.965  14.182  0.6443 -0.4684  0.7374
 9206SOL    HW239081   2.887   4.104  14.229 -1.7155 -0.0851 -1.9684
 9207SOL     OW39082   2.762   4.460   6.733 -0.0597 -0.2438 -0.3247
 9207SOL    HW139083   2.806   4.379   6.761  1.4019  0.2925 -1.0733
 9207SOL    HW239084   2.747   4.492   6.822 -0.0980 -1.7780  0.2361
 9208SOL     OW39085   3.005   2.144   7.298  0.6503 -0.2670 -0.1035
 9208SOL    HW139086   2.926   2.091   7.306  0.9752 -1.1024 -2.8097
 9208SOL    HW239087   3.062   2.081   7.255  3.5229  1.3454  1.3732
 9209SOL     OW39088   2.995   1.989   2.565  0.3470 -0.0848 -0.2796
 9209SOL    HW139089   3.050   1.926   2.611  1.8741  1.0938 -0.5129
 9209SOL    HW239090   3.019   2.074   2.602  3.7709 -1.6619  1.1072
 9210SOL     OW39091   3.602   0.180   6.809  0.0804 -0.4851  0.2142
 9210SOL    HW139092   3.659   0.211   6.738 -1.1479 -1.2478 -1.1214
 9210SOL    HW239093   3.633   0.241   6.875  2.7054 -0.8355 -0.6746
 9211SOL     OW39094   0.959   4.189   1.224  0.1578  0.1334  0.3610
 9211SOL    HW139095   0.887   4.201   1.286  0.7568 -0.5725  1.1843
 9211SOL    HW239096   0.981   4.281   1.210  3.8487 -1.1198 -1.9903
 9212SOL     OW39097   4.128   3.847  11.257 -0.0183 -0.1054 -0.3582
 9212SOL    HW139098   4.098   3.769  11.303  1.0435  0.2422  0.9185
 9212SOL    HW239099   4.073   3.863  11.180  2.0706  0.9226 -1.6424
 9213SOL     OW39100   1.659   1.388  13.448 -0.4492 -0.3531  0.0621
 9213SOL    HW139101   1.671   1.479  13.420 -0.3543 -0.1173  0.8649
 9213SOL    HW239102   1.726   1.342  13.398 -1.2501  0.5768 -1.8572
 9214SOL     OW39103   3.546   3.399   7.526 -0.0094 -0.3668  0.3448
 9214SOL    HW139104   3.537   3.347   7.446 -2.5870  0.1697  0.2717
 9214SOL    HW239105   3.636   3.389   7.555 -0.2950 -0.6518  1.1422
 9215SOL     OW39106   3.725   2.211   8.880 -0.2186 -0.1798  0.0977
 9215SOL    HW139107   3.674   2.265   8.820  1.0980 -0.3375 -1.1906
 9215SOL    HW239108   3.754   2.273   8.947  1.4113 -0.6625 -0.1399
 9216SOL     OW39109   2.412   2.706  12.199  0.2853  0.2544  0.1310
 9216SOL    HW139110   2.363   2.748  12.269  3.5627  1.1013  1.9053
 9216SOL    HW239111   2.407   2.614  12.225  0.5463 -0.0378 -0.8562
 9217SOL     OW39112   3.809   4.386  14.361  0.5018  0.2376 -0.5454
 9217SOL    HW139113   3.886   4.351  14.404  0.0470 -0.6189 -0.4366
 9217SOL    HW239114   3.812   4.473  14.401  1.4373 -0.8825  1.7898
 9218SOL     OW39115   0.691   4.459   9.187  0.1894 -0.7006 -0.1574
 9218SOL    HW139116   0.664   4.460   9.095 -1.6566  0.9451  0.3978
 9218SOL    HW239117   0.635   4.392   9.225 -2.9146  1.6701 -0.5100
 9219SOL     OW39118   3.312   1.831   9.368  0.5884  0.2425  0.1877
 9219SOL    HW139119   3.309   1.812   9.462  0.2718 -1.2877 -0.1389
 9219SOL    HW239120   3.389   1.780   9.343  0.9130  0.7600  0.1292
 9220SOL     OW39121   4.073   4.195   4.615 -0.3101  0.8762 -0.0478
 9220SOL    HW139122   3.998   4.149   4.651  1.4661 -1.3482  0.8242
 9220SOL    HW239123   4.102   4.147   4.537 -1.1745 -0.9801  0.7703
 9221SOL     OW39124   1.597   4.042  13.690  0.0113 -0.1152  0.3039
 9221SOL    HW139125   1.562   4.081  13.770 -0.3429  1.7516 -0.7594
 9221SOL    HW239126   1.656   3.981  13.735 -0.0796 -0.3978  0.0392
 9222SOL     OW39127   0.215   2.653   6.229 -0.8749  0.3794 -0.4606
 9222SOL    HW139128   0.130   2.676   6.191 -0.3020  3.2106 -0.0469
 9222SOL    HW239129   0.203   2.654   6.324  0.1871  3.1054 -0.3369
 9223SOL     OW39130   0.428   0.737   2.488 -0.0189 -0.5181  0.4963
 9223SOL    HW139131   0.446   0.801   2.419  0.8111 -2.5168 -1.1332
 9223SOL    HW239132   0.450   0.657   2.440  1.3446  1.3359 -1.9903
 9224SOL     OW39133   3.675   4.369  11.143 -0.5679 -1.0740 -0.2098
 9224SOL    HW139134   3.622   4.439  11.105  2.0218  2.0792  1.9762
 9224SOL    HW239135   3.756   4.414  11.169 -0.7745  0.9162 -2.9711
 9225SOL     OW39136   1.361   4.421   8.274 -0.1916 -0.1501  0.2492
 9225SOL    HW139137   1.336   4.342   8.322 -1.9985  0.5308  0.4335
 9225SOL    HW239138   1.455   4.422   8.293  0.5940 -0.5993 -3.5768
 9226SOL     OW39139   4.110   4.320  14.210 -0.2069 -0.0973 -0.1159
 9226SOL    HW139140   4.168   4.392  14.187  0.1165 -0.0538  0.8709
 9226SOL    HW239141   4.150   4.250  14.158 -0.1907  0.5661 -0.9954
 9227SOL     OW39142   0.886   4.449   5.931  0.3116  0.5558 -0.2937
 9227SOL    HW139143   0.841   4.531   5.912  2.1344  1.3955 -1.0493
 9227SOL    HW239144   0.824   4.391   5.975  0.3581 -0.5464 -1.6674
 9228SOL     OW39145   1.631   0.236   6.690  0.0056  0.2949  0.2096
 9228SOL    HW139146   1.722   0.232   6.662  0.1318  1.1900  0.4918
 9228SOL    HW239147   1.645   0.314   6.743  2.9068  0.8000 -1.3417
 9229SOL     OW39148   0.843   3.666   7.872  0.1231 -0.3229 -0.3465
 9229SOL    HW139149   0.848   3.596   7.806 -1.1195  0.2780 -1.0748
 9229SOL    HW239150   0.924   3.712   7.850 -0.2694  1.4081  1.8677
 9230SOL     OW39151   0.435   3.469  13.723  0.0460  0.1754 -0.1667
 9230SOL    HW139152   0.526   3.495  13.716 -0.7286  2.6316 -1.1110
 9230SOL    HW239153   0.433   3.429  13.810  2.3745  1.1546  0.3135
 9231SOL     OW39154   2.093   0.224   6.119  0.2414 -0.4303 -0.4221
 9231SOL    HW139155   2.021   0.185   6.168  1.8312 -0.7408  1.6697
 9231SOL    HW239156   2.122   0.150   6.065 -1.0857 -0.5447 -0.9664
 9232SOL     OW39157   3.259   4.090   5.495 -0.8272  0.0323 -0.0420
 9232SOL    HW139158   3.199   4.164   5.497 -1.2482 -0.3003 -0.2502
 9232SOL    HW239159   3.329   4.131   5.545  0.2250 -2.6704  0.7442
 9233SOL     OW39160   3.927   3.192   2.422  0.7801 -1.0723 -0.2259
 9233SOL    HW139161   3.861   3.130   2.394 -0.9553  0.2328  0.9823
 9233SOL    HW239162   3.946   3.237   2.340 -0.8637  0.2294  0.1023
 9234SOL     OW39163   0.952   2.961   2.795 -0.2741 -0.1810 -0.3930
 9234SOL    HW139164   0.892   3.036   2.791 -1.1832 -0.7725  2.3890
 9234SOL    HW239165   0.916   2.924   2.876 -0.5373  1.8411  0.4196
 9235SOL     OW39166   0.446   3.409   7.196  0.5356  0.6672 -0.7625
 9235SOL    HW139167   0.407   3.477   7.251 -3.1658 -2.1663  0.0857
 9235SOL    HW239168   0.458   3.336   7.257 -3.7988  0.4801 -0.1864
 9236SOL     OW39169   2.997   0.853  16.699  0.0074 -0.0029 -0.0604
 9236SOL    HW139170   3.063   0.825  16.636  2.1778  1.9754  1.3650
 9236SOL    HW239171   3.010   0.947  16.689  2.3387 -0.1515  1.8396
 9237SOL     OW39172   4.389   0.826  10.002 -0.6670  0.6622  0.1911
 9237SOL    HW139173   4.453   0.862   9.942  0.1417 -0.1451  0.5789
 9237SOL    HW239174   4.303   0.845   9.965 -1.3636 -2.8413 -0.0361
 9238SOL     OW39175   0.433   2.794   4.671 -0.0299 -0.3182  0.2463
 9238SOL    HW139176   0.369   2.825   4.735 -0.0921  1.0769 -0.4751
 9238SOL    HW239177   0.486   2.873   4.659 -0.0892 -0.0580  1.6987
 9239SOL     OW39178   4.596   2.617   7.914  0.2087  0.2307  0.5255
 9239SOL    HW139179   4.530   2.662   7.861  0.5071  3.3365  2.8573
 9239SOL    HW239180   4.618   2.685   7.977 -1.0891  1.2685 -0.1542
 9240SOL     OW39181   0.682   4.028  17.398  0.1549 -0.6864 -0.3738
 9240SOL    HW139182   0.643   4.069  17.321 -1.1430  0.3166  0.8241
 9240SOL    HW239183   0.723   4.104  17.438 -0.7137 -0.0002 -0.8084
 9241SOL     OW39184   2.235   4.474  14.544  0.0597 -0.0656  0.1707
 9241SOL    HW139185   2.190   4.394  14.519  0.2560 -0.0056 -0.3828
 9241SOL    HW239186   2.192   4.483  14.629 -1.8679 -3.0175 -0.4816
 9242SOL     OW39187   1.164   0.133   7.293 -0.4871  0.5482  0.3000
 9242SOL    HW139188   1.176   0.096   7.206  0.0942  0.1717  0.5426
 9242SOL    HW239189   1.246   0.175   7.317 -0.4926  0.2574  0.8194
 9243SOL     OW39190   3.892   4.282  14.017  0.5584  0.0582  0.5297
 9243SOL    HW139191   3.943   4.288  14.098  3.1201  1.2368 -1.1723
 9243SOL    HW239192   3.910   4.373  13.995 -0.9154  0.2938  0.3115
 9244SOL     OW39193   4.024   0.598   5.113 -0.1984  0.2133  0.8376
 9244SOL    HW139194   3.990   0.684   5.140 -1.2601 -0.2127  0.8393
 9244SOL    HW239195   4.020   0.617   5.020 -1.4368 -1.0303  0.6516
 9245SOL     OW39196   1.065   2.987  11.217 -0.2645  0.7589 -0.2349
 9245SOL    HW139197   1.141   3.033  11.180 -0.1140  0.9052  0.2474
 9245SOL    HW239198   1.056   3.041  11.296  3.2365  0.2479  0.5335
 9246SOL     OW39199   4.489   2.825  17.575 -0.2256  0.2930  0.1816
 9246SOL    HW139200   4.541   2.749  17.549 -1.2490 -0.1242 -0.6743
 9246SOL    HW239201   4.468   2.802  17.666 -3.1537  0.8693 -0.3561
 9247SOL     OW39202   3.384   4.641  10.110  0.1216 -0.2060 -0.2568
 9247SOL    HW139203   3.445   4.636  10.184 -1.4360 -0.6286  0.9916
 9247SOL    HW239204   3.435   4.624  10.030 -1.0066 -0.2523 -0.9678
 9248SOL     OW39205   2.689   0.031   9.075 -0.5664 -0.5429 -0.1883
 9248SOL    HW139206   2.699   0.126   9.083 -0.0723 -0.5199 -1.0301
 9248SOL    HW239207   2.644   0.031   8.991  0.0735 -2.1528 -0.5279
 9249SOL     OW39208   4.464   2.330   1.378  0.1528 -0.1943  0.4087
 9249SOL    HW139209   4.442   2.337   1.471  1.3518 -0.1803  0.6953
 9249SOL    HW239210   4.533   2.264   1.383 -0.3198 -0.8603 -1.6151
 9250SOL     OW39211   2.238   3.201   3.156  0.5972  0.3840  0.3450
 9250SOL    HW139212   2.215   3.269   3.219  1.1691  2.2769 -1.4872
 9250SOL    HW239213   2.305   3.242   3.102  0.9022  0.0879  0.5005
 9251SOL     OW39214   2.150   1.271  11.105  0.6618 -0.6120  0.2000
 9251SOL    HW139215   2.089   1.248  11.175  0.5453  0.2485  0.3819
 9251SOL    HW239216   2.150   1.186  11.061 -1.3557  0.2444 -1.4329
 9252SOL     OW39217   4.047   0.970   5.583 -0.1269  0.5749  0.2096
 9252SOL    HW139218   3.985   1.043   5.582 -0.0567  0.6302 -1.4084
 9252SOL    HW239219   4.017   0.915   5.655 -0.2958  0.0407 -0.2703
 9253SOL     OW39220   1.540   4.093   4.639  0.8656  0.3185  0.6687
 9253SOL    HW139221   1.603   4.157   4.671  2.1759  1.3860 -4.0810
 9253SOL    HW239222   1.540   4.036   4.716 -0.9967  2.1095  2.0140
 9254SOL     OW39223   3.085   3.614   1.230 -0.0392  0.0768 -0.1122
 9254SOL    HW139224   3.032   3.681   1.186  1.2199 -0.0071 -1.7229
 9254SOL    HW239225   3.127   3.668   1.297  0.5992  2.9415 -2.8416
 9255SOL     OW39226   4.633   1.393   4.024  0.3183  0.3973 -0.0107
 9255SOL    HW139227   4.667   1.338   3.954  0.2971 -2.4865  2.2688
 9255SOL    HW239228   4.709   1.448   4.042 -0.5845  1.3754  0.8001
 9256SOL     OW39229   3.970   1.026   7.367  0.7200 -0.0185 -0.7143
 9256SOL    HW139230   3.996   1.067   7.284  0.4120  0.4495 -0.5756
 9256SOL    HW239231   4.040   0.961   7.379  0.9880  0.3102 -0.5013
 9257SOL     OW39232   3.338   3.258   1.752  0.0140  0.3519  0.3525
 9257SOL    HW139233   3.305   3.339   1.714 -1.2300  0.4545  1.6433
 9257SOL    HW239234   3.257   3.231   1.794  0.7075 -0.1801  1.3492
 9258SOL     OW39235   3.874   3.945   2.713  0.2887 -0.0069 -0.3379
 9258SOL    HW139236   3.942   3.997   2.755 -0.3753  0.9977 -0.4962
 9258SOL    HW239237   3.890   3.957   2.620 -1.5748 -0.8795 -0.7834
 9259SOL     OW39238   4.502   2.644   7.497  0.1333 -0.6064  0.1931
 9259SOL    HW139239   4.489   2.712   7.431 -2.3630  0.8568  2.2213
 9259SOL    HW239240   4.470   2.688   7.576  0.9182  3.1268 -1.5366
 9260SOL     OW39241   1.382   4.656   7.730  0.2304 -0.2909 -0.7799
 9260SOL    HW139242   1.449   4.588   7.730  1.7422  1.1819 -2.3074
 9260SOL    HW239243   1.438   0.005   7.739  0.4160 -0.6072  0.8890
 9261SOL     OW39244   2.899   3.179   2.596  0.2128  0.0579 -0.0813
 9261SOL    HW139245   2.879   3.115   2.664  1.6044 -0.6401 -0.3371
 9261SOL    HW239246   2.959   3.126   2.543  0.0039 -0.7603  0.5042
 9262SOL     OW39247   0.422   4.022   1.941  0.1509 -0.4923 -0.6200
 9262SOL    HW139248   0.429   4.025   1.846 -1.0201  0.1118 -0.6829
 9262SOL    HW239249   0.511   4.000   1.969  0.2180 -1.0272 -1.2573
 9263SOL     OW39250   0.784   2.146  14.444 -0.3444  0.5535 -0.3759
 9263SOL    HW139251   0.797   2.149  14.349 -0.7983  0.4586 -0.4427
 9263SOL    HW239252   0.828   2.066  14.473 -1.4147  0.1379  0.0827
 9264SOL     OW39253   4.009   2.812  14.130  0.3076 -0.1447 -0.6910
 9264SOL    HW139254   4.034   2.875  14.197 -1.6510 -0.3385  0.2231
 9264SOL    HW239255   3.981   2.743  14.190  0.5591 -0.4306 -0.9032
 9265SOL     OW39256   3.674   2.859   7.323 -0.0634 -0.2994  0.6801
 9265SOL    HW139257   3.638   2.922   7.385  2.0326  1.1698  0.3841
 9265SOL    HW239258   3.739   2.920   7.288  0.2455  0.2403  2.2058
 9266SOL     OW39259   3.437   1.959   9.933 -0.2168  0.1701 -0.6161
 9266SOL    HW139260   3.493   1.888   9.962 -1.7140 -0.5139  0.6171
 9266SOL    HW239261   3.384   1.918   9.865 -0.7385 -2.1881  1.2327
 9267SOL     OW39262   3.783   3.232   6.532 -0.3721  0.3052  1.0588
 9267SOL    HW139263   3.743   3.153   6.569  1.0698 -0.3208  1.2628
 9267SOL    HW239264   3.737   3.245   6.449  0.4870  1.6234  0.8026
 9268SOL     OW39265   0.443   0.679   3.943 -0.4563 -0.1718  0.5277
 9268SOL    HW139266   0.493   0.610   3.900 -0.7389 -0.5963  0.8771
 9268SOL    HW239267   0.405   0.635   4.019 -0.9465  0.9896  0.9472
 9269SOL     OW39268   1.206   4.635   2.904 -0.3377  0.0538  0.2446
 9269SOL    HW139269   1.228   4.683   2.984 -0.1771 -0.8741  0.7723
 9269SOL    HW239270   1.295   4.618   2.874 -0.1398  0.2222  0.7352
 9270SOL     OW39271   2.810   3.629   6.893 -0.5599  0.6886 -0.3892
 9270SOL    HW139272   2.749   3.678   6.948 -0.5231 -0.6828  0.8695
 9270SOL    HW239273   2.878   3.695   6.878 -1.7436  1.8895 -0.5091
 9271SOL     OW39274   3.948   0.022   4.784 -0.0224 -0.0691  0.3650
 9271SOL    HW139275   3.927   0.038   4.692  1.1502 -0.4320  0.0418
 9271SOL    HW239276   3.951   0.113   4.815  0.1257  0.0922 -0.1377
 9272SOL     OW39277   2.826   2.097   4.324 -0.5050 -0.9808 -0.0770
 9272SOL    HW139278   2.885   2.115   4.251 -0.2719  0.2059  0.3967
 9272SOL    HW239279   2.759   2.164   4.309  0.0327 -0.3592  0.2777
 9273SOL     OW39280   3.142   3.971  13.737 -0.3084 -0.0708  0.0130
 9273SOL    HW139281   3.128   3.978  13.832  0.2057 -0.4822  0.1180
 9273SOL    HW239282   3.151   3.876  13.736 -0.3514 -0.0805  0.3103
 9274SOL     OW39283   3.661   3.572   9.177 -0.1726  0.0645 -0.1825
 9274SOL    HW139284   3.717   3.630   9.126 -0.4803 -0.5545 -1.2288
 9274SOL    HW239285   3.680   3.490   9.130 -0.9571 -0.2448  0.0337
 9275SOL     OW39286   2.533   3.200  14.528 -0.1804  0.2406  0.0752
 9275SOL    HW139287   2.464   3.235  14.473  0.2550 -1.6385 -1.6489
 9275SOL    HW239288   2.595   3.272  14.537 -0.0688  0.1556 -0.0145
 9276SOL     OW39289   1.834   2.303   8.129  0.0285 -0.0398  0.0002
 9276SOL    HW139290   1.759   2.244   8.127  0.0774 -0.1319  1.0250
 9276SOL    HW239291   1.897   2.249   8.080  0.7882 -2.6074  3.8787
 9277SOL     OW39292   1.280   3.842  11.764 -1.3918  0.3957 -0.0546
 9277SOL    HW139293   1.323   3.757  11.760  0.0002  1.1812 -1.8977
 9277SOL    HW239294   1.330   3.881  11.836  2.1227 -2.5247 -0.9145
 9278SOL     OW39295   3.069   4.575   3.996  0.0478 -0.4377  0.3852
 9278SOL    HW139296   3.088   4.529   4.078  1.3777  0.5993  0.6686
 9278SOL    HW239297   3.158   4.563   3.964 -0.7609 -0.7848 -1.7384
 9279SOL     OW39298   1.249   2.332  16.481  0.5155 -0.3145  0.6040
 9279SOL    HW139299   1.245   2.277  16.559  1.6751 -2.2046 -0.6719
 9279SOL    HW239300   1.295   2.278  16.416  2.1173  0.3901  1.1446
 9280SOL     OW39301   3.346   2.021  16.345  0.1199 -0.2790  0.1122
 9280SOL    HW139302   3.314   2.073  16.272 -1.2191 -1.5362 -0.2049
 9280SOL    HW239303   3.265   1.971  16.356  1.6590 -2.9223 -0.5679
 9281SOL     OW39304   4.130   2.269  12.505 -0.2651  0.3222 -0.5765
 9281SOL    HW139305   4.104   2.342  12.448  0.6546  1.3969  0.3830
 9281SOL    HW239306   4.054   2.211  12.502  1.1077 -1.4924  0.1545
 9282SOL     OW39307   2.934   1.203  17.153 -0.9682  1.0715 -0.1473
 9282SOL    HW139308   2.943   1.188  17.058 -0.4484  1.9636 -0.2323
 9282SOL    HW239309   2.936   1.110  17.178  3.2373  1.1610 -0.2995
 9283SOL     OW39310   1.823   1.300   3.913  0.3443 -0.3746 -0.0482
 9283SOL    HW139311   1.749   1.249   3.946  0.3631  0.0594  0.6711
 9283SOL    HW239312   1.894   1.263   3.965  0.0120 -0.7301  0.1489
 9284SOL     OW39313   0.197   4.257   1.461 -0.4044  0.1172 -0.5259
 9284SOL    HW139314   0.273   4.207   1.431 -1.4268 -1.8947  0.2063
 9284SOL    HW239315   0.149   4.276   1.380 -0.2523  1.6148 -0.2543
 9285SOL     OW39316   4.167   0.823  17.437  0.1595 -0.3949 -0.9104
 9285SOL    HW139317   4.100   0.861  17.493 -0.4746 -3.4014  0.3552
 9285SOL    HW239318   4.220   0.770  17.497 -0.9743 -0.0486  0.3827
 9286SOL     OW39319   3.819   3.769   1.080 -0.2849  0.2112  0.1187
 9286SOL    HW139320   3.751   3.823   1.119 -0.1187  0.3673  0.1901
 9286SOL    HW239321   3.771   3.691   1.053  2.2804 -1.6972  1.0556
 9287SOL     OW39322   0.343   2.110   8.273 -0.1438  0.1436  0.4368
 9287SOL    HW139323   0.334   2.137   8.364 -1.1418 -3.4387  1.4033
 9287SOL    HW239324   0.254   2.124   8.240 -0.3985 -0.2464  0.9692
 9288SOL     OW39325   3.599   4.028   2.744  0.3376 -0.2365  0.2331
 9288SOL    HW139326   3.690   4.001   2.753  0.5945  0.7087  0.4217
 9288SOL    HW239327   3.584   4.086   2.818  0.7825  0.0358  0.1099
 9289SOL     OW39328   0.678   2.808   6.898  0.4492  0.1597 -0.1405
 9289SOL    HW139329   0.718   2.888   6.932  0.4701  0.6253 -1.2527
 9289SOL    HW239330   0.636   2.778   6.978 -0.9842  0.8496 -0.6479
 9290SOL     OW39331   1.476   2.204   4.436  0.6437 -0.4057  0.5029
 9290SOL    HW139332   1.406   2.259   4.472  1.3180  1.7326 -1.4358
 9290SOL    HW239333   1.467   2.220   4.342 -1.8489 -0.6360  0.6937
 9291SOL     OW39334   2.533   0.754  13.109  0.1585 -0.0768 -0.1745
 9291SOL    HW139335   2.493   0.840  13.105 -0.3864 -0.2028  2.4947
 9291SOL    HW239336   2.489   0.707  13.180  0.0946 -0.3732 -0.4089
 9292SOL     OW39337   2.321   0.486   5.103  0.1746 -0.4197 -0.9166
 9292SOL    HW139338   2.303   0.423   5.034 -0.2839 -0.5242 -0.7035
 9292SOL    HW239339   2.282   0.564   5.063  3.1869  0.3903 -2.1912
 9293SOL     OW39340   2.069   1.395   6.541  0.0373 -0.0692  0.0898
 9293SOL    HW139341   2.125   1.468   6.569  1.1758 -1.0842  0.4814
 9293SOL    HW239342   2.114   1.312   6.555  1.1417  0.4231 -0.5322
 9294SOL     OW39343   1.481   2.797   6.868  0.7036 -0.5524  0.0802
 9294SOL    HW139344   1.535   2.731   6.827 -0.5166 -1.1033 -0.6446
 9294SOL    HW239345   1.400   2.799   6.818  0.6208 -2.1992  0.1344
 9295SOL     OW39346   1.342   2.612   5.038  0.4098  0.3292  0.2095
 9295SOL    HW139347   1.377   2.579   5.121 -0.1737  1.2604  0.8136
 9295SOL    HW239348   1.315   2.699   5.067 -0.1053  0.3055 -0.2010
 9296SOL     OW39349   4.137   3.556   1.298  0.1849 -0.4675  0.1326
 9296SOL    HW139350   4.204   3.617   1.265  0.4348 -0.6898  0.2273
 9296SOL    HW239351   4.168   3.472   1.263 -0.6372 -0.4630 -0.6041
 9297SOL     OW39352   4.313   2.978   3.352 -0.0897 -0.4232  0.1488
 9297SOL    HW139353   4.399   2.943   3.374  1.3448  1.0798 -3.1267
 9297SOL    HW239354   4.284   3.012   3.437 -0.4362 -0.3503  0.0012
 9298SOL     OW39355   1.330   4.544  11.669  0.2921  0.2977 -0.0658
 9298SOL    HW139356   1.421   4.574  11.667  0.0183  1.2071  1.1067
 9298SOL    HW239357   1.281   4.625  11.682 -0.7737 -0.7882  2.5850
 9299SOL     OW39358   1.430   3.557   5.375 -0.8604 -0.1660  0.2752
 9299SOL    HW139359   1.387   3.638   5.402  0.7712  1.5997 -2.4682
 9299SOL    HW239360   1.379   3.531   5.298  0.9651 -0.9718 -0.6629
 9300SOL     OW39361   1.236   3.179   4.879 -0.1172 -0.3524  0.5266
 9300SOL    HW139362   1.306   3.115   4.871  1.2769  1.3878 -1.1780
 9300SOL    HW239363   1.254   3.244   4.810 -1.7944 -2.0174 -1.4961
 9301SOL     OW39364   3.858   0.552   3.335 -0.3496 -0.3115  0.6705
 9301SOL    HW139365   3.812   0.475   3.366  0.1172 -0.8818 -0.0481
 9301SOL    HW239366   3.864   0.532   3.242 -0.6394 -1.6586  0.9442
 9302SOL     OW39367   0.112   0.455   5.449  0.5205  0.3755  0.0559
 9302SOL    HW139368   0.041   0.395   5.469  0.3817  1.2921  2.3413
 9302SOL    HW239369   0.099   0.528   5.510 -1.4626  1.4348 -1.6314
 9303SOL     OW39370   2.188   3.580   4.450 -0.4540 -0.1352 -0.5980
 9303SOL    HW139371   2.162   3.504   4.397  0.3875 -1.3648  0.7476
 9303SOL    HW239372   2.111   3.636   4.435  0.5697  1.0690 -1.3632
 9304SOL     OW39373   1.494   0.462   2.010  0.6429 -0.2155 -0.3829
 9304SOL    HW139374   1.566   0.505   1.965 -0.8569 -1.0192 -3.4944
 9304SOL    HW239375   1.501   0.372   1.980  1.7747 -0.2301 -0.0456
 9305SOL     OW39376   4.008   4.180  14.418 -0.0361  0.1027 -0.0393
 9305SOL    HW139377   3.988   4.099  14.371 -0.0271 -0.2554  0.5695
 9305SOL    HW239378   4.040   4.225  14.340  0.0994  2.9207  1.6753
 9306SOL     OW39379   0.131   2.962   4.532  0.3784  0.2340 -0.2444
 9306SOL    HW139380   0.042   2.925   4.531  0.7636 -0.7517  2.5185
 9306SOL    HW239381   0.142   3.023   4.605  1.8255 -1.4942  0.9698
 9307SOL     OW39382   4.435   0.393  16.237  0.0289  0.0226  0.0389
 9307SOL    HW139383   4.440   0.464  16.172 -0.8048  2.2625  2.4148
 9307SOL    HW239384   4.467   0.444  16.311  0.1997 -0.6005  0.3886
 9308SOL     OW39385   3.084   4.331  15.327 -0.0038 -0.5990  0.6055
 9308SOL    HW139386   3.110   4.419  15.351 -1.4696 -0.0074  0.0009
 9308SOL    HW239387   3.167   4.291  15.353  1.3911  0.4386 -2.3382
 9309SOL     OW39388   2.235   0.323  17.619 -0.1112 -0.7805  0.0294
 9309SOL    HW139389   2.211   0.390  17.554 -0.8154 -1.1602 -0.1011
 9309SOL    HW239390   2.164   0.318  17.683 -1.6569 -2.6959 -1.8386
 9310SOL     OW39391   1.633   0.977   7.225 -0.3648  0.2409  0.0983
 9310SOL    HW139392   1.655   1.069   7.212 -0.7919  0.2675 -0.4341
 9310SOL    HW239393   1.540   0.980   7.248  0.8320 -1.7987  5.2069
 9311SOL     OW39394   1.047   3.560   5.533  0.0685  0.0894 -0.4417
 9311SOL    HW139395   1.106   3.490   5.562  0.9326  1.1503  0.3865
 9311SOL    HW239396   1.042   3.608   5.616 -0.3916 -0.5525 -0.1005
 9312SOL     OW39397   0.529   3.932  11.558 -0.1866 -0.1187  0.1244
 9312SOL    HW139398   0.619   3.960  11.573 -0.0275 -1.0916  0.9671
 9312SOL    HW239399   0.525   3.967  11.469 -0.1877 -0.1170  0.1251
 9313SOL     OW39400   0.609   0.252   3.899 -0.0964 -1.0140 -0.7717
 9313SOL    HW139401   0.661   0.180   3.863 -1.4668 -2.4253  0.0464
 9313SOL    HW239402   0.679   0.306   3.938 -1.5472 -0.5272  1.1627
 9314SOL     OW39403   4.438   2.150   5.927  0.1489  0.0779  0.2712
 9314SOL    HW139404   4.499   2.111   5.865 -1.2723 -1.2159 -0.3109
 9314SOL    HW239405   4.472   2.132   6.015 -0.8089 -1.8069  0.2561
 9315SOL     OW39406   1.633   2.406   1.435  0.0202 -0.2454 -0.0306
 9315SOL    HW139407   1.718   2.374   1.466 -0.3244 -1.9843 -0.9056
 9315SOL    HW239408   1.579   2.383   1.511 -0.4709  0.0482 -0.2980
 9316SOL     OW39409   1.001   2.329  14.401 -0.3199 -0.2449  0.2859
 9316SOL    HW139410   0.956   2.389  14.342 -1.0697  0.6706  1.7960
 9316SOL    HW239411   0.925   2.278  14.429 -0.4839 -0.9811 -1.4737
 9317SOL     OW39412   0.707   2.420   5.082 -0.5405  0.4152  0.5252
 9317SOL    HW139413   0.644   2.427   5.153 -0.1907  1.7489  0.7092
 9317SOL    HW239414   0.744   2.334   5.101 -0.3432  0.9970  2.7119
 9318SOL     OW39415   4.623   4.243   9.119  0.2904 -0.2745 -0.1253
 9318SOL    HW139416   4.701   4.276   9.162 -0.8998  0.7184  1.2456
 9318SOL    HW239417   4.568   4.248   9.197  1.0937  2.6761  0.2566
 9319SOL     OW39418   2.365   0.732  13.347 -0.1051  0.3813  0.1201
 9319SOL    HW139419   2.294   0.721  13.410  1.5344  1.2351  2.1149
 9319SOL    HW239420   2.384   0.825  13.356  2.5905 -0.1683  0.0676
 9320SOL     OW39421   3.712   1.747   1.340 -0.4198 -0.2007 -0.0260
 9320SOL    HW139422   3.690   1.840   1.353  0.0046 -0.2888  1.4012
 9320SOL    HW239423   3.623   1.711   1.343  0.0260 -1.2270  0.9381
 9321SOL     OW39424   1.948   3.273  10.395  0.5879  0.1430  0.1270
 9321SOL    HW139425   1.974   3.360  10.427  0.5723  0.1853  0.0259
 9321SOL    HW239426   1.858   3.292  10.368  0.9520  3.1556  0.9878
 9322SOL     OW39427   3.974   2.430   2.249 -0.1714 -0.4029  0.1433
 9322SOL    HW139428   3.900   2.393   2.298 -0.7720 -1.6683 -1.6774
 9322SOL    HW239429   3.940   2.430   2.159  2.0979 -3.5029 -0.7399
 9323SOL     OW39430   2.984   0.442  15.252  1.0336  0.3216 -0.2582
 9323SOL    HW139431   2.889   0.447  15.261  1.1723  2.0505  0.1113
 9323SOL    HW239432   2.995   0.469  15.160  1.1286  0.6855 -0.1383
 9324SOL     OW39433   4.729   4.478   2.620  0.6556  0.0997 -0.3015
 9324SOL    HW139434   0.058   4.554   2.628 -0.0711  0.6212  0.0364
 9324SOL    HW239435   4.708   4.457   2.711 -0.0817  4.2304  0.4987
 9325SOL     OW39436   3.751   1.081   6.189 -0.0210 -0.3566 -0.2481
 9325SOL    HW139437   3.825   1.142   6.184 -0.9421  0.8828  1.5856
 9325SOL    HW239438   3.680   1.142   6.206  1.0613  0.2829  1.9025
 9326SOL     OW39439   1.449   1.988  11.126  0.1637  0.4166  0.1613
 9326SOL    HW139440   1.400   1.996  11.208 -0.5727  2.8561 -0.5034
 9326SOL    HW239441   1.484   1.900  11.133 -1.9821 -0.2858  2.0507
 9327SOL     OW39442   2.282   3.339  12.737  0.4659  0.1302 -0.0166
 9327SOL    HW139443   2.312   3.273  12.675  0.9021 -0.6236  1.0015
 9327SOL    HW239444   2.228   3.387  12.675 -0.1559  0.8770  1.0900
 9328SOL     OW39445   2.627   4.469   3.099 -0.8902 -0.4288 -0.4615
 9328SOL    HW139446   2.612   4.522   3.177  1.6934  0.1065 -0.3153
 9328SOL    HW239447   2.692   4.524   3.056 -2.3324 -0.1743 -2.2948
 9329SOL     OW39448   3.898   2.441   1.317 -0.1017 -0.7056  0.3665
 9329SOL    HW139449   3.950   2.400   1.248  1.4412  1.0824  0.5005
 9329SOL    HW239450   3.912   2.534   1.305  1.1008 -0.7053  1.7466
 9330SOL     OW39451   3.228   3.108   8.333 -0.3876  0.5436 -0.1113
 9330SOL    HW139452   3.142   3.082   8.367 -0.4744 -0.4576 -1.0991
 9330SOL    HW239453   3.224   3.203   8.340 -1.9938  0.4378  0.5076
 9331SOL     OW39454   1.109   4.052   8.434  0.4780 -0.2790 -0.1040
 9331SOL    HW139455   1.096   3.989   8.505 -0.2365  1.4215  1.2836
 9331SOL    HW239456   1.019   4.073   8.412  0.5291  0.3132  0.2422
 9332SOL     OW39457   1.730   3.909  14.161  0.0729 -0.1673 -0.2360
 9332SOL    HW139458   1.815   3.947  14.184 -0.6321  2.2676 -1.5796
 9332SOL    HW239459   1.711   3.858  14.239 -0.0021 -1.2033 -0.9432
 9333SOL     OW39460   2.737   1.968   8.910  0.6925  0.0616  0.2782
 9333SOL    HW139461   2.818   1.922   8.930  0.8192 -0.4015 -1.3266
 9333SOL    HW239462   2.771   2.052   8.940  0.4400  1.4159 -3.2124
 9334SOL     OW39463   0.550   4.003  11.276  0.2370 -0.6241 -0.5335
 9334SOL    HW139464   0.455   4.010  11.287  0.3711  0.0858  0.1641
 9334SOL    HW239465   0.552   3.925  11.221 -0.1416 -1.5622  0.7760
 9335SOL     OW39466   3.549   3.314  13.036  0.2216  0.2492  0.0858
 9335SOL    HW139467   3.535   3.402  13.001  1.3614 -0.0957 -1.2683
 9335SOL    HW239468   3.491   3.327  13.111 -1.0959 -1.1660 -0.6939
 9336SOL     OW39469   0.825   0.119   8.447 -0.2518  0.2798  0.0750
 9336SOL    HW139470   0.870   0.035   8.458 -1.2063 -0.1601  0.6539
 9336SOL    HW239471   0.754   0.087   8.391 -0.6290  1.1019  0.0821
 9337SOL     OW39472   4.196   2.765  16.213 -0.1029 -0.8742 -0.1149
 9337SOL    HW139473   4.260   2.695  16.229  0.6577 -0.5900 -1.8809
 9337SOL    HW239474   4.115   2.715  16.209 -1.1739  0.8430  0.2194
 9338SOL     OW39475   3.683   2.902   4.394  0.0971 -0.0035 -0.4996
 9338SOL    HW139476   3.734   2.950   4.329 -0.1827  0.5596 -0.2995
 9338SOL    HW239477   3.594   2.916   4.360  0.1347  0.9728 -0.1864
 9339SOL     OW39478   3.997   0.716   3.098 -0.6473  0.1501  0.0011
 9339SOL    HW139479   3.942   0.651   3.143  0.9975 -0.8174  0.5919
 9339SOL    HW239480   4.012   0.666   3.017  1.5496  0.1855  0.3898
 9340SOL     OW39481   0.802   2.592   8.343  0.0784  0.1173  0.2971
 9340SOL    HW139482   0.715   2.578   8.381  0.4465 -2.5052  0.1154
 9340SOL    HW239483   0.832   2.658   8.405  1.3801  0.2771 -0.4954
 9341SOL     OW39484   1.449   3.528   3.132  0.4117 -0.8317  0.4048
 9341SOL    HW139485   1.441   3.578   3.051  2.1058  0.0795  0.7919
 9341SOL    HW239486   1.358   3.503   3.147 -0.1893  0.0920 -1.7243
 9342SOL     OW39487   3.786   1.935   5.771 -0.4719 -0.0778  0.4985
 9342SOL    HW139488   3.868   1.984   5.775 -0.4858  0.0945 -1.7280
 9342SOL    HW239489   3.741   1.995   5.711 -0.7698  0.9028  1.6810
 9343SOL     OW39490   2.933   0.310   9.335  0.2333  0.8596  0.2422
 9343SOL    HW139491   2.877   0.254   9.389 -1.1939  0.1386 -1.9674
 9343SOL    HW239492   2.968   0.243   9.276 -2.2648  0.3645 -0.7024
 9344SOL     OW39493   2.526   4.262   7.888  0.3051 -0.1412 -0.5108
 9344SOL    HW139494   2.592   4.258   7.819  1.3816  0.3841  0.4896
 9344SOL    HW239495   2.528   4.173   7.923  0.8233  1.2117  2.9343
 9345SOL     OW39496   0.072   2.622   2.419 -0.5694  0.0122 -0.1795
 9345SOL    HW139497   0.077   2.586   2.507  0.9227  1.8429  0.4905
 9345SOL    HW239498   4.709   2.613   2.393 -0.9141  3.1653 -0.1454
 9346SOL     OW39499   0.625   2.811   2.349 -0.7010 -0.0476  0.0887
 9346SOL    HW139500   0.609   2.873   2.278  3.3848  1.5592  0.6151
 9346SOL    HW239501   0.697   2.763   2.308  0.2181 -0.1952  1.8750
 9347SOL     OW39502   3.129   1.115   8.001 -0.4872 -0.5461  0.3522
 9347SOL    HW139503   3.157   1.073   8.083  1.5797  1.7254  0.8122
 9347SOL    HW239504   3.213   1.149   7.971 -2.1746  0.6750 -3.0093
 9348SOL     OW39505   0.429   3.277   5.311  0.0690 -0.1702 -0.4108
 9348SOL    HW139506   0.412   3.187   5.340  0.6742 -0.1690 -0.0307
 9348SOL    HW239507   0.345   3.316   5.288 -0.1510  0.5755  1.6916
 9349SOL     OW39508   2.320   4.617   1.939 -0.4690  0.0639  0.0320
 9349SOL    HW139509   2.267   4.648   2.013 -1.9035  1.4820 -1.5899
 9349SOL    HW239510   2.339   4.529   1.973  1.4478  1.2759  2.1265
 9350SOL     OW39511   1.953   2.623   5.305 -0.4856  0.1259 -0.2223
 9350SOL    HW139512   2.029   2.596   5.356 -0.9206 -0.4372  0.1190
 9350SOL    HW239513   1.924   2.699   5.355 -0.3963 -0.5296  0.8178
 9351SOL     OW39514   0.028   0.509  14.634 -0.2667 -0.5255  0.0653
 9351SOL    HW139515   0.076   0.498  14.716 -0.0245 -3.3340 -0.4617
 9351SOL    HW239516   0.082   0.460  14.572  2.6669 -0.7730  2.8266
 9352SOL     OW39517   2.374   3.068   2.163 -0.0922 -0.1908 -0.2618
 9352SOL    HW139518   2.379   3.143   2.222  2.4862  0.0912 -0.8620
 9352SOL    HW239519   2.289   3.073   2.119  0.3300  2.2101 -0.8190
 9353SOL     OW39520   1.910   2.917   2.522  0.1052 -0.1920  0.4303
 9353SOL    HW139521   1.979   2.879   2.577 -1.0669  0.5710  2.4637
 9353SOL    HW239522   1.888   2.989   2.582 -0.2892  0.6355 -0.7178
 9354SOL     OW39523   3.377   1.734  15.231  0.3130  0.4809 -0.2783
 9354SOL    HW139524   3.327   1.653  15.240  1.1427 -0.0414 -0.4163
 9354SOL    HW239525   3.440   1.720  15.161  0.8621  0.1065  0.2875
 9355SOL     OW39526   2.487   1.673   8.199 -0.2329  0.7015  0.0198
 9355SOL    HW139527   2.399   1.674   8.237  0.1763 -2.3874  1.0499
 9355SOL    HW239528   2.545   1.626   8.259 -0.0984  0.8344 -0.0081
 9356SOL     OW39529   2.174   2.187   5.148  0.1344  0.0424  0.7255
 9356SOL    HW139530   2.199   2.266   5.195  1.8460 -0.1603  0.1690
 9356SOL    HW239531   2.085   2.216   5.124  0.3444 -0.1673 -0.3201
 9357SOL     OW39532   3.408   2.857  17.190 -0.9092  0.0103 -0.1119
 9357SOL    HW139533   3.319   2.867  17.157 -0.8985  0.7171  0.0836
 9357SOL    HW239534   3.390   2.813  17.273 -0.3053  0.8496  0.4609
 9358SOL     OW39535   4.434   2.875  15.848 -0.5390 -0.5458  0.5199
 9358SOL    HW139536   4.480   2.957  15.867  0.9419 -1.9963  3.2168
 9358SOL    HW239537   4.446   2.880  15.754  0.4445 -3.1509  0.4907
 9359SOL     OW39538   2.181   0.113   8.224 -0.1088  0.1203  0.0741
 9359SOL    HW139539   2.227   0.175   8.168 -1.4522  1.7729  0.8158
 9359SOL    HW239540   2.201   0.029   8.181 -2.3984 -0.1804 -0.3787
 9360SOL     OW39541   4.706   0.622   3.460  0.0213  0.2727  0.8626
 9360SOL    HW139542   4.611   0.609   3.467 -0.2217  1.0074 -1.2090
 9360SOL    HW239543   0.006   0.531   3.472 -0.9652 -0.2092 -0.3937
 9361SOL     OW39544   3.853   1.983   7.279 -0.0905  0.1418 -0.5548
 9361SOL    HW139545   3.826   2.070   7.307 -1.5261  0.1316 -1.9296
 9361SOL    HW239546   3.928   1.957   7.333 -1.6015 -0.4548  1.2699
 9362SOL     OW39547   2.760   2.578   3.936  0.9511  0.4388 -0.2060
 9362SOL    HW139548   2.716   2.524   4.002 -1.7051  2.5855 -0.2751
 9362SOL    HW239549   2.829   2.612   3.993 -0.4072  1.0242  1.0712
 9363SOL     OW39550   2.998   4.603   8.411  0.4024 -0.5159 -0.0245
 9363SOL    HW139551   2.918   4.654   8.425 -0.8106 -1.8109 -2.2341
 9363SOL    HW239552   3.024   4.637   8.326  0.7985  0.4454  0.4801
 9364SOL     OW39553   4.367   2.243   7.683  0.2544 -0.0856  0.3667
 9364SOL    HW139554   4.457   2.274   7.673 -1.0075  3.2107 -0.8933
 9364SOL    HW239555   4.353   2.271   7.774  0.7021 -0.4504  0.5496
 9365SOL     OW39556   3.495   2.088  17.538 -0.0926 -0.0706 -0.0057
 9365SOL    HW139557   3.445   2.124  17.465 -1.4130 -0.0760  0.8999
 9365SOL    HW239558   3.540   2.167  17.569  0.7489 -0.4667 -0.2040
 9366SOL     OW39559   3.339   1.456   6.991 -0.1613  0.8877  0.3692
 9366SOL    HW139560   3.300   1.374   7.022 -0.2359 -0.3406 -3.0489
 9366SOL    HW239561   3.422   1.422   6.960 -1.0192 -1.2389  0.3933
 9367SOL     OW39562   0.213   4.662   9.163 -0.3937  0.3236 -0.4121
 9367SOL    HW139563   0.202   0.006   9.223 -2.0159  1.1713 -1.7427
 9367SOL    HW239564   0.285   4.679   9.104  0.3481  0.4149  0.5254
 9368SOL     OW39565   2.640   3.021  10.462 -0.7324 -0.0855  0.0222
 9368SOL    HW139566   2.602   2.935  10.479 -2.2734  0.5328 -0.3415
 9368SOL    HW239567   2.734   3.002  10.472 -0.9171 -0.4879  0.9612
 9369SOL     OW39568   1.459   3.371  13.725 -0.1541  0.6617 -0.8953
 9369SOL    HW139569   1.531   3.421  13.686 -0.5303  1.5356 -0.4534
 9369SOL    HW239570   1.506   3.309  13.781 -2.9263 -3.0681 -2.6918
 9370SOL     OW39571   2.815   0.450   5.664 -0.5488  0.5199  0.1692
 9370SOL    HW139572   2.884   0.471   5.726  0.5709 -0.0858 -0.8599
 9370SOL    HW239573   2.766   0.378   5.703 -0.8341  0.8999  0.5030
 9371SOL     OW39574   2.549   0.915   6.452 -0.0003 -0.6763 -0.5097
 9371SOL    HW139575   2.607   0.851   6.494  0.1210 -0.6896 -0.6988
 9371SOL    HW239576   2.570   0.898   6.360  1.4897  0.0087 -0.3057
 9372SOL     OW39577   4.411   4.435  14.265 -0.1650 -0.5837 -0.2139
 9372SOL    HW139578   4.504   4.447  14.284 -0.6273 -0.8998  2.2273
 9372SOL    HW239579   4.388   4.428  14.358  0.6382  2.7341  0.2225
 9373SOL     OW39580   1.356   2.058   2.850 -0.0532 -0.9304  0.5412
 9373SOL    HW139581   1.376   2.005   2.773 -1.2997 -1.6157  0.6865
 9373SOL    HW239582   1.444   2.092   2.864 -1.1169  1.0815  2.3339
 9374SOL     OW39583   2.530   2.342   5.848 -0.1108  0.4466 -0.1933
 9374SOL    HW139584   2.466   2.340   5.777  0.3428 -0.5436 -0.5726
 9374SOL    HW239585   2.504   2.260   5.890 -0.1869  1.3078  1.4796
 9375SOL     OW39586   1.341   4.470   6.687  0.2013 -0.3172  0.0598
 9375SOL    HW139587   1.332   4.540   6.623  2.2210 -0.8644 -0.8086
 9375SOL    HW239588   1.412   4.502   6.742 -2.2489  1.4216  2.2184
 9376SOL     OW39589   3.815   1.265  15.946 -0.1502 -0.1949  0.2304
 9376SOL    HW139590   3.770   1.293  15.866 -1.7559 -1.1219  0.7967
 9376SOL    HW239591   3.902   1.281  15.910 -0.3227  1.7756  0.6987
 9377SOL     OW39592   0.527   0.650   4.643  0.1389 -0.2551  0.1073
 9377SOL    HW139593   0.447   0.643   4.591 -0.7662 -1.6303  1.6977
 9377SOL    HW239594   0.579   0.715   4.596  0.3598 -1.3868 -1.2340
 9378SOL     OW39595   1.079   1.941  16.100 -0.3499  0.5517 -0.3850
 9378SOL    HW139596   1.157   1.887  16.090  0.6051  1.6960  0.9366
 9378SOL    HW239597   1.020   1.890  16.044  1.1189 -0.3304 -1.1277
 9379SOL     OW39598   0.812   3.576   6.339 -0.3765  0.4969  0.2413
 9379SOL    HW139599   0.774   3.620   6.415 -0.3335 -0.0817  0.5964
 9379SOL    HW239600   0.774   3.626   6.268  0.1869 -0.3198 -0.6345
 9380SOL     OW39601   4.529   1.566   4.584  0.1300  0.0394  0.3893
 9380SOL    HW139602   4.471   1.601   4.517  0.1726 -1.1094 -0.2590
 9380SOL    HW239603   4.599   1.627   4.562  0.9910 -0.6205  1.2913
 9381SOL     OW39604   2.069   0.251   1.991 -0.2859  0.3612 -0.2996
 9381SOL    HW139605   2.084   0.336   1.949 -2.5295  0.7453 -0.3379
 9381SOL    HW239606   2.001   0.275   2.054 -0.1789 -0.7927  0.2528
 9382SOL     OW39607   4.345   2.687   8.007 -0.1938 -0.2078  0.2697
 9382SOL    HW139608   4.368   2.759   8.066 -1.6302 -1.6797  2.6315
 9382SOL    HW239609   4.382   2.614   8.056 -0.3337 -0.2988  0.2400
 9383SOL     OW39610   0.349   0.061   3.387 -0.3804  0.5861 -0.1215
 9383SOL    HW139611   0.428   0.113   3.370 -1.2391  1.1463 -2.3381
 9383SOL    HW239612   0.298   0.087   3.311 -1.2381 -2.0201 -0.4345
 9384SOL     OW39613   1.439   0.654  15.728  0.1488 -0.5220  0.0064
 9384SOL    HW139614   1.393   0.571  15.724 -1.2070  0.0931  2.4751
 9384SOL    HW239615   1.446   0.667  15.633  3.3064  1.2315  0.4935
 9385SOL     OW39616   3.383   2.133  13.946 -0.4657  0.3429  0.0866
 9385SOL    HW139617   3.296   2.095  13.940  0.0175 -0.7117 -0.2631
 9385SOL    HW239618   3.371   2.197  13.875  0.3285  0.7499  0.3176
 9386SOL     OW39619   3.220   0.262   2.026 -0.1754 -0.0709  0.1087
 9386SOL    HW139620   3.271   0.195   1.980 -0.9760  0.0123 -0.8999
 9386SOL    HW239621   3.183   0.316   1.956  0.8705 -0.2919 -0.6028
 9387SOL     OW39622   2.397   2.326   5.578  0.0236 -0.5417  0.2145
 9387SOL    HW139623   2.321   2.298   5.628 -0.1101 -3.0122 -1.3553
 9387SOL    HW239624   2.350   2.364   5.503 -1.8562 -1.4234  0.9579
 9388SOL     OW39625   3.086   4.095   2.390  0.2385 -0.0281  0.5215
 9388SOL    HW139626   3.104   4.027   2.325  1.9028  0.1441  0.8270
 9388SOL    HW239627   3.074   4.171   2.333  3.2142 -0.4668 -0.6336
 9389SOL     OW39628   2.933   4.074   7.960  0.3986 -0.1783  0.2772
 9389SOL    HW139629   2.909   4.027   7.880  0.4281  1.2693 -0.5769
 9389SOL    HW239630   3.028   4.078   7.948  0.2018  3.4155 -0.0963
 9390SOL     OW39631   0.961   1.454  14.609  0.3963 -0.9165  0.0418
 9390SOL    HW139632   0.943   1.364  14.581  0.2333 -1.6692  2.6122
 9390SOL    HW239633   0.892   1.477  14.671 -0.9355  0.1789 -1.8394
 9391SOL     OW39634   0.950   4.232   0.880  0.0031 -0.0158  0.4747
 9391SOL    HW139635   0.921   4.297   0.817  1.1948 -2.6077 -2.7373
 9391SOL    HW239636   1.004   4.177   0.823 -2.7093  0.1220 -2.1859
 9392SOL     OW39637   0.568   2.396   5.310  0.0509  0.1092  0.1862
 9392SOL    HW139638   0.591   2.400   5.403 -0.5317 -2.1775  0.4351
 9392SOL    HW239639   0.563   2.301   5.296 -0.3940  0.0358  0.8173
 9393SOL     OW39640   0.614   0.977  11.774  0.1071  0.2590  0.3686
 9393SOL    HW139641   0.522   0.972  11.747  0.1222  0.9408  0.1907
 9393SOL    HW239642   0.625   1.071  11.788 -0.5861  0.1692  1.5425
 9394SOL     OW39643   3.760   3.465   6.093 -1.1692 -0.1972 -0.3459
 9394SOL    HW139644   3.704   3.517   6.150 -0.8826  1.1870 -1.3364
 9394SOL    HW239645   3.802   3.530   6.037 -1.3412  0.7988  0.6770
 9395SOL     OW39646   2.293   0.864   6.376 -0.3176  0.4345  0.6448
 9395SOL    HW139647   2.290   0.899   6.287 -0.8500 -1.8986 -0.2527
 9395SOL    HW239648   2.372   0.906   6.412  0.2605  1.2293 -1.5520
 9396SOL     OW39649   0.297   0.545   4.154 -0.0201  0.6645 -0.0457
 9396SOL    HW139650   0.278   0.475   4.092  1.2625  1.1314 -0.9528
 9396SOL    HW239651   0.386   0.520   4.177 -1.3865 -1.4267  3.0837
 9397SOL     OW39652   3.049   1.747   0.951  0.1147  0.5663 -0.6203
 9397SOL    HW139653   3.052   1.808   0.878 -0.3510 -0.0294 -1.1387
 9397SOL    HW239654   3.024   1.667   0.905  0.7382 -0.5516  0.9803
 9398SOL     OW39655   2.598   2.826   1.328 -0.3900 -0.6435  0.3294
 9398SOL    HW139656   2.513   2.854   1.294 -0.6040  1.1012  2.3156
 9398SOL    HW239657   2.577   2.744   1.373 -2.0069 -0.8510 -0.8084
 9399SOL     OW39658   4.114   2.744   9.129 -0.2126  0.6641  0.8769
 9399SOL    HW139659   4.123   2.681   9.201  0.5975  1.2894  1.3223
 9399SOL    HW239660   4.080   2.685   9.062  0.3024 -0.4148  1.5526
 9400SOL     OW39661   4.082   0.977  16.775 -0.1189 -0.2553 -0.1305
 9400SOL    HW139662   4.000   0.947  16.813 -0.1035 -0.2520 -0.0949
 9400SOL    HW239663   4.062   0.989  16.682 -1.6680  1.2086  0.3812
 9401SOL     OW39664   4.147   3.444   9.872  0.0665  0.3193  0.0784
 9401SOL    HW139665   4.206   3.397   9.813 -1.3582 -1.3406 -0.0063
 9401SOL    HW239666   4.209   3.507   9.909  1.3275 -0.2003 -1.1596
 9402SOL     OW39667   0.038   1.555   9.033  0.0623  0.1341  0.4520
 9402SOL    HW139668   0.038   1.527   9.125 -2.0163  1.4817  0.8574
 9402SOL    HW239669   0.123   1.532   8.997 -0.3478 -0.4889 -0.1162
 9403SOL     OW39670   3.019   4.235   8.558 -0.4530  0.1466  0.0388
 9403SOL    HW139671   3.016   4.274   8.646  1.6459  1.6305 -0.5457
 9403SOL    HW239672   2.958   4.162   8.562  0.1101 -0.2837  0.8097
 9404SOL     OW39673   0.426   0.506   1.197 -0.0294 -0.0354 -1.1920
 9404SOL    HW139674   0.424   0.432   1.136 -0.5899 -1.1882  0.2362
 9404SOL    HW239675   0.342   0.541   1.165 -1.5524 -0.2098  2.6701
 9405SOL     OW39676   1.278   4.115   3.768  0.0352 -0.8667  0.2789
 9405SOL    HW139677   1.351   4.072   3.812  1.3525  1.9945  0.9023
 9405SOL    HW239678   1.225   4.145   3.841  0.0813  0.1001 -0.0809
 9406SOL     OW39679   4.647   2.228   6.542  0.2195  0.4006 -0.2164
 9406SOL    HW139680   4.647   2.212   6.636 -1.0271 -1.2909 -0.4831
 9406SOL    HW239681   0.011   2.245   6.528  0.7943 -0.7454  2.2487
 9407SOL     OW39682   3.418   0.150  14.971 -0.1255 -0.4363  0.4472
 9407SOL    HW139683   3.472   0.094  14.916  0.8006 -0.7546  1.6657
 9407SOL    HW239684   3.428   0.238  14.934 -1.2404 -0.7188 -0.5186
 9408SOL     OW39685   4.433   0.110   7.069  0.3208 -0.2480 -0.3218
 9408SOL    HW139686   4.506   0.158   7.029  1.6862 -1.4280  0.7140
 9408SOL    HW239687   4.468   0.021   7.073  0.6706 -0.1714 -1.6504
 9409SOL     OW39688   1.657   1.790   6.701 -0.1457  0.4092 -0.3484
 9409SOL    HW139689   1.573   1.837   6.704  0.6725  1.6318  3.4610
 9409SOL    HW239690   1.651   1.749   6.788 -0.4600  1.4053  0.1018
 9410SOL     OW39691   3.800   3.661   5.664 -0.2054 -0.1934 -0.1412
 9410SOL    HW139692   3.717   3.662   5.616 -1.5538  2.1107  2.2815
 9410SOL    HW239693   3.838   3.745   5.641 -0.3761 -0.2219 -0.5258
 9411SOL     OW39694   4.533   3.167   8.985  0.1303  0.4031 -0.1343
 9411SOL    HW139695   4.620   3.170   8.944 -0.5546 -0.6693 -1.6417
 9411SOL    HW239696   4.523   3.072   8.980 -1.1376  0.6212 -1.3920
 9412SOL     OW39697   3.816   3.915   8.001  0.3527 -0.2228  0.6842
 9412SOL    HW139698   3.883   3.930   7.934  0.4247 -5.0397 -0.2895
 9412SOL    HW239699   3.836   3.829   8.039 -0.6021 -0.7671 -0.0644
 9413SOL     OW39700   3.094   0.788   3.968  0.3153 -0.8633  0.7744
 9413SOL    HW139701   3.185   0.817   3.967  0.3945 -1.1199  0.3515
 9413SOL    HW239702   3.046   0.836   3.900  0.9086 -0.6040  0.5393
 9414SOL     OW39703   3.029   2.589   3.006  0.2023 -0.0094  0.2984
 9414SOL    HW139704   3.101   2.527   2.996 -1.4759 -1.7686 -0.8635
 9414SOL    HW239705   3.016   2.612   2.914  0.6669 -2.5174 -0.3779
 9415SOL     OW39706   2.159   0.768   2.141  0.2014 -0.2304  0.1169
 9415SOL    HW139707   2.231   0.706   2.149  0.7333  0.4413  0.5549
 9415SOL    HW239708   2.218   0.838   2.113 -1.5462  1.8404  1.5232
 9416SOL     OW39709   1.237   3.292   3.988 -0.1897  0.0700  0.1364
 9416SOL    HW139710   1.329   3.267   3.988 -0.1207  0.3320 -2.0918
 9416SOL    HW239711   1.234   3.371   4.042 -0.7080  0.6238 -0.7227
 9417SOL     OW39712   1.305   1.235   6.786 -0.2506  0.4238  0.3262
 9417SOL    HW139713   1.369   1.271   6.847  0.0826  0.0433  0.2011
 9417SOL    HW239714   1.352   1.237   6.702 -0.5330  1.2759  0.1884
 9418SOL     OW39715   0.560   0.630  12.121 -0.1715 -0.0026 -0.1580
 9418SOL    HW139716   0.554   0.712  12.169 -1.3341  0.9762 -1.9479
 9418SOL    HW239717   0.581   0.661  12.033 -1.9041 -2.3546 -1.4183
 9419SOL     OW39718   0.958   3.081   3.196  0.6347 -0.1966  0.0154
 9419SOL    HW139719   0.966   3.123   3.282 -1.3002  0.4394 -0.1152
 9419SOL    HW239720   0.967   3.147   3.128  0.9365  1.0167  1.2271
 9420SOL     OW39721   2.176   0.437   6.312  0.5131 -0.3364  0.3515
 9420SOL    HW139722   2.111   0.507   6.300  0.2878 -0.2776  1.8927
 9420SOL    HW239723   2.148   0.378   6.243 -0.5315  0.7559 -0.1546
 9421SOL     OW39724   1.077   2.067   4.265  0.1128 -0.2132 -0.0947
 9421SOL    HW139725   1.103   1.982   4.301  0.5125  0.2712  0.7553
 9421SOL    HW239726   1.069   2.051   4.171  0.2226 -1.1530  0.0568
 9422SOL     OW39727   2.678   0.024   2.226  0.3199 -0.0348 -0.1040
 9422SOL    HW139728   2.647   0.106   2.189  1.4713  0.4551  0.0275
 9422SOL    HW239729   2.747   0.053   2.285 -0.5501  1.6787  0.0685
 9423SOL     OW39730   1.611   3.942  11.380  0.4600  0.0477 -0.1560
 9423SOL    HW139731   1.678   3.881  11.411 -0.5344 -0.3841  1.1141
 9423SOL    HW239732   1.588   3.970  11.468 -0.2474  1.1469 -0.6871
 9424SOL     OW39733   2.804   0.644   3.194  0.2918  0.3294 -0.5459
 9424SOL    HW139734   2.733   0.671   3.252  0.2208  1.2490 -1.0644
 9424SOL    HW239735   2.754   0.612   3.119  0.5963  0.2590 -0.7202
 9425SOL     OW39736   2.878   4.317   7.485  0.2530 -0.3451  0.0600
 9425SOL    HW139737   2.850   4.230   7.515 -1.3402  0.1560  0.0195
 9425SOL    HW239738   2.937   4.341   7.556  1.3770 -1.1463 -0.6062
 9426SOL     OW39739   1.779   1.863   7.624  0.1046  0.2207 -0.0110
 9426SOL    HW139740   1.754   1.949   7.658 -1.8741 -0.4028  0.1005
 9426SOL    HW239741   1.807   1.883   7.535 -1.7188 -1.1483 -0.8699
 9427SOL     OW39742   0.109   2.695   4.726 -0.1363 -0.3325  0.1770
 9427SOL    HW139743   0.156   2.711   4.644  0.2381  1.3692  0.7268
 9427SOL    HW239744   0.160   2.737   4.796 -1.7744  2.5747 -0.3823
 9428SOL     OW39745   1.084   2.364   3.968 -0.2691  0.6183 -0.1401
 9428SOL    HW139746   1.063   2.295   3.905 -0.8835 -0.4141  1.2211
 9428SOL    HW239747   1.034   2.339   4.045 -0.7851  0.3660 -0.5541
 9429SOL     OW39748   0.316   3.176   8.211  0.2119 -0.2423 -0.2685
 9429SOL    HW139749   0.266   3.213   8.138 -0.0752 -1.8111 -0.8621
 9429SOL    HW239750   0.364   3.108   8.163  0.6124 -0.4762  0.4740
 9430SOL     OW39751   1.741   3.112   7.758 -0.2850  0.1211  0.1725
 9430SOL    HW139752   1.776   3.036   7.804 -0.6912  1.3800  2.5761
 9430SOL    HW239753   1.650   3.083   7.755 -0.1861 -0.3554  1.8961
 9431SOL     OW39754   3.049   3.704   8.520  0.0560 -0.5656  0.3357
 9431SOL    HW139755   3.104   3.689   8.597  0.5479  0.4840  0.1867
 9431SOL    HW239756   3.025   3.796   8.532 -2.6326 -1.2756  0.4023
 9432SOL     OW39757   4.126   3.792   3.549  0.7991 -0.3669  0.0175
 9432SOL    HW139758   4.164   3.821   3.632  1.6158 -0.1895 -0.4197
 9432SOL    HW239759   4.202   3.774   3.494 -0.6529 -2.6356 -1.2264
 9433SOL     OW39760   1.579   2.011   4.586 -0.0454 -0.2273  0.2169
 9433SOL    HW139761   1.487   1.992   4.605 -0.1650 -1.1593 -1.2705
 9433SOL    HW239762   1.561   2.093   4.540  3.2017 -0.0719 -0.7543
 9434SOL     OW39763   2.821   0.370   7.822  0.3750  0.0079  0.6432
 9434SOL    HW139764   2.822   0.462   7.847  0.0130  0.0657  0.4461
 9434SOL    HW239765   2.794   0.325   7.902  1.7196 -2.0255 -0.0386
 9435SOL     OW39766   4.411   2.912   8.548  0.2975  0.3624 -0.2758
 9435SOL    HW139767   4.366   2.910   8.632  1.8009 -1.1626  0.4708
 9435SOL    HW239768   4.501   2.895   8.576  0.3520 -0.2419 -0.8104
 9436SOL     OW39769   1.184   2.170   6.455  0.2798 -0.2613 -0.1575
 9436SOL    HW139770   1.250   2.133   6.514 -1.0575 -0.2660  1.3216
 9436SOL    HW239771   1.149   2.095   6.406 -0.7281  0.0857  0.0277
 9437SOL     OW39772   0.368   0.233   5.810 -0.1977 -0.2740 -0.6155
 9437SOL    HW139773   0.431   0.254   5.741  1.9655  0.6401  1.6424
 9437SOL    HW239774   0.419   0.254   5.888 -1.6997 -0.0338  0.2932
 9438SOL     OW39775   2.056   2.783   3.127  0.1966 -1.1433  0.3943
 9438SOL    HW139776   2.133   2.834   3.152  0.4606 -1.0602 -0.6069
 9438SOL    HW239777   2.040   2.810   3.037  4.2281  0.1165  0.0848
 9439SOL     OW39778   3.968   0.302   7.854  0.3165 -0.3819  0.2884
 9439SOL    HW139779   3.926   0.369   7.800 -0.3984  0.0520  1.3912
 9439SOL    HW239780   4.058   0.331   7.872  0.9359 -2.1625  0.0980
 9440SOL     OW39781   2.648   1.507   1.492 -0.2556  0.0244 -0.4984
 9440SOL    HW139782   2.611   1.441   1.551 -2.1103  0.7756 -0.8263
 9440SOL    HW239783   2.622   1.589   1.532 -0.8751 -0.8845  0.9521
 9441SOL     OW39784   4.354   1.765   1.248 -0.2903  0.1283 -0.3547
 9441SOL    HW139785   4.304   1.840   1.213 -2.1410 -1.4096 -0.9873
 9441SOL    HW239786   4.311   1.686   1.215  1.7639 -0.4322 -1.7217
 9442SOL     OW39787   0.209   0.041   5.665  0.3448  0.3119  0.2028
 9442SOL    HW139788   0.255   0.115   5.704 -0.4583  0.4013  0.9995
 9442SOL    HW239789   0.259   4.700   5.707  2.6257  1.0745 -1.2947
 9443SOL     OW39790   4.580   3.092  15.871  0.4011  0.6073  0.4913
 9443SOL    HW139791   4.590   3.138  15.788  0.3685 -1.1217 -0.4801
 9443SOL    HW239792   4.533   3.160  15.919  1.6061  1.8763 -0.1562
 9444SOL     OW39793   0.649   4.708   8.245  0.2793  0.3515 -0.0820
 9444SOL    HW139794   0.703   4.677   8.173  0.8704  1.3760 -0.0838
 9444SOL    HW239795   0.596   4.628   8.250 -1.7977  1.8335  1.7818
 9445SOL     OW39796   2.742   1.319   5.830 -0.2140  0.1965 -0.4868
 9445SOL    HW139797   2.675   1.307   5.762  0.3253 -0.4455 -0.8983
 9445SOL    HW239798   2.820   1.336   5.777  0.3140 -1.6061 -0.2797
 9446SOL     OW39799   1.744   1.834   4.055  0.3321 -0.4769  0.4021
 9446SOL    HW139800   1.788   1.867   3.978 -0.8309  1.0449  0.4005
 9446SOL    HW239801   1.653   1.838   4.026  0.5298 -0.2709 -0.1871
 9447SOL     OW39802   0.220   4.220   4.434 -0.0804 -0.0080  0.0761
 9447SOL    HW139803   0.156   4.202   4.365 -1.9286  0.0166  1.7775
 9447SOL    HW239804   0.282   4.262   4.374 -0.1619 -0.0792 -0.0580
 9448SOL     OW39805   2.571   2.419  16.246 -0.1745  0.1859  0.2394
 9448SOL    HW139806   2.645   2.447  16.191  0.2880 -4.2674 -1.3489
 9448SOL    HW239807   2.529   2.504  16.256 -1.4423 -0.7742  2.8400
 9449SOL     OW39808   4.363   4.719  14.524  0.2459  1.1404  0.1842
 9449SOL    HW139809   4.406   0.024  14.445  1.7430  2.0961  1.4098
 9449SOL    HW239810   4.387   4.626  14.521  2.1146  1.6362 -0.3225
 9450SOL     OW39811   1.837   1.004   0.443  0.0502  0.3717  0.4296
 9450SOL    HW139812   1.847   1.059   0.521  0.7554  1.4157 -0.3889
 9450SOL    HW239813   1.836   0.916   0.481  1.6161  0.4603  0.6726
 9451SOL     OW39814   3.440   1.012   8.308 -0.4562 -0.4754  0.0468
 9451SOL    HW139815   3.475   1.044   8.392  0.3994 -1.1749 -0.0359
 9451SOL    HW239816   3.515   1.031   8.251 -1.4719  0.4419 -0.9679
 9452SOL     OW39817   2.298   2.819   4.071 -0.2218 -0.6201  0.5006
 9452SOL    HW139818   2.236   2.761   4.116  1.0642 -4.6282 -2.9806
 9452SOL    HW239819   2.375   2.825   4.128  0.6238  0.0043 -0.7261
 9453SOL     OW39820   0.716   0.524   1.126  0.3608 -0.4147  0.1277
 9453SOL    HW139821   0.666   0.464   1.181 -1.1455  0.5598 -0.1743
 9453SOL    HW239822   0.653   0.530   1.054  1.9754  0.2487 -1.2135
 9454SOL     OW39823   1.919   3.158   6.827  0.2583  0.0017 -0.5587
 9454SOL    HW139824   1.971   3.096   6.878  1.0166  0.1185 -1.1978
 9454SOL    HW239825   1.983   3.227   6.809 -0.8860  1.6808  1.7416
 9455SOL     OW39826   2.435   0.087   1.172  0.0756 -0.1080  0.3289
 9455SOL    HW139827   2.420   0.046   1.087 -1.6408  0.3161  0.4102
 9455SOL    HW239828   2.520   0.052   1.196  0.8935  1.3939 -0.4103
 9456SOL     OW39829   1.877   2.334   7.593  0.2994 -0.1211 -0.2406
 9456SOL    HW139830   1.965   2.357   7.623 -0.2691  0.6793  0.8323
 9456SOL    HW239831   1.843   2.419   7.564  0.2857  1.1386  3.5558
 9457SOL     OW39832   3.456   1.345   2.493  0.4660 -0.0552 -0.2732
 9457SOL    HW139833   3.500   1.381   2.416 -0.1433 -1.8636 -1.4721
 9457SOL    HW239834   3.379   1.402   2.495  0.3093 -0.2958  0.6332
 9458SOL     OW39835   1.094   4.554   8.275 -0.6001  0.0457  0.1446
 9458SOL    HW139836   1.057   4.468   8.255 -0.8923 -0.6002  3.3893
 9458SOL    HW239837   1.189   4.541   8.276 -0.8162 -1.6004 -1.0513
 9459SOL     OW39838   2.093   4.707  17.243 -0.3787 -0.1024  0.5915
 9459SOL    HW139839   2.171   4.651  17.248 -2.0083 -2.3807  0.7192
 9459SOL    HW239840   2.019   4.650  17.221 -0.1049 -0.4085  0.4573
 9460SOL     OW39841   2.417   2.072  15.473 -0.1342  0.3716  0.1983
 9460SOL    HW139842   2.492   2.130  15.475  0.5657 -0.5833  1.6430
 9460SOL    HW239843   2.370   2.084  15.555  0.0150 -0.0698  0.3464
 9461SOL     OW39844   3.636   1.062   8.134  0.0064  0.6292  0.2622
 9461SOL    HW139845   3.698   0.992   8.154 -1.1436  0.0850  1.9748
 9461SOL    HW239846   3.697   1.136   8.127  0.0561  0.5535 -0.0889
 9462SOL     OW39847   0.791   3.017   7.441  0.1588  0.4031  0.0963
 9462SOL    HW139848   0.758   3.089   7.494 -1.5560 -1.1911  1.1724
 9462SOL    HW239849   0.841   2.967   7.506  2.1837 -1.7509 -3.0851
 9463SOL     OW39850   4.058   0.139   8.732 -0.8105 -0.3041  0.1784
 9463SOL    HW139851   4.000   0.167   8.804  0.2593  0.5161  0.7191
 9463SOL    HW239852   4.061   0.045   8.749 -2.1336 -0.2690  0.6229
 9464SOL     OW39853   3.559   4.332   2.231 -0.5821 -0.0712 -0.0127
 9464SOL    HW139854   3.505   4.321   2.153 -0.5698 -1.0823  0.1190
 9464SOL    HW239855   3.490   4.301   2.290  0.2100  0.1039  1.0111
 9465SOL     OW39856   2.831   2.995   7.875 -0.2989  0.0540  0.0297
 9465SOL    HW139857   2.828   3.080   7.831 -0.6345 -0.4671 -0.9645
 9465SOL    HW239858   2.873   3.022   7.956  1.2471  0.0022 -0.7652
 9466SOL     OW39859   4.019   3.135   7.461 -0.0217  0.2478 -0.2182
 9466SOL    HW139860   4.056   3.111   7.546 -2.4655 -4.8356 -0.5785
 9466SOL    HW239861   4.101   3.160   7.418 -0.2917 -2.3107 -2.2639
 9467SOL     OW39862   1.870   1.896  13.513  0.3251 -0.4405  0.1280
 9467SOL    HW139863   1.928   1.828  13.478  0.4294 -0.2229 -0.1247
 9467SOL    HW239864   1.783   1.879  13.478  0.3891  1.9132 -1.1260
 9468SOL     OW39865   3.064   3.420   5.447  0.1721  1.2088  0.2183
 9468SOL    HW139866   2.988   3.377   5.409  0.4616 -0.1524  1.1670
 9468SOL    HW239867   3.083   3.472   5.369 -2.5775  0.5404 -0.9132
 9469SOL     OW39868   4.590   4.018   5.640  0.1546 -0.0354  0.4649
 9469SOL    HW139869   4.630   3.985   5.560  0.4693  0.7296  0.3126
 9469SOL    HW239870   4.664   4.018   5.700 -0.1753  0.1993  0.8728
 9470SOL     OW39871   4.103   0.607   4.592 -0.6481  0.4492 -0.2523
 9470SOL    HW139872   4.150   0.633   4.513 -1.4328 -0.5310 -1.0264
 9470SOL    HW239873   4.175   0.595   4.655 -0.0939  3.5065 -0.2965
 9471SOL     OW39874   0.089   0.700   8.808  0.2385  0.8464 -0.4578
 9471SOL    HW139875   0.107   0.619   8.761 -1.1965  1.1190 -1.4807
 9471SOL    HW239876   0.112   0.680   8.899  0.7124 -0.6003 -0.9024
 9472SOL     OW39877   2.929   0.139   4.139 -0.2848  0.0863 -0.2414
 9472SOL    HW139878   2.960   0.091   4.216  4.1795  0.6674 -1.6923
 9472SOL    HW239879   3.012   0.152   4.094 -0.8817 -1.1898 -1.6816
 9473SOL     OW39880   2.904   2.207   4.560  0.1530 -0.7324 -0.2281
 9473SOL    HW139881   2.927   2.172   4.474 -1.4984 -2.7348  0.1422
 9473SOL    HW239882   2.853   2.130   4.586 -0.1392  0.1563  1.8089
 9474SOL     OW39883   3.865   1.795  11.796  0.4947 -0.4150 -0.3834
 9474SOL    HW139884   3.816   1.865  11.753 -0.1249  0.3093  1.4952
 9474SOL    HW239885   3.802   1.724  11.791  0.6038 -0.4095 -1.6743
 9475SOL     OW39886   0.370   3.226   2.032 -0.5785  0.7664 -0.4179
 9475SOL    HW139887   0.465   3.220   2.048 -0.4543 -0.3151 -1.5246
 9475SOL    HW239888   0.379   3.288   1.959 -1.6553  1.7142  0.2704
 9476SOL     OW39889   1.900   1.321   6.346 -0.0458  0.0326 -0.0539
 9476SOL    HW139890   1.966   1.365   6.400 -0.3717  0.5332 -0.0568
 9476SOL    HW239891   1.837   1.391   6.330 -0.2479 -0.3838 -1.0372
 9477SOL     OW39892   0.278   0.822   2.952  0.5631  0.3180 -0.1066
 9477SOL    HW139893   0.308   0.906   2.987  0.2025  0.2111  0.4686
 9477SOL    HW239894   0.311   0.828   2.863  4.2165 -1.4498  1.1334
 9478SOL     OW39895   0.944   4.502  11.349  0.1404  0.3882  0.3003
 9478SOL    HW139896   0.974   4.499  11.440 -1.4034 -0.2100  0.7795
 9478SOL    HW239897   0.923   4.593  11.332  1.3114  0.4681 -0.7723
 9479SOL     OW39898   4.427   1.200   6.355  0.6315 -0.0152 -0.1778
 9479SOL    HW139899   4.349   1.155   6.322  2.9366 -3.2736 -1.1438
 9479SOL    HW239900   4.483   1.131   6.319 -2.6241 -2.6409 -0.2451
 9480SOL     OW39901   1.764   0.889   8.156  0.1195 -0.5814  0.3706
 9480SOL    HW139902   1.764   0.920   8.247 -2.0135 -0.1982  0.2312
 9480SOL    HW239903   1.801   0.972   8.124 -0.7459 -0.2197  0.2957
 9481SOL     OW39904   1.535   1.204   3.600  0.3478  0.2592  0.6190
 9481SOL    HW139905   1.519   1.220   3.693  0.0632  1.8171  0.2891
 9481SOL    HW239906   1.630   1.191   3.591  0.1449 -0.0200 -1.1345
 9482SOL     OW39907   2.527   0.163   5.574  0.6145 -0.2166  0.3708
 9482SOL    HW139908   2.610   0.141   5.532  0.7909  2.2704 -0.5567
 9482SOL    HW239909   2.463   0.137   5.507  0.8422  2.7583 -1.0015
 9483SOL     OW39910   2.277   3.030   1.102 -0.0720 -0.2827  0.3337
 9483SOL    HW139911   2.199   3.064   1.057  0.8185 -1.4850 -2.1274
 9483SOL    HW239912   2.318   3.107   1.141  1.6646 -0.3263 -1.3825
 9484SOL     OW39913   0.968   0.480   5.984  0.3226  0.1327 -0.1933
 9484SOL    HW139914   1.027   0.438   5.921 -1.1059  1.2768 -2.3182
 9484SOL    HW239915   0.996   0.571   5.994  3.2882 -0.9884  1.5584
 9485SOL     OW39916   1.782   0.113  14.257  0.3119 -0.2300 -0.0119
 9485SOL    HW139917   1.700   0.162  14.255  0.0266 -0.7603 -1.2390
 9485SOL    HW239918   1.762   0.020  14.257 -2.4058  0.3652  3.2728
 9486SOL     OW39919   4.318   2.650  13.516 -0.3384 -0.1216 -0.4054
 9486SOL    HW139920   4.340   2.557  13.513 -1.8948 -0.4569 -1.7249
 9486SOL    HW239921   4.258   2.655  13.591  0.0137 -0.4011 -0.1114
 9487SOL     OW39922   0.190   1.491   7.279  0.2304 -0.0226 -0.4215
 9487SOL    HW139923   0.201   1.557   7.210  1.2831 -0.2487 -0.4627
 9487SOL    HW239924   0.282   1.464   7.280  0.1950 -0.0786  0.5808
 9488SOL     OW39925   3.041   2.877   9.390  0.6281  0.5792  0.3083
 9488SOL    HW139926   2.977   2.942   9.417 -0.3795 -0.8097  1.2544
 9488SOL    HW239927   3.022   2.807   9.452  0.7151 -0.8474 -1.2525
 9489SOL     OW39928   0.816   4.081   1.611  0.2984  0.0293  0.1989
 9489SOL    HW139929   0.744   4.019   1.595 -1.8869  2.6875 -0.3983
 9489SOL    HW239930   0.881   4.020   1.645  1.1741  1.6261  1.3314
 9490SOL     OW39931   0.969   3.277   3.448  0.2717 -0.3910 -0.4049
 9490SOL    HW139932   0.965   3.326   3.530  3.2508 -0.8127  0.0186
 9490SOL    HW239933   0.906   3.325   3.394 -1.0212 -0.5680  0.9432
 9491SOL     OW39934   0.719   1.757   9.950  0.2788  0.4610 -0.3045
 9491SOL    HW139935   0.730   1.681  10.007 -1.0743  1.2272  0.9858
 9491SOL    HW239936   0.800   1.806   9.966  1.0183 -0.8826  0.0031
 9492SOL     OW39937   2.176   3.276   2.692 -0.1164 -0.4011 -0.1533
 9492SOL    HW139938   2.220   3.361   2.686  1.1721 -1.0250  0.4407
 9492SOL    HW239939   2.109   3.276   2.761 -0.0904 -0.2826 -0.1289
 9493SOL     OW39940   1.430   0.222   7.318 -0.1440 -0.7479  0.0158
 9493SOL    HW139941   1.486   0.298   7.331  0.4931 -1.3807  0.9484
 9493SOL    HW239942   1.471   0.202   7.234  0.1930 -0.8750  0.2111
 9494SOL     OW39943   4.427   2.120  16.092  0.3559 -1.0702 -0.0856
 9494SOL    HW139944   4.425   2.081  16.180  2.1095  1.3140  1.0129
 9494SOL    HW239945   4.412   2.035  16.050 -1.2890 -0.2637 -1.1370
 9495SOL     OW39946   0.779   4.039   4.038  0.4253 -0.5235  0.4270
 9495SOL    HW139947   0.787   4.045   4.133  0.5420  0.5738  0.3482
 9495SOL    HW239948   0.788   3.944   4.026 -0.6255 -0.7950  1.8246
 9496SOL     OW39949   3.298   3.383   7.652  0.2898  0.0223 -0.3018
 9496SOL    HW139950   3.361   3.384   7.580  0.4519 -0.4647 -0.1708
 9496SOL    HW239951   3.333   3.320   7.715 -1.4578 -0.1371  0.5103
 9497SOL     OW39952   0.533   2.257   2.811  0.2931  0.2695  0.5670
 9497SOL    HW139953   0.559   2.232   2.723 -1.4845 -3.1620  1.0120
 9497SOL    HW239954   0.593   2.331   2.819 -0.3964  1.0189 -1.2737
 9498SOL     OW39955   2.102   2.277   3.158  0.2934 -0.3400  0.7760
 9498SOL    HW139956   2.117   2.368   3.132  1.5977 -0.9335 -0.5622
 9498SOL    HW239957   2.136   2.273   3.248  2.5266  1.2645  0.0125
 9499SOL     OW39958   4.169   1.653   9.276  0.0012  0.6237  0.5611
 9499SOL    HW139959   4.255   1.674   9.238  0.1253 -0.0363  0.4745
 9499SOL    HW239960   4.117   1.654   9.195  1.7172  1.2859 -0.5469
 9500SOL     OW39961   4.395   1.460   8.556  0.2771  0.2499 -0.2505
 9500SOL    HW139962   4.396   1.407   8.636 -1.2568  1.0319  0.2905
 9500SOL    HW239963   4.312   1.505   8.572  1.0029  1.2966  0.5468
 9501SOL     OW39964   0.938   2.245   3.354  0.1683  0.1234  0.0785
 9501SOL    HW139965   0.882   2.212   3.425  0.0976  1.6722  0.7431
 9501SOL    HW239966   0.894   2.210   3.277  0.2370 -1.9701  0.9910
 9502SOL     OW39967   3.312   3.688   4.353  0.4535 -0.2212 -0.2669
 9502SOL    HW139968   3.314   3.757   4.419  0.5860 -0.3850 -0.1000
 9502SOL    HW239969   3.405   3.684   4.329  0.5215  0.0513 -0.0499
 9503SOL     OW39970   0.493   0.779  11.452 -0.6947 -0.8337 -0.0268
 9503SOL    HW139971   0.498   0.708  11.515  3.2103 -0.1643  0.4165
 9503SOL    HW239972   0.471   0.854  11.508  2.6665  0.6502 -0.6797
 9504SOL     OW39973   2.890   1.182   4.798  0.8308 -0.1644  0.3841
 9504SOL    HW139974   2.921   1.155   4.712 -1.0627 -0.4594 -0.2221
 9504SOL    HW239975   2.969   1.173   4.851  1.5509 -0.4443 -0.7543
 9505SOL     OW39976   0.845   0.215   5.719 -0.4668  0.3637  0.1049
 9505SOL    HW139977   0.762   0.174   5.694 -0.1600 -1.0779  1.4467
 9505SOL    HW239978   0.866   0.252   5.633  3.3550 -3.1593 -0.4939
 9506SOL     OW39979   2.730   3.010   1.955  0.0730  0.1889  0.0646
 9506SOL    HW139980   2.654   2.969   1.996 -1.7390  2.3741 -1.0898
 9506SOL    HW239981   2.697   3.060   1.880  1.3038 -1.7692 -1.7991
 9507SOL     OW39982   1.530   0.250  12.452  0.8598 -0.0427 -0.1794
 9507SOL    HW139983   1.502   0.270  12.541 -0.4972 -1.4383 -0.2820
 9507SOL    HW239984   1.539   0.155  12.464  0.6892  0.1631  1.5102
 9508SOL     OW39985   1.819   1.926   4.765  0.6691  0.2476  0.0305
 9508SOL    HW139986   1.847   1.850   4.816 -1.9751 -1.4391 -1.0196
 9508SOL    HW239987   1.895   1.984   4.768 -0.1289  1.2318  0.7914
 9509SOL     OW39988   1.485   1.041   5.717 -0.5892 -0.1177 -0.4304
 9509SOL    HW139989   1.575   1.072   5.721 -0.9064  0.4022  2.4854
 9509SOL    HW239990   1.480   0.982   5.792 -0.8358 -1.3766 -1.4393
 9510SOL     OW39991   3.424   1.764   5.080 -0.0121  0.6708  0.1198
 9510SOL    HW139992   3.511   1.753   5.119 -0.0445  1.7489  0.5014
 9510SOL    HW239993   3.367   1.731   5.149  0.4726  0.0309  0.2128
 9511SOL     OW39994   0.020   0.367   9.210  0.0874 -0.1364 -0.2732
 9511SOL    HW139995   4.696   0.417   9.271 -1.4460 -0.1436 -1.6085
 9511SOL    HW239996   4.686   0.358   9.139  0.4916  1.7864 -0.8774
 9512SOL     OW39997   0.806   2.781  15.408  0.2281 -0.2646 -0.5309
 9512SOL    HW139998   0.901   2.778  15.423  0.3065 -2.5431 -1.3909
 9512SOL    HW239999   0.776   2.690  15.418 -0.9107  0.1432 -0.3360
 9513SOL     OW40000   1.172   1.389   8.384 -0.4850  0.1805 -0.5932
 9513SOL    HW140001   1.100   1.326   8.374  0.2556 -0.2937 -3.0724
 9513SOL    HW240002   1.119   1.468   8.391 -0.8498  0.1060 -2.3099
 9514SOL     OW40003   4.262   3.697   6.176  0.0196 -0.5377  0.5361
 9514SOL    HW140004   4.265   3.734   6.087  0.5756  2.1586  1.6970
 9514SOL    HW240005   4.214   3.764   6.224  0.5209  0.7953 -0.8136
 9515SOL     OW40006   1.519   3.361  15.107 -0.3718  0.1142 -0.1213
 9515SOL    HW140007   1.598   3.328  15.150  0.8093 -0.9865 -3.1076
 9515SOL    HW240008   1.544   3.453  15.097 -2.0651  0.3978 -1.8440
 9516SOL     OW40009   4.607   3.013   0.032  0.2375  0.2961  0.0851
 9516SOL    HW140010   4.570   2.977  17.667 -2.1300  5.2719 -1.0530
 9516SOL    HW240011   4.570   2.949   0.093 -2.9567  3.3519  1.3533
 9517SOL     OW40012   0.153   0.191  16.872  0.2387 -0.0866  0.2158
 9517SOL    HW140013   0.215   0.172  16.802  0.7505  1.2880  0.2949
 9517SOL    HW240014   0.190   0.139  16.943 -0.0827  0.4362  0.7571
 9518SOL     OW40015   3.887   2.488   7.901  0.2628 -0.2625 -0.0269
 9518SOL    HW140016   3.890   2.393   7.914  2.7819 -0.2730 -0.6454
 9518SOL    HW240017   3.942   2.500   7.978 -1.0301 -2.2647  1.1928
 9519SOL     OW40018   4.268   4.039   2.993  0.1268 -0.3339  0.3278
 9519SOL    HW140019   4.340   4.009   2.937 -0.4524 -3.6825  1.4185
 9519SOL    HW240020   4.299   4.000   3.074 -1.4233 -1.4314  0.3936
 9520SOL     OW40021   4.365   1.662   7.929  0.0568  0.1898 -0.0761
 9520SOL    HW140022   4.446   1.707   7.953 -0.1511  1.5199 -1.8105
 9520SOL    HW240023   4.399   1.616   7.852 -3.1285 -1.3766 -0.5417
 9521SOL     OW40024   3.361   1.126   5.056  0.1259 -0.0916  0.0636
 9521SOL    HW140025   3.413   1.110   5.135  0.1563 -0.4460 -0.0256
 9521SOL    HW240026   3.321   1.041   5.035 -0.7893  0.1349  0.8620
 9522SOL     OW40027   3.097   2.814  13.922  0.5581  0.4490  0.5417
 9522SOL    HW140028   3.004   2.808  13.900  0.2266  2.6522  1.2881
 9522SOL    HW240029   3.106   2.910  13.926 -0.8149  0.6458 -1.1805
 9523SOL     OW40030   3.047   1.056  11.156 -0.4206  0.2025 -0.7808
 9523SOL    HW140031   3.047   1.151  11.147  0.1324 -0.0483 -3.4211
 9523SOL    HW240032   3.135   1.034  11.125 -0.0047  0.3995  0.2722
 9524SOL     OW40033   2.356   1.663   7.071 -0.2247  0.2866 -0.6270
 9524SOL    HW140034   2.392   1.752   7.066  2.0408 -0.5813  0.3062
 9524SOL    HW240035   2.375   1.657   7.165 -0.7552 -1.2261 -0.6212
 9525SOL     OW40036   0.801   1.730   7.547  0.1814  0.5936 -0.1001
 9525SOL    HW140037   0.784   1.746   7.455  0.7683  1.3727 -0.0776
 9525SOL    HW240038   0.756   1.800   7.595  0.9346  0.2102  1.1829
 9526SOL     OW40039   4.587   2.114   5.109  0.2493 -0.4838  0.7927
 9526SOL    HW140040   4.683   2.112   5.103  0.1913  0.4952 -0.4892
 9526SOL    HW240041   4.573   2.200   5.070  3.0128  0.1779  1.2408
 9527SOL     OW40042   4.566   4.603   6.428 -0.3384  1.0522  0.1584
 9527SOL    HW140043   4.490   4.614   6.484 -0.8929  0.0642 -0.3837
 9527SOL    HW240044   4.576   4.694   6.401 -1.6500  0.1866 -3.1926
 9528SOL     OW40045   3.264   1.946   6.806  0.1647  0.5756  0.7081
 9528SOL    HW140046   3.257   2.026   6.754 -0.5869 -1.5327 -2.4141
 9528SOL    HW240047   3.329   1.975   6.870  2.2373  0.0653 -1.1694
 9529SOL     OW40048   2.506   4.032  10.023  0.4402 -0.1212 -0.3102
 9529SOL    HW140049   2.592   4.059  10.055 -0.1945  1.3827  0.1350
 9529SOL    HW240050   2.497   3.960  10.085 -0.1120 -0.1853 -0.4650
 9530SOL     OW40051   4.474   3.290   3.326 -0.1178 -0.2357  0.0722
 9530SOL    HW140052   4.412   3.247   3.386 -1.8011  2.5742  0.3914
 9530SOL    HW240053   4.414   3.345   3.276 -0.2184 -1.9726 -1.6935
 9531SOL     OW40054   4.101   2.138   5.166  0.6676  0.2437  0.0543
 9531SOL    HW140055   4.018   2.183   5.151 -0.0376 -0.5210  1.6444
 9531SOL    HW240056   4.109   2.076   5.093 -2.0769 -0.6009  0.4605
 9532SOL     OW40057   4.237   4.507   4.476 -0.2268  0.0595 -0.2662
 9532SOL    HW140058   4.232   4.418   4.441  0.3137  0.5451 -1.5701
 9532SOL    HW240059   4.163   4.513   4.537  0.4530 -0.9146  0.6621
 9533SOL     OW40060   2.869   2.070   9.274  0.0398 -0.7428  0.2909
 9533SOL    HW140061   2.835   2.113   9.195 -0.8149 -1.1205  0.4583
 9533SOL    HW240062   2.819   2.124   9.334 -0.7290 -0.4153 -0.6372
 9534SOL     OW40063   0.535   4.194   7.985  0.3834  0.4232 -0.3808
 9534SOL    HW140064   0.467   4.243   7.939  0.1806  1.6388  1.2026
 9534SOL    HW240065   0.491   4.109   7.994  3.5923 -1.2229 -0.1563
 9535SOL     OW40066   0.109   1.870   3.185  0.5558 -0.0926 -0.4420
 9535SOL    HW140067   0.041   1.934   3.205 -0.5840 -1.8640  1.3445
 9535SOL    HW240068   0.075   1.830   3.105  4.3859  2.2650 -3.2414
 9536SOL     OW40069   1.383   0.429   3.058 -0.1142  0.2620 -0.8449
 9536SOL    HW140070   1.452   0.464   3.002  1.1639  0.5945  0.9237
 9536SOL    HW240071   1.307   0.470   3.017 -0.2823 -0.8305 -1.6199
 9537SOL     OW40072   0.625   1.658  16.084  0.6986  0.0608  0.4127
 9537SOL    HW140073   0.538   1.672  16.123  1.4240  3.3058  0.8694
 9537SOL    HW240074   0.660   1.744  16.063 -1.6643  0.5195 -1.6267
 9538SOL     OW40075   1.347   0.858   6.938 -0.3245  0.1289  0.2373
 9538SOL    HW140076   1.274   0.920   6.936 -1.7733 -1.5875  0.0218
 9538SOL    HW240077   1.429   0.907   6.937 -0.9123  1.1200 -0.4730
 9539SOL     OW40078   2.110   3.851   2.574 -0.0906  0.0788  0.2828
 9539SOL    HW140079   2.173   3.918   2.546 -1.3582  0.3193 -2.0080
 9539SOL    HW240080   2.076   3.839   2.485 -0.5306 -1.0973  0.6097
 9540SOL     OW40081   2.128   1.450   1.892  0.1347 -0.3437 -0.4697
 9540SOL    HW140082   2.100   1.448   1.800 -1.1399 -0.0849 -0.0854
 9540SOL    HW240083   2.052   1.425   1.945  0.6812 -1.1472 -0.0503
 9541SOL     OW40084   3.968   0.827   7.981 -0.5925 -0.4854 -0.1484
 9541SOL    HW140085   4.008   0.875   7.908  0.7275 -0.7921  0.3743
 9541SOL    HW240086   3.986   0.895   8.046 -0.9886  1.0047 -1.6021
 9542SOL     OW40087   4.677   2.368   6.121  0.1141  0.0157  0.3471
 9542SOL    HW140088   4.626   2.332   6.194 -2.1770 -0.4431 -1.4760
 9542SOL    HW240089   4.663   2.459   6.148  2.8092  0.7055 -0.6261
 9543SOL     OW40090   1.545   0.609   1.505 -0.1440  0.2861 -0.0197
 9543SOL    HW140091   1.477   0.550   1.537 -0.2596  0.5341  0.1928
 9543SOL    HW240092   1.613   0.594   1.571 -0.3422  1.6339  0.4940
 9544SOL     OW40093   1.786   3.660   0.506  0.4864 -0.2859 -0.0103
 9544SOL    HW140094   1.762   3.737   0.558 -2.0621 -0.6850 -0.5719
 9544SOL    HW240095   1.726   3.594   0.539  1.0066 -0.5395  0.4257
 9545SOL     OW40096   2.228   2.227   2.383 -0.1283 -0.2680 -0.0475
 9545SOL    HW140097   2.314   2.231   2.426 -0.1706 -0.7397  0.0817
 9545SOL    HW240098   2.237   2.289   2.311  1.8596  0.1477  0.5489
 9546SOL     OW40099   1.048   1.755   4.810 -0.2401  0.2994 -0.6728
 9546SOL    HW140100   0.999   1.681   4.773  0.0024 -0.1998 -0.0033
 9546SOL    HW240101   1.000   1.838   4.810  0.0473  0.4618 -0.0746
 9547SOL     OW40102   3.328   3.208  17.221  0.2983 -0.4035  0.8902
 9547SOL    HW140103   3.309   3.116  17.239 -0.9643 -0.5978 -1.4915
 9547SOL    HW240104   3.252   3.254  17.256 -1.1517 -2.2862  0.2141
 9548SOL     OW40105   1.582   1.764   1.747 -0.8815  0.2332 -0.0596
 9548SOL    HW140106   1.563   1.725   1.832 -1.6851  2.5842  0.8342
 9548SOL    HW240107   1.490   1.764   1.720 -0.5646 -1.6365 -1.1191
 9549SOL     OW40108   1.266   2.122  16.663  0.2087 -0.0667  0.3706
 9549SOL    HW140109   1.299   2.033  16.650 -0.2719 -0.2336  0.3070
 9549SOL    HW240110   1.179   2.092  16.689  1.0723 -1.1558  1.9880
 9550SOL     OW40111   0.873   4.552  14.002  0.0546 -0.4828  0.1721
 9550SOL    HW140112   0.843   4.624  13.946 -0.5273  1.2206  2.6562
 9550SOL    HW240113   0.889   4.592  14.088 -1.1560  1.2219 -0.3949
 9551SOL     OW40114   0.843   1.305   6.180 -0.9016 -0.3121  0.2984
 9551SOL    HW140115   0.776   1.288   6.247 -1.8514  0.1111 -0.5388
 9551SOL    HW240116   0.896   1.227   6.193 -0.6140 -0.5071 -2.0254
 9552SOL     OW40117   0.637   4.348   4.106  0.4963  0.4730  0.0414
 9552SOL    HW140118   0.640   4.265   4.059 -3.3224  0.8779 -0.9262
 9552SOL    HW240119   0.614   4.411   4.038 -0.6758 -0.4281 -0.3807
 9553SOL     OW40120   3.216   3.086   3.438  0.2739  0.3892  0.0966
 9553SOL    HW140121   3.198   3.020   3.504 -1.3603  3.2743  2.5381
 9553SOL    HW240122   3.295   3.057   3.391 -0.0682  0.0438 -0.2667
 9554SOL     OW40123   0.397   0.951  12.529  0.2111  0.0968  0.0627
 9554SOL    HW140124   0.321   1.007  12.515 -0.4690 -0.5352  1.2750
 9554SOL    HW240125   0.365   0.869  12.567  0.6013 -0.5998 -1.0902
 9555SOL     OW40126   0.535   1.355   5.117 -0.1074 -0.6130  0.7121
 9555SOL    HW140127   0.556   1.263   5.099  0.6321 -0.7750  2.3337
 9555SOL    HW240128   0.619   1.398   5.101 -1.7680  1.6284 -2.0663
 9556SOL     OW40129   1.548   4.098   8.233  0.2664 -0.1138 -0.3697
 9556SOL    HW140130   1.492   4.037   8.184 -1.9827  0.7788  1.0873
 9556SOL    HW240131   1.488   4.132   8.299 -1.1167 -2.2372 -0.5510
 9557SOL     OW40132   0.744   2.055   4.651 -0.0074  0.0448 -0.1920
 9557SOL    HW140133   0.734   2.137   4.603 -0.4592  0.9926  1.5445
 9557SOL    HW240134   0.684   2.070   4.724  1.5065  2.1004  0.6297
 9558SOL     OW40135   0.832   1.280   1.985 -0.3091 -0.2234 -0.3776
 9558SOL    HW140136   0.913   1.285   2.035  0.7727 -0.6246 -2.1089
 9558SOL    HW240137   0.856   1.238   1.903  3.1381  1.9601 -0.4744
 9559SOL     OW40138   3.483   3.189   1.030 -0.2692 -0.4511  0.2738
 9559SOL    HW140139   3.446   3.101   1.035 -0.9833 -0.0044  2.8096
 9559SOL    HW240140   3.574   3.185   1.001 -0.3702  3.3191 -0.5588
 9560SOL     OW40141   3.494   4.384  14.352 -0.2332 -0.0300  0.1386
 9560SOL    HW140142   3.509   4.426  14.268  0.8806  1.4234  1.0660
 9560SOL    HW240143   3.500   4.294  14.320  0.3813  0.0992 -0.0984
 9561SOL     OW40144   3.613   0.680   9.259 -0.5186 -0.0893 -0.0625
 9561SOL    HW140145   3.529   0.672   9.214 -0.5439 -1.5828  0.2611
 9561SOL    HW240146   3.618   0.605   9.317  0.3870  1.3293  1.6847
 9562SOL     OW40147   2.517   3.811   5.778  0.2688  0.1791  0.8487
 9562SOL    HW140148   2.477   3.897   5.767  1.1413  0.6699  1.4513
 9562SOL    HW240149   2.482   3.775   5.859  1.8472 -2.8432  0.2091
 9563SOL     OW40150   2.972   0.674   5.485 -0.2019 -0.2074 -0.0928
 9563SOL    HW140151   2.967   0.762   5.523 -1.4914 -0.0449 -0.6243
 9563SOL    HW240152   2.881   0.645   5.490 -0.7890  1.8127  0.9430
 9564SOL     OW40153   0.122   0.933  17.057  0.0312  0.2982  0.2650
 9564SOL    HW140154   0.170   0.872  17.112  0.2907 -0.3349 -0.6674
 9564SOL    HW240155   0.180   0.936  16.981  0.6390  1.8561  0.7921
 9565SOL     OW40156   1.038   4.151   6.254 -0.2616  0.3790 -1.1085
 9565SOL    HW140157   1.109   4.208   6.283  1.5564 -1.8926 -1.0313
 9565SOL    HW240158   1.073   4.063   6.273 -0.0198  0.6500 -0.2995
 9566SOL     OW40159   3.430   0.144   5.091  0.5780 -0.3865  0.2882
 9566SOL    HW140160   3.486   0.221   5.094  0.1007 -0.0235 -0.1464
 9566SOL    HW240161   3.385   0.141   5.007 -0.8029 -1.1597  1.0509
 9567SOL     OW40162   3.639   4.585   7.964 -0.0485 -0.0189  0.4042
 9567SOL    HW140163   3.665   4.531   7.889  3.6049  1.2345  0.7321
 9567SOL    HW240164   3.627   4.677   7.941 -0.9667 -0.1716  0.2720
 9568SOL     OW40165   1.653   2.236  11.857  0.0284  0.2047 -0.7007
 9568SOL    HW140166   1.652   2.265  11.766  1.7510 -1.5381 -1.2637
 9568SOL    HW240167   1.566   2.196  11.864 -0.0334  0.4566  0.0348
   4.72896   4.72896  17.71623
