Membrane in water
40167
    1TCq1    O1    1   1.995   3.308  11.856  0.3097  0.2355  0.1100
    1TCq1    C1    2   1.946   3.221  11.949  0.4114  0.2136  0.2588
    1TCq1    O2    3   1.970   3.102  11.951  0.0235 -0.0762 -0.4646
    1TCq1    C2    4   1.852   3.296  12.030 -0.0410  0.0659  0.1862
    1TCq1    C3    5   1.884   3.419  12.076 -0.1734  0.2406 -0.3211
    1TCq1    C4    6   1.794   3.499  12.158 -0.4363 -0.2871 -0.3159
    1TCq1    C5    7   1.676   3.444  12.196  0.1199 -0.1986  0.1005
    1TCq1    C6    8   1.649   3.316  12.156 -0.0487 -0.6850  0.2415
    1TCq1    C7    9   1.736   3.239  12.078  0.2607  0.2554  0.0543
    1TCq1    C8   10   1.527   3.255  12.214 -0.2446 -0.2243 -0.1274
    1TCq1    O4   11   1.453   3.338  12.266 -0.3312 -0.2608 -0.2214
    1TCq1    C9   12   1.834   3.634  12.202  0.7737  0.8525  0.2292
    1TCq1    O5   13   1.748   3.707  12.261  0.0276  0.2113  0.0085
    1TCq1    O6   14   1.955   3.671  12.181  0.2514 -0.0615  0.0735
    1TCq1    H1   15   1.967   3.402  11.868  0.5708  0.0613  2.0905
    1TCq1    H2   16   1.978   3.467  12.050 -0.5354  0.6561 -0.8609
    1TCq1    H3   17   1.600   3.503  12.246  1.4045 -0.0303  1.8357
    1TCq1    H4   18   1.720   3.136  12.050  2.5181  0.7058 -2.8720
    2MPD2     C   19   1.305   2.865  12.468  0.2454 -0.2446  0.1546
    2MPD2    C1   20   1.257   2.983  12.425 -0.0999  0.0489 -0.1239
    2MPD2    C2   21   1.335   3.068  12.345  0.0537  0.3351  0.3916
    2MPD2    C3   22   1.462   3.027  12.318 -0.0559 -0.5426  0.6578
    2MPD2    C4   23   1.511   2.908  12.358  0.0023 -0.5585  1.4003
    2MPD2    C5   24   1.431   2.828  12.431  0.3385  0.5230  0.8878
    2MPD2     H   25   1.294   3.161  12.308 -1.1314  0.3252  1.6859
    2MPD2    H1   26   1.614   2.883  12.335  0.1679  0.5097  0.9591
    2MPD2    H2   27   1.264   2.804  12.547 -2.6939  1.1469 -0.3095
    2MPD2    H3   28   1.467   2.731  12.464  0.9241 -0.5218 -2.7404
    2MPD2     N   29   1.546   3.117  12.244 -0.5703  0.3592  0.0590
    2MPD2    H5   30   1.636   3.077  12.219 -1.2575  0.4588 -2.6612
    2MPD2    N1   31   1.123   3.024  12.449  0.0458  0.1047  0.0659
    2MPD2    H7   32   1.109   3.113  12.402 -2.3223 -0.6766 -0.6613
    3TCq1    O1   33   0.971   0.268  10.688 -0.0479  0.1342  0.6032
    3TCq1    C1   34   1.101   0.283  10.661  0.4553  0.3714 -0.8010
    3TCq1    O2   35   1.140   0.366  10.579  0.6788  0.5871 -0.1434
    3TCq1    C2   36   1.177   0.175  10.709 -0.2175 -0.2986  0.0814
    3TCq1    C3   37   1.282   0.139  10.634 -0.8559  0.7577  0.3986
    3TCq1    C4   38   1.345   0.016  10.651  0.1467  0.2144 -0.1408
    3TCq1    C5   39   1.299   4.644  10.745 -0.0797 -0.7312 -0.3716
    3TCq1    C6   40   1.200   4.695  10.828  0.0197  0.2004  0.6089
    3TCq1    C7   41   1.138   0.092  10.812 -0.0261  0.3431  0.6580
    3TCq1    C8   42   1.126   4.588  10.895  0.2667 -0.3351  0.0341
    3TCq1    O4   43   1.129   4.484  10.836 -0.2229  0.0211 -0.0903
    3TCq1    C9   44   1.439   4.697  10.556 -0.2816  0.4019 -0.6795
    3TCq1    O5   45   1.475   4.574  10.563 -0.0529  0.4871 -0.0567
    3TCq1    O6   46   1.436   0.043  10.450 -0.1030 -0.0635 -0.5854
    3TCq1    H1   47   0.942   0.182  10.724 -0.8456  0.0960 -0.1338
    3TCq1    H2   48   1.319   0.218  10.570 -0.8573  0.9247  0.6043
    3TCq1    H3   49   1.343   4.546  10.757 -0.4104 -0.5240  2.4756
    3TCq1    H4   50   1.054   0.114  10.878 -0.1951 -2.6785  1.4199
    4MPD2     C   51   0.819   4.381  11.246  0.3910 -0.1660  0.8227
    4MPD2    C1   52   0.805   4.519  11.251  0.1807 -0.6355 -0.9514
    4MPD2    C2   53   0.889   4.596  11.175 -0.5404 -0.1563  0.4596
    4MPD2    C3   54   0.984   4.540  11.090  0.5055  0.3320  0.1602
    4MPD2    C4   55   0.991   4.400  11.080  0.0222  0.5154  0.4249
    4MPD2    C5   56   0.910   4.323  11.164  0.2197 -0.2318 -0.3448
    4MPD2     H   57   0.883   4.704  11.182  1.4801  0.0602 -1.0194
    4MPD2    H1   58   1.055   4.354  11.005 -0.1035  1.1866 -0.0930
    4MPD2    H2   59   0.748   4.313  11.293  1.5899 -1.4363  0.7992
    4MPD2    H3   60   0.903   4.218  11.140  0.0825 -0.5067  0.8836
    4MPD2     N   61   1.055   4.628  11.005  0.4340  0.2248  0.1843
    4MPD2    H5   62   1.046   0.003  11.030 -1.6110  0.6938 -2.3689
    4MPD2    N1   63   0.712   4.589  11.333  0.4287  0.2334 -0.2337
    4MPD2    H7   64   0.730   4.688  11.340  0.4463  0.1068  1.5286
    5TCq1    O1   65   1.222   1.453  11.134 -0.2060 -0.2556  0.4411
    5TCq1    C1   66   1.159   1.441  11.249 -0.4573  0.4124 -0.0762
    5TCq1    O2   67   1.037   1.437  11.252  0.5115 -0.1133 -0.1395
    5TCq1    C2   68   1.236   1.375  11.352 -0.3718 -0.6910 -0.5475
    5TCq1    C3   69   1.188   1.375  11.478 -0.2786 -0.4207  0.4431
    5TCq1    C4   70   1.246   1.289  11.567 -0.5889  0.7695 -0.3604
    5TCq1    C5   71   1.342   1.201  11.523 -0.0445 -0.3314 -0.7828
    5TCq1    C6   72   1.395   1.211  11.393  0.7325  0.1449 -0.4351
    5TCq1    C7   73   1.339   1.303  11.306 -0.0453  0.2340 -0.6133
    5TCq1    C8   74   1.477   1.104  11.354  0.7164  0.4955 -0.4068
    5TCq1    O4   75   1.487   1.006  11.430 -0.3981 -0.7498 -0.2956
    5TCq1    C9   76   1.194   1.273  11.697 -0.1932 -0.4046 -0.7795
    5TCq1    O5   77   1.234   1.166  11.754  0.2031 -0.7389 -0.2350
    5TCq1    O6   78   1.132   1.365  11.746 -0.2398 -0.0775  0.1312
    5TCq1    H1   79   1.316   1.476  11.153 -0.2067 -1.4794  1.8942
    5TCq1    H2   80   1.100   1.435  11.499 -0.5887 -0.3010 -1.1965
    5TCq1    H3   81   1.368   1.117  11.587  3.4235  0.8117 -0.7024
    5TCq1    H4   82   1.373   1.300  11.203  2.8263 -2.6270  0.3991
    6MPD2     C   83   1.655   1.069  11.039  0.3153  0.1024 -0.3023
    6MPD2    C1   84   1.603   1.024  11.157  0.1689  0.4458  0.1590
    6MPD2    C2   85   1.625   0.893  11.195  0.2379  0.5769  0.0331
    6MPD2    C3   86   1.684   0.797  11.110 -0.0660 -0.0748  0.8586
    6MPD2    C4   87   1.731   0.846  10.987 -0.6661 -0.5780 -0.9756
    6MPD2    C5   88   1.722   0.979  10.965  0.4478 -0.7671 -0.5042
    6MPD2     H   89   1.599   0.855  11.293  0.7608  1.4851  0.5143
    6MPD2    H1   90   1.790   0.781  10.923  0.3419 -1.2126  0.5952
    6MPD2    H2   91   1.649   1.173  11.007 -0.2525  0.6243  1.5237
    6MPD2    H3   92   1.765   1.018  10.874  1.3878  1.6652  0.9758
    6MPD2     N   93   1.698   0.669  11.149  0.0131  0.3128  0.9786
    6MPD2    H5   94   1.646   0.651  11.234 -3.8977  4.2182 -0.5294
    6MPD2    N1   95   1.527   1.123  11.229  0.7195 -0.2126 -0.2048
    6MPD2    H7   96   1.526   1.211  11.178  0.5895 -1.2329 -1.9627
    7TCq1    O1   97   4.368   0.458  14.542  0.5844 -0.3025  0.3910
    7TCq1    C1   98   4.313   0.351  14.486 -0.2625 -1.2233 -0.2911
    7TCq1    O2   99   4.204   0.309  14.524 -0.3677  0.1145  0.3948
    7TCq1    C2  100   4.356   0.369  14.342  0.8984  0.1738 -0.2206
    7TCq1    C3  101   4.388   0.496  14.298  0.3162 -0.1473  0.2203
    7TCq1    C4  102   4.382   0.518  14.163 -0.5928 -0.6503  0.6635
    7TCq1    C5  103   4.322   0.434  14.075 -0.8822 -0.4081 -1.0345
    7TCq1    C6  104   4.258   0.327  14.132  0.0540  0.8060  0.3928
    7TCq1    C7  105   4.281   0.290  14.259 -0.6679  0.6552  0.0437
    7TCq1    C8  106   4.141   0.266  14.065 -0.3262 -0.2341  0.0494
    7TCq1    O4  107   4.076   0.184  14.126  0.2991  0.2214 -0.4898
    7TCq1    C9  108   4.430   0.653  14.121 -0.4690 -0.0005 -0.4231
    7TCq1    O5  109   4.404   0.691  14.001  0.0957 -0.2852  0.5093
    7TCq1    O6  110   4.449   0.736  14.214 -0.4639 -0.2718 -0.2845
    7TCq1    H1  111   4.457   0.472  14.502 -1.0154  2.1080 -2.2768
    7TCq1    H2  112   4.429   0.575  14.360 -1.6862  0.6472  0.5307
    7TCq1    H3  113   4.316   0.456  13.969  1.3960 -0.1241 -1.0967
    7TCq1    H4  114   4.231   0.201  14.295 -0.6462  0.1723 -1.1282
    8MPD2     C  115   3.784   0.297  13.700 -0.7003 -0.6014  0.1739
    8MPD2    C1  116   3.796   0.213  13.807  0.2421  0.6279  0.0002
    8MPD2    C2  117   3.905   0.225  13.888 -0.0495  0.6990 -0.2928
    8MPD2    C3  118   3.990   0.335  13.876  0.3119  0.8945  0.5565
    8MPD2    C4  119   3.968   0.426  13.772 -0.8778  0.4345  0.1442
    8MPD2    C5  120   3.863   0.409  13.685 -0.3987 -0.2885 -0.6065
    8MPD2     H  121   3.925   0.152  13.965  0.4177  1.5841  0.4269
    8MPD2    H1  122   4.029   0.515  13.763 -0.7267  0.3603  0.4244
    8MPD2    H2  123   3.699   0.293  13.634 -1.1103 -1.1112  0.7322
    8MPD2    H3  124   3.850   0.484  13.608 -0.0004  1.4983  1.0681
    8MPD2     N  125   4.101   0.344  13.960 -0.1319  0.3353  0.4757
    8MPD2    H5  126   4.155   0.431  13.958  0.0882  0.1126 -2.3635
    8MPD2    N1  127   3.703   0.105  13.818  0.3678 -0.6421  0.2876
    8MPD2    H7  128   3.631   0.107  13.745 -1.4192 -0.5778  2.0500
    9TCq1    O1  129   1.638   3.542  11.185  0.6403 -0.1695  0.3934
    9TCq1    C1  130   1.733   3.547  11.094 -0.0676  0.2809 -0.0447
    9TCq1    O2  131   1.751   3.470  11.002 -0.0639 -0.2111 -0.4319
    9TCq1    C2  132   1.811   3.666  11.111 -0.1723 -0.1484 -0.2332
    9TCq1    C3  133   1.947   3.658  11.084  0.4747 -0.7651  0.3241
    9TCq1    C4  134   2.028   3.759  11.131 -0.0762  0.0111  0.3081
    9TCq1    C5  135   1.976   3.858  11.214 -0.1381  0.1865 -0.2575
    9TCq1    C6  136   1.842   3.856  11.242 -0.2628  0.2444 -0.3892
    9TCq1    C7  137   1.759   3.762  11.192 -0.6562  0.5368 -0.2027
    9TCq1    C8  138   1.809   3.972  11.317 -0.4906  0.7674  0.6516
    9TCq1    O4  139   1.869   4.075  11.288  0.1785 -0.1533 -0.7136
    9TCq1    C9  140   2.170   3.745  11.127  1.1968 -0.3562  1.4976
    9TCq1    O5  141   2.221   3.636  11.107  0.5472  0.1129 -0.5579
    9TCq1    O6  142   2.229   3.856  11.138 -0.2147  0.4304  0.7387
    9TCq1    H1  143   1.662   3.603  11.258 -1.5928 -1.2573  2.0495
    9TCq1    H2  144   1.988   3.570  11.035  1.0110  0.0405 -0.6596
    9TCq1    H3  145   2.045   3.928  11.259 -1.4255  1.4481 -0.2471
    9TCq1    H4  146   1.653   3.784  11.198 -0.4429  1.3668  0.6821
   10MPD2     C  147   1.648   4.189  11.447 -0.4748 -0.1918 -0.6844
   10MPD2    C1  148   1.610   4.058  11.445  0.3132 -0.0933 -0.3972
   10MPD2    C2  149   1.491   4.026  11.495  0.4486  0.3310  0.1392
   10MPD2    C3  150   1.418   4.112  11.565  0.1597 -0.2782  0.2778
   10MPD2    C4  151   1.456   4.238  11.576 -0.2553 -0.4937 -0.6541
   10MPD2    C5  152   1.570   4.278  11.509 -0.1473  0.1286 -0.2937
   10MPD2     H  153   1.460   3.922  11.490 -2.8965  1.4297 -1.7879
   10MPD2    H1  154   1.388   4.299  11.634 -1.0860 -0.7848 -1.3163
   10MPD2    H2  155   1.733   4.233  11.396 -0.2942  0.3225  0.0691
   10MPD2    H3  156   1.590   4.384  11.499  1.2869 -0.2248 -1.2664
   10MPD2     N  157   1.303   4.087  11.639  0.4754  0.4344 -0.0921
   10MPD2    H5  158   1.274   4.163  11.699 -0.7249 -0.3761  0.3529
   10MPD2    N1  159   1.687   3.960  11.378  0.0733  0.1048  0.0980
   10MPD2    H7  160   1.653   3.865  11.375 -0.2730  0.2861 -1.8696
   11TCq1    O1  161   1.740   3.607  14.186 -0.1208 -0.1691  0.2463
   11TCq1    C1  162   1.704   3.497  14.246  0.6712 -0.1144 -0.1086
   11TCq1    O2  163   1.627   3.409  14.210  0.2785  0.2884 -0.6805
   11TCq1    C2  164   1.790   3.485  14.358  0.0423 -0.5006  1.2978
   11TCq1    C3  165   1.826   3.600  14.425 -0.0270 -0.5362 -0.0718
   11TCq1    C4  166   1.927   3.592  14.517 -0.0546  0.3299 -0.0694
   11TCq1    C5  167   1.988   3.472  14.542  0.0483 -0.4005 -0.0805
   11TCq1    C6  168   1.935   3.357  14.485 -0.6236  0.7103 -0.6346
   11TCq1    C7  169   1.841   3.364  14.387 -0.0053  0.6184 -0.4179
   11TCq1    C8  170   2.016   3.239  14.491  0.2087 -0.3702 -0.1360
   11TCq1    O4  171   2.123   3.241  14.555  0.0722 -0.3784  0.0770
   11TCq1    C9  172   1.960   3.700  14.598  0.7474 -0.6823  0.1198
   11TCq1    O5  173   2.077   3.706  14.645 -0.2130 -0.2141 -0.4802
   11TCq1    O6  174   1.892   3.806  14.572  0.4370  0.3182  0.1365
   11TCq1    H1  175   1.809   3.664  14.227  0.1518 -1.9275  2.2422
   11TCq1    H2  176   1.786   3.699  14.405  0.1401 -0.0764  1.8547
   11TCq1    H3  177   2.050   3.463  14.631 -1.4774 -1.5671  0.8700
   11TCq1    H4  178   1.792   3.279  14.340  0.5692 -0.2618  0.5717
   12MPD2     C  179   2.141   2.974  14.436 -0.4443 -0.1274 -0.2093
   12MPD2    C1  180   2.018   3.013  14.390 -0.6555 -0.4540 -0.4913
   12MPD2    C2  181   1.941   2.922  14.328 -0.5969 -0.4388  0.0361
   12MPD2    C3  182   1.971   2.788  14.321  0.3182 -0.0742 -0.6384
   12MPD2    C4  183   2.093   2.751  14.381  0.4490 -0.6278 -0.9704
   12MPD2    C5  184   2.185   2.844  14.426  0.3966 -0.3727  0.3545
   12MPD2     H  185   1.850   2.944  14.275  0.1267 -4.0990 -2.7723
   12MPD2    H1  186   2.130   2.650  14.368 -0.4287 -1.2055  1.0122
   12MPD2    H2  187   2.207   3.049  14.477 -0.3219 -0.1435 -0.3798
   12MPD2    H3  188   2.284   2.814  14.459  1.3680  1.3132 -1.0240
   12MPD2     N  189   1.872   2.703  14.265  0.7477  0.5357 -0.6290
   12MPD2    H5  190   1.795   2.749  14.217  0.2572 -0.6935 -1.0199
   12MPD2    N1  191   1.959   3.137  14.416  0.1392 -0.0624  0.0211
   12MPD2    H7  192   1.871   3.160  14.369  0.6425  1.9991  0.0792
   13TCq1    O1  193   1.480   3.705  12.070  0.6779  0.6998 -0.2064
   13TCq1    C1  194   1.525   3.784  11.973  0.3491  0.0442  0.2630
   13TCq1    O2  195   1.602   3.877  11.990  0.4731  0.5141 -0.2644
   13TCq1    C2  196   1.501   3.716  11.852  0.1058 -0.2919 -0.7251
   13TCq1    C3  197   1.597   3.718  11.761 -0.6843 -0.3535 -0.0215
   13TCq1    C4  198   1.578   3.657  11.641 -0.5787  0.0490 -0.3573
   13TCq1    C5  199   1.468   3.577  11.620  0.3894  0.1060  0.4269
   13TCq1    C6  200   1.370   3.577  11.721  0.0835  0.2341  0.1553
   13TCq1    C7  201   1.382   3.656  11.834 -0.3386  0.1251 -0.2295
   13TCq1    C8  202   1.255   3.503  11.712 -0.2779  0.0337  0.2581
   13TCq1    O4  203   1.167   3.520  11.798 -0.3656 -0.0034 -0.0202
   13TCq1    C9  204   1.682   3.660  11.544 -0.1515  0.1401  0.3942
   13TCq1    O5  205   1.653   3.650  11.424  0.6147 -0.6717  0.3393
   13TCq1    O6  206   1.794   3.687  11.598 -0.0950  0.4703 -0.0665
   13TCq1    H1  207   1.442   3.621  12.036  1.0021 -0.0992  1.4228
   13TCq1    H2  208   1.682   3.784  11.775 -1.1509  0.4266 -0.8880
   13TCq1    H3  209   1.451   3.528  11.525 -1.6095  1.3828  0.1370
   13TCq1    H4  210   1.296   3.654  11.899 -0.3681  0.2318 -0.2658
   14MPD2     C  211   1.172   3.230  11.470 -0.1308  0.0717  0.3909
   14MPD2    C1  212   1.149   3.330  11.560 -0.3088 -0.6260 -0.2375
   14MPD2    C2  213   1.025   3.354  11.606 -0.5431 -0.3034 -0.1271
   14MPD2    C3  214   0.918   3.295  11.540 -0.0565  0.0989  0.2573
   14MPD2    C4  215   0.938   3.197  11.448 -0.2366 -0.2992  0.4780
   14MPD2    C5  216   1.062   3.162  11.413  0.2179 -0.1505  0.0645
   14MPD2     H  217   0.995   3.414  11.692  0.0466 -0.1501 -0.0292
   14MPD2    H1  218   0.860   3.139  11.400  0.3674 -1.0307  0.3692
   14MPD2    H2  219   1.269   3.199  11.434 -0.5146 -2.1938  1.2800
   14MPD2    H3  220   1.064   3.085  11.336 -0.1604  0.7267 -0.8298
   14MPD2     N  221   0.791   3.338  11.588  0.4817 -0.6711  0.5027
   14MPD2    H5  222   0.791   3.416  11.654  0.4474 -0.8387  0.7017
   14MPD2    N1  223   1.259   3.410  11.606  0.4287  0.2660 -0.2680
   14MPD2    H7  224   1.344   3.404  11.551  0.9004 -0.5485  0.5532
   15TCq1    O1  225   2.826   2.882   2.307 -0.2177 -0.5300 -0.3106
   15TCq1    C1  226   2.897   2.863   2.422 -0.0326  0.0059  0.3284
   15TCq1    O2  227   2.879   2.922   2.527 -0.2464  0.0857 -0.3053
   15TCq1    C2  228   2.956   2.727   2.419 -0.5231  0.2966 -0.2612
   15TCq1    C3  229   3.025   2.691   2.527  0.3566  0.5154 -0.0200
   15TCq1    C4  230   3.123   2.594   2.518 -0.9621  0.0704  0.3145
   15TCq1    C5  231   3.150   2.527   2.406  0.2957  1.2721  0.9179
   15TCq1    C6  232   3.077   2.567   2.300 -0.1738  0.9092  0.1255
   15TCq1    C7  233   2.986   2.666   2.298 -0.1030  0.1264  0.9382
   15TCq1    C8  234   3.092   2.477   2.185  0.5187 -0.3132 -0.3911
   15TCq1    O4  235   3.165   2.380   2.205  0.3990 -0.7326 -0.1581
   15TCq1    C9  236   3.199   2.566   2.637  0.0281  0.0711 -0.3439
   15TCq1    O5  237   3.156   2.606   2.750 -0.3068  0.0182 -0.1523
   15TCq1    O6  238   3.283   2.477   2.626 -0.1591  0.0405  0.3120
   15TCq1    H1  239   2.856   2.821   2.237  0.9628  0.1447 -0.3817
   15TCq1    H2  240   3.019   2.740   2.623 -1.9083  2.9760 -1.4135
   15TCq1    H3  241   3.237   2.462   2.399 -1.8739 -1.3593 -1.3816
   15TCq1    H4  242   2.919   2.685   2.216  0.9559  1.4064  0.3738
   16MPD2     C  243   2.952   2.490   1.851  0.6459 -0.2574  0.3571
   16MPD2    C1  244   3.019   2.437   1.955  0.0650 -0.2478 -0.1088
   16MPD2    C2  245   3.073   2.306   1.942 -0.0360 -0.8338 -0.3204
   16MPD2    C3  246   3.072   2.256   1.816 -0.8048 -0.5121  0.1299
   16MPD2    C4  247   3.018   2.320   1.706 -0.2230 -0.4142 -0.0039
   16MPD2    C5  248   2.950   2.441   1.725 -0.1342  0.3610 -0.2635
   16MPD2     H  249   3.122   2.259   2.026 -0.0033  1.0466  0.7091
   16MPD2    H1  250   3.020   2.278   1.606 -0.1575 -2.7178  0.9551
   16MPD2    H2  251   2.891   2.579   1.866  1.5322  0.7305 -1.8370
   16MPD2    H3  252   2.888   2.483   1.647  0.4242 -1.2637 -1.5878
   16MPD2     N  253   3.156   2.135   1.802 -0.0556  0.0079  0.2604
   16MPD2    H5  254   3.185   2.095   1.891  2.3526 -0.1389 -0.5745
   16MPD2    N1  255   3.021   2.513   2.073 -0.6181  0.1693  0.1741
   16MPD2    H7  256   2.978   2.604   2.082 -2.4865 -0.7547  0.8439
   17TCq1    O1  257   0.997   3.170  12.182 -0.4799  0.1100 -0.8018
   17TCq1    C1  258   0.955   3.057  12.120 -0.1373 -0.3736  0.2534
   17TCq1    O2  259   0.887   2.970  12.176 -0.2147 -0.4546  0.3968
   17TCq1    C2  260   1.020   3.053  11.992 -0.5816  0.7160 -0.3305
   17TCq1    C3  261   0.958   2.978  11.897  0.9227 -0.4103 -0.3674
   17TCq1    C4  262   1.021   2.961  11.773 -0.2744 -0.1593 -0.3985
   17TCq1    C5  263   1.139   3.026  11.740 -0.8489 -0.3566  0.0519
   17TCq1    C6  264   1.190   3.105  11.836  0.5136  0.5515  0.4940
   17TCq1    C7  265   1.137   3.117  11.960  0.5758  0.2799  0.6418
   17TCq1    C8  266   1.329   3.168  11.825  0.3981  0.0807 -0.8300
   17TCq1    O4  267   1.370   3.235  11.920 -0.1234  0.5057 -0.4637
   17TCq1    C9  268   0.947   2.884  11.672 -0.6175 -0.4186  0.4629
   17TCq1    O5  269   1.003   2.870  11.561 -0.3992  0.1702 -1.0238
   17TCq1    O6  270   0.835   2.831  11.706 -0.0110  0.1165 -0.3553
   17TCq1    H1  271   1.020   3.248  12.127  3.6972  0.4870  1.4834
   17TCq1    H2  272   0.862   2.933  11.922  0.6904  0.5487  0.4433
   17TCq1    H3  273   1.187   3.012  11.644 -2.7866 -1.6439 -0.7375
   17TCq1    H4  274   1.194   3.172  12.034  2.5748  0.2657 -0.8685
   18MPD2     C  275   1.591   3.266  11.735  0.3550 -0.4901  0.5839
   18MPD2    C1  276   1.499   3.202  11.648 -0.3812 -0.7927  0.3338
   18MPD2    C2  277   1.524   3.192  11.507  0.3865 -0.1638 -1.1642
   18MPD2    C3  278   1.648   3.241  11.459  0.2146  0.1173 -0.0274
   18MPD2    C4  279   1.732   3.303  11.549 -0.6631 -0.6210  0.0847
   18MPD2    C5  280   1.707   3.317  11.684  0.0352  1.1234 -0.0708
   18MPD2     H  281   1.469   3.124  11.444 -0.5695  0.0835 -0.6012
   18MPD2    H1  282   1.827   3.342  11.512 -0.4811  0.3267  1.5372
   18MPD2    H2  283   1.584   3.274  11.843  0.9599 -0.3333  0.6089
   18MPD2    H3  284   1.777   3.364  11.752  1.3906 -0.1483 -0.5923
   18MPD2     N  285   1.687   3.228  11.324  0.0270 -0.0787 -0.4033
   18MPD2    H5  286   1.780   3.266  11.307 -0.5108  0.8725 -1.1352
   18MPD2    N1  287   1.383   3.140  11.701  0.2853 -0.6480  0.0201
   18MPD2    H7  288   1.338   3.068  11.646  0.7180  0.0174 -1.1924
   19TMC2    C1  289   2.439   3.392  13.975  0.3029 -0.8477  1.0675
   19TMC2    C2  290   2.354   3.356  14.074 -0.2764  0.0643 -0.0589
   19TMC2    C3  291   2.241   3.280  14.041 -1.2796 -0.4683  0.3685
   19TMC2    C4  292   2.416   3.357  13.844  0.0608 -0.5180 -0.1937
   19TMC2    C5  293   2.304   3.286  13.814  0.1255  0.3825  0.0433
   19TMC2    C6  294   2.216   3.248  13.913 -0.0622 -0.2326 -0.0103
   19TMC2     C  295   2.571   3.442  14.014 -0.1195 -0.2955 -0.0744
   19TMC2     O  296   2.619   3.530  13.944 -0.0054 -0.2432 -0.7205
   19TMC2     H  297   2.353   3.403  14.172 -1.9123  1.6371 -0.8380
   19TMC2    H1  298   2.496   3.368  13.772  1.3658 -0.5604  1.2419
   19TMC2    H2  299   2.118   3.212  13.883  0.2414 -0.1565 -1.0996
   19TMC2    C7  300   2.306   3.213  13.697  0.9465 -0.0390  0.1126
   19TMC2    C8  301   2.125   3.304  14.123  0.1053 -0.3914 -0.0707
   19TMC2    O1  302   2.242   3.109  13.697  0.1520  0.3954 -0.3880
   19TMC2    O2  303   2.130   3.374  14.223 -0.2398  0.0654  0.3842
   19TMC2    O5  304   2.036   3.212  14.090 -0.2630  0.0548  0.1405
   19TMC2    H5  305   2.078   3.145  14.032 -0.0666  0.8532 -0.6247
   20MPD2     C  306   2.827   3.508  14.141  0.0144 -0.0161  0.1489
   20MPD2    C1  307   2.736   3.416  14.190 -0.4297  0.5910 -0.3550
   20MPD2    C2  308   2.768   3.340  14.303  0.7423  0.4340  0.5152
   20MPD2    C3  309   2.895   3.358  14.354  0.1269 -0.7020  0.1881
   20MPD2    C4  310   2.984   3.449  14.297  0.2136 -0.4456  0.1012
   20MPD2    C5  311   2.950   3.524  14.187 -1.0149  0.4614 -0.7166
   20MPD2     H  312   2.696   3.272  14.346  0.1846  1.3488  1.0314
   20MPD2    H1  313   3.085   3.468  14.331  0.8026  1.2240 -2.5764
   20MPD2    H2  314   2.800   3.574  14.060  1.4916  0.4465  0.0235
   20MPD2    H3  315   3.021   3.597  14.150 -0.3995  0.6828  0.9048
   20MPD2     N  316   2.934   3.286  14.469 -0.2486  0.7557 -0.3447
   20MPD2    H5  317   3.021   3.317  14.510  0.5173 -2.5227  0.4820
   20MPD2    N1  318   2.611   3.391  14.130  0.1275  0.7884 -0.0871
   20MPD2    H7  319   2.566   3.308  14.167  1.4767  0.2708  0.3907
   21MPD2     C  320   0.839   3.663  14.480  0.6524 -0.1229  0.4826
   21MPD2    C1  321   0.873   3.526  14.486 -0.0181 -0.1155  0.5512
   21MPD2    C2  322   0.799   3.435  14.563  0.5698 -0.2145 -1.1503
   21MPD2    C3  323   0.699   3.476  14.643 -0.1677 -0.3174  0.0976
   21MPD2    C4  324   0.662   3.607  14.643  0.2077  0.5208  0.5406
   21MPD2    C5  325   0.737   3.697  14.570  0.3971 -0.0824  0.4183
   21MPD2     H  326   0.835   3.333  14.570  0.7460 -0.1887 -1.6879
   21MPD2    H1  327   0.590   3.646  14.714  0.6776 -0.7385  1.7105
   21MPD2    H2  328   0.895   3.738  14.425  0.3012 -0.4837 -0.3677
   21MPD2    H3  329   0.708   3.801  14.568  2.3717  0.4515 -0.3649
   21MPD2     N  330   0.625   3.387  14.731 -0.5887 -0.1199 -0.0078
   21MPD2    H5  331   0.547   3.418  14.789 -0.0933  0.1438  0.5181
   21MPD2    N1  332   0.974   3.469  14.415  0.1833  0.9058 -0.0783
   21MPD2    H7  333   0.981   3.367  14.414  0.3958  0.9210 -0.5437
   22TCq2    C1  334   0.662   3.260  14.770  0.1082 -1.0163  0.3736
   22TCq2    O2  335   0.772   3.212  14.762  0.3269 -0.5038 -0.4687
   22TCq2    C2  336   0.559   3.193  14.843 -0.4376 -0.8161  0.5076
   22TCq2    C3  337   0.600   3.116  14.951 -0.5676 -0.2287  0.0763
   22TCq2    C4  338   0.507   3.043  15.024 -0.0517  0.3523  0.4487
   22TCq2    C5  339   0.375   3.051  14.986  0.4130  0.0798 -0.3632
   22TCq2    C6  340   0.338   3.121  14.870 -0.0010 -0.8866  1.3994
   22TCq2    C7  341   0.426   3.193  14.799 -0.6476 -0.3219 -0.4640
   22TCq2    C8  342   0.204   3.100  14.824 -0.6833 -0.0992  0.0972
   22TCq2    O4  343   0.135   3.003  14.853  0.6944 -0.4588  0.7326
   22TCq2    C9  344   0.554   2.959  15.130 -0.5023  0.2035 -0.7344
   22TCq2    O5  345   0.484   2.860  15.168  0.1006 -0.2509  0.2342
   22TCq2    O6  346   0.671   2.975  15.168 -0.5656 -0.5735 -0.0822
   22TCq2    H2  347   0.702   3.120  14.988 -0.8032 -0.3585  0.7269
   22TCq2    H3  348   0.296   2.994  15.033  0.9664 -1.0994 -0.8650
   22TCq2    H4  349   0.401   3.240  14.704 -0.9650 -0.6848 -0.5585
   23MPD2     C  350   2.446   4.466  14.830 -0.6866 -0.0126 -0.0506
   23MPD2    C1  351   2.388   4.494  14.954  0.4301  0.0313 -0.2185
   23MPD2    C2  352   2.303   4.600  14.969  0.8440  0.2168  0.7577
   23MPD2    C3  353   2.262   4.677  14.857 -0.2094 -0.0989 -0.7288
   23MPD2    C4  354   2.339   4.659  14.743  0.3319  0.0150 -0.2190
   23MPD2    C5  355   2.426   4.552  14.728  0.2998 -0.8318  0.3153
   23MPD2     H  356   2.253   4.607  15.064 -0.5865 -3.8749  0.2877
   23MPD2    H1  357   2.322   4.720  14.655 -0.3768 -0.5364 -0.4651
   23MPD2    H2  358   2.517   4.384  14.818  0.4810  0.8537  0.9754
   23MPD2    H3  359   2.483   4.545  14.636 -1.0297 -1.4006 -0.4566
   23MPD2     N  360   2.162   0.055  14.854  0.0638 -0.5903  0.2779
   23MPD2    H5  361   2.150   0.115  14.774  3.3494  0.6272  0.6620
   23MPD2    N1  362   2.410   4.413  15.069 -0.3725  0.4364 -0.2102
   23MPD2    H7  363   2.363   4.444  15.153  2.0442  0.9395  0.9657
   24TCq2    C1  364   2.071   0.079  14.954 -0.1699 -0.3609 -1.6128
   24TCq2    O2  365   2.037   0.011  15.049  0.2192  0.5485  0.6103
   24TCq2    C2  366   1.991   0.202  14.932 -0.4344  1.0329 -0.4582
   24TCq2    C3  367   2.006   0.259  14.810  0.1008 -0.2189 -0.3091
   24TCq2    C4  368   1.897   0.314  14.749  0.0182  0.7736 -0.6151
   24TCq2    C5  369   1.777   0.304  14.812  0.1954  0.3326 -0.6633
   24TCq2    C6  370   1.763   0.244  14.932 -0.1004 -0.5338  0.0179
   24TCq2    C7  371   1.876   0.198  14.993 -0.8279 -0.7105 -0.7080
   24TCq2    C8  372   1.641   0.158  14.953  0.0958  0.0569  0.6575
   24TCq2    O4  373   1.651   0.071  15.040 -0.2777 -1.0669  0.4050
   24TCq2    C9  374   1.914   0.392  14.634 -0.2392  0.0609 -0.2061
   24TCq2    O5  375   1.812   0.454  14.592 -0.7256 -0.0239  0.2091
   24TCq2    O6  376   2.022   0.379  14.574  0.1051  0.1024 -0.4135
   24TCq2    H2  377   2.101   0.262  14.759 -0.1960 -0.8627 -0.9029
   24TCq2    H3  378   1.685   0.340  14.766 -0.7861 -2.7821 -1.1347
   24TCq2    H4  379   1.858   0.147  15.087 -0.7471 -2.2683 -1.5445
   25TMC2    C1  380   0.880   2.002  12.003 -0.0949  0.0932 -0.2225
   25TMC2    C2  381   0.882   2.135  12.040  0.1302 -0.3198  0.6602
   25TMC2    C3  382   0.818   2.162  12.160  0.3761 -0.4920 -0.0713
   25TMC2    C4  383   0.827   1.901  12.080 -0.1045 -0.1370  0.3681
   25TMC2    C5  384   0.750   1.940  12.185  0.8929  0.2890  0.4302
   25TMC2    C6  385   0.743   2.070  12.230 -0.5036 -0.1932 -0.2257
   25TMC2     C  386   0.954   1.965  11.887 -0.3751  0.1049  0.0104
   25TMC2     O  387   1.019   2.057  11.841 -0.8847 -0.2985 -0.2923
   25TMC2     H  388   0.920   2.214  11.977 -2.9033  0.5855 -0.0284
   25TMC2    H1  389   0.855   1.798  12.060  1.5889  0.2235  0.8613
   25TMC2    H2  390   0.665   2.102  12.298 -1.3391 -3.0882  0.1707
   25TMC2    C7  391   0.674   1.840  12.270 -0.8031 -0.3603 -0.2101
   25TMC2    C8  392   0.761   2.300  12.162  0.2423  0.0358 -0.5826
   25TMC2    O1  393   0.621   1.896  12.363 -0.5144 -0.1512  0.2632
   25TMC2    O2  394   0.697   2.348  12.067  0.2487 -0.2113  0.6661
   25TMC2    O5  395   0.763   2.335  12.292  0.7648 -0.3423 -0.0190
   25TMC2    H5  396   0.834   2.289  12.342  0.0368 -2.0591 -0.5392
   26MPD2     C  397   0.998   1.749  11.418  0.2032  0.1736 -0.8016
   26MPD2    C1  398   0.908   1.680  11.494 -0.4867  0.3176  0.4746
   26MPD2    C2  399   0.881   1.715  11.626 -0.5629  0.2073  0.3345
   26MPD2    C3  400   0.949   1.816  11.689 -0.5161 -0.6205 -0.2390
   26MPD2    C4  401   1.054   1.882  11.620  0.3794 -0.0370  0.7625
   26MPD2    C5  402   1.076   1.847  11.482  0.2064  0.5108  0.3687
   26MPD2     H  403   0.814   1.658  11.689  0.6019 -0.0848  1.3198
   26MPD2    H1  404   1.121   1.955  11.664  0.3449  0.5303 -0.1384
   26MPD2    H2  405   1.008   1.724  11.313 -3.1920 -0.0735 -1.0672
   26MPD2    H3  406   1.157   1.902  11.434  0.2809 -2.0302 -2.3958
   26MPD2     N  407   0.911   1.849  11.826 -0.4076 -0.3914 -0.2164
   26MPD2    H5  408   0.845   1.794  11.880  0.4133  2.3469  3.5152
   26MPD2    N1  409   0.845   1.575  11.428 -0.1678 -0.4329 -0.0816
   26MPD2    H7  410   0.888   1.555  11.338  0.8263 -0.7565  0.4627
   27TMC2    C1  411   4.461   4.411  12.292  1.6366 -0.5676  0.7600
   27TMC2    C2  412   4.547   4.490  12.220  0.2038 -0.3637 -0.1673
   27TMC2    C3  413   4.677   4.500  12.265 -0.3497 -0.5763 -0.1765
   27TMC2    C4  414   4.502   4.355  12.413  0.1836 -0.5807  0.1450
   27TMC2    C5  415   4.631   4.377  12.460  0.4945  0.5695 -0.2448
   27TMC2    C6  416   4.722   4.444  12.383 -0.2109  0.2858 -0.0497
   27TMC2     C  417   4.332   4.379  12.235 -0.5577  0.3231  0.0909
   27TMC2     O  418   4.312   4.393  12.114 -0.3237 -0.3178  0.0199
   27TMC2     H  419   4.517   4.522  12.121 -2.8814  1.2818  1.3023
   27TMC2    H1  420   4.433   4.315  12.486 -1.1031  1.4179  0.0214
   27TMC2    H2  421   0.105   4.456  12.402 -0.6835  2.7529  0.9104
   27TMC2    C7  422   4.659   4.329  12.588 -0.8805  0.0458  0.0304
   27TMC2    C8  423   0.051   4.563  12.171  0.2931  0.3414 -0.6181
   27TMC2    O1  424   4.583   4.245  12.639 -0.0756 -0.9034 -0.0929
   27TMC2    O2  425   0.035   4.555  12.052  0.5140  0.7032 -0.6751
   27TMC2    O5  426   0.068   4.679  12.242  0.1087 -0.1860 -0.1460
   27TMC2    H5  427   0.034   4.670  12.334 -1.4370 -2.8631 -0.9919
   28MPD2     C  428   3.840   4.278  12.304  0.0079  0.0958  0.2572
   28MPD2    C1  429   3.899   4.281  12.428 -0.3237 -0.5563 -0.2076
   28MPD2    C2  430   4.038   4.299  12.438 -0.1425  0.0560 -0.7293
   28MPD2    C3  431   4.109   4.316  12.325 -0.1641 -0.5518 -0.2920
   28MPD2    C4  432   4.047   4.310  12.201  1.0777 -0.5585  0.5239
   28MPD2    C5  433   3.912   4.290  12.187  0.2086 -0.9302  0.1579
   28MPD2     H  434   4.080   4.313  12.537 -1.0764 -0.0248 -0.3236
   28MPD2    H1  435   4.093   4.323  12.104 -1.9142  0.8595 -0.7180
   28MPD2    H2  436   3.735   4.255  12.291  0.4158 -1.4233 -0.3648
   28MPD2    H3  437   3.863   4.290  12.091 -3.6407  1.4414  2.1245
   28MPD2     N  438   4.245   4.357  12.338  0.0981  0.0725 -0.1691
   28MPD2    H5  439   4.292   4.353  12.428 -1.1085  0.7793  0.4799
   28MPD2    N1  440   3.816   4.261  12.536  0.0431 -0.9719  0.1211
   28MPD2    H7  441   3.719   4.253  12.508  0.1237 -0.3122 -0.3443
   29MPD2     C  442   3.889   1.199  14.119  0.2288 -0.4093  0.3130
   29MPD2    C1  443   3.971   1.187  14.234  0.3191 -0.8144 -0.3522
   29MPD2    C2  444   4.025   1.303  14.293 -0.0331 -0.1477  1.0593
   29MPD2    C3  445   3.993   1.424  14.239 -0.1372  0.3754 -0.2861
   29MPD2    C4  446   3.917   1.434  14.118 -0.1733  0.0538 -0.0471
   29MPD2    C5  447   3.862   1.320  14.064 -0.0838 -0.0140  0.4680
   29MPD2     H  448   4.084   1.296  14.383  0.1120 -2.5136  0.7892
   29MPD2    H1  449   3.895   1.528  14.068 -1.9324  1.5282  3.5526
   29MPD2    H2  450   3.861   1.109  14.066  1.0066 -1.1594  1.1779
   29MPD2    H3  451   3.809   1.315  13.970 -0.7281  0.5634  0.8059
   29MPD2     N  452   4.060   1.544  14.278 -0.2272  0.3286  0.0334
   29MPD2    H5  453   4.147   1.533  14.329  0.7872  1.0365 -1.5487
   29MPD2    N1  454   4.017   1.065  14.285  0.1351  0.2433 -0.1438
   29MPD2    H7  455   4.085   1.066  14.360 -1.4285 -0.0709  1.2711
   30TCq2    C1  456   4.006   1.665  14.253  0.7026  0.3352  0.6511
   30TCq2    O2  457   3.892   1.692  14.217 -0.2811  0.3872  0.1226
   30TCq2    C2  458   4.096   1.760  14.302  0.1749 -0.1836 -0.0432
   30TCq2    C3  459   4.056   1.864  14.380 -0.4011 -0.1674  0.2606
   30TCq2    C4  460   4.124   1.973  14.387 -0.3822  0.5146 -0.2056
   30TCq2    C5  461   4.240   1.991  14.315  0.0151 -0.1828  0.8035
   30TCq2    C6  462   4.282   1.886  14.236  0.9762 -0.6071  0.6069
   30TCq2    C7  463   4.209   1.770  14.228  0.4493  0.2801  0.2436
   30TCq2    C8  464   4.407   1.887  14.171 -0.7069 -0.2985  0.2064
   30TCq2    O4  465   4.428   1.810  14.079  0.4623  0.1280  0.7624
   30TCq2    C9  466   4.076   2.077  14.478 -0.2764 -0.5490 -0.1779
   30TCq2    O5  467   3.970   2.066  14.546 -0.3767 -0.4018  0.2963
   30TCq2    O6  468   4.147   2.186  14.466  0.1180 -0.2968 -0.0042
   30TCq2    H2  469   3.971   1.851  14.446 -1.0267  0.4210 -0.4267
   30TCq2    H3  470   4.290   2.087  14.321  1.6955 -0.9368 -0.9762
   30TCq2    H4  471   4.233   1.695  14.154  2.0367  1.9454 -0.9538
   31MPD2     C  472   2.268   0.723  14.643  0.6662  0.7943 -0.8696
   31MPD2    C1  473   2.159   0.805  14.651  0.0215  0.8386  0.3466
   31MPD2    C2  474   2.072   0.787  14.758  0.0812 -0.8111  0.4411
   31MPD2    C3  475   2.098   0.692  14.860  0.0935  0.2348 -0.5178
   31MPD2    C4  476   2.215   0.616  14.859 -0.0852 -0.7016 -0.7476
   31MPD2    C5  477   2.292   0.630  14.745  0.4463 -0.7695 -0.3057
   31MPD2     H  478   1.986   0.852  14.757  0.8261  0.2074  1.8218
   31MPD2    H1  479   2.243   0.550  14.940  1.3014 -1.0365 -1.4932
   31MPD2    H2  480   2.338   0.722  14.561  1.2835 -0.1860 -0.3302
   31MPD2    H3  481   2.373   0.558  14.745  3.2924  2.4346 -0.1414
   31MPD2     N  482   2.007   0.656  14.954  0.5402 -0.2603  0.1502
   31MPD2    H5  483   2.046   0.585  15.015  0.3936 -1.3938 -1.0726
   31MPD2    N1  484   2.124   0.886  14.536  0.1548 -0.7942  0.0265
   31MPD2    H7  485   2.203   0.914  14.479  0.3434  0.4488  0.8966
   32TCq2    C1  486   1.877   0.704  14.959  0.3639  0.6699  0.4993
   32TCq2    O2  487   1.815   0.785  14.891 -0.0148  0.2819 -0.0982
   32TCq2    C2  488   1.790   0.642  15.056 -0.3210 -0.1008  0.3272
   32TCq2    C3  489   1.659   0.634  15.017 -0.0464  0.2167 -0.6720
   32TCq2    C4  490   1.580   0.562  15.101  1.0417  0.1318 -0.1588
   32TCq2    C5  491   1.619   0.503  15.213 -0.0297 -0.2379  0.3344
   32TCq2    C6  492   1.748   0.512  15.243  0.6194  0.1040  0.1785
   32TCq2    C7  493   1.841   0.574  15.161 -0.2144 -0.1492  0.0306
   32TCq2    C8  494   1.797   0.439  15.365  0.5999 -0.3493  0.8128
   32TCq2    O4  495   1.916   0.436  15.384  0.3673  0.0560  0.6783
   32TCq2    C9  496   1.439   0.569  15.083 -0.1367 -0.7661 -0.2075
   32TCq2    O5  497   1.403   0.620  14.973  0.7389 -0.2502  0.2001
   32TCq2    O6  498   1.368   0.545  15.183  0.5750  0.4511 -0.1510
   32TCq2    H2  499   1.623   0.685  14.928 -0.3859 -0.6809 -1.0486
   32TCq2    H3  500   1.555   0.429  15.259  0.2412  0.8253  2.4087
   32TCq2    H4  501   1.944   0.577  15.196 -0.2494 -1.2609  0.2093
   33MPD2     C  502   1.260   3.282  10.707  0.0029  0.2630 -0.6546
   33MPD2    C1  503   1.378   3.225  10.662 -0.0021 -0.0074  0.5459
   33MPD2    C2  504   1.389   3.188  10.533 -0.2001 -0.4432  0.6101
   33MPD2    C3  505   1.290   3.214  10.439  0.5643 -0.3062  0.2346
   33MPD2    C4  506   1.168   3.262  10.485 -0.4964 -0.2651  0.2656
   33MPD2    C5  507   1.160   3.301  10.620  0.2325  0.2531 -0.0050
   33MPD2     H  508   1.479   3.144  10.490 -0.4600 -0.5114  0.1252
   33MPD2    H1  509   1.087   3.301  10.425 -2.4067 -2.2195  1.5751
   33MPD2    H2  510   1.244   3.301  10.813 -0.3717 -2.3149 -0.2301
   33MPD2    H3  511   1.070   3.341  10.666 -0.9647  0.7213 -2.7583
   33MPD2     N  512   1.306   3.194  10.305 -0.2427  0.5613 -0.0736
   33MPD2    H5  513   1.219   3.199  10.254 -0.2099  2.8842  0.0853
   33MPD2    N1  514   1.476   3.200  10.761 -0.4063 -0.5915 -0.5202
   33MPD2    H7  515   1.463   3.241  10.853  1.3731 -2.8821  0.7431
   34TCq2    C1  516   1.418   3.178  10.232  0.2963 -0.0775  0.4399
   34TCq2    O2  517   1.536   3.169  10.271 -0.4037  0.0738 -0.3707
   34TCq2    C2  518   1.384   3.186  10.087 -0.5715  0.4502  0.1561
   34TCq2    C3  519   1.255   3.156  10.055 -0.2530  0.3390  0.0547
   34TCq2    C4  520   1.185   3.215   9.952 -0.0792  0.7812 -1.0939
   34TCq2    C5  521   1.249   3.316   9.883 -0.0912  0.4541 -0.0021
   34TCq2    C6  522   1.374   3.356   9.927  0.4325 -0.0682 -0.3055
   34TCq2    C7  523   1.449   3.286  10.020 -0.2406  0.7087 -0.0315
   34TCq2    C8  524   1.403   3.491   9.899  0.3714  0.1144 -0.2506
   34TCq2    O4  525   1.470   3.547   9.987 -1.0642 -0.3792  0.5285
   34TCq2    C9  526   1.052   3.161   9.918 -0.1385 -0.0664  0.1565
   34TCq2    O5  527   0.984   3.087   9.996  0.5381 -0.6404 -0.1903
   34TCq2    O6  528   1.009   3.211   9.812  0.6787 -0.3500 -0.3366
   34TCq2    H2  529   1.211   3.074  10.112  1.8451 -0.4363  0.5555
   34TCq2    H3  530   1.189   3.352   9.800 -2.3950 -1.8618  0.6531
   34TCq2    H4  531   1.549   3.320  10.045  0.7374 -1.0725 -1.5081
   35MPD2     C  532   3.121   0.030  11.871  0.5920 -0.3056 -0.5180
   35MPD2    C1  533   3.132   4.628  11.814 -0.3536  0.2113 -0.6877
   35MPD2    C2  534   3.146   4.614  11.676 -0.1908 -0.4998  0.0430
   35MPD2    C3  535   3.128   0.005  11.599  0.0118 -0.1482 -0.0416
   35MPD2    C4  536   3.113   0.131  11.659  0.0497  0.2181  0.1267
   35MPD2    C5  537   3.113   0.142  11.794  0.2526  0.6563  0.6007
   35MPD2     H  538   3.147   4.519  11.625 -2.0863  0.3962 -1.6778
   35MPD2    H1  539   3.109   0.221  11.597  1.8981  0.6994  0.7024
   35MPD2    H2  540   3.116   0.037  11.979  0.1864  0.3961 -0.5797
   35MPD2    H3  541   3.108   0.238  11.844  0.5330  0.5694  0.7949
   35MPD2     N  542   3.120   4.715  11.464 -0.5373  0.4973 -0.1665
   35MPD2    H5  543   3.125   4.619  11.431  1.7541 -0.1788  2.1817
   35MPD2    N1  544   3.127   4.512  11.899  0.6479 -0.0936 -0.1283
   35MPD2    H7  545   3.103   4.530  11.996 -0.0567  1.9266 -0.6659
   36TCq2    C1  546   3.088   0.084  11.370  0.0979 -0.3034  0.0939
   36TCq2    O2  547   3.080   0.206  11.375 -0.2041  0.3596 -0.2206
   36TCq2    C2  548   3.071   0.036  11.238 -0.2152  0.0005  0.3616
   36TCq2    C3  549   3.055   0.124  11.135  0.1922 -0.0488 -0.2772
   36TCq2    C4  550   2.983   0.102  11.023  0.0981 -0.2834  0.1344
   36TCq2    C5  551   2.936   4.697  11.002  0.8056  0.2731 -0.2931
   36TCq2    C6  552   2.972   4.606  11.097  0.0081 -0.6720 -0.1342
   36TCq2    C7  553   3.031   4.633  11.212 -0.4128 -0.0649  0.2542
   36TCq2    C8  554   2.899   4.478  11.106 -0.0354  0.2319  0.5077
   36TCq2    O4  555   2.925   4.393  11.197  0.0493 -0.2856 -0.0867
   36TCq2    C9  556   2.974   0.203  10.927  0.4615 -0.6727 -0.1597
   36TCq2    O5  557   3.046   0.311  10.936  0.0276  0.4761 -0.2775
   36TCq2    O6  558   2.901   0.184  10.827 -0.2311 -0.0456  0.0217
   36TCq2    H2  559   3.073   0.230  11.151  0.5140  0.0899 -1.6082
   36TCq2    H3  560   2.914   4.668  10.900 -1.0008 -2.2827  0.8397
   36TCq2    H4  561   2.998   4.567  11.291 -1.0874 -1.7406 -1.4160
   37TMC2    C1  562   0.528   4.712  12.430  0.9306 -0.1312 -0.9136
   37TMC2    C2  563   0.437   4.629  12.365  0.4065  0.3606 -0.0120
   37TMC2    C3  564   0.475   4.584  12.241 -0.4606  0.3883 -0.5718
   37TMC2    C4  565   0.643   0.034  12.371  0.1360  0.5348 -0.5252
   37TMC2    C5  566   0.677   4.715  12.247  0.2049  0.2830  1.0703
   37TMC2    C6  567   0.594   4.625  12.179  0.4859 -0.4067  0.3788
   37TMC2     C  568   0.496   0.018  12.569  0.8901 -0.0398 -0.2488
   37TMC2     O  569   0.379   4.722  12.592  0.5179 -0.2769  0.1918
   37TMC2     H  570   0.354   4.577  12.411 -0.0843  1.5276  0.4122
   37TMC2    H1  571   0.701   0.115  12.414 -0.9474  0.3364  1.2823
   37TMC2    H2  572   0.631   4.577  12.089 -0.6284 -2.1545  0.8481
   37TMC2    C7  573   0.814   0.004  12.205  0.0646 -0.0988 -0.7649
   37TMC2    C8  574   0.399   4.471  12.186 -0.1678  0.1053  0.5680
   37TMC2    O1  575   0.878   0.057  12.294  0.0712 -0.6459 -0.0535
   37TMC2    O2  576   0.309   4.423  12.255 -0.3360  0.1384  0.3617
   37TMC2    O5  577   0.403   4.496  12.050 -0.4731  0.0584  0.0360
   37TMC2    H5  578   0.464   4.569  12.025 -1.5225  0.8458 -0.2321
   38MPD2     C  579   0.605   0.106  13.060  0.5849  0.3601 -0.2891
   38MPD2    C1  580   0.722   0.082  12.992 -0.9177 -0.1577  1.1549
   38MPD2    C2  581   0.725   0.052  12.859 -0.6941 -0.3759 -0.0528
   38MPD2    C3  582   0.607   0.061  12.782  0.4348  0.5270  0.5601
   38MPD2    C4  583   0.493   0.103  12.843  0.0871 -0.2177 -0.1117
   38MPD2    C5  584   0.494   0.126  12.979 -0.4595  0.0423  0.0420
   38MPD2     H  585   0.821   0.026  12.816 -0.5704  0.8759 -0.5368
   38MPD2    H1  586   0.396   0.111  12.795 -0.8056 -1.6337  1.4648
   38MPD2    H2  587   0.602   0.127  13.167 -1.1373  2.7886 -0.8318
   38MPD2    H3  588   0.404   0.142  13.036 -0.0564  0.6258  0.5233
   38MPD2     N  589   0.609   0.039  12.642 -0.8953 -0.1088 -0.0026
   38MPD2    H5  590   0.693   0.029  12.586  0.0186  0.0753  1.3466
   38MPD2    N1  591   0.847   0.061  13.057 -0.5916  0.6941  0.0891
   38MPD2    H7  592   0.925   0.030  13.000  0.8682 -2.4317  3.7539
   39MPD2     C  593   3.936   1.401   1.788 -0.5967 -0.6134  0.2854
   39MPD2    C1  594   3.854   1.403   1.897  0.6223  0.4556  0.6066
   39MPD2    C2  595   3.714   1.407   1.887 -0.5192 -0.5071  0.0915
   39MPD2    C3  596   3.665   1.422   1.757 -0.4573 -0.4863 -0.1380
   39MPD2    C4  597   3.749   1.407   1.648 -0.4548  0.6590  0.5537
   39MPD2    C5  598   3.880   1.411   1.663  1.2710 -0.2031  0.5872
   39MPD2     H  599   3.648   1.426   1.971  0.5051  1.8174  0.3895
   39MPD2    H1  600   3.709   1.413   1.548  0.6548 -1.3127 -0.0126
   39MPD2    H2  601   4.043   1.404   1.806 -0.2135 -0.7790 -1.9517
   39MPD2    H3  602   3.946   1.422   1.578 -0.5504 -2.5009 -1.0976
   39MPD2     N  603   3.524   1.436   1.726  0.3345 -0.4071  0.7424
   39MPD2    H5  604   3.498   1.425   1.628 -0.1736  1.7981  0.6322
   39MPD2    N1  605   3.921   1.406   2.027 -0.1131 -0.1702 -0.6179
   39MPD2    H7  606   4.020   1.428   2.028  0.3753 -2.4495  3.1802
   40TCq2    C1  607   3.851   1.398   2.145  0.0520 -1.1093  0.8564
   40TCq2    O2  608   3.730   1.393   2.170  0.1576 -0.0300 -0.4909
   40TCq2    C2  609   3.934   1.381   2.261  0.2528 -0.0990 -0.6331
   40TCq2    C3  610   3.876   1.348   2.381 -0.4147 -0.2422 -0.6140
   40TCq2    C4  611   3.951   1.320   2.487 -0.8752  0.7083  0.3257
   40TCq2    C5  612   4.081   1.318   2.470 -0.0821  0.0313 -0.0165
   40TCq2    C6  613   4.143   1.341   2.351  0.2176 -0.0072  0.6812
   40TCq2    C7  614   4.070   1.382   2.241  0.3837 -0.3650  0.1993
   40TCq2    C8  615   4.281   1.300   2.348  0.4838 -0.2111 -0.2358
   40TCq2    O4  616   4.322   1.227   2.436  0.3824 -0.1786 -0.3546
   40TCq2    C9  617   3.888   1.282   2.613  0.2239  0.6234 -0.0384
   40TCq2    O5  618   3.979   1.259   2.701  0.2661  0.2677  0.7509
   40TCq2    O6  619   3.769   1.245   2.619  0.2377  0.3086 -0.5920
   40TCq2    H2  620   3.768   1.340   2.385 -0.6524  1.7659 -2.9882
   40TCq2    H3  621   4.143   1.282   2.551  0.8555 -1.5606 -1.4338
   40TCq2    H4  622   4.125   1.398   2.149 -1.4082  1.2995 -0.5838
   41TMC2    C1  623   2.720   4.613  13.890  0.9619  0.2522 -0.1008
   41TMC2    C2  624   2.613   4.632  13.972  0.4093 -0.5553 -0.4196
   41TMC2    C3  625   2.527   0.002  13.925  0.1511 -0.9010 -0.5270
   41TMC2    C4  626   2.742   4.678  13.769 -0.0031 -0.4554 -0.2667
   41TMC2    C5  627   2.656   0.054  13.729 -0.5251 -0.1058 -0.1619
   41TMC2    C6  628   2.545   0.077  13.807 -0.4078  0.8406 -0.5399
   41TMC2     C  629   2.830   4.520  13.932  0.2622  0.4463  0.0280
   41TMC2     O  630   2.917   4.497  13.847 -0.1480  0.2385  0.1338
   41TMC2     H  631   2.588   4.566  14.054  0.7085  0.9060  0.8460
   41TMC2    H1  632   2.825   4.647  13.708 -0.8653 -2.8802 -0.1923
   41TMC2    H2  633   2.481   0.159  13.777  0.9038  1.6667 -1.0718
   41TMC2    C7  634   2.655   0.110  13.594  0.9017  0.3396 -0.6064
   41TMC2    C8  635   2.411   0.028  14.008  1.0327 -0.3132  0.1510
   41TMC2    O1  636   2.546   0.147  13.557  0.2526 -0.1204  0.6394
   41TMC2    O2  637   2.418   4.714  14.127 -0.5500  0.3377 -0.3014
   41TMC2    O5  638   2.334   0.126  13.953 -0.1059 -0.3697 -0.5489
   41TMC2    H5  639   2.314   0.115  13.858 -0.8592 -0.9905 -0.3190
   42MPD2     C  640   3.009   4.345  14.082  0.5366  0.0182  0.0128
   42MPD2    C1  641   2.903   4.412  14.137 -0.1635 -0.4554 -1.2664
   42MPD2    C2  642   2.869   4.399  14.275  0.2987  1.0671  0.2838
   42MPD2    C3  643   2.953   4.317  14.357  0.1367  0.5088 -0.2119
   42MPD2    C4  644   3.061   4.257  14.294 -0.4772  0.7112 -0.1840
   42MPD2    C5  645   3.095   4.266  14.160  0.1003 -0.7665  0.0714
   42MPD2     H  646   2.779   4.451  14.307  0.8526  2.0344  0.2559
   42MPD2    H1  647   3.140   4.212  14.353 -0.0950 -2.1682 -2.9237
   42MPD2    H2  648   3.040   4.352  13.978  0.1847  1.3155  0.0024
   42MPD2    H3  649   3.186   4.227  14.117  0.6335 -0.2639  0.7476
   42MPD2     N  650   2.924   4.294  14.497  0.4976 -0.0646  0.0697
   42MPD2    H5  651   2.970   4.218  14.544  0.3327  0.2964  0.8119
   42MPD2    N1  652   2.816   4.494  14.064  0.4107  0.1304  0.4657
   42MPD2    H7  653   2.733   4.537  14.103  1.3258 -0.5106  3.1214
   43MPD2     C  654   4.078   2.748   0.978  0.3521  0.5198  0.0482
   43MPD2    C1  655   4.070   2.636   1.066  0.2333  0.9754  0.4620
   43MPD2    C2  656   4.042   2.668   1.195 -0.4605  0.1810 -0.4289
   43MPD2    C3  657   3.991   2.788   1.234 -0.1819  0.1395  0.5669
   43MPD2    C4  658   3.972   2.886   1.136  0.2135 -0.1909 -0.8743
   43MPD2    C5  659   4.012   2.865   1.011 -0.0934 -0.3845  0.6449
   43MPD2     H  660   4.049   2.589   1.269  1.2655 -1.0771 -1.9155
   43MPD2    H1  661   3.931   2.984   1.161  0.3314  0.2667 -2.4891
   43MPD2    H2  662   4.111   2.730   0.876 -1.0523 -1.3625 -0.0721
   43MPD2    H3  663   3.995   2.944   0.939 -2.1467 -0.0861  1.4422
   43MPD2     N  664   3.950   2.823   1.365  0.0387 -0.2090  0.2032
   43MPD2    H5  665   3.898   2.909   1.377  0.0711 -0.5593  2.8512
   43MPD2    N1  666   4.116   2.504   1.038 -0.3432  0.3890  0.7052
   43MPD2    H7  667   4.127   2.441   1.116 -2.5432 -0.7634  0.0891
   44TCq2    C1  668   3.991   2.748   1.957  0.0602 -0.0326 -0.3422
   44TCq2    O2  669   4.081   2.668   1.961  0.0380  0.4257 -0.2068
   44TCq2    C2  670   3.941   2.807   1.834 -0.1472 -0.8646 -0.7415
   44TCq2    C3  671   3.906   2.938   1.839  0.1906  0.3022 -0.5689
   44TCq2    C4  672   3.877   3.003   1.723  0.3703  0.0387 -0.3924
   44TCq2    C5  673   3.872   2.937   1.604  0.3422 -0.3758 -0.5429
   44TCq2    C6  674   3.924   2.812   1.600 -0.2688  0.4048 -0.2563
   44TCq2    C7  675   3.966   2.748   1.716 -0.1551 -0.5025 -0.0462
   44TCq2    C8  676   3.954   2.745   1.480 -0.5009  0.1097  0.6826
   44TCq2    O4  677   3.994   2.632   1.481  0.0719 -0.0519 -0.2154
   44TCq2    C9  678   3.842   3.143   1.740 -0.0262  0.3613 -0.5089
   44TCq2    O5  679   3.857   3.200   1.852 -0.2395 -0.0093 -0.3399
   44TCq2    O6  680   3.828   3.214   1.635 -0.0560  0.2085 -0.0761
   44TCq2    H2  681   3.907   2.990   1.934  0.5311  2.0383 -1.5175
   44TCq2    H3  682   3.837   2.993   1.518  2.0032  1.7672  0.1769
   44TCq2    H4  683   3.991   2.643   1.715 -1.0576 -0.7286  1.6921
   45TMC2    C1  684   0.438   4.345   9.737  0.0365 -0.6528 -0.8066
   45TMC2    C2  685   0.557   4.284   9.690  0.3931  0.0312  0.3218
   45TMC2    C3  686   0.671   4.349   9.686 -0.2599  0.3097  0.1396
   45TMC2    C4  687   0.449   4.476   9.795  0.5755 -0.7145 -0.0191
   45TMC2    C5  688   0.572   4.536   9.785  0.3643  0.4253 -0.2092
   45TMC2    C6  689   0.687   4.475   9.738 -0.2107 -0.2008 -0.6492
   45TMC2     C  690   0.314   4.287   9.696 -0.3485 -0.6968  0.1688
   45TMC2     O  691   0.320   4.184   9.623  0.0889  0.2557 -0.3580
   45TMC2     H  692   0.549   4.190   9.636  0.6977 -0.4780  1.1654
   45TMC2    H1  693   0.368   4.513   9.858  0.6534 -0.2107 -0.2124
   45TMC2    H2  694   0.781   4.527   9.745 -0.3250  0.1631 -1.7857
   45TMC2    C7  695   0.584   4.652   9.866 -0.3584  0.5441  0.0374
   45TMC2    C8  696   0.780   4.290   9.617  0.7625  0.1836 -0.3563
   45TMC2    O1  697   0.490   4.670   9.945 -0.1558  0.5509  0.2573
   45TMC2    O2  698   0.848   4.363   9.552 -0.2529  0.2101 -1.2705
   45TMC2    O5  699   0.824   4.208   9.716  0.2766 -0.0078 -0.0046
   45TMC2    H5  700   0.751   4.167   9.768  0.3102 -2.7097 -2.0904
   46MPD2     C  701   0.021   4.207   9.661  0.3093  0.4307  0.4102
   46MPD2    C1  702   0.066   4.336   9.697 -0.2310 -0.2329  0.6371
   46MPD2    C2  703   4.701   4.441   9.725  0.4221  0.1210  0.7554
   46MPD2    C3  704   4.572   4.418   9.701  0.0727 -0.4113 -0.0297
   46MPD2    C4  705   4.520   4.293   9.660 -0.0364 -0.5942  0.0936
   46MPD2    C5  706   4.613   4.191   9.641 -0.7233 -0.2628 -0.0742
   46MPD2     H  707   0.015   4.537   9.761 -1.2967  0.6347  1.1170
   46MPD2    H1  708   4.417   4.276   9.630 -0.7373 -0.6665  2.4753
   46MPD2    H2  709   0.088   4.123   9.660 -1.5083 -1.0159  0.5813
   46MPD2    H3  710   4.580   4.091   9.616  0.0124 -0.4748 -0.2079
   46MPD2     N  711   4.487   4.532   9.719  0.2674 -0.1171  0.8426
   46MPD2    H5  712   4.533   4.616   9.750  1.6850 -0.0900 -1.2989
   46MPD2    N1  713   0.199   4.359   9.735 -0.0637  0.0797 -0.2080
   46MPD2    H7  714   0.218   4.456   9.759  0.8815 -0.7936  2.5777
   47TMC2    C1  715   2.529   0.978   9.367  0.0501  0.2098 -0.8422
   47TMC2    C2  716   2.428   0.920   9.443  0.1557 -0.2601 -0.2135
   47TMC2    C3  717   2.324   1.006   9.479  0.9447 -0.0036  0.4757
   47TMC2    C4  718   2.534   1.112   9.338  0.6144  0.4153 -0.1486
   47TMC2    C5  719   2.429   1.188   9.378 -0.1846  0.4012  1.1409
   47TMC2    C6  720   2.324   1.138   9.444 -0.5274  0.2144 -0.4923
   47TMC2     C  721   2.643   0.899   9.335 -1.0805 -1.0077  0.5311
   47TMC2     O  722   2.747   0.966   9.334 -0.1499  0.5111 -0.4657
   47TMC2     H  723   2.433   0.820   9.484  2.0317  1.2657  3.3338
   47TMC2    H1  724   2.606   1.148   9.265  0.3010  2.5360  0.5824
   47TMC2    H2  725   2.244   1.196   9.489  1.5343  2.3351  0.4248
   47TMC2    C7  726   2.438   1.336   9.366  0.2865 -0.4184  0.3430
   47TMC2    C8  727   2.252   0.980   9.607 -0.6115  0.5689  0.8562
   47TMC2    O1  728   2.548   1.376   9.335 -0.7195  0.5278 -0.2007
   47TMC2    O2  729   2.269   1.060   9.700  0.2080  0.3003 -0.0362
   47TMC2    O5  730   2.241   0.845   9.619  0.3005 -0.5947 -0.3182
   47TMC2    H5  731   2.224   0.812   9.529 -0.3586 -0.3352 -0.2927
   48MPD2     C  732   2.845   0.687   9.323 -0.1090  0.5291  0.0096
   48MPD2    C1  733   2.708   0.662   9.332  0.4899  0.6315 -0.7604
   48MPD2    C2  734   2.662   0.531   9.341 -0.0494 -0.6525 -0.5213
   48MPD2    C3  735   2.749   0.419   9.347 -0.6718  0.0170  0.2050
   48MPD2    C4  736   2.884   0.453   9.341  0.4110 -0.3876  0.0620
   48MPD2    C5  737   2.926   0.582   9.331  0.1823  0.5083 -0.2723
   48MPD2     H  738   2.555   0.515   9.347  0.1449 -0.9265  2.1183
   48MPD2    H1  739   2.970   0.387   9.340  0.1495 -0.7402  0.5972
   48MPD2    H2  740   2.886   0.787   9.313 -1.2982  1.1110  0.8569
   48MPD2    H3  741   3.033   0.590   9.320  0.5074  1.3274  3.4393
   48MPD2     N  742   2.694   0.283   9.343  0.2913  0.2164  0.3632
   48MPD2    H5  743   2.592   0.279   9.346  0.2889  1.0196  1.4394
   48MPD2    N1  744   2.615   0.762   9.332  0.1677  0.4738  0.1628
   48MPD2    H7  745   2.517   0.735   9.330  1.0376 -2.5695 -1.1665
   49MPD2     C  746   0.805   3.212  10.613  0.0561  0.4937  0.1627
   49MPD2    C1  747   0.716   3.106  10.603 -0.4370 -0.2035  0.1615
   49MPD2    C2  748   0.649   3.056  10.714  0.0010 -0.2408 -0.2134
   49MPD2    C3  749   0.671   3.119  10.834 -0.4178 -0.4953 -0.0112
   49MPD2    C4  750   0.753   3.233  10.844 -0.0754 -0.3812 -0.2671
   49MPD2    C5  751   0.813   3.285  10.731  0.1635 -0.0562 -0.7804
   49MPD2     H  752   0.570   2.983  10.700  0.4964 -0.6250 -0.9801
   49MPD2    H1  753   0.765   3.283  10.939 -1.4765 -1.8191  0.6698
   49MPD2    H2  754   0.868   3.238  10.529 -0.3038  0.4129 -0.1338
   49MPD2    H3  755   0.877   3.372  10.744  2.8563 -2.2253  0.4621
   49MPD2     N  756   0.599   3.088  10.949  0.1732 -0.1795 -0.2697
   49MPD2    H5  757   0.608   3.144  11.033 -0.0154  0.4345 -0.6586
   49MPD2    N1  758   0.679   3.047  10.476 -0.0624 -0.3698  0.4735
   49MPD2    H7  759   0.611   2.972  10.473 -1.2776  0.8785 -2.9987
   50TCq2    C1  760   0.722   3.098  10.356 -0.8135  0.8206 -0.2044
   50TCq2    O2  761   0.778   3.205  10.335  0.3904  0.3263  0.1441
   50TCq2    C2  762   0.658   3.030  10.244  0.1210 -0.1372 -0.0416
   50TCq2    C3  763   0.629   3.097  10.129 -0.9390 -0.1009 -0.0805
   50TCq2    C4  764   0.533   3.035  10.043 -0.8182 -0.7169  0.3761
   50TCq2    C5  765   0.494   2.906  10.060 -0.7850  0.0482  0.0869
   50TCq2    C6  766   0.549   2.842  10.165 -0.1574 -0.1254  0.0054
   50TCq2    C7  767   0.631   2.899  10.258  0.0377  0.3718  0.0391
   50TCq2    C8  768   0.544   2.691  10.172  0.2407 -0.0356  0.3628
   50TCq2    O4  769   0.608   2.640  10.259  0.1216  0.4284 -1.0198
   50TCq2    C9  770   0.487   3.102   9.928 -0.3117  0.3268  0.4247
   50TCq2    O5  771   0.478   3.225   9.934 -0.3684  0.0902 -0.7054
   50TCq2    O6  772   0.464   3.039   9.826  0.0554  0.8581  0.1714
   50TCq2    H2  773   0.651   3.203  10.122 -2.1708  0.0922 -1.2065
   50TCq2    H3  774   0.444   2.853   9.980  0.4406 -1.0731  0.0689
   50TCq2    H4  775   0.666   2.842  10.343 -1.1012  3.1293  2.3474
   51MPD2     C  776   1.651   0.947   1.371  1.1204 -0.6093  0.4762
   51MPD2    C1  777   1.539   0.946   1.459 -0.5706  0.4557 -0.8233
   51MPD2    C2  778   1.563   1.011   1.574 -0.0777 -0.4173  0.9177
   51MPD2    C3  779   1.689   1.058   1.620 -0.6309 -0.1520  0.1733
   51MPD2    C4  780   1.794   1.054   1.532  0.0159  0.1126  0.2950
   51MPD2    C5  781   1.774   0.996   1.411  0.0054 -0.3865 -0.0027
   51MPD2     H  782   1.478   1.015   1.642 -0.3169  0.7110  0.5462
   51MPD2    H1  783   1.894   1.084   1.563  0.2088 -0.0765 -0.1421
   51MPD2    H2  784   1.649   0.898   1.275  2.4045 -1.3761  0.8501
   51MPD2    H3  785   1.853   1.004   1.337 -2.1461 -1.2434 -2.3954
   51MPD2     N  786   1.717   1.106   1.751 -0.3396 -0.4858  0.4889
   51MPD2    H5  787   1.804   1.150   1.776 -0.8750  1.7107 -1.4968
   51MPD2    N1  788   1.411   0.892   1.431  0.2068 -0.2841  0.1460
   51MPD2    H7  789   1.354   0.889   1.515  0.2136  0.9129  0.1951
   52TCq2    C1  790   1.619   1.134   1.846  0.0266 -1.1459 -0.8361
   52TCq2    O2  791   1.498   1.121   1.848  0.4019  0.1224  0.4694
   52TCq2    C2  792   1.676   1.208   1.957 -0.6778  0.3917 -0.2164
   52TCq2    C3  793   1.807   1.172   2.002 -0.1104 -0.9024  0.0498
   52TCq2    C4  794   1.866   1.243   2.099  0.0741  0.0684 -0.4229
   52TCq2    C5  795   1.811   1.363   2.143 -0.1943  0.3688 -0.5372
   52TCq2    C6  796   1.686   1.392   2.103  0.3605 -0.3688 -0.2611
   52TCq2    C7  797   1.612   1.319   2.011 -0.8176  0.6192 -0.1058
   52TCq2    C8  798   1.627   1.522   2.138  0.0291  0.3670 -0.8047
   52TCq2    O4  799   1.702   1.613   2.173 -0.4620 -0.0117 -0.1072
   52TCq2    C9  800   2.007   1.219   2.139  0.1273 -0.1317 -0.3221
   52TCq2    O5  801   2.043   1.299   2.223 -0.5248 -0.4742 -0.1399
   52TCq2    O6  802   2.066   1.117   2.102 -0.8683  0.0235  0.1737
   52TCq2    H2  803   1.865   1.087   1.967 -0.9100 -1.4080 -0.0564
   52TCq2    H3  804   1.863   1.418   2.221 -1.7860  0.6299  0.3365
   52TCq2    H4  805   1.523   1.362   1.967 -1.7419 -1.1861 -0.0218
   53TMC2    C1  806   1.528   0.082  12.245 -0.4757 -0.7800  0.1578
   53TMC2    C2  807   1.645   0.014  12.269 -0.0775 -0.7827 -0.1692
   53TMC2    C3  808   1.687   0.019  12.399 -0.0460 -0.6060 -0.8835
   53TMC2    C4  809   1.457   0.152  12.341  0.2902  0.5013 -0.3139
   53TMC2    C5  810   1.513   0.147  12.460  0.4005  0.0925 -0.2399
   53TMC2    C6  811   1.620   0.078  12.497 -0.4381 -0.4919 -0.3041
   53TMC2     C  812   1.451   0.045  12.131 -0.8357 -1.0683  0.1483
   53TMC2     O  813   1.516   0.011  12.034  0.0229 -0.2320  0.4285
   53TMC2     H  814   1.703   4.688  12.192 -0.5661 -2.3982  0.4913
   53TMC2    H1  815   1.375   0.223  12.333  0.3217  0.8727  2.8381
   53TMC2    H2  816   1.649   0.063  12.601  1.1117  1.8297 -0.3897
   53TMC2    C7  817   1.415   0.168  12.567  0.3398 -0.2988 -0.0771
   53TMC2    C8  818   1.825   4.704  12.422 -0.1733 -0.2602 -0.4640
   53TMC2    O1  819   1.300   0.157  12.525 -0.5277  0.4897  0.5324
   53TMC2    O2  820   1.888   4.647  12.336  0.1152 -0.2292 -0.1806
   53TMC2    O5  821   1.875   0.052  12.525  0.4798 -0.3539 -0.1856
   53TMC2    H5  822   1.802   0.105  12.564  0.3216  1.4447 -2.8688
   54MPD2     C  823   1.230   0.013  11.924 -0.5272 -0.6849 -0.3260
   54MPD2    C1  824   1.211   0.025  12.056  0.7095  0.1992 -0.0644
   54MPD2    C2  825   1.083   0.027  12.108  0.2414 -0.0506  0.2931
   54MPD2    C3  826   0.976   4.713  12.034 -1.1390  0.2191 -0.5223
   54MPD2    C4  827   0.997   4.691  11.903  0.1606  0.3169  0.1976
   54MPD2    C5  828   1.119   4.709  11.845  0.1451 -0.5609 -0.1810
   54MPD2     H  829   1.069   0.060  12.210 -0.8342 -0.2044  0.1941
   54MPD2    H1  830   0.912   4.662  11.842 -0.1215 -1.1834  1.3058
   54MPD2    H2  831   1.330   0.021  11.884 -0.5236 -0.7980 -0.3386
   54MPD2    H3  832   1.135   4.681  11.742 -0.2436 -0.0692 -0.3793
   54MPD2     N  833   0.843   4.704  12.073 -0.0834 -0.7753 -0.5744
   54MPD2    H5  834   0.767   4.703  12.005  0.4317  0.3268 -1.1790
   54MPD2    N1  835   1.314   0.049  12.149 -0.4508 -0.3781  0.5302
   54MPD2    H7  836   1.292   0.074  12.245  1.1189 -1.1931  1.0923
   55MPD2     C  837   2.530   2.111  16.735  0.2948  0.4661  0.0415
   55MPD2    C1  838   2.595   2.132  16.852 -0.6857 -0.7343  0.5793
   55MPD2    C2  839   2.534   2.214  16.948 -0.5254 -0.5102  0.1840
   55MPD2    C3  840   2.401   2.253  16.938 -0.2175  0.2578 -0.0238
   55MPD2    C4  841   2.333   2.221  16.821  0.0284 -0.0524  0.5430
   55MPD2    C5  842   2.401   2.153  16.725 -0.5004  0.0935  0.0149
   55MPD2     H  843   2.586   2.223  17.042 -1.7201  0.0218  0.7974
   55MPD2    H1  844   2.228   2.239  16.799  0.3670  1.8708  0.5012
   55MPD2    H2  845   2.567   2.071  16.641  2.2744  1.4699  0.4069
   55MPD2    H3  846   2.352   2.132  16.631  1.4483  0.7799 -1.1369
   55MPD2     N  847   2.346   2.341  17.035  0.1067  0.0082 -0.1982
   55MPD2    H5  848   2.391   2.347  17.126  0.2137 -0.8982 -0.1883
   55MPD2    N1  849   2.712   2.052  16.876  0.1101  0.2783  0.3585
   55MPD2    H7  850   2.732   1.999  16.792  0.6890 -2.3533  2.1763
   56TCq2    C1  851   2.773   2.034  16.995  0.2454 -0.0162 -0.1549
   56TCq2    O2  852   2.735   2.078  17.103 -0.2075 -0.1955  0.0958
   56TCq2    C2  853   2.880   1.928  17.002  0.4110 -0.0136 -0.2325
   56TCq2    C3  854   2.931   1.890  16.880 -0.5190 -0.1470 -0.3707
   56TCq2    C4  855   2.993   1.765  16.874  0.2032  0.4860  0.1259
   56TCq2    C5  856   2.986   1.685  16.991 -0.1212 -0.0702 -0.4067
   56TCq2    C6  857   2.931   1.729  17.109  0.1952  0.0206 -0.9954
   56TCq2    C7  858   2.888   1.859  17.116  0.4856  0.0096  0.4763
   56TCq2    C8  859   2.933   1.642  17.227 -0.0498 -0.2822 -0.3185
   56TCq2    O4  860   3.015   1.548  17.237  0.7722  0.5744  0.1953
   56TCq2    C9  861   3.049   1.717  16.751 -0.7928  0.3097  0.2387
   56TCq2    O5  862   3.026   1.786  16.652 -0.2031 -0.9329  0.0539
   56TCq2    O6  863   3.087   1.595  16.746 -0.9634 -0.4914 -0.3403
   56TCq2    H2  864   2.936   1.955  16.793  0.1055 -0.8234 -0.8448
   56TCq2    H3  865   3.025   1.584  16.991 -0.9779 -0.4064  1.0168
   56TCq2    H4  866   2.872   1.904  17.214  0.8914  0.5526  0.2932
   57TMC2    C1  867   0.867   3.573  13.907 -0.0860 -0.2403 -0.2172
   57TMC2    C2  868   0.945   3.685  13.910  0.2504 -0.0346 -0.1643
   57TMC2    C3  869   1.050   3.700  13.828 -0.5041  0.4825  0.3266
   57TMC2    C4  870   0.871   3.494  13.798  0.1888  0.4648 -0.1687
   57TMC2    C5  871   0.970   3.515  13.702  0.1070  0.1812  0.0988
   57TMC2    C6  872   1.064   3.612  13.723  0.6560 -0.5182 -0.3870
   57TMC2     C  873   0.761   3.564  14.002  0.3079 -0.1431 -0.5794
   57TMC2     O  874   0.735   3.669  14.056 -0.5224 -0.6009  0.3062
   57TMC2     H  875   0.940   3.754  13.994 -0.6230 -0.0157 -0.2378
   57TMC2    H1  876   0.805   3.408  13.794 -1.6708  1.9344 -1.1635
   57TMC2    H2  877   1.151   3.620  13.660 -0.5100  4.2921 -1.4298
   57TMC2    C7  878   0.994   3.413  13.599  0.5947 -0.0625 -0.7601
   57TMC2    C8  879   1.159   3.768  13.892 -0.9790 -0.4601  0.1798
   57TMC2    O1  880   1.112   3.412  13.561  1.1242 -0.1604  0.2662
   57TMC2    O2  881   1.198   3.739  14.006 -0.0365  0.5588 -0.3441
   57TMC2    O5  882   1.230   3.814  13.787  0.5734 -0.0256 -0.0646
   57TMC2    H5  883   1.170   3.831  13.711 -0.1781  0.0865  0.5511
   58MPD2     C  884   0.534   3.316  14.388  0.0543 -0.2632 -0.4473
   58MPD2    C1  885   0.522   3.449  14.354  0.9759  0.1351 -0.4919
   58MPD2    C2  886   0.599   3.494  14.245 -0.1400  0.0529  0.0895
   58MPD2    C3  887   0.671   3.407  14.168  0.4470 -0.3301  0.5346
   58MPD2    C4  888   0.682   3.279  14.211  0.7733 -0.0742  0.7835
   58MPD2    C5  889   0.632   3.241  14.334 -0.3486  0.1347 -0.3612
   58MPD2     H  890   0.588   3.599  14.219  0.6475  0.5836  1.9047
   58MPD2    H1  891   0.742   3.202  14.163  0.0899 -1.3802  2.0320
   58MPD2    H2  892   0.484   3.273  14.473  0.0178  2.2970  0.8195
   58MPD2    H3  893   0.660   3.143  14.370 -1.9809 -0.3824 -0.4825
   58MPD2     N  894   0.739   3.438  14.047 -0.6399 -0.0778 -0.3325
   58MPD2    H5  895   0.788   3.361  14.003 -2.2435 -0.6168 -1.1941
   58MPD2    N1  896   0.433   3.542  14.421 -0.6506 -0.7114 -0.5231
   58MPD2    H7  897   0.422   3.636  14.384 -0.8042 -1.0511 -1.3572
   59MPD2     C  898   3.863   3.914  12.827 -0.0566 -0.4070 -0.2688
   59MPD2    C1  899   3.790   3.844  12.922 -0.2320  0.5834  0.2522
   59MPD2    C2  900   3.821   3.860  13.061 -0.0254 -0.1495 -0.1221
   59MPD2    C3  901   3.926   3.943  13.097  0.8174 -0.2834  0.3203
   59MPD2    C4  902   4.002   3.998  13.001  0.0187  0.4311 -0.4625
   59MPD2    C5  903   3.970   3.989  12.869  0.2294  0.4380 -0.3792
   59MPD2     H  904   3.757   3.810  13.133 -0.9814 -0.6169 -1.3009
   59MPD2    H1  905   4.089   4.060  13.023  1.7033 -2.0725 -0.1037
   59MPD2    H2  906   3.850   3.891  12.722 -1.1030  0.9671 -0.4489
   59MPD2    H3  907   4.029   4.027  12.786  2.4822 -1.2131  0.4591
   59MPD2     N  908   3.962   3.965  13.235 -0.0420  0.1495  0.5318
   59MPD2    H5  909   4.035   4.034  13.248  1.8945 -2.3195  3.0543
   59MPD2    N1  910   3.686   3.764  12.874 -0.0120 -0.1923 -0.4750
   59MPD2    H7  911   3.679   3.750  12.773  1.1130 -1.2620 -0.4067
   60TCq2    C1  912   3.604   3.690  12.959 -0.0082 -0.6502  0.5682
   60TCq2    O2  913   3.587   3.684  13.080 -0.3429 -0.3440 -0.5744
   60TCq2    C2  914   3.511   3.606  12.885 -0.5041  0.5981 -0.0788
   60TCq2    C3  915   3.471   3.492  12.942 -0.4056 -0.4468  0.0005
   60TCq2    C4  916   3.398   3.402  12.878 -0.1880 -0.7809 -0.0973
   60TCq2    C5  917   3.355   3.423  12.751  0.5236  0.8985  0.1008
   60TCq2    C6  918   3.390   3.542  12.699 -0.2314  0.8854 -0.0451
   60TCq2    C7  919   3.468   3.641  12.758 -0.5850 -0.0242  0.4907
   60TCq2    C8  920   3.372   3.560  12.554 -0.8968 -0.7652  0.6570
   60TCq2    O4  921   3.367   3.457  12.488  0.2162  0.4544  0.1424
   60TCq2    C9  922   3.344   3.287  12.955 -0.9659  0.1166 -0.2235
   60TCq2    O5  923   3.371   3.292  13.081 -0.4086 -1.1415 -0.0584
   60TCq2    O6  924   3.255   3.212  12.902 -0.5020 -0.0858  0.1551
   60TCq2    H2  925   3.500   3.477  13.046  1.4687 -0.0764 -0.4689
   60TCq2    H3  926   3.286   3.358  12.700  2.0399 -1.0031  0.4706
   60TCq2    H4  927   3.488   3.740  12.720 -1.9463  0.0199 -0.1038
   61MPD2     C  928   3.261   0.296  14.481 -0.1167 -0.9900 -0.2152
   61MPD2    C1  929   3.203   0.298  14.602 -0.0316  0.1901  0.7900
   61MPD2    C2  930   3.080   0.364  14.613  1.0067 -0.0149 -0.1305
   61MPD2    C3  931   3.021   0.426  14.504 -0.0056 -0.6462  0.1470
   61MPD2    C4  932   3.085   0.423  14.381 -0.4244  0.0184  0.4161
   61MPD2    C5  933   3.199   0.345  14.368  0.0236 -0.4180  0.1701
   61MPD2     H  934   3.029   0.366  14.708  1.0980 -0.4499 -0.0737
   61MPD2    H1  935   3.038   0.458  14.289 -2.3437 -1.0151  1.0082
   61MPD2    H2  936   3.359   0.251  14.469 -0.2140 -0.9039 -1.3262
   61MPD2    H3  937   3.241   0.333  14.269  0.8404 -1.0370  0.5971
   61MPD2     N  938   2.890   0.493  14.518  0.1500 -0.1746  0.2042
   61MPD2    H5  939   2.856   0.559  14.449  0.3933 -0.3075 -0.0455
   61MPD2    N1  940   3.259   0.246  14.717 -0.2799 -0.1282 -0.4866
   61MPD2    H7  941   3.200   0.260  14.798 -2.3626 -2.1685 -1.6393
   62TCq2    C1  942   3.350   0.144  14.732  0.7187  0.1385  0.2391
   62TCq2    O2  943   3.398   0.068  14.648 -0.2550 -0.1362 -0.2116
   62TCq2    C2  944   3.375   0.108  14.870 -0.2819  0.6365  0.1769
   62TCq2    C3  945   3.382   4.695  14.897  0.8039 -0.3986  0.0133
   62TCq2    C4  946   3.379   4.653  15.028 -0.4059  0.5414  0.3066
   62TCq2    C5  947   3.379   0.029  15.128  0.4611  0.6202  0.3414
   62TCq2    C6  948   3.376   0.162  15.091 -0.5416 -0.6385  0.2081
   62TCq2    C7  949   3.370   0.203  14.963  0.4700  0.0464 -0.1438
   62TCq2    C8  950   3.346   0.273  15.180  0.0033  0.5159 -0.5196
   62TCq2    O4  951   3.423   0.369  15.179 -0.1457 -0.5404 -0.1698
   62TCq2    C9  952   3.356   4.516  15.063 -0.1883 -0.5214  0.5280
   62TCq2    O5  953   3.377   4.482  15.183 -0.0942 -0.2248 -0.4497
   62TCq2    O6  954   3.282   4.456  14.982  0.5426  0.1141 -0.2412
   62TCq2    H2  955   3.391   4.622  14.817 -0.8516  0.1819 -0.7051
   62TCq2    H3  956   3.385   4.708  15.227 -1.3641  1.7172  0.9565
   62TCq2    H4  957   3.361   0.309  14.947  0.0189  0.1248  0.6066
   63TMC2    C1  958   2.327   0.435  10.564 -0.0581  0.6662  0.2314
   63TMC2    C2  959   2.439   0.376  10.510  0.9042 -0.3838 -0.2313
   63TMC2    C3  960   2.500   0.440  10.404  0.0893  0.0830  0.3330
   63TMC2    C4  961   2.266   0.542  10.509 -0.2637 -0.5614 -0.5750
   63TMC2    C5  962   2.334   0.609  10.405  0.2232 -0.2441  0.3562
   63TMC2    C6  963   2.437   0.542  10.345 -0.0808 -0.0016 -0.2092
   63TMC2     C  964   2.249   0.355  10.663 -0.6028 -0.2527 -0.2966
   63TMC2     O  965   2.181   0.421  10.740 -0.0932 -0.8072  0.4294
   63TMC2     H  966   2.484   0.295  10.566  0.5618  0.0363  0.6614
   63TMC2    H1  967   2.181   0.591  10.555 -0.9328 -1.1150 -1.2145
   63TMC2    H2  968   2.480   0.579  10.253  0.4037  0.6358  0.2718
   63TMC2    C7  969   2.278   0.727  10.344  0.5699 -0.4847  0.3882
   63TMC2    C8  970   2.590   0.368  10.325 -0.6707  0.7067 -0.1618
   63TMC2    O1  971   2.162   0.753  10.365 -0.0323  0.4412  0.0279
   63TMC2    O2  972   2.589   0.357  10.202  0.3858 -0.4206  0.2163
   63TMC2    O5  973   2.680   0.316  10.410 -0.1066  0.3751 -0.5092
   63TMC2    H5  974   2.685   0.359  10.498  0.0278 -0.6650 -0.0069
   64MPD2     C  975   2.093   4.636  10.884 -0.2977  0.1736  0.2135
   64MPD2    C1  976   2.158   4.607  10.763  0.5051 -0.1971 -0.5897
   64MPD2    C2  977   2.223   4.707  10.697 -0.9839  0.4081  0.8529
   64MPD2    C3  978   2.207   0.116  10.734  0.6206 -0.2249  0.5673
   64MPD2    C4  979   2.125   0.142  10.845 -0.0484  0.1281 -0.2157
   64MPD2    C5  980   2.081   0.040  10.920  1.1011  0.0085 -0.3001
   64MPD2     H  981   2.292   4.699  10.614 -0.5413 -1.9257  1.4452
   64MPD2    H1  982   2.102   0.243  10.874  1.8687  0.5101 -0.0509
   64MPD2    H2  983   2.045   4.562  10.947 -2.6369  1.5207  0.0126
   64MPD2    H3  984   2.016   0.058  11.006  2.7623 -0.2995  1.0207
   64MPD2     N  985   2.264   0.216  10.652 -1.0736 -0.2419  0.0958
   64MPD2    H5  986   2.325   0.186  10.576  0.3469  3.6778 -0.2949
   64MPD2    N1  987   2.178   4.471  10.712 -0.0391  0.4749  0.4022
   64MPD2    H7  988   2.245   4.456  10.637  1.5160  0.3425  1.8036
   65MPD2     C  989   4.097   4.525  16.094 -0.0322  0.8519 -0.2188
   65MPD2    C1  990   4.069   4.513  15.962 -0.8380 -0.1519  0.4030
   65MPD2    C2  991   4.001   4.396  15.922 -0.2340 -0.4582  0.1525
   65MPD2    C3  992   3.968   4.298  16.010 -0.6180  0.7954 -0.2677
   65MPD2    C4  993   3.991   4.315  16.146 -0.5880 -0.5178  0.7680
   65MPD2    C5  994   4.052   4.430  16.182 -0.2529  0.6338 -0.7370
   65MPD2     H  995   3.975   4.389  15.817 -0.7518 -0.2318  0.2660
   65MPD2    H1  996   3.983   4.236  16.220  1.3349 -3.6137 -2.3204
   65MPD2    H2  997   4.151   4.610  16.133  1.0778  0.9013 -1.8393
   65MPD2    H3  998   4.090   4.455  16.280 -1.4185  0.8433 -0.3350
   65MPD2     N  999   3.901   4.175  15.975  1.1500  0.3197 -0.0757
   65MPD2    H5 1000   3.883   4.119  16.058 -2.3867  0.2852 -0.8692
   65MPD2    N1 1001   4.085   4.608  15.861  0.6883  0.2574 -0.2528
   65MPD2    H7 1002   4.043   4.583  15.772 -2.4131  1.4430  0.8508
   66TCq2    C1 1003   4.146   0.008  15.876 -0.1171  0.3813  0.3726
   66TCq2    O2 1004   4.169   0.069  15.978  0.1578 -0.5734 -0.3820
   66TCq2    C2 1005   4.160   0.079  15.750  0.0690  0.1253 -0.0987
   66TCq2    C3 1006   4.172   0.010  15.629 -0.0655  0.5471 -0.0830
   66TCq2    C4 1007   4.169   0.093  15.519  0.4544 -0.9227  0.0457
   66TCq2    C5 1008   4.170   0.231  15.526 -0.1727 -0.5979  0.2002
   66TCq2    C6 1009   4.179   0.296  15.645  0.0052 -0.5467 -0.3947
   66TCq2    C7 1010   4.173   0.216  15.761  0.4298 -0.6906 -0.0324
   66TCq2    C8 1011   4.157   0.437  15.652 -0.2228 -0.8116 -0.3346
   66TCq2    O4 1012   4.196   0.514  15.568  0.0946 -0.3060  0.5749
   66TCq2    C9 1013   4.170   0.030  15.388 -0.1068 -0.6371  0.6734
   66TCq2    O5 1014   4.188   0.109  15.290  0.0829  0.3727 -0.5055
   66TCq2    O6 1015   4.193   4.628  15.376 -0.0413  0.6106  0.0771
   66TCq2    H2 1016   4.162   4.626  15.618  0.4847  0.3829  1.1412
   66TCq2    H3 1017   4.167   0.290  15.435 -1.6874  2.1312  2.0358
   66TCq2    H4 1018   4.189   0.260  15.859  0.1597 -2.2508  0.6979
   67MPD2     C 1019   3.846   3.555  14.497  0.1499  0.4390  0.3665
   67MPD2    C1 1020   3.784   3.646  14.582  0.1687  0.9924  0.3722
   67MPD2    C2 1021   3.655   3.689  14.539 -0.4258 -0.0170 -0.0183
   67MPD2    C3 1022   3.591   3.644  14.424  0.1182 -0.7090 -0.5204
   67MPD2    C4 1023   3.657   3.553  14.346  0.0103 -0.3816 -0.4468
   67MPD2    C5 1024   3.780   3.500  14.386  0.6451 -0.2670 -0.1456
   67MPD2     H 1025   3.603   3.762  14.600  0.9984  1.7864 -0.9847
   67MPD2    H1 1026   3.612   3.515  14.256 -0.2466  1.9385 -1.3056
   67MPD2    H2 1027   3.950   3.531  14.517 -0.1802 -1.2390  0.0712
   67MPD2    H3 1028   3.834   3.424  14.330 -1.9629 -2.3044  0.0666
   67MPD2     N 1029   3.460   3.673  14.381 -0.5062 -0.1390  0.2604
   67MPD2    H5 1030   3.428   3.622  14.299  0.0741  0.9900 -0.6536
   67MPD2    N1 1031   3.844   3.696  14.699  0.0257 -0.3816 -0.2893
   67MPD2    H7 1032   3.784   3.747  14.763  1.7316  2.1400 -0.7355
   68TCq2    C1 1033   3.968   3.666  14.753 -0.9555  0.1209 -0.3448
   68TCq2    O2 1034   4.063   3.601  14.711  0.1428  0.9319 -0.1657
   68TCq2    C2 1035   3.989   3.724  14.886 -0.1877  0.7092 -1.1249
   68TCq2    C3 1036   3.906   3.817  14.933  0.0128  0.3955 -0.1134
   68TCq2    C4 1037   3.938   3.875  15.055  0.0120  0.7617 -0.5153
   68TCq2    C5 1038   4.031   3.816  15.138 -0.0968 -0.1805  0.1819
   68TCq2    C6 1039   4.118   3.731  15.079  0.6029 -0.6657  0.6634
   68TCq2    C7 1040   4.101   3.684  14.954 -0.1701 -0.2322 -0.8447
   68TCq2    C8 1041   4.248   3.702  15.142 -0.7707 -0.4132  0.7237
   68TCq2    O4 1042   4.333   3.688  15.059 -0.2197  0.1887  0.0563
   68TCq2    C9 1043   3.874   4.002  15.099 -0.0510 -0.5741 -1.1206
   68TCq2    O5 1044   3.883   4.018  15.229 -0.1983  0.0085 -0.1197
   68TCq2    O6 1045   3.846   4.090  15.015  0.6919 -0.1800  0.1984
   68TCq2    H2 1046   3.826   3.859  14.873  0.2964 -0.9497 -1.4466
   68TCq2    H3 1047   4.050   3.862  15.235 -3.9356  0.4623  0.6315
   68TCq2    H4 1048   4.180   3.629  14.905  0.2227  1.2775 -1.9312
   69TMC2    C1 1049   1.124   0.699  12.774  0.2591 -0.1557 -0.0010
   69TMC2    C2 1050   0.997   0.738  12.736  0.9307 -0.4139 -0.4563
   69TMC2    C3 1051   0.965   0.722  12.605  0.1727  0.3427  0.3043
   69TMC2    C4 1052   1.215   0.644  12.682  0.6834 -0.0030 -0.5632
   69TMC2    C5 1053   1.170   0.620  12.556 -0.2677  0.2178  0.0425
   69TMC2    C6 1054   1.051   0.672  12.508  0.2219 -0.0865 -0.3588
   69TMC2     C 1055   1.153   0.692  12.919 -0.3915 -0.1290 -0.4573
   69TMC2     O 1056   1.058   0.715  12.994 -0.1405 -0.6001  0.2064
   69TMC2     H 1057   0.932   0.783  12.810  0.3311 -0.8753 -0.7030
   69TMC2    H1 1058   1.309   0.600  12.714  0.6373  1.8044  2.1124
   69TMC2    H2 1059   1.026   0.679  12.403 -0.8068  0.8659 -0.0580
   69TMC2    C7 1060   1.269   0.569  12.463 -0.0901 -0.7063 -0.3981
   69TMC2    C8 1061   0.836   0.783  12.578 -0.1810  0.5403 -1.0802
   69TMC2    O1 1062   1.383   0.567  12.504 -0.9476  0.3033 -0.5469
   69TMC2    O2 1063   0.745   0.799  12.659 -0.3174  0.2988 -0.4347
   69TMC2    O5 1064   0.839   0.851  12.466 -0.2945  0.0080 -0.7844
   69TMC2    H5 1065   0.929   0.858  12.428  1.1441 -2.0204  2.3808
   70MPD2     C 1066   1.459   0.656  13.108  0.2480  0.3966  0.2888
   70MPD2    C1 1067   1.328   0.651  13.086 -0.4846  0.3825  0.2459
   70MPD2    C2 1068   1.248   0.611  13.189 -0.2516 -0.2445  0.3096
   70MPD2    C3 1069   1.294   0.593  13.318  0.7048  0.6028 -0.5879
   70MPD2    C4 1070   1.430   0.592  13.335 -0.1789 -0.1564  0.3103
   70MPD2    C5 1071   1.510   0.620  13.227 -0.3298  0.0196 -0.0238
   70MPD2     H 1072   1.141   0.608  13.174 -0.1040 -4.5860  0.0485
   70MPD2    H1 1073   1.469   0.551  13.427  1.1476 -0.7941 -0.5253
   70MPD2    H2 1074   1.526   0.687  13.029 -1.6471  0.6623 -1.2162
   70MPD2    H3 1075   1.615   0.623  13.254 -0.5510  1.0537  0.7252
   70MPD2     N 1076   1.216   0.566  13.435  0.9707 -0.5782 -0.0436
   70MPD2    H5 1077   1.273   0.541  13.515  0.3021  0.2747  0.6937
   70MPD2    N1 1078   1.283   0.684  12.957 -0.1108  0.0331  0.2475
   70MPD2    H7 1079   1.357   0.693  12.888  0.1939  1.9814  0.8305
   71TMC2    C1 1080   3.586   1.079   1.840  0.2530 -0.4195 -0.2150
   71TMC2    C2 1081   3.701   1.059   1.917  0.9813  0.2011  0.0140
   71TMC2    C3 1082   3.692   1.073   2.047 -1.0008  0.4924 -0.5390
   71TMC2    C4 1083   3.466   1.125   1.897 -0.9541  0.1100 -0.2078
   71TMC2    C5 1084   3.470   1.138   2.033 -0.7723 -0.2134 -0.5834
   71TMC2    C6 1085   3.577   1.120   2.113 -0.9739  0.2316  0.4243
   71TMC2     C 1086   3.587   1.063   1.699  0.5575 -0.2456 -0.1673
   71TMC2     O 1087   3.516   1.132   1.631  0.0558  0.1584 -0.7536
   71TMC2     H 1088   3.796   1.025   1.878  0.3064  0.3637 -1.7586
   71TMC2    H1 1089   3.377   1.133   1.835 -0.8623  0.9185 -0.2380
   71TMC2    H2 1090   3.575   1.165   2.212  0.2323 -0.3714  0.7255
   71TMC2    C7 1091   3.363   1.206   2.107 -0.0947  0.8545 -0.0785
   71TMC2    C8 1092   3.828   1.064   2.122 -0.2966 -0.2103  0.1595
   71TMC2    O1 1093   3.381   1.283   2.203 -0.2551 -0.2798 -0.7287
   71TMC2    O2 1094   3.930   1.062   2.059 -0.0125 -0.0347 -0.7927
   71TMC2    O5 1095   3.810   1.013   2.249  0.1842  0.9448  0.3085
   71TMC2    H5 1096   3.722   0.981   2.279  0.0775 -0.3874 -1.4580
   72MPD2     C 1097   3.789   0.882   1.264 -0.0417  0.3253 -0.1456
   72MPD2    C1 1098   3.687   0.970   1.283  0.3419  0.0943 -0.1081
   72MPD2    C2 1099   3.664   1.021   1.413 -0.1861  0.3118  0.1356
   72MPD2    C3 1100   3.731   0.965   1.519  0.2399  0.9982 -0.3541
   72MPD2    C4 1101   3.829   0.870   1.495 -0.0029  0.1892 -0.2587
   72MPD2    C5 1102   3.860   0.833   1.368 -0.6918  0.4439  0.0761
   72MPD2     H 1103   3.582   1.093   1.417  1.1076  1.7253  1.2058
   72MPD2    H1 1104   3.882   0.816   1.572 -0.4353  1.3374  0.8548
   72MPD2    H2 1105   3.822   0.860   1.163  0.7345  0.6278  0.0438
   72MPD2    H3 1106   3.939   0.763   1.343 -1.2279 -0.4184  0.8121
   72MPD2     N 1107   3.693   0.978   1.656  0.2874 -0.7310  0.1301
   72MPD2    H5 1108   3.728   0.910   1.723  0.0978 -0.0447  0.9279
   72MPD2    N1 1109   3.601   1.034   1.186  0.2735  0.3323 -0.5014
   72MPD2    H7 1110   3.520   1.086   1.216  0.0077 -1.0306  1.1482
   73TMC2    C1 1111   2.641   2.349  13.637  0.3313 -0.1958 -0.6303
   73TMC2    C2 1112   2.742   2.275  13.691  0.2881  0.2652 -0.5315
   73TMC2    C3 1113   2.753   2.265  13.823 -0.4364 -0.2264  0.1221
   73TMC2    C4 1114   2.566   2.422  13.720  0.2044  0.7059 -0.4111
   73TMC2    C5 1115   2.585   2.424  13.856  0.1419  0.3790 -0.0910
   73TMC2    C6 1116   2.678   2.346  13.910 -0.1117  0.4068  0.5347
   73TMC2     C 1117   2.674   2.435  13.529 -1.2272 -0.7905 -0.0469
   73TMC2     O 1118   2.639   2.550  13.534  0.6536  0.0545 -0.5628
   73TMC2     H 1119   2.823   2.238  13.629 -0.6342 -2.3593 -0.1629
   73TMC2    H1 1120   2.480   2.475  13.679 -0.3201  0.0490 -0.1741
   73TMC2    H2 1121   2.709   2.363  14.012  0.4371  2.3306  0.0399
   73TMC2    C7 1122   2.574   2.561  13.901 -0.0390 -0.0916 -0.4499
   73TMC2    C8 1123   2.891   2.248  13.875 -0.3145 -0.1718 -0.1347
   73TMC2    O1 1124   2.537   2.583  14.014 -0.0255 -0.0239  0.0248
   73TMC2    O2 1125   2.989   2.271  13.806 -0.3142 -0.2108  0.2047
   73TMC2    O5 1126   2.890   2.207  14.003  0.2314 -0.1414  0.5922
   73TMC2    H5 1127   2.800   2.174  14.027  0.1141 -0.2861 -0.0393
   74MPD2     C 1128   2.943   2.573  13.113  0.2955 -0.2683 -0.2560
   74MPD2    C1 1129   2.887   2.647  13.215  0.1177 -0.0090 -0.0215
   74MPD2    C2 1130   2.813   2.587  13.307  0.2380  0.0273 -0.1540
   74MPD2    C3 1131   2.813   2.446  13.318 -0.5488 -0.3888  0.8148
   74MPD2    C4 1132   2.878   2.373  13.217 -0.4118 -0.0017  0.4967
   74MPD2    C5 1133   2.930   2.437  13.108  0.4293 -0.6243 -0.3322
   74MPD2     H 1134   2.767   2.648  13.384 -0.0823  1.2455 -1.3158
   74MPD2    H1 1135   2.887   2.265  13.220 -0.7478  0.0122  2.1963
   74MPD2    H2 1136   2.978   2.620  13.022 -0.6962  0.0552 -0.4611
   74MPD2    H3 1137   2.984   2.380  13.034 -2.6974 -1.9585 -1.5915
   74MPD2     N 1138   2.758   2.375  13.436 -1.2635 -0.5206  0.3551
   74MPD2    H5 1139   2.764   2.274  13.433  0.7876 -0.3128 -2.3346
   74MPD2    N1 1140   2.907   2.787  13.218 -0.7081 -0.3501 -0.4677
   74MPD2    H7 1141   2.970   2.834  13.154  0.4920  2.0824  2.5463
   75TCq2    C1 1142   3.373   3.754  14.449  0.5099 -0.5972 -0.3797
   75TCq2    O2 1143   3.386   3.785  14.566 -0.2450  0.0107 -0.2142
   75TCq2    C2 1144   3.239   3.758  14.384  0.0634  0.6727 -0.3626
   75TCq2    C3 1145   3.149   3.781  14.482 -0.5531  0.3957 -0.5230
   75TCq2    C4 1146   3.035   3.851  14.452 -0.3575  0.9676 -0.3434
   75TCq2    C5 1147   3.000   3.887  14.329  0.0588 -0.5586  0.4396
   75TCq2    C6 1148   3.096   3.874  14.230  0.1428 -0.0105  0.2425
   75TCq2    C7 1149   3.220   3.817  14.261  0.3148  0.5293  0.9333
   75TCq2    C8 1150   3.068   3.901  14.089 -0.4537 -0.1327 -0.5372
   75TCq2    O4 1151   3.151   3.856  14.010 -0.5027  0.2171  0.2204
   75TCq2    C9 1152   2.942   3.872  14.554 -0.3670  0.7309  0.0773
   75TCq2    O5 1153   2.862   3.968  14.541  0.3222 -0.0513  0.5549
   75TCq2    O6 1154   2.942   3.796  14.657 -0.0105  0.2494 -0.2281
   75TCq2    H2 1155   3.164   3.750  14.585  1.3056  0.9461 -0.6202
   75TCq2    H3 1156   2.898   3.920  14.313  0.0335 -0.2679  1.1850
   75TCq2    H4 1157   3.296   3.796  14.186 -0.0433  4.9443 -0.6254
   76MPD2     C 1158   2.252   0.042  12.604  0.7237  0.5436  0.8857
   76MPD2    C1 1159   2.244   4.702  12.480 -0.1552 -0.1134  0.6311
   76MPD2    C2 1160   2.286   4.571  12.469  0.9250 -0.8056 -0.0514
   76MPD2    C3 1161   2.337   4.501  12.579 -0.6747 -0.4968 -0.4240
   76MPD2    C4 1162   2.340   4.566  12.699  0.2210 -0.6600 -0.3945
   76MPD2    C5 1163   2.292   4.693  12.706 -0.7587 -0.3378  0.8003
   76MPD2     H 1164   2.255   4.523  12.377  0.8592 -0.3207 -0.2827
   76MPD2    H1 1165   2.377   4.525  12.792 -0.4370 -1.9007 -0.6859
   76MPD2    H2 1166   2.212   0.141  12.624 -0.6766  0.4574 -1.4984
   76MPD2    H3 1167   2.281   0.017  12.803 -0.4752 -0.4550  0.8896
   76MPD2     N 1168   2.370   4.361  12.581  0.3659  0.2768 -0.1783
   76MPD2    H5 1169   2.407   4.321  12.667  1.2261 -0.4766 -0.9187
   76MPD2    N1 1170   2.174   0.043  12.374 -0.2298 -0.2423 -0.4082
   76MPD2    H7 1171   2.160   4.707  12.292  1.4267  0.7683 -1.4241
   77TCq2    C1 1172   2.339   4.274  12.479 -0.1498  0.2533  0.4503
   77TCq2    O2 1173   2.297   4.302  12.367 -0.2854 -0.5642  0.1852
   77TCq2    C2 1174   2.374   4.136  12.503  0.2271  0.4612  0.2303
   77TCq2    C3 1175   2.320   4.051  12.416  0.1913  0.7260  0.3769
   77TCq2    C4 1176   2.376   3.930  12.400 -0.4270  0.9320  0.0496
   77TCq2    C5 1177   2.483   3.887  12.478 -0.0717  0.2728  0.6742
   77TCq2    C6 1178   2.524   3.969  12.579  0.6478  0.2218  0.0284
   77TCq2    C7 1179   2.481   4.102  12.584  0.0425 -0.0590 -0.5715
   77TCq2    C8 1180   2.636   3.929  12.667 -0.2649  0.7486 -0.4089
   77TCq2    O4 1181   2.645   3.817  12.703  0.6507  0.2866 -0.2634
   77TCq2    C9 1182   2.332   3.839  12.293 -0.5482  0.1945 -0.6823
   77TCq2    O5 1183   2.237   3.868  12.218  0.4484  0.3033 -0.6959
   77TCq2    O6 1184   2.388   3.722  12.293  0.0686  0.4089  0.3170
   77TCq2    H2 1185   2.243   4.081  12.345  0.7312  0.7997 -0.1703
   77TCq2    H3 1186   2.538   3.794  12.464 -0.5558  0.0174  0.4838
   77TCq2    H4 1187   2.520   4.162  12.666  1.7666 -1.5655 -0.2837
   78MPD1     C 1188   0.574   3.297   3.243 -0.2376  0.2191  0.0632
   78MPD1    C1 1189   0.500   3.196   3.194 -0.2022 -0.4972  0.2897
   78MPD1    C2 1190   0.389   3.237   3.118 -0.4061 -0.2962 -0.5290
   78MPD1    C3 1191   0.343   3.368   3.113 -0.0228 -0.4036 -0.7170
   78MPD1    C4 1192   0.404   3.463   3.186  0.3203 -0.4638  0.1349
   78MPD1    C5 1193   0.522   3.429   3.248  0.3454  0.5086  0.5742
   78MPD1     H 1194   0.351   3.167   3.045 -1.4160  0.6517 -0.9066
   78MPD1    H1 1195   0.372   3.566   3.194  0.7574 -0.2695 -0.5397
   78MPD1    H2 1196   0.668   3.282   3.295  0.1104  1.1297 -0.2917
   78MPD1    H3 1197   0.571   3.507   3.304 -2.3727  0.1775  3.3992
   78MPD1     N 1198   0.237   3.405   3.026  0.5343 -0.1085  0.0487
   78MPD1    H5 1199   0.225   3.506   3.026 -3.0363 -0.5550  1.5565
   78MPD1    N1 1200   0.559   3.068   3.195 -0.2214  0.0722 -0.1585
   78MPD1    H6 1201   0.616   3.053   3.278  1.5421 -0.9030 -1.5494
   78MPD1    H7 1202   0.490   2.994   3.184  0.2205 -0.1208 -1.6899
   79TCq2    C1 1203   0.147   3.318   2.977 -0.0862 -0.3734 -0.8470
   79TCq2    O2 1204   0.133   3.203   3.023 -0.5540  0.5432 -1.1877
   79TCq2    C2 1205   0.045   3.381   2.896  0.3382  0.0712  0.1870
   79TCq2    C3 1206   4.651   3.314   2.877 -0.2851 -0.2598  0.1113
   79TCq2    C4 1207   4.546   3.373   2.805 -0.2754  0.3071 -0.0423
   79TCq2    C5 1208   4.565   3.496   2.748 -0.0996 -0.4801  0.0209
   79TCq2    C6 1209   4.684   3.560   2.754 -0.0638 -0.2127 -0.4700
   79TCq2    C7 1210   0.059   3.504   2.834 -0.1671 -0.1492  0.7229
   79TCq2    C8 1211   4.710   3.687   2.684 -0.3225 -0.5777 -0.7279
   79TCq2    O4 1212   0.101   3.730   2.697  0.8074 -0.5116 -0.1413
   79TCq2    C9 1213   4.426   3.305   2.784 -0.1292 -0.4206  0.3292
   79TCq2    O5 1214   4.345   3.350   2.698 -0.2988  0.3211  0.4098
   79TCq2    O6 1215   4.397   3.207   2.857 -0.3890 -0.0163  0.8498
   79TCq2    H2 1216   4.629   3.212   2.906  0.0163  0.0628  1.5031
   79TCq2    H3 1217   4.480   3.527   2.689  0.7710 -1.0559 -1.5398
   79TCq2    H4 1218   0.148   3.563   2.852  2.0654 -3.5488  0.7604
   80MPD2     C 1219   1.528   4.490  12.584  0.3289  0.3159 -0.1295
   80MPD2    C1 1220   1.397   4.531  12.579 -0.1198 -0.0487 -0.9101
   80MPD2    C2 1221   1.330   4.572  12.692  0.1958  0.1348  0.0769
   80MPD2    C3 1222   1.404   4.579  12.810 -0.2000  0.2356 -0.8247
   80MPD2    C4 1223   1.537   4.544  12.816  0.4599 -0.8325 -0.2075
   80MPD2    C5 1224   1.601   4.501  12.700 -0.3601 -0.5044 -0.7365
   80MPD2     H 1225   1.224   4.595  12.685  0.2078 -0.4645 -2.0106
   80MPD2    H1 1226   1.596   4.540  12.908 -1.4780  0.8080  1.1116
   80MPD2    H2 1227   1.583   4.463  12.494  0.7373  0.8699 -0.0410
   80MPD2    H3 1228   1.704   4.468  12.696 -0.4859 -1.1534  1.2771
   80MPD2     N 1229   1.339   4.602  12.931  0.1654 -0.2057  0.0633
   80MPD2    H5 1230   1.390   4.583  13.017 -0.6773 -1.8140  0.2164
   80MPD2    N1 1231   1.322   4.522  12.458  0.0768  0.6351  0.1683
   80MPD2    H7 1232   1.222   4.535  12.467 -0.0611  0.1300 -0.6974
   81TCq2    C1 1233   1.365   4.465  12.336 -0.5042  0.1321  0.2381
   81TCq2    O2 1234   1.473   4.435  12.297 -0.3123 -0.1795 -0.1370
   81TCq2    C2 1235   1.251   4.444  12.246  0.1517 -0.0225 -0.1285
   81TCq2    C3 1236   1.287   4.426  12.114 -0.5296  1.3114  0.1612
   81TCq2    C4 1237   1.198   4.388  12.024  0.0231  0.1712 -0.0082
   81TCq2    C5 1238   1.065   4.373  12.057  0.0307 -0.0208 -0.3149
   81TCq2    C6 1239   1.038   4.377  12.189 -0.3774  0.1673  0.9234
   81TCq2    C7 1240   1.128   4.416  12.290 -0.0741 -0.3678 -0.1054
   81TCq2    C8 1241   0.894   4.355  12.223  0.5139  0.4407  0.1233
   81TCq2    O4 1242   0.802   4.370  12.144 -0.3195 -0.0396  0.5306
   81TCq2    C9 1243   1.241   4.366  11.887 -0.3139  0.2845 -0.7378
   81TCq2    O5 1244   1.155   4.316  11.811  0.2973  0.0390 -0.2890
   81TCq2    O6 1245   1.363   4.388  11.855 -0.8862 -0.3998 -0.2834
   81TCq2    H2 1246   1.386   4.461  12.087  0.5426 -1.6335  0.2789
   81TCq2    H3 1247   0.997   4.330  11.984  0.2592  0.5633 -0.8662
   81TCq2    H4 1248   1.095   4.433  12.391 -0.7403 -3.9575  0.2722
   82MPD2     C 1249   4.187   3.850  10.763 -0.2516 -0.0975  0.5896
   82MPD2    C1 1250   4.112   3.737  10.751 -0.6215  0.5572 -0.2723
   82MPD2    C2 1251   4.155   3.622  10.821 -0.5315  0.0417 -0.2635
   82MPD2    C3 1252   4.263   3.627  10.907 -0.5848  0.3054 -0.1774
   82MPD2    C4 1253   4.329   3.748  10.929  0.1527  0.3701  0.0808
   82MPD2    C5 1254   4.293   3.854  10.844  0.1196 -0.5493 -0.1200
   82MPD2     H 1255   4.090   3.536  10.820 -0.2403 -0.1837  0.0047
   82MPD2    H1 1256   4.411   3.767  10.997 -0.0948  3.1568 -0.3985
   82MPD2    H2 1257   4.160   3.937  10.704 -1.4571 -0.5774  0.4378
   82MPD2    H3 1258   4.346   3.948  10.852 -2.0756  0.5642  1.4903
   82MPD2     N 1259   4.301   3.526  10.992  0.3575  0.3681  0.3136
   82MPD2    H5 1260   4.368   3.560  11.061  0.3683 -0.3857  0.6725
   82MPD2    N1 1261   3.985   3.748  10.685 -0.0273 -0.3980 -0.2269
   82MPD2    H7 1262   3.964   3.839  10.646 -1.8447 -0.4313  0.6457
   83TCq2    C1 1263   4.235   3.407  11.001  0.5154  0.1094  0.8356
   83TCq2    O2 1264   4.200   3.342  10.904  0.6394  0.5830  0.1305
   83TCq2    C2 1265   4.219   3.342  11.132 -0.1871  0.0912  0.2767
   83TCq2    C3 1266   4.209   3.428  11.238  0.0179  0.7607  0.1985
   83TCq2    C4 1267   4.174   3.380  11.360 -0.4290 -0.0811 -0.3866
   83TCq2    C5 1268   4.132   3.251  11.373  0.7894 -0.6357  0.1531
   83TCq2    C6 1269   4.140   3.166  11.269  0.2622  0.1028 -0.5405
   83TCq2    C7 1270   4.181   3.214  11.145 -0.0023 -0.6665  0.0701
   83TCq2    C8 1271   4.047   3.054  11.280  0.6652  0.2619 -0.1530
   83TCq2    O4 1272   3.956   3.068  11.366 -0.4370  0.2214 -0.1620
   83TCq2    C9 1273   4.149   3.461  11.479  0.7090  0.1323 -0.0442
   83TCq2    O5 1274   4.154   3.588  11.461 -0.2578 -0.1727  0.6070
   83TCq2    O6 1275   4.106   3.404  11.583  0.2755  0.0898  0.2452
   83TCq2    H2 1276   4.237   3.531  11.222 -0.1829  0.8065  0.1413
   83TCq2    H3 1277   4.100   3.213  11.470  0.9042  0.4097  0.6044
   83TCq2    H4 1278   4.181   3.156  11.053  0.1415  0.7204 -0.8106
   84TCq2    C1 1279   0.512   2.983  10.959 -0.5492  0.0606 -0.4168
   84TCq2    O2 1280   0.491   2.891  10.879 -0.4867 -0.2596 -0.0815
   84TCq2    C2 1281   0.427   2.992  11.080  0.0846 -0.2955  0.1728
   84TCq2    C3 1282   0.390   2.875  11.142 -0.1764  0.0122 -0.3748
   84TCq2    C4 1283   0.309   2.891  11.248  0.1842  0.7231  0.6378
   84TCq2    C5 1284   0.267   3.007  11.300  0.6046 -0.8754  0.2150
   84TCq2    C6 1285   0.305   3.120  11.238  0.5240 -0.4419  0.2819
   84TCq2    C7 1286   0.390   3.112  11.128  0.1764 -0.0088  0.2411
   84TCq2    C8 1287   0.257   3.245  11.292 -0.2600  0.0841  0.6290
   84TCq2    O4 1288   0.159   3.246  11.365 -0.0927  0.2197 -0.2193
   84TCq2    C9 1289   0.256   2.778  11.319  0.3192 -0.3346 -0.2337
   84TCq2    O5 1290   0.208   2.801  11.428 -0.2299  0.3229  0.6829
   84TCq2    O6 1291   0.260   2.663  11.272  0.1206  0.0789  0.3215
   84TCq2    H2 1292   0.415   2.776  11.107  0.4573  0.3370 -0.8238
   84TCq2    H3 1293   0.208   3.017  11.391  1.6888  2.6496  0.5141
   84TCq2    H4 1294   0.413   3.201  11.071 -0.5341 -0.6520 -1.0390
   85MPD2     C 1295   0.719   0.629  16.745  0.4354 -0.4441 -0.2281
   85MPD2    C1 1296   0.845   0.594  16.701 -0.1371  0.1366 -0.2898
   85MPD2    C2 1297   0.914   0.690  16.625 -0.3032  0.3199 -0.1501
   85MPD2    C3 1298   0.854   0.810  16.598 -0.4650 -0.7406 -0.2162
   85MPD2    C4 1299   0.731   0.842  16.647 -0.1208 -0.5923 -0.1845
   85MPD2    C5 1300   0.667   0.753  16.721  0.8170 -0.2248 -0.0146
   85MPD2     H 1301   1.015   0.675  16.589  0.6059  1.2031  2.0462
   85MPD2    H1 1302   0.693   0.943  16.647 -0.7219 -0.8199  1.1929
   85MPD2    H2 1303   0.661   0.567  16.813 -0.1559  2.1093  1.6001
   85MPD2    H3 1304   0.578   0.776  16.779  2.3799  1.2325  1.8336
   85MPD2     N 1305   0.940   0.905  16.542  0.8230 -0.2843 -0.1340
   85MPD2    H5 1306   1.034   0.879  16.511 -0.1182 -0.2687 -3.0211
   85MPD2    N1 1307   0.895   0.463  16.706  0.0184 -0.0980 -0.4058
   85MPD2    H7 1308   0.994   0.447  16.686  0.5307  2.2044  0.3173
   86TCq2    C1 1309   0.914   1.039  16.520 -0.2696 -0.7205  0.2211
   86TCq2    O2 1310   0.817   1.108  16.552 -0.1884  0.5839  0.3938
   86TCq2    C2 1311   1.009   1.108  16.446  0.5011 -0.0119  0.1360
   86TCq2    C3 1312   0.997   1.244  16.434  0.5864 -0.1322 -0.1719
   86TCq2    C4 1313   1.083   1.306  16.349  0.5593 -0.3703 -0.6403
   86TCq2    C5 1314   1.169   1.234  16.271  0.1139 -0.6998 -0.5062
   86TCq2    C6 1315   1.172   1.101  16.274  0.8693  1.0632 -0.7709
   86TCq2    C7 1316   1.091   1.030  16.359 -0.2580  0.1852 -0.0724
   86TCq2    C8 1317   1.269   1.017  16.190 -0.0436  0.0390 -0.3189
   86TCq2    O4 1318   1.253   0.893  16.199  0.0266  0.1476 -0.3776
   86TCq2    C9 1319   1.082   1.452  16.336  0.4062 -0.7515 -0.4410
   86TCq2    O5 1320   1.158   1.495  16.246 -0.7480  0.0731 -0.9349
   86TCq2    O6 1321   1.015   1.520  16.416 -0.2478 -0.2993 -0.7793
   86TCq2    H2 1322   0.935   1.309  16.495  0.6141 -1.0496  0.8516
   86TCq2    H3 1323   1.235   1.295  16.209  1.1317 -0.9562  0.3382
   86TCq2    H4 1324   1.093   0.921  16.357  1.1107  0.2117  0.4492
   87MPD2     C 1325   3.783   4.144   1.952 -0.4608 -0.2461  0.5207
   87MPD2    C1 1326   3.895   4.165   1.870  0.4541  0.4524 -0.4763
   87MPD2    C2 1327   3.901   4.280   1.797 -0.4014 -0.0726  0.1275
   87MPD2    C3 1328   3.799   4.376   1.815  0.1868 -0.4763 -0.7206
   87MPD2    C4 1329   3.686   4.349   1.897  0.4539 -0.6126  0.1400
   87MPD2    C5 1330   3.677   4.234   1.961  0.4385 -0.0494 -0.2089
   87MPD2     H 1331   3.974   4.280   1.717  1.0467  0.2895  1.4603
   87MPD2    H1 1332   3.603   4.418   1.905  0.2156 -1.1263  2.0233
   87MPD2    H2 1333   3.777   4.048   2.003 -1.2748 -0.9642 -0.9293
   87MPD2    H3 1334   3.588   4.220   2.021  0.5120  0.7888  0.0891
   87MPD2     N 1335   3.808   4.493   1.745  0.3173  0.1895  0.1057
   87MPD2    H5 1336   3.720   4.543   1.739  0.6702  0.8885  0.7858
   87MPD2    N1 1337   3.993   4.061   1.857 -0.6100  0.2551  0.6452
   87MPD2    H7 1338   3.977   3.970   1.898  1.4944 -1.3765 -2.2227
   88TCq2    C1 1339   4.108   4.061   1.783 -0.5895  0.9623 -0.5872
   88TCq2    O2 1340   4.164   4.158   1.730 -0.9502 -0.1908 -0.1177
   88TCq2    C2 1341   4.161   3.929   1.775  0.4477 -0.4621 -0.4162
   88TCq2    C3 1342   4.129   3.825   1.856 -0.8999 -0.6116  0.2018
   88TCq2    C4 1343   4.174   3.697   1.837  0.0170 -0.6107  0.1649
   88TCq2    C5 1344   4.249   3.662   1.729 -0.1386 -0.2522 -0.7422
   88TCq2    C6 1345   4.296   3.770   1.664 -0.3041 -0.2796 -0.3300
   88TCq2    C7 1346   4.261   3.897   1.687  0.0414 -0.4860 -0.1605
   88TCq2    C8 1347   4.397   3.749   1.562 -0.0080  0.0897 -0.2182
   88TCq2    O4 1348   4.449   3.853   1.512 -0.3619  0.8105  0.3246
   88TCq2    C9 1349   4.151   3.596   1.940 -0.9302  0.9406  0.0262
   88TCq2    O5 1350   4.098   3.640   2.047 -0.1049  0.7807 -0.0013
   88TCq2    O6 1351   4.165   3.474   1.909 -0.7314  0.2510 -0.5919
   88TCq2    H2 1352   4.058   3.844   1.935 -1.3386 -1.1729 -0.0596
   88TCq2    H3 1353   4.294   3.564   1.725 -1.8699 -1.0202 -1.5094
   88TCq2    H4 1354   4.292   3.976   1.619 -0.1401 -1.2482 -1.1194
   89MPD2     C 1355   4.549   1.237   2.247  0.5029  0.5876  0.0549
   89MPD2    C1 1356   4.484   1.355   2.216 -0.6014  0.2893  0.2290
   89MPD2    C2 1357   4.547   1.461   2.142  0.5754  0.3128 -0.4263
   89MPD2    C3 1358   4.679   1.449   2.100  0.3241 -0.3279 -0.1404
   89MPD2    C4 1359   0.020   1.334   2.141  0.1211  0.1084 -0.2177
   89MPD2    C5 1360   4.677   1.229   2.208 -0.2775  0.0212 -0.0032
   89MPD2     H 1361   4.497   1.552   2.110  0.1335  0.2518  0.0955
   89MPD2    H1 1362   0.124   1.332   2.111 -0.2094 -1.8543 -1.2611
   89MPD2    H2 1363   4.499   1.149   2.288 -2.4941  1.7544 -1.1303
   89MPD2    H3 1364   0.007   1.137   2.228  1.0093  0.6949 -0.3262
   89MPD2     N 1365   0.021   1.551   2.025  0.2171  0.1242  0.2682
   89MPD2    H5 1366   4.680   1.625   1.999  0.3556  0.0148 -0.3750
   89MPD2    N1 1367   4.348   1.375   2.255 -0.6761 -0.0538 -0.2443
   89MPD2    H7 1368   4.294   1.445   2.204  0.2701  0.2276 -0.8668
   90TCq2    C1 1369   0.154   1.569   2.002 -0.3061 -0.0208 -0.0510
   90TCq2    O2 1370   0.250   1.509   2.051  0.2773  0.0972 -0.3679
   90TCq2    C2 1371   0.189   1.706   1.963 -0.0836  0.0561  0.6549
   90TCq2    C3 1372   0.293   1.764   2.027  0.0474 -0.0283 -0.8830
   90TCq2    C4 1373   0.312   1.901   2.034 -0.2350 -0.3470 -0.1365
   90TCq2    C5 1374   0.226   1.982   1.962  0.3837 -0.3485  0.4067
   90TCq2    C6 1375   0.120   1.923   1.904  0.2450 -0.1198 -0.0757
   90TCq2    C7 1376   0.094   1.786   1.910 -0.4010  0.8481  0.6279
   90TCq2    C8 1377   0.052   1.994   1.791  0.1195  0.6742 -0.8716
   90TCq2    O4 1378   4.656   1.965   1.777 -0.0399  0.2833  0.4774
   90TCq2    C9 1379   0.424   1.962   2.105  0.6156  1.0324 -0.0027
   90TCq2    O5 1380   0.445   2.085   2.083 -0.1567 -0.3301 -0.4373
   90TCq2    O6 1381   0.484   1.897   2.198  0.2128 -0.7395  0.0277
   90TCq2    H2 1382   0.358   1.697   2.082 -2.1393 -0.7656  0.7862
   90TCq2    H3 1383   0.238   2.090   1.970  0.3230 -0.2561 -0.8305
   90TCq2    H4 1384   0.005   1.745   1.863  1.2178 -3.0846  1.0427
   91TMC2    C1 1385   1.301   1.572  17.143 -0.0684  0.1594  0.1239
   91TMC2    C2 1386   1.300   1.511  17.016  0.2405  0.8492  0.2868
   91TMC2    C3 1387   1.181   1.487  16.959  0.4610 -0.2086  0.1671
   91TMC2    C4 1388   1.188   1.628  17.201 -0.2201  0.2236  0.0880
   91TMC2    C5 1389   1.074   1.605  17.127  1.2971  0.2849 -0.0085
   91TMC2    C6 1390   1.067   1.534  17.010  0.1074 -0.4258  0.6071
   91TMC2     C 1391   1.422   1.577  17.224  0.2237 -0.1208  0.3511
   91TMC2     O 1392   1.413   1.574  17.343 -0.3939  0.1554 -0.0104
   91TMC2     H 1393   1.391   1.484  16.964 -0.4822 -2.0121  0.5232
   91TMC2    H1 1394   1.178   1.672  17.299  1.9780 -1.7455  1.2060
   91TMC2    H2 1395   0.980   1.518  16.949  1.3945  1.5763 -1.7511
   91TMC2    C7 1396   0.962   1.693  17.155  0.6560  0.5706  0.1750
   91TMC2    C8 1397   1.174   1.456  16.820  0.0794  0.3269 -0.2949
   91TMC2    O1 1398   0.934   1.724  17.271  0.2942  0.6197  0.2417
   91TMC2    O2 1399   1.254   1.486  16.735 -0.1047 -0.5490  0.1898
   91TMC2    O5 1400   1.089   1.353  16.807 -0.2896 -0.5492  0.1394
   91TMC2    H5 1401   1.032   1.330  16.883  0.1079  0.0988  0.6353
   92MPD2     C 1402   1.690   1.463  17.317  0.2701  1.0325 -0.0645
   92MPD2    C1 1403   1.653   1.504  17.186  0.0978  0.1654  0.9791
   92MPD2    C2 1404   1.749   1.494  17.089  0.6064 -0.5136  0.0110
   92MPD2    C3 1405   1.871   1.442  17.111  0.8167 -0.1752  0.1783
   92MPD2    C4 1406   1.900   1.384  17.233 -0.4427 -0.3188 -0.1108
   92MPD2    C5 1407   1.809   1.405  17.334 -0.5426 -0.6720  0.1988
   92MPD2     H 1408   1.719   1.527  16.991  0.8719  1.7447  0.6852
   92MPD2    H1 1409   1.988   1.325  17.254 -0.4061 -0.6039 -1.0393
   92MPD2    H2 1410   1.624   1.483  17.401  1.2066  0.3158  0.8352
   92MPD2    H3 1411   1.839   1.369  17.432  0.0395  2.4874  1.1969
   92MPD2     N 1412   1.961   1.436  16.996  0.3357  0.5946  0.0263
   92MPD2    H5 1413   1.935   1.471  16.905 -0.6633 -1.8469 -0.6508
   92MPD2    N1 1414   1.527   1.551  17.141 -0.3274  0.3368  0.0582
   92MPD2    H7 1415   1.512   1.581  17.045 -1.4318  1.3257  0.5386
   93MPD2     C 1416   2.697   1.868  13.690  0.1287  0.1586  0.4216
   93MPD2    C1 1417   2.686   1.858  13.826 -0.1160 -0.1641  0.2002
   93MPD2    C2 1418   2.564   1.847  13.888  0.0147  0.0950  0.3869
   93MPD2    C3 1419   2.453   1.845  13.804  0.0956 -0.3661  0.1071
   93MPD2    C4 1420   2.462   1.848  13.667 -0.1727 -0.8176  0.2162
   93MPD2    C5 1421   2.584   1.862  13.614  0.4723 -0.4341 -0.4488
   93MPD2     H 1422   2.550   1.847  13.996  0.2122  0.5118  0.4144
   93MPD2    H1 1423   2.383   1.831  13.595  0.2362  0.0365 -0.4346
   93MPD2    H2 1424   2.786   1.895  13.634  1.8448  0.3285  3.2211
   93MPD2    H3 1425   2.605   1.872  13.508  1.2377  1.5313 -0.1120
   93MPD2     N 1426   2.315   1.820  13.848  0.3958  0.2723  0.1505
   93MPD2    H5 1427   2.246   1.818  13.773  0.6975 -0.3359 -0.1073
   93MPD2    N1 1428   2.795   1.869  13.909 -0.6424 -0.3392  0.2877
   93MPD2    H7 1429   2.773   1.853  14.007  0.3947  1.0020  0.7510
   94TCq2    C1 1430   2.930   1.867  13.870 -0.4345 -0.0917 -0.7002
   94TCq2    O2 1431   2.975   1.890  13.764 -0.4681 -0.1262 -0.5203
   94TCq2    C2 1432   3.020   1.863  13.981 -0.3049 -1.0135 -0.1505
   94TCq2    C3 1433   2.977   1.880  14.106 -0.4480 -0.4762  0.1906
   94TCq2    C4 1434   3.054   1.856  14.214 -0.0113 -1.1385 -0.1814
   94TCq2    C5 1435   3.191   1.831  14.195  0.7151 -0.5119  0.8296
   94TCq2    C6 1436   3.244   1.832  14.067 -0.2187 -0.0985  0.4308
   94TCq2    C7 1437   3.156   1.835  13.960  0.8210  1.0760 -0.3840
   94TCq2    C8 1438   3.376   1.891  14.048  0.6257  0.5606 -0.0695
   94TCq2    O4 1439   3.409   1.926  13.936 -0.1339  0.0082 -0.4432
   94TCq2    C9 1440   3.003   1.854  14.350 -0.3379  0.3380 -0.4003
   94TCq2    O5 1441   3.084   1.855  14.440 -0.0975 -0.1161  0.7097
   94TCq2    O6 1442   2.881   1.873  14.372 -0.3031 -0.1873 -0.9632
   94TCq2    H2 1443   2.878   1.923  14.118 -1.1474 -1.3931 -2.3544
   94TCq2    H3 1444   3.256   1.819  14.281 -0.4903  0.3692  1.8620
   94TCq2    H4 1445   3.188   1.805  13.861 -0.3301 -0.2209 -0.3695
   95TMC2    C1 1446   3.249   3.922  16.683  0.0548  0.2690 -0.1491
   95TMC2    C2 1447   3.269   3.831  16.784  0.6282 -0.4601  0.5808
   95TMC2    C3 1448   3.290   3.872  16.916  0.4236  1.1333 -0.3446
   95TMC2    C4 1449   3.253   4.050  16.714 -0.3296  0.3065  0.8020
   95TMC2    C5 1450   3.289   4.091  16.841 -0.3104 -0.1182  0.2232
   95TMC2    C6 1451   3.313   4.005  16.946 -0.1473  0.0298 -0.7091
   95TMC2     C 1452   3.295   3.891  16.550 -0.4196  0.1244  0.0663
   95TMC2     O 1453   3.363   3.977  16.493 -0.0871  0.5964 -0.4321
   95TMC2     H 1454   3.257   3.726  16.761  3.4780 -1.3027  3.0419
   95TMC2    H1 1455   3.255   4.118  16.629 -4.8121 -0.0324  0.4568
   95TMC2    H2 1456   3.329   4.035  17.049  2.9181  1.7492 -1.6853
   95TMC2    C7 1457   3.271   4.238  16.863  1.0318  0.0359 -0.0938
   95TMC2    C8 1458   3.304   3.759  17.011 -0.5127  0.1915 -0.3044
   95TMC2    O1 1459   3.239   4.301  16.762 -0.0667  0.0853  0.4075
   95TMC2    O2 1460   3.266   3.647  16.980  0.3520 -0.1784  0.3355
   95TMC2    O5 1461   3.392   3.783  17.112 -0.3579  0.1151 -0.2593
   95TMC2    H5 1462   3.422   3.877  17.111  2.1905 -0.6996 -1.1465
   96MPD2     C 1463   3.322   3.573  16.151 -0.5439  0.1930  0.7660
   96MPD2    C1 1464   3.390   3.686  16.174  0.6049  0.1692  0.0870
   96MPD2    C2 1465   3.372   3.754  16.293 -0.0601 -0.6291  0.0372
   96MPD2    C3 1466   3.294   3.697  16.385  0.0477  0.5761  0.5423
   96MPD2    C4 1467   3.236   3.579  16.370 -0.5130  1.1657 -0.3441
   96MPD2    C5 1468   3.249   3.512  16.250  0.1358 -0.5301  0.3680
   96MPD2     H 1469   3.421   3.851  16.304  1.4612 -1.5028  0.9791
   96MPD2    H1 1470   3.171   3.534  16.445 -1.1445 -0.9357 -2.1550
   96MPD2    H2 1471   3.321   3.526  16.053 -0.7743  2.6375 -0.4012
   96MPD2    H3 1472   3.195   3.419  16.234 -0.8070  0.0784 -0.0264
   96MPD2     N 1473   3.271   3.760  16.508  0.6202 -0.3213  0.1467
   96MPD2    H5 1474   3.203   3.715  16.568  0.4647 -0.6065 -0.2439
   96MPD2    N1 1475   3.473   3.737  16.063  0.0119  0.1689 -0.0604
   96MPD2    H7 1476   3.477   3.677  15.981  2.7836  0.7768 -0.3775
   97MPD2     C 1477   1.150   1.124   1.592  0.7315 -0.5602  0.8250
   97MPD2    C1 1478   1.022   1.102   1.544  1.1109 -0.0663 -0.2705
   97MPD2    C2 1479   1.001   1.132   1.407 -0.2289  0.3773  0.4634
   97MPD2    C3 1480   1.096   1.194   1.328 -0.6981  0.6597  0.2987
   97MPD2    C4 1481   1.226   1.199   1.375  0.3892 -0.5350  0.2575
   97MPD2    C5 1482   1.255   1.164   1.508 -0.1367 -0.2744  0.1390
   97MPD2     H 1483   0.915   1.091   1.355  1.4481 -1.7005 -0.6756
   97MPD2    H1 1484   1.303   1.237   1.308 -1.1506  0.5671 -0.8849
   97MPD2    H2 1485   1.168   1.121   1.699 -1.1627  0.5243  1.1818
   97MPD2    H3 1486   1.348   1.186   1.559 -0.7378  2.3468  0.1248
   97MPD2     N 1487   1.078   1.229   1.196  0.2098  0.4428 -0.6650
   97MPD2    H5 1488   1.164   1.257   1.150  0.4120  1.1395  0.1246
   97MPD2    N1 1489   0.926   1.046   1.620  0.1206 -0.0021 -0.3325
   97MPD2    H7 1490   0.953   1.021   1.715  0.2968  1.2162 -0.0557
   98TCq2    C1 1491   0.959   1.249   1.124 -0.7641 -0.1562 -0.4347
   98TCq2    O2 1492   0.844   1.231   1.163 -0.1524 -0.0183  0.1781
   98TCq2    C2 1493   0.988   1.295   0.992  0.0161  0.5232 -0.2560
   98TCq2    C3 1494   0.887   1.373   0.944  0.0413  0.7539  0.9968
   98TCq2    C4 1495   0.911   1.454   0.837 -0.2475 -0.2803 -0.2714
   98TCq2    C5 1496   1.023   1.436   0.768  0.3663  0.1332  0.1556
   98TCq2    C6 1497   1.117   1.342   0.806  0.1760 -0.1050  1.0202
   98TCq2    C7 1498   1.104   1.271   0.926 -0.2623  0.1398 -0.3422
   98TCq2    C8 1499   1.253   1.383   0.762 -0.8112 -0.1263  0.3699
   98TCq2    O4 1500   1.265   1.493   0.706  0.0764  0.3022  0.0580
   98TCq2    C9 1501   0.802   1.545   0.808  0.0222  0.0468 -0.1418
   98TCq2    O5 1502   0.834   1.653   0.748  0.0527  0.7418  0.0132
   98TCq2    O6 1503   0.692   1.519   0.864  0.2870  0.9635  0.2986
   98TCq2    H2 1504   0.792   1.388   0.995  0.0048  1.4084  0.7413
   98TCq2    H3 1505   1.046   1.511   0.694 -0.6628  0.9736  0.6734
   98TCq2    H4 1506   1.183   1.208   0.965 -2.4484 -1.7300  1.0936
   99MPD2     C 1507   3.989   2.764   2.460  0.7138 -0.8573  0.3992
   99MPD2    C1 1508   3.862   2.804   2.425 -0.4136  0.3483  0.3942
   99MPD2    C2 1509   3.837   2.793   2.289 -0.1859  0.4749  0.1558
   99MPD2    C3 1510   3.936   2.753   2.200 -0.4362 -0.4469 -0.1631
   99MPD2    C4 1511   4.054   2.703   2.248  0.2574 -0.3784  0.0362
   99MPD2    C5 1512   4.079   2.704   2.377 -0.3897  0.0474 -0.4771
   99MPD2     H 1513   3.745   2.833   2.247 -0.1825 -0.3092 -0.5893
   99MPD2    H1 1514   4.124   2.669   2.172  1.4915  0.7559  0.6674
   99MPD2    H2 1515   4.005   2.770   2.567 -0.9621  2.2782  0.4542
   99MPD2    H3 1516   4.178   2.679   2.415 -0.1256  2.0745  0.1665
   99MPD2     N 1517   3.905   2.774   2.066  0.3730  0.3047  0.3723
   99MPD2    H5 1518   3.821   2.828   2.046 -0.3460 -0.6216  0.8752
   99MPD2    N1 1519   3.760   2.847   2.512 -0.5780 -0.0951 -0.2796
   99MPD2    H7 1520   3.667   2.862   2.474  0.4372  2.5683 -1.7052
  100TCq2    C1 1521   3.773   2.879   2.646 -0.2448  0.4693  0.0789
  100TCq2    O2 1522   3.872   2.891   2.723 -0.0079  0.2535 -0.5717
  100TCq2    C2 1523   3.648   2.946   2.686 -0.3569 -0.2638 -0.0355
  100TCq2    C3 1524   3.635   2.992   2.815 -0.1083  0.6832  0.2123
  100TCq2    C4 1525   3.520   3.040   2.867  0.4657  0.7642  0.6578
  100TCq2    C5 1526   3.414   3.060   2.782 -0.1137 -0.8060  0.3085
  100TCq2    C6 1527   3.432   3.030   2.652  0.3144  0.1373  0.2666
  100TCq2    C7 1528   3.551   2.982   2.598 -0.5860  0.3808 -0.0221
  100TCq2    C8 1529   3.322   3.072   2.563  0.2288  0.0869  0.3816
  100TCq2    O4 1530   3.248   3.160   2.601 -0.6310 -0.5454 -0.3679
  100TCq2    C9 1531   3.496   3.041   3.008 -1.3353  0.1737 -0.6795
  100TCq2    O5 1532   3.577   2.970   3.078  0.0506 -0.8624 -0.1777
  100TCq2    O6 1533   3.396   3.113   3.049  0.3092  0.4061  0.9509
  100TCq2    H2 1534   3.710   2.977   2.891  0.0814 -0.9901 -0.3159
  100TCq2    H3 1535   3.318   3.090   2.823 -0.3659 -0.2767 -0.6721
  100TCq2    H4 1536   3.559   2.966   2.491 -1.0375 -0.9395  0.1424
  101MPD2     C 1537   4.683   4.288  13.520 -0.6651  0.3392 -0.1839
  101MPD2    C1 1538   4.586   4.318  13.428 -0.9669 -0.7874 -0.2370
  101MPD2    C2 1539   4.470   4.240  13.435  0.2251 -0.1261 -0.5227
  101MPD2    C3 1540   4.447   4.149  13.531  0.6128  0.5328 -0.4510
  101MPD2    C4 1541   4.545   4.124  13.617 -0.2486  0.5360  0.0000
  101MPD2    C5 1542   4.664   4.187  13.611 -0.5344  0.5678 -0.0089
  101MPD2     H 1543   4.389   4.259  13.365  1.4180 -0.1306 -1.9162
  101MPD2    H1 1544   4.539   4.050  13.696 -2.0775 -0.0821 -0.7190
  101MPD2    H2 1545   0.059   4.334  13.520  0.3537 -1.8523 -0.4119
  101MPD2    H3 1546   0.013   4.169  13.690 -0.0190  1.3484 -0.2952
  101MPD2     N 1547   4.329   4.069  13.533 -0.1179 -0.1088  0.1105
  101MPD2    H5 1548   4.266   4.099  13.459 -0.8626 -0.8203  0.4655
  101MPD2    N1 1549   4.616   4.415  13.327  0.2859  0.2248 -1.1075
  101MPD2    H7 1550   4.712   4.446  13.319 -0.5925  2.8411 -1.7547
  102TCq2    C1 1551   0.057   0.137  13.174 -0.0634  0.0390  0.1886
  102TCq2    O2 1552   0.048   0.253  13.134 -0.1962  0.1094 -0.3916
  102TCq2    C2 1553   4.680   0.040  13.133 -0.6944 -0.5422 -0.4728
  102TCq2    C3 1554   4.598   0.073  13.025  0.4762 -0.0845 -0.3173
  102TCq2    C4 1555   4.501   4.709  12.989 -0.2636 -0.3433 -0.5198
  102TCq2    C5 1556   4.488   4.587  13.050  0.3570 -0.2795 -0.1693
  102TCq2    C6 1557   4.573   4.563  13.150 -0.1173  0.0574  0.0963
  102TCq2    C7 1558   4.671   4.648  13.194 -0.1571 -0.2023 -0.5073
  102TCq2    C8 1559   4.519   4.461  13.241 -0.1199 -0.8673  0.3389
  102TCq2    O4 1560   4.396   4.457  13.256 -0.6303  0.4817 -0.4295
  102TCq2    C9 1561   4.403   0.026  12.893  0.2907  0.9009  0.4286
  102TCq2    O5 1562   4.389   0.144  12.853  1.4369  0.6019 -0.1921
  102TCq2    O6 1563   4.322   4.665  12.852 -0.6019  0.3429 -0.1601
  102TCq2    H2 1564   4.613   0.163  12.966  1.2764 -0.7655 -1.1502
  102TCq2    H3 1565   4.408   4.515  13.037  1.4044 -1.6150  0.7580
  102TCq2    H4 1566   4.712   4.629  13.292  1.4706  1.3629 -0.8907
  103TMC2    C1 1567   3.158   4.481  12.883 -0.2492 -0.7594  0.3189
  103TMC2    C2 1568   3.227   4.561  12.798  0.2865 -0.1391  1.2413
  103TMC2    C3 1569   3.269   4.683  12.836  0.1830 -0.1638 -0.7945
  103TMC2    C4 1570   3.134   4.526  13.014 -0.0790 -0.2440  0.0499
  103TMC2    C5 1571   3.173   4.652  13.045 -0.3291  0.0258  0.5781
  103TMC2    C6 1572   3.251   0.010  12.959  0.2982  0.3238  0.7349
  103TMC2     C 1573   3.092   4.369  12.828 -0.3523 -0.6169 -0.1936
  103TMC2     O 1574   3.083   4.364  12.707  0.6410  0.4170 -0.1457
  103TMC2     H 1575   3.245   4.519  12.700 -1.4712  0.4415  0.6657
  103TMC2    H1 1576   3.078   4.471  13.089  1.6341 -0.8969  0.8697
  103TMC2    H2 1577   3.286   0.109  12.984  2.6904 -0.5853  0.9269
  103TMC2    C7 1578   3.103   4.707  13.161 -0.2481 -0.1370  0.0562
  103TMC2    C8 1579   3.337   0.040  12.735 -0.3904 -0.6899  0.7646
  103TMC2    O1 1580   3.083   4.628  13.253 -0.2823 -0.3680  0.2567
  103TMC2    O2 1581   3.431   0.116  12.749  0.7632  0.2166 -0.7037
  103TMC2    O5 1582   3.286   0.013  12.618  0.8218  0.3188  0.1034
  103TMC2    H5 1583   3.193   4.706  12.624  0.9838 -0.4204 -1.0670
  104MPD2     C 1584   2.934   4.103  13.022  0.2356 -0.1007 -0.0001
  104MPD2    C1 1585   2.962   4.177  12.909 -0.1765 -0.1129  0.6702
  104MPD2    C2 1586   2.890   4.147  12.793 -0.3504  0.6944 -0.2552
  104MPD2    C3 1587   2.804   4.041  12.792 -0.6834  0.1312 -0.6421
  104MPD2    C4 1588   2.793   3.958  12.899  0.2799  0.2298 -0.3607
  104MPD2    C5 1589   2.851   3.995  13.016 -0.8766  0.5223 -0.1881
  104MPD2     H 1590   2.921   4.193  12.700 -0.0228 -1.9442 -1.4553
  104MPD2    H1 1591   2.712   3.886  12.897  0.9678 -0.5260 -1.1858
  104MPD2    H2 1592   2.977   4.128  13.117 -0.6308  0.5444  0.2178
  104MPD2    H3 1593   2.833   3.936  13.105  1.7566  1.0758  0.7355
  104MPD2     N 1594   2.720   4.032  12.681 -0.2221 -0.2341 -0.1302
  104MPD2    H5 1595   2.706   4.101  12.608 -3.7144 -1.2787 -0.4406
  104MPD2    N1 1596   3.041   4.289  12.925  0.4220  0.4219  0.2552
  104MPD2    H7 1597   3.078   4.312  13.017  1.2999 -1.1192  0.2925
  105MPD2     C 1598   0.346   3.556   0.261  0.6478 -0.7564 -0.3957
  105MPD2    C1 1599   0.289   3.677   0.285  0.0627 -0.1764  0.1086
  105MPD2    C2 1600   0.301   3.727   0.414  0.4300  0.1151  0.1616
  105MPD2    C3 1601   0.366   3.661   0.514  0.0989 -0.2239 -0.1603
  105MPD2    C4 1602   0.438   3.547   0.477 -0.3343  0.2867  0.5819
  105MPD2    C5 1603   0.425   3.494   0.352  0.2650 -0.0700  0.4470
  105MPD2     H 1604   0.251   3.820   0.437  0.7450  0.8315 -2.0692
  105MPD2    H1 1605   0.508   3.509   0.550  0.9081  1.5140  0.0148
  105MPD2    H2 1606   0.335   3.518   0.160 -2.2849 -0.4425 -0.1868
  105MPD2    H3 1607   0.464   3.396   0.327 -2.5209 -0.3835 -2.7592
  105MPD2     N 1608   0.375   3.709   0.647  0.6218 -0.1804 -0.1694
  105MPD2    H5 1609   0.414   3.647   0.717  0.6414 -0.8124 -0.7436
  105MPD2    N1 1610   0.207   3.740   0.190  0.1557 -0.0146 -0.1863
  105MPD2    H7 1611   0.177   3.836   0.208 -1.0763 -0.6770  1.2825
  106TCq2    C1 1612   0.347   3.837   0.689  0.0366 -0.4793  0.1129
  106TCq2    O2 1613   0.331   3.940   0.627 -0.3410 -0.5729  0.2846
  106TCq2    C2 1614   0.313   3.841   0.833  0.4688  0.2562  1.1366
  106TCq2    C3 1615   0.298   3.971   0.882  0.3138  0.1393  0.3920
  106TCq2    C4 1616   0.243   3.987   1.007 -0.6006 -0.0843  0.2905
  106TCq2    C5 1617   0.200   3.879   1.083  0.0252  0.5889  0.1701
  106TCq2    C6 1618   0.223   3.751   1.024  0.8836 -0.4138 -0.4167
  106TCq2    C7 1619   0.274   3.730   0.903 -0.2298  0.5028 -0.3139
  106TCq2    C8 1620   0.138   3.642   1.075 -0.4896  0.0663  0.2266
  106TCq2    O4 1621   0.153   3.526   1.033  0.1562  0.2717 -0.0253
  106TCq2    C9 1622   0.228   4.124   1.052 -0.6590  0.5245  0.0836
  106TCq2    O5 1623   0.150   4.148   1.148  0.1030  0.4490 -0.1588
  106TCq2    O6 1624   0.296   4.214   0.999 -0.2332 -0.1399  0.3300
  106TCq2    H2 1625   0.334   4.063   0.838 -1.8189  1.1598  0.7655
  106TCq2    H3 1626   0.158   3.887   1.182  0.2762  0.9568  0.2466
  106TCq2    H4 1627   0.271   3.630   0.861 -0.4596  0.0250  0.8366
  107TMC2    C1 1628   4.408   3.703  11.709  0.4510 -0.1360 -0.2972
  107TMC2    C2 1629   4.334   3.760  11.611 -0.5665 -0.1748  0.5455
  107TMC2    C3 1630   4.407   3.800  11.505 -0.6034  0.4579  1.3530
  107TMC2    C4 1631   4.543   3.668  11.698  0.9530  0.2406 -0.0091
  107TMC2    C5 1632   4.609   3.717  11.586 -0.1614  0.4761  0.1881
  107TMC2    C6 1633   4.540   3.776  11.493 -0.6281 -0.1798  0.7636
  107TMC2     C 1634   4.353   3.714  11.842 -0.2802  0.3447  0.8187
  107TMC2     O 1635   4.391   3.635  11.928  0.5222  0.3973  0.0113
  107TMC2     H 1636   4.230   3.789  11.618 -0.3957  0.9170 -1.5471
  107TMC2    H1 1637   4.597   3.635  11.786  0.1906  0.1480  0.4154
  107TMC2    H2 1638   4.584   3.812  11.401 -0.1978  0.1760  1.1133
  107TMC2    C7 1639   0.013   3.652  11.559 -0.0578 -0.3179  0.0922
  107TMC2    C8 1640   4.349   3.883  11.404  0.2620  0.5017 -0.4225
  107TMC2    O1 1641   0.031   3.546  11.624 -0.2803  0.6706 -0.1971
  107TMC2    O2 1642   4.416   3.968  11.341 -0.1738  0.2582 -0.0924
  107TMC2    O5 1643   4.229   3.836  11.371 -0.5682  0.5026 -0.1402
  107TMC2    H5 1644   4.208   3.752  11.417 -1.7747 -1.2336 -3.8305
  108MPD2     C 1645   4.107   3.948  11.990  0.9059 -0.5953 -0.8978
  108MPD2    C1 1646   4.168   3.830  11.969  0.1113 -0.1570  0.3182
  108MPD2    C2 1647   4.129   3.727  12.050 -0.3275  0.5580  0.0716
  108MPD2    C3 1648   4.044   3.739  12.160  1.0797 -0.0225 -0.5203
  108MPD2    C4 1649   3.996   3.861  12.191 -0.0808  0.3278 -0.7510
  108MPD2    C5 1650   4.025   3.960  12.097  0.3905  0.4374 -0.1140
  108MPD2     H 1651   4.185   3.636  12.034 -1.0051  0.4004 -1.4203
  108MPD2    H1 1652   3.931   3.881  12.275  1.3055  0.3320  0.3143
  108MPD2    H2 1653   4.130   4.034  11.929  0.7799 -0.0536 -0.1863
  108MPD2    H3 1654   3.980   4.058  12.107 -0.0469  0.1918  0.3463
  108MPD2     N 1655   4.010   3.633  12.250 -0.5119  0.6311  0.1938
  108MPD2    H5 1656   3.945   3.656  12.324 -0.8543 -3.1133  1.0435
  108MPD2    N1 1657   4.257   3.813  11.865  0.4622  0.0408 -0.5862
  108MPD2    H7 1658   4.258   3.891  11.800  0.7795 -1.0600 -1.8956
  109MPD2     C 1659   0.963   4.293   2.490 -0.0064 -0.0182 -0.5200
  109MPD2    C1 1660   0.875   4.393   2.447  0.1228 -0.7697 -0.0823
  109MPD2    C2 1661   0.917   4.529   2.438  0.3511 -0.6252 -0.2649
  109MPD2    C3 1662   1.046   4.567   2.473 -0.9526 -0.2021 -0.4735
  109MPD2    C4 1663   1.134   4.463   2.508  0.1755  0.7613  0.6889
  109MPD2    C5 1664   1.086   4.335   2.524 -0.5410  0.2969  0.0230
  109MPD2     H 1665   0.842   4.602   2.407  0.3007  0.3695  2.2521
  109MPD2    H1 1666   1.240   4.478   2.524  0.5506  0.3331 -1.3981
  109MPD2    H2 1667   0.935   4.188   2.492  0.0197 -0.0367 -1.0925
  109MPD2    H3 1668   1.167   4.266   2.546  0.3201  1.2771 -0.0406
  109MPD2     N 1669   1.079   4.701   2.452  0.0761  0.7790  0.5249
  109MPD2    H5 1670   1.002   0.039   2.430  0.6194  0.1133 -3.1577
  109MPD2    N1 1671   0.742   4.368   2.415  0.5086 -0.2228 -0.3191
  109MPD2    H7 1672   0.691   4.454   2.400  2.7220  1.1083 -0.3143
  110TCq2    C1 1673   1.208   0.028   2.454  0.0346 -0.7270 -0.1158
  110TCq2    O2 1674   1.308   4.696   2.490 -0.2088 -0.0849 -0.1975
  110TCq2    C2 1675   1.223   0.167   2.410 -0.1714  0.9297  0.3546
  110TCq2    C3 1676   1.345   0.225   2.440  0.3010  0.5964  0.4582
  110TCq2    C4 1677   1.376   0.350   2.391 -0.0095 -0.5871 -0.7856
  110TCq2    C5 1678   1.275   0.422   2.329 -0.0334 -0.3029 -0.5248
  110TCq2    C6 1679   1.153   0.364   2.305 -0.1442  0.3174  0.1736
  110TCq2    C7 1680   1.128   0.234   2.343 -0.2928  0.1362 -0.1305
  110TCq2    C8 1681   1.031   0.439   2.271  0.3632  0.6610  0.1400
  110TCq2    O4 1682   1.056   0.560   2.255  0.4909 -0.1544  0.1660
  110TCq2    C9 1683   1.494   0.422   2.430  0.2562  0.2951 -0.6664
  110TCq2    O5 1684   1.506   0.531   2.365 -0.2027  0.7576  0.7654
  110TCq2    O6 1685   1.579   0.366   2.500 -0.2566  0.7885  0.2894
  110TCq2    H2 1686   1.419   0.178   2.504  0.3071  1.6879  1.2560
  110TCq2    H3 1687   1.284   0.524   2.293 -3.1340  0.8473  1.9555
  110TCq2    H4 1688   1.032   0.190   2.317 -0.2127  0.6494 -1.3241
  111TMC2    C1 1689   0.480   0.312  11.781  0.4790 -0.7753 -0.0600
  111TMC2    C2 1690   0.602   0.314  11.716  0.4206 -0.2672 -0.6733
  111TMC2    C3 1691   0.720   0.289  11.780 -0.4635  0.5237  0.0404
  111TMC2    C4 1692   0.480   0.324  11.917 -0.9689 -0.5156 -0.7550
  111TMC2    C5 1693   0.607   0.312  11.977  0.0913  0.1392 -0.5339
  111TMC2    C6 1694   0.728   0.280  11.915 -0.7568  0.1823 -0.4207
  111TMC2     C 1695   0.358   0.342  11.706  0.0757  0.1708  0.1189
  111TMC2     O 1696   0.369   0.372  11.588 -0.2758  0.4881 -0.0104
  111TMC2     H 1697   0.605   0.317  11.608 -1.9499 -1.4216 -0.7636
  111TMC2    H1 1698   0.386   0.348  11.965  0.0604  0.9139  0.5277
  111TMC2    H2 1699   0.819   0.270  11.973 -2.0382 -1.4974  1.3036
  111TMC2    C7 1700   0.603   0.314  12.124 -0.1889 -0.4344 -0.1003
  111TMC2    C8 1701   0.839   0.269  11.703  0.3043 -0.3287 -0.1564
  111TMC2    O1 1702   0.711   0.323  12.184 -1.0701 -0.0003  0.3320
  111TMC2    O2 1703   0.865   0.335  11.605 -0.5260 -0.0936 -0.2905
  111TMC2    O5 1704   0.848   0.136  11.702 -0.2538  0.1110  0.2581
  111TMC2    H5 1705   0.801   0.078  11.766  0.8494 -0.7113  0.3334
  112MPD2     C 1706   4.576   0.304  11.666  0.2791 -0.3423 -0.2515
  112MPD2    C1 1707   4.670   0.347  11.572  0.5982 -0.3866 -0.5339
  112MPD2    C2 1708   0.079   0.353  11.612 -0.0346  0.2175 -0.3499
  112MPD2    C3 1709   0.114   0.318  11.743  0.7045  0.0425 -0.1615
  112MPD2    C4 1710   0.018   0.298  11.838 -0.4410 -0.5824 -0.5218
  112MPD2    C5 1711   4.610   0.283  11.798  0.2874  0.5497  0.0466
  112MPD2     H 1712   0.152   0.363  11.533  0.7255 -0.6022  0.2580
  112MPD2    H1 1713   0.038   0.281  11.943  2.3043 -1.1056 -1.1257
  112MPD2    H2 1714   4.472   0.283  11.642  0.4037  0.5480 -1.5992
  112MPD2    H3 1715   4.538   0.260  11.875 -1.2312 -1.0028 -1.8494
  112MPD2     N 1716   0.251   0.309  11.782 -0.1404 -0.3038  0.7071
  112MPD2    H5 1717   0.260   0.250  11.864 -0.5990 -1.0960  0.1953
  112MPD2    N1 1718   4.632   0.370  11.434  0.1813  0.5520 -0.6618
  112MPD2    H7 1719   4.700   0.405  11.367 -1.5052  1.4683 -1.8730
  113MPD2     C 1720   3.610   2.762   1.789 -0.1492 -0.4679 -0.9160
  113MPD2    C1 1721   3.552   2.880   1.758  0.7935  0.1508  0.6324
  113MPD2    C2 1722   3.502   2.900   1.630  0.5001  0.5817 -0.5905
  113MPD2    C3 1723   3.489   2.793   1.540 -0.0689 -0.3822  0.0517
  113MPD2    C4 1724   3.543   2.668   1.574 -0.1850  1.0557  0.1385
  113MPD2    C5 1725   3.607   2.658   1.698 -0.3477 -0.3369 -0.4838
  113MPD2     H 1726   3.473   3.003   1.608  1.2655  0.5195 -1.9115
  113MPD2    H1 1727   3.546   2.581   1.510 -0.5816  2.0538 -1.2220
  113MPD2    H2 1728   3.642   2.737   1.890 -1.1497 -0.5031 -0.6028
  113MPD2    H3 1729   3.654   2.564   1.724 -1.2343 -0.3896  0.9445
  113MPD2     N 1730   3.436   2.797   1.408  0.3986  0.1871  0.0905
  113MPD2    H5 1731   3.411   2.716   1.352 -0.9360 -0.0008  0.9790
  113MPD2    N1 1732   3.544   2.989   1.849 -0.0688  0.6432  0.1438
  113MPD2    H7 1733   3.485   3.063   1.813  2.3427  1.4450 -2.1081
  114TCq2    C1 1734   3.407   2.919   1.350  0.1064 -0.3968  0.3802
  114TCq2    O2 1735   3.438   3.030   1.390  0.4770 -1.0014 -0.4380
  114TCq2    C2 1736   3.324   2.905   1.229  0.2310 -0.2769 -0.4791
  114TCq2    C3 1737   3.329   3.013   1.144  0.5433  0.5174 -0.5614
  114TCq2    C4 1738   3.278   2.994   1.017  0.1240 -0.0722  0.0202
  114TCq2    C5 1739   3.209   2.883   0.986 -0.1816 -0.1813  0.3947
  114TCq2    C6 1740   3.192   2.790   1.078  0.2155 -0.3919  0.3265
  114TCq2    C7 1741   3.243   2.797   1.201  0.4140  0.2954 -0.1916
  114TCq2    C8 1742   3.085   2.694   1.053 -0.2428 -0.2731  0.1293
  114TCq2    O4 1743   3.043   2.676   0.936 -0.1569  0.2815  0.1214
  114TCq2    C9 1744   3.288   3.108   0.926  0.1483 -0.4164  0.0656
  114TCq2    O5 1745   3.250   3.094   0.803 -0.3830  0.1765  0.7581
  114TCq2    O6 1746   3.323   3.220   0.972  0.2497  0.2365  0.7742
  114TCq2    H2 1747   3.396   3.094   1.170  0.3241  1.5629 -3.2684
  114TCq2    H3 1748   3.166   2.878   0.886  1.5070  0.9677 -0.3716
  114TCq2    H4 1749   3.240   2.711   1.267  1.4316 -1.2169 -2.0966
  115TMC2    C1 1750   3.860   1.059   0.119  0.4585 -0.8196  0.1217
  115TMC2    C2 1751   3.737   1.056   0.187 -1.0002 -0.6709 -0.4299
  115TMC2    C3 1752   3.651   1.157   0.162 -0.1477 -0.8857 -0.5010
  115TMC2    C4 1753   3.884   1.143   0.013  0.0227 -0.4641  0.6536
  115TMC2    C5 1754   3.798   1.247  17.691 -0.1485  0.8086  0.0124
  115TMC2    C6 1755   3.691   1.263   0.076  0.2504  0.3620 -0.9830
  115TMC2     C 1756   3.901   0.920   0.099  0.6004  0.4098 -0.2018
  115TMC2     O 1757   3.897   0.873  17.680  0.2541  0.1816  0.0044
  115TMC2     H 1758   3.712   0.962   0.235 -0.1194 -1.5249 -1.6265
  115TMC2    H1 1759   3.956   1.110  17.632  0.3906 -1.6749  1.5424
  115TMC2    H2 1760   3.625   1.348   0.064 -2.5895 -1.7292 -0.2335
  115TMC2    C7 1761   3.839   1.368  17.610 -0.6827 -0.2365 -1.0853
  115TMC2    C8 1762   3.517   1.108   0.131  0.6017  0.2541 -0.1351
  115TMC2    O1 1763   3.819   1.479  17.664  0.1185  0.2610 -0.2233
  115TMC2    O2 1764   3.474   1.106   0.016 -0.0080  0.9224 -0.1195
  115TMC2    O5 1765   3.473   1.034   0.235  0.0794 -1.1176 -0.0459
  115TMC2    H5 1766   3.535   1.034   0.312  0.3606  0.3718 -0.2730
  116MPD2     C 1767   4.008   0.473   0.311 -0.0369 -0.3334 -0.2452
  116MPD2    C1 1768   3.952   0.500   0.188 -0.1237  0.1032 -0.3011
  116MPD2    C2 1769   3.931   0.628   0.150 -0.5443 -0.3659  0.5081
  116MPD2    C3 1770   3.962   0.725   0.244 -0.2816 -0.1007 -0.3487
  116MPD2    C4 1771   4.006   0.701   0.366 -0.0505 -0.2358 -0.3211
  116MPD2    C5 1772   4.036   0.572   0.394  0.2680 -0.0325 -0.0242
  116MPD2     H 1773   3.888   0.656   0.054 -0.9202  0.3281  0.8733
  116MPD2    H1 1774   4.033   0.777   0.438 -0.8951  0.7897 -1.0850
  116MPD2    H2 1775   4.021   0.376   0.357  1.0198  0.3612  0.9267
  116MPD2    H3 1776   4.070   0.547   0.493  1.1097  0.7349 -0.1239
  116MPD2     N 1777   3.930   0.862   0.220  0.9609  0.3907 -0.1476
  116MPD2    H5 1778   3.969   0.921   0.293  0.0775 -1.0355  1.4691
  116MPD2    N1 1779   3.918   0.382   0.108 -0.3459  0.0931  0.3337
  116MPD2    H7 1780   3.953   0.296   0.147  2.0116  1.1667  0.6120
  117TMC2    C1 1781   2.367   2.457  13.322  0.1203 -0.2154  0.1963
  117TMC2    C2 1782   2.428   2.439  13.200  0.4787 -0.3543  0.3582
  117TMC2    C3 1783   2.506   2.541  13.147  0.2011  0.2697  0.8837
  117TMC2    C4 1784   2.367   2.577  13.385  0.2371 -0.1054 -0.4446
  117TMC2    C5 1785   2.428   2.687  13.324 -0.0181  0.2047 -0.0945
  117TMC2    C6 1786   2.496   2.671  13.205  0.2245 -0.0329 -0.2970
  117TMC2     C 1787   2.342   2.336  13.406  0.7759  0.0475 -0.4849
  117TMC2     O 1788   2.407   2.234  13.389 -0.0444 -0.1188  0.3350
  117TMC2     H 1789   2.440   2.339  13.160  0.7849  0.3203 -1.2414
  117TMC2    H1 1790   2.321   2.592  13.482  2.1037  4.0391 -0.2117
  117TMC2    H2 1791   2.555   2.758  13.176 -0.2927 -0.5981 -3.0654
  117TMC2    C7 1792   2.385   2.817  13.368  0.2738  0.0845 -0.3704
  117TMC2    C8 1793   2.589   2.508  13.037  0.5369 -0.0365 -0.4160
  117TMC2    O1 1794   2.308   2.813  13.459  0.4771 -0.2063 -0.1076
  117TMC2    O2 1795   2.584   2.398  12.979 -0.1299 -0.0389 -0.0452
  117TMC2    O5 1796   2.642   2.622  12.998  0.0977 -0.2101  0.9815
  117TMC2    H5 1797   2.641   2.696  13.062  0.8385 -0.0089  0.7504
  118MPD2     C 1798   2.436   3.128  13.206 -0.4717  0.4296 -0.2623
  118MPD2    C1 1799   2.396   3.044  13.304  0.4324  0.4985 -0.2283
  118MPD2    C2 1800   2.368   3.095  13.430  0.5818 -0.7980 -0.1513
  118MPD2    C3 1801   2.368   3.228  13.454 -0.7771  0.7324  0.2841
  118MPD2    C4 1802   2.405   3.315  13.352  0.4227  0.0565  0.0464
  118MPD2    C5 1803   2.440   3.263  13.233 -0.1241  0.5692  0.1139
  118MPD2     H 1804   2.343   3.027  13.511  2.1518 -0.3863  0.6736
  118MPD2    H1 1805   2.413   3.423  13.366  0.9935 -0.0543  0.5728
  118MPD2    H2 1806   2.465   3.093  13.107  4.4977  1.6400  0.7788
  118MPD2    H3 1807   2.468   3.337  13.158  1.0786 -0.6844 -0.6783
  118MPD2     N 1808   2.356   3.275  13.585  0.5904  0.0166 -0.1823
  118MPD2    H5 1809   2.371   3.375  13.591 -1.4366  0.3169 -0.0512
  118MPD2    N1 1810   2.393   2.914  13.275 -0.6546 -1.4962 -0.3716
  118MPD2    H7 1811   2.439   2.886  13.188 -2.3422 -1.1600 -1.3608
  119MPD2     C 1812   0.599   4.004  14.452 -0.0112 -0.2044  0.9624
  119MPD2    C1 1813   0.466   3.978  14.429 -0.2534  0.2103 -0.2969
  119MPD2    C2 1814   0.427   3.930  14.300  0.2165 -0.3850 -0.1743
  119MPD2    C3 1815   0.516   3.902  14.201  0.1335  0.1590 -0.1293
  119MPD2    C4 1816   0.648   3.935  14.228  0.9814  0.0974  0.1375
  119MPD2    C5 1817   0.694   3.983  14.352  0.5226  0.0624  0.6376
  119MPD2     H 1818   0.320   3.925  14.282 -0.2147 -3.8008  3.1123
  119MPD2    H1 1819   0.725   3.916  14.153 -2.4166  0.9524 -3.5742
  119MPD2    H2 1820   0.629   4.035  14.551  2.2311  0.2732  0.1319
  119MPD2    H3 1821   0.797   4.012  14.371  0.9065 -0.6180 -0.3981
  119MPD2     N 1822   0.488   3.843  14.080  0.3047  0.4999 -0.2291
  119MPD2    H5 1823   0.569   3.823  14.022 -0.5731 -0.4832 -1.1115
  119MPD2    N1 1824   0.375   4.006  14.535 -0.0635  0.1843 -0.2985
  119MPD2    H7 1825   0.412   4.064  14.609 -1.3456 -1.9752  2.0357
  120TCq2    C1 1826   0.374   3.768  14.048 -0.3173 -0.4183  0.4048
  120TCq2    O2 1827   0.282   3.742  14.122 -0.0954  0.2368 -0.3190
  120TCq2    C2 1828   0.372   3.713  13.917  0.1639  0.2121  0.5922
  120TCq2    C3 1829   0.470   3.735  13.821 -0.0802  0.1170 -1.0291
  120TCq2    C4 1830   0.455   3.668  13.703  0.6628 -0.4621 -0.7058
  120TCq2    C5 1831   0.348   3.592  13.678  1.0451 -1.1313  0.4821
  120TCq2    C6 1832   0.258   3.557  13.780  0.0586 -0.6851 -1.0122
  120TCq2    C7 1833   0.271   3.615  13.905 -0.1651 -0.4567 -0.1619
  120TCq2    C8 1834   0.149   3.467  13.757 -0.3679 -0.1307  0.8726
  120TCq2    O4 1835   0.124   3.438  13.640 -0.3217 -0.1639 -0.3404
  120TCq2    C9 1836   0.549   3.685  13.602  0.1650 -0.8666 -0.3698
  120TCq2    O5 1837   0.560   3.601  13.509  0.6042  0.8890  0.8102
  120TCq2    O6 1838   0.615   3.789  13.607  0.2429  0.6865  0.3366
  120TCq2    H2 1839   0.548   3.809  13.835  0.2438  0.0999 -2.7194
  120TCq2    H3 1840   0.340   3.556  13.576 -0.3475 -0.3878  0.3280
  120TCq2    H4 1841   0.193   3.603  13.979 -0.9435  3.1571 -0.4121
  121TMC2    C1 1842   2.258   0.745  14.067  0.4752 -0.1387 -0.0737
  121TMC2    C2 1843   2.215   0.663  14.164 -0.3775 -0.8799 -0.5049
  121TMC2    C3 1844   2.090   0.686  14.219 -0.2615  0.1974  0.9787
  121TMC2    C4 1845   2.179   0.850  14.025  0.7216  0.8104  0.6906
  121TMC2    C5 1846   2.055   0.868  14.067  0.0245  0.1938 -0.4811
  121TMC2    C6 1847   2.009   0.783  14.163 -0.2983  0.1399 -0.0542
  121TMC2     C 1848   2.392   0.722  14.020 -1.0193 -0.4418  0.1207
  121TMC2     O 1849   2.479   0.662  14.083 -0.9248 -0.0687  0.1826
  121TMC2     H 1850   2.276   0.580  14.199  2.7691  0.7944 -2.0486
  121TMC2    H1 1851   2.207   0.912  13.940  0.3977  0.5236  0.3711
  121TMC2    H2 1852   1.919   0.806  14.220  0.2764  1.3472  0.3679
  121TMC2    C7 1853   1.969   0.954  13.979  0.0608  0.3293  0.1368
  121TMC2    C8 1854   2.027   0.602  14.323  0.7392  0.9865  0.0240
  121TMC2    O1 1855   2.025   1.034  13.913  0.3691 -0.0893  0.2389
  121TMC2    O2 1856   1.917   0.630  14.371  0.6591 -0.0112  0.5898
  121TMC2    O5 1857   2.123   0.529  14.380  0.5247  0.2959 -0.7018
  121TMC2    H5 1858   2.097   0.485  14.463  0.3771  1.9511  0.1390
  122MPD2     C 1859   2.638   0.756  13.850  0.4745  0.7484  0.4482
  122MPD2    C1 1860   2.512   0.777  13.803 -0.2424  0.4592 -0.3153
  122MPD2    C2 1861   2.496   0.789  13.664  0.9626  0.2857 -0.5448
  122MPD2    C3 1862   2.599   0.799  13.579  0.8686  0.1037  0.0646
  122MPD2    C4 1863   2.728   0.789  13.630  0.0011 -0.1720 -0.0516
  122MPD2    C5 1864   2.741   0.756  13.761  0.3271 -0.0376  0.3921
  122MPD2     H 1865   2.396   0.808  13.627  1.2424 -0.3109 -1.5779
  122MPD2    H1 1866   2.814   0.783  13.564  0.0827  0.4048 -0.0007
  122MPD2    H2 1867   2.662   0.737  13.954 -0.6171 -1.8593  0.2048
  122MPD2    H3 1868   2.841   0.737  13.798 -1.2245 -1.3444  3.9716
  122MPD2     N 1869   2.588   0.813  13.435 -0.3365 -0.4140 -0.2837
  122MPD2    H5 1870   2.668   0.808  13.373  1.0669  0.7896  1.4344
  122MPD2    N1 1871   2.394   0.770  13.885  0.5105 -0.2095  0.3151
  122MPD2    H7 1872   2.302   0.775  13.844  0.0273  2.2320  1.6802
  123MPD2     C 1873   0.436   3.136   9.181 -0.2432 -0.0449 -0.2029
  123MPD2    C1 1874   0.393   3.264   9.223 -0.7187 -0.2682  0.0444
  123MPD2    C2 1875   0.442   3.376   9.158  0.2607 -0.2143  0.2069
  123MPD2    C3 1876   0.543   3.363   9.060 -0.4339 -0.2350  0.0368
  123MPD2    C4 1877   0.587   3.238   9.023  0.0304  0.1061 -0.2534
  123MPD2    C5 1878   0.534   3.124   9.079  0.4010 -0.5705  0.4416
  123MPD2     H 1879   0.412   3.478   9.182  0.2618 -1.7462  6.5388
  123MPD2    H1 1880   0.660   3.225   8.944  1.3714 -0.8008  1.1419
  123MPD2    H2 1881   0.398   3.045   9.227 -1.3436  0.5149 -0.0021
  123MPD2    H3 1882   0.557   3.024   9.044 -1.3644 -0.6552 -0.5125
  123MPD2     N 1883   0.607   3.475   9.013 -0.5042 -0.3591  0.0578
  123MPD2    H5 1884   0.579   3.559   9.062  2.2698  1.2377 -1.1415
  123MPD2    N1 1885   0.299   3.264   9.321 -0.1705 -0.1750 -0.1652
  123MPD2    H7 1886   0.274   3.172   9.355 -1.2167  0.0588 -0.3116
  124TCq2    C1 1887   0.702   3.484   8.914 -0.2535  0.0437  0.5361
  124TCq2    O2 1888   0.711   3.411   8.819  0.1457 -0.2390  0.3132
  124TCq2    C2 1889   0.771   3.618   8.902  0.5254  0.3324 -0.0191
  124TCq2    C3 1890   0.828   3.647   8.780  0.4118 -0.5379  0.6775
  124TCq2    C4 1891   0.918   3.745   8.777  0.4540 -0.4474  0.4485
  124TCq2    C5 1892   0.941   3.824   8.888  0.0175  0.6000  0.3269
  124TCq2    C6 1893   0.887   3.788   9.011 -0.0611 -0.6964 -0.5588
  124TCq2    C7 1894   0.802   3.680   9.020 -0.6857 -0.4835  0.3239
  124TCq2    C8 1895   0.927   3.858   9.135  0.0400 -0.0571  0.4551
  124TCq2    O4 1896   0.874   3.822   9.239 -0.7590  0.2405 -0.1204
  124TCq2    C9 1897   0.994   3.767   8.658 -0.3544 -0.3718 -0.4173
  124TCq2    O5 1898   1.059   3.870   8.636  0.3659 -0.6190  0.1203
  124TCq2    O6 1899   0.965   3.678   8.569 -0.4447 -0.4819  0.5483
  124TCq2    H2 1900   0.810   3.582   8.695 -0.1477  0.1360  0.2836
  124TCq2    H3 1901   1.020   3.896   8.870 -0.3935  1.3087  1.4018
  124TCq2    H4 1902   0.759   3.658   9.117 -1.7299  3.9628  0.8659
  125TMC2    C1 1903   2.806   2.084   9.264 -0.5784  0.3214  0.2356
  125TMC2    C2 1904   2.789   2.218   9.248 -0.6280  0.1284 -0.5786
  125TMC2    C3 1905   2.666   2.272   9.269 -0.4881  0.1910  0.6325
  125TMC2    C4 1906   2.705   2.001   9.299  0.1315 -0.5295 -0.6288
  125TMC2    C5 1907   2.582   2.062   9.312  0.3232 -0.3868  0.2521
  125TMC2    C6 1908   2.558   2.193   9.286  0.5452  0.3431 -0.3269
  125TMC2     C 1909   2.942   2.037   9.309  0.2086  0.4235  0.0130
  125TMC2     O 1910   3.028   2.120   9.336  0.0017 -0.0777 -0.3816
  125TMC2     H 1911   2.872   2.288   9.241 -0.3237 -0.1446  0.3420
  125TMC2    H1 1912   2.726   1.903   9.341 -0.0572 -0.6321 -0.7683
  125TMC2    H2 1913   2.465   2.244   9.307  0.3705 -0.2041  0.2371
  125TMC2    C7 1914   2.462   1.988   9.324  0.4968  0.1569  0.3113
  125TMC2    C8 1915   2.659   2.413   9.251 -0.0482  0.3369  0.3443
  125TMC2    O1 1916   2.363   2.032   9.266 -0.0057  0.1344  0.2008
  125TMC2    O2 1917   2.756   2.475   9.269  0.0164  0.1721  0.0628
  125TMC2    O5 1918   2.580   2.419   9.136 -0.1577 -0.3116 -0.3876
  125TMC2    H5 1919   2.522   2.341   9.119 -1.7323  0.3236  2.0641
  126MPD1     C 1920   3.261   1.649   9.418  0.5371  0.3980 -0.5860
  126MPD1    C1 1921   3.173   1.605   9.328 -0.4907  0.0089 -0.1992
  126MPD1    C2 1922   3.072   1.694   9.287 -0.0751  0.1838 -0.5887
  126MPD1    C3 1923   3.067   1.825   9.332 -0.6057 -0.1926 -0.1673
  126MPD1    C4 1924   3.165   1.872   9.414 -0.0301  0.6826 -0.2263
  126MPD1    C5 1925   3.263   1.784   9.449 -0.3366 -0.4866  0.4024
  126MPD1     H 1926   2.996   1.658   9.219 -0.1672  1.3568 -1.1142
  126MPD1    H1 1927   3.172   1.978   9.435 -0.4332  0.9203 -1.3015
  126MPD1    H2 1928   3.333   1.584   9.466  0.8411 -1.9566 -4.2653
  126MPD1    H3 1929   3.337   1.823   9.517 -1.1354  0.6818  0.6095
  126MPD1     N 1930   2.954   1.903   9.288 -0.3318  0.2777  0.4463
  126MPD1    H5 1931   2.873   1.856   9.251 -0.3135 -1.4467  2.5691
  126MPD1    N1 1932   3.171   1.464   9.299  0.1308  0.0904  0.0919
  126MPD1    H6 1933   3.123   1.444   9.211  0.3888 -1.9291  0.4200
  126MPD1    H7 1934   3.260   1.414   9.303 -0.2455 -0.6557 -0.8265
  127MPD2     C 1935   1.866   4.543   9.481 -0.0485 -0.3271 -0.5754
  127MPD2    C1 1936   1.945   4.517   9.592 -0.5087  0.1086 -0.9464
  127MPD2    C2 1937   2.078   4.545   9.591  0.1739 -0.2357 -0.4803
  127MPD2    C3 1938   2.139   4.593   9.480  1.0197 -0.1038  0.4452
  127MPD2    C4 1939   2.069   4.618   9.366 -0.4577  0.6124 -0.4891
  127MPD2    C5 1940   1.934   4.591   9.369 -0.7171 -0.8559  0.4207
  127MPD2     H 1941   2.149   4.523   9.670  1.5043  0.8040 -1.3885
  127MPD2    H1 1942   2.103   4.665   9.274 -0.4257  0.8982 -0.3328
  127MPD2    H2 1943   1.766   4.507   9.464 -0.7357  0.8220  1.0795
  127MPD2    H3 1944   1.881   4.613   9.278 -1.8444  1.8409  1.7151
  127MPD2     N 1945   2.279   4.624   9.499 -0.1509 -0.7331  0.7828
  127MPD2    H5 1946   2.323   4.590   9.584  1.5513  1.1506  0.6400
  127MPD2    N1 1947   1.869   4.469   9.705  0.4909  0.2047  0.4446
  127MPD2    H7 1948   1.773   4.454   9.677  0.0054 -0.0581  2.2370
  128TCq2    C1 1949   1.915   4.431   9.829  0.1904  0.0497  0.1913
  128TCq2    O2 1950   2.030   4.449   9.866 -0.0110  0.8506 -0.0563
  128TCq2    C2 1951   1.824   4.343   9.903  0.0784  0.0298  0.2817
  128TCq2    C3 1952   1.887   4.274  10.003  0.1196 -0.2740 -0.0207
  128TCq2    C4 1953   1.839   4.148  10.031  0.1236 -0.0310 -0.5058
  128TCq2    C5 1954   1.736   4.089   9.970  0.2650  0.0017  0.8557
  128TCq2    C6 1955   1.683   4.164   9.868 -0.4136 -0.0611  0.0318
  128TCq2    C7 1956   1.716   4.292   9.833  0.2620  0.7862 -0.5591
  128TCq2    C8 1957   1.596   4.100   9.765 -0.2734 -0.8665 -0.3724
  128TCq2    O4 1958   1.567   4.165   9.662 -0.7085 -0.6509  0.3872
  128TCq2    C9 1959   1.908   4.059  10.121  0.4867 -0.2697  0.2042
  128TCq2    O5 1960   1.865   3.945  10.133  0.0145  0.6417  0.4138
  128TCq2    O6 1961   1.996   4.111  10.192 -0.0097 -0.0651 -0.8987
  128TCq2    H2 1962   1.982   4.306  10.046 -0.4410 -0.4959  1.3913
  128TCq2    H3 1963   1.700   3.992  10.003 -0.7931 -0.4676 -1.7053
  128TCq2    H4 1964   1.667   4.344   9.752  0.1937  2.4826  0.5566
  129MPD2     C 1965   0.912   0.352   1.933  0.5274 -0.1950  0.4071
  129MPD2    C1 1966   1.043   0.339   1.895 -0.6811  0.0881  0.5066
  129MPD2    C2 1967   1.085   0.424   1.796  0.3957 -0.0832  0.5636
  129MPD2    C3 1968   0.996   0.515   1.730 -0.4946  0.0858 -0.2436
  129MPD2    C4 1969   0.863   0.523   1.770  0.4548  0.1213  0.6915
  129MPD2    C5 1970   0.824   0.441   1.869 -0.1877  0.2730 -0.2087
  129MPD2     H 1971   1.187   0.429   1.761  0.2496 -0.9484  0.0109
  129MPD2    H1 1972   0.792   0.595   1.729  2.4355  1.7910  0.2344
  129MPD2    H2 1973   0.877   0.298   2.020 -0.8956 -0.5238 -0.3777
  129MPD2    H3 1974   0.721   0.448   1.901 -0.4029 -3.9214  0.0794
  129MPD2     N 1975   1.058   0.598   1.637  0.0040 -0.4640 -0.6971
  129MPD2    H5 1976   1.152   0.572   1.607  0.6606 -0.0648  0.9939
  129MPD2    N1 1977   1.132   0.245   1.950  0.3166  0.1612 -0.4926
  129MPD2    H7 1978   1.230   0.242   1.924  0.8108  4.0277  1.0137
  130TCq2    C1 1979   1.086   0.133   2.023 -0.3796  0.6028 -0.5161
  130TCq2    O2 1980   0.978   0.102   2.062  0.2908  0.1051 -0.6541
  130TCq2    C2 1981   1.193   0.041   2.046 -0.3306 -0.5233  0.4779
  130TCq2    C3 1982   1.325   0.077   2.044 -0.0749  0.1974  0.2787
  130TCq2    C4 1983   1.417   4.701   2.090 -0.2086  0.0785 -0.4386
  130TCq2    C5 1984   1.373   4.571   2.119  0.6245 -0.6975 -0.2960
  130TCq2    C6 1985   1.240   4.549   2.116  0.0944  0.0794  0.3368
  130TCq2    C7 1986   1.151   4.642   2.087  0.0426  0.0598 -0.0873
  130TCq2    C8 1987   1.191   4.411   2.129 -0.7508 -0.4300 -0.3508
  130TCq2    O4 1988   1.069   4.395   2.125 -0.0629 -0.0996  0.3782
  130TCq2    C9 1989   1.562   0.001   2.095 -0.1202  0.7797  0.2665
  130TCq2    O5 1990   1.633   4.632   2.142  0.1436  0.8893  0.0761
  130TCq2    O6 1991   1.605   0.111   2.053  0.6309  0.1766  0.4413
  130TCq2    H2 1992   1.363   0.176   2.023 -1.0579  0.2857 -1.0963
  130TCq2    H3 1993   1.434   4.494   2.165 -0.1323 -0.4024  1.1885
  130TCq2    H4 1994   1.049   4.612   2.068  0.7712 -1.0869 -2.2202
  131MPD2     C 1995   4.640   4.001   9.889 -1.2759 -0.7982  0.2598
  131MPD2    C1 1996   0.045   3.962   9.897 -0.1915  0.1402  0.7274
  131MPD2    C2 1997   0.081   3.837   9.844  0.0701 -0.6831  0.1494
  131MPD2    C3 1998   4.704   3.759   9.786 -0.8668 -0.4541 -0.2742
  131MPD2    C4 1999   4.575   3.804   9.768  0.0288  0.3557  0.0392
  131MPD2    C5 2000   4.545   3.925   9.826 -0.9129 -0.8021 -0.1343
  131MPD2     H 2001   0.186   3.812   9.841 -0.2451 -1.9737 -0.2556
  131MPD2    H1 2002   4.496   3.742   9.728  1.3622 -0.9128 -0.6141
  131MPD2    H2 2003   4.610   4.092   9.938 -0.2094 -1.0629  1.4074
  131MPD2    H3 2004   4.445   3.965   9.832 -1.0722 -1.3324  0.7662
  131MPD2     N 2005   0.017   3.629   9.748 -0.1541 -0.3132  0.5308
  131MPD2    H5 2006   0.112   3.596   9.761 -0.8494 -2.2537  0.6943
  131MPD2    N1 2007   0.136   4.049   9.951 -0.8257 -0.0856  0.1062
  131MPD2    H7 2008   0.094   4.132   9.992 -1.2809 -0.4305  0.3344
  132TCq2    C1 2009   0.655   4.297  10.044  0.1947  0.4484 -0.3237
  132TCq2    O2 2010   0.708   4.218   9.967 -0.2132  0.2226  0.0685
  132TCq2    C2 2011   0.517   4.277  10.081  0.3592  0.7279  0.0128
  132TCq2    C3 2012   0.440   4.366  10.147  0.3654  0.3177 -0.1418
  132TCq2    C4 2013   0.305   4.367  10.140 -0.1403 -0.1044 -0.4146
  132TCq2    C5 2014   0.244   4.263  10.076 -0.2705 -0.3882 -0.6956
  132TCq2    C6 2015   0.321   4.163  10.013 -0.5262 -0.3056  0.1519
  132TCq2    C7 2016   0.455   4.174  10.010  0.5306 -0.9277 -0.0003
  132TCq2    C8 2017   0.272   4.034   9.974 -0.5627  0.5168 -0.0605
  132TCq2    O4 2018   0.348   3.946   9.933 -0.6502 -0.4155  0.3492
  132TCq2    C9 2019   0.215   4.449  10.223 -0.2833 -0.1087 -0.9003
  132TCq2    O5 2020   0.277   4.531  10.299 -0.3471 -0.2195  0.3748
  132TCq2    O6 2021   0.096   4.418  10.240 -0.2102  0.3003  0.0948
  132TCq2    H2 2022   0.483   4.446  10.207  0.0558  1.7969 -1.8924
  132TCq2    H3 2023   0.137   4.255  10.087 -0.6311  3.4191 -1.3470
  132TCq2    H4 2024   0.511   4.113   9.940 -0.8115  2.0277 -3.6547
  133MPD2     C 2025   4.570   0.760   9.775 -0.5370  0.5231 -0.3868
  133MPD2    C1 2026   4.645   0.646   9.755 -0.0810  0.3195  0.2273
  133MPD2    C2 2027   4.582   0.519   9.758 -0.0745  0.5124  0.0743
  133MPD2    C3 2028   4.447   0.514   9.789 -0.3780 -0.1668 -0.4287
  133MPD2    C4 2029   4.373   0.625   9.801  0.5013  0.2474  0.4546
  133MPD2    C5 2030   4.433   0.745   9.780 -0.7240 -0.2098 -0.0502
  133MPD2     H 2031   4.644   0.430   9.755  0.2690  0.6903  1.9818
  133MPD2    H1 2032   4.267   0.612   9.818  0.5426 -0.3682  0.2260
  133MPD2    H2 2033   4.612   0.860   9.770  1.6139 -0.4228 -1.4075
  133MPD2    H3 2034   4.376   0.836   9.786  0.2935  0.3535  1.0514
  133MPD2     N 2035   4.366   0.395   9.795 -0.3346 -0.1027  0.0764
  133MPD2    H5 2036   4.267   0.417   9.793 -0.1696  0.4756 -1.7118
  133MPD2    N1 2037   0.055   0.665   9.716 -0.0438 -0.5428  0.4050
  133MPD2    H7 2038   0.085   0.761   9.702  2.6609 -1.1808  2.0512
  134TCq2    C1 2039   0.151   0.571   9.682  0.7553 -0.0001 -0.0926
  134TCq2    O2 2040   0.139   0.451   9.658  0.2274 -0.2043 -0.3595
  134TCq2    C2 2041   0.275   0.637   9.645  0.6384 -0.6293  0.6602
  134TCq2    C3 2042   0.295   0.768   9.670 -0.3791 -0.3270 -0.8302
  134TCq2    C4 2043   0.408   0.832   9.622  0.0076  0.4765 -0.1169
  134TCq2    C5 2044   0.507   0.765   9.564 -0.0413 -0.2591  0.2711
  134TCq2    C6 2045   0.492   0.631   9.550 -0.2615  0.0815  0.2477
  134TCq2    C7 2046   0.382   0.568   9.603 -0.0335 -0.5182  0.1406
  134TCq2    C8 2047   0.601   0.557   9.491  0.2259 -0.1512  0.4428
  134TCq2    O4 2048   0.694   0.632   9.457 -0.1951 -0.0924  0.1615
  134TCq2    C9 2049   0.423   0.977   9.642 -0.5988 -0.4718  0.8645
  134TCq2    O5 2050   0.508   1.034   9.567 -0.1989 -0.1814 -0.0215
  134TCq2    O6 2051   0.335   1.037   9.715 -0.6330 -0.3865 -0.1398
  134TCq2    H2 2052   0.230   0.833   9.727 -0.5476 -1.5365  0.3623
  134TCq2    H3 2053   0.596   0.816   9.528  0.2173 -1.0173 -0.1734
  134TCq2    H4 2054   0.368   0.465   9.570 -0.2402  0.0487 -1.5256
  135MPD2     C 2055   1.843   0.750  10.029 -0.7562  0.5737  0.3369
  135MPD2    C1 2056   1.758   0.844   9.987  0.1793 -0.0587 -0.2164
  135MPD2    C2 2057   1.805   0.948   9.902 -0.2245 -0.8716 -0.4419
  135MPD2    C3 2058   1.937   0.955   9.866 -0.1480  0.1807  0.0781
  135MPD2    C4 2059   2.027   0.856   9.910  0.2225 -0.4187 -0.7130
  135MPD2    C5 2060   1.974   0.756   9.990  0.5165  0.5616  0.8651
  135MPD2     H 2061   1.737   1.026   9.870 -2.1738 -2.2623  0.2728
  135MPD2    H1 2062   2.132   0.850   9.883 -0.4225  1.0063 -3.5344
  135MPD2    H2 2063   1.828   0.667  10.097 -2.2577 -0.3900 -1.1556
  135MPD2    H3 2064   2.046   0.686  10.033 -0.1884 -0.4885  0.3421
  135MPD2     N 2065   1.997   1.074   9.802 -0.9619  0.1403 -0.7510
  135MPD2    H5 2066   2.098   1.084   9.797 -0.8451 -0.5483  0.1237
  135MPD2    N1 2067   1.624   0.848  10.035 -0.2014 -0.4758  0.2546
  135MPD2    H7 2068   1.575   0.936  10.023 -0.3447 -0.8352 -1.9414
  136TCq2    C1 2069   1.562   0.751  10.114  0.4065  0.0226  0.3489
  136TCq2    O2 2070   1.595   0.636  10.139  0.1685 -0.6451  0.0558
  136TCq2    C2 2071   1.437   0.810  10.156 -0.6428 -0.4498 -0.6382
  136TCq2    C3 2072   1.374   0.898  10.080 -0.5190  0.6007  0.5185
  136TCq2    C4 2073   1.285   0.983  10.141  0.0352 -0.0918 -1.2498
  136TCq2    C5 2074   1.241   0.958  10.266  0.1129 -0.6347 -0.0677
  136TCq2    C6 2075   1.304   0.863  10.344 -0.1027  0.1856  0.0954
  136TCq2    C7 2076   1.398   0.783  10.289 -0.1459  0.1280  0.2396
  136TCq2    C8 2077   1.305   0.867  10.488  0.6533 -0.0080 -0.0980
  136TCq2    O4 2078   1.361   0.778  10.551  0.0578  0.1545  0.0635
  136TCq2    C9 2079   1.214   1.072  10.058  0.6145 -0.1092  1.1026
  136TCq2    O5 2080   1.272   1.145   9.974  0.3704  0.1422  0.2077
  136TCq2    O6 2081   1.098   1.091  10.095 -0.4963  0.5645 -0.5726
  136TCq2    H2 2082   1.407   0.921   9.980  0.7097 -1.9784  0.3418
  136TCq2    H3 2083   1.165   1.019  10.312 -1.4670 -2.4250 -0.3225
  136TCq2    H4 2084   1.471   0.729  10.349  1.3372 -0.7571 -2.3213
  137MPD2     C 2085   2.238   0.412   9.890 -0.1937 -0.0552  0.4698
  137MPD2    C1 2086   2.104   0.430   9.885  1.0643 -0.5783  0.0593
  137MPD2    C2 2087   2.030   0.385   9.995  0.1213 -0.2670 -0.0613
  137MPD2    C3 2088   2.100   0.339  10.107  0.6219 -0.0778 -0.2740
  137MPD2    C4 2089   2.233   0.330  10.105  0.1027 -0.3745  0.7330
  137MPD2    C5 2090   2.308   0.367   9.997 -0.2829 -1.1280 -0.1633
  137MPD2     H 2091   1.922   0.388   9.994  0.1700  1.9034  1.4649
  137MPD2    H1 2092   2.297   0.306  10.189  2.0128 -0.2203 -0.6487
  137MPD2    H2 2093   2.300   0.432   9.803 -0.9518  1.4192  0.2705
  137MPD2    H3 2094   2.416   0.361   9.994 -0.4133 -3.2172 -0.5476
  137MPD2     N 2095   2.013   0.314  10.212 -0.5026  0.2506  0.8145
  137MPD2    H5 2096   1.917   0.347  10.209  0.2805  2.1589 -2.8089
  137MPD2    N1 2097   2.046   0.486   9.772 -0.1358  0.1008  0.1090
  137MPD2    H7 2098   2.108   0.543   9.714  0.0840  1.1138  1.3386
  138TCq2    C1 2099   1.910   0.498   9.756  0.5982 -0.2173 -0.1064
  138TCq2    O2 2100   1.816   0.445   9.817 -0.1086  0.2314 -0.1140
  138TCq2    C2 2101   1.870   0.596   9.652 -0.0849  0.1550  0.2417
  138TCq2    C3 2102   1.957   0.641   9.555 -0.4132 -0.3333 -0.2065
  138TCq2    C4 2103   1.919   0.743   9.471 -0.0470 -0.1885  0.3942
  138TCq2    C5 2104   1.791   0.803   9.482  0.3073 -0.0046 -0.1091
  138TCq2    C6 2105   1.701   0.746   9.582 -0.0736  0.0237 -0.0063
  138TCq2    C7 2106   1.743   0.650   9.670  0.7264 -0.6983  0.0734
  138TCq2    C8 2107   1.566   0.793   9.573 -0.0166  1.0844 -0.0645
  138TCq2    O4 2108   1.536   0.884   9.498  0.4558 -0.0377 -0.3601
  138TCq2    C9 2109   2.014   0.799   9.378 -0.2051 -0.5087 -0.0730
  138TCq2    O5 2110   1.973   0.892   9.305  0.1415  0.2992  0.2639
  138TCq2    O6 2111   2.137   0.776   9.396 -0.1868  0.2046  0.0475
  138TCq2    H2 2112   2.052   0.596   9.531 -0.6923  0.7413 -3.3543
  138TCq2    H3 2113   1.759   0.884   9.418  1.7096  1.9139  1.6127
  138TCq2    H4 2114   1.688   0.627   9.760  2.0004  1.8484  1.4851
  139TMC2    C1 2115   2.002   3.603  13.478  0.8531 -0.1957  1.0248
  139TMC2    C2 2116   2.132   3.584  13.512 -0.1501  0.1035  0.2785
  139TMC2    C3 2117   2.185   3.666  13.608  0.2812 -0.1058  0.0491
  139TMC2    C4 2118   1.925   3.695  13.549  0.9612 -0.8641 -0.1287
  139TMC2    C5 2119   1.980   3.763  13.654  0.6844 -0.4811  0.1430
  139TMC2    C6 2120   2.115   3.755  13.683 -1.0552  0.3295  0.0481
  139TMC2     C 2121   1.924   3.479  13.457  0.2249 -0.2536  1.2775
  139TMC2     O 2122   1.989   3.377  13.458 -0.0724 -0.2368  0.3608
  139TMC2     H 2123   2.179   3.496  13.470  0.7560  0.1813  1.1337
  139TMC2    H1 2124   1.818   3.708  13.535  1.3900  1.1004 -1.5313
  139TMC2    H2 2125   2.156   3.803  13.771  0.7713 -2.5117  0.7597
  139TMC2    C7 2126   1.882   3.786  13.761 -0.2198  0.6322 -0.4030
  139TMC2    C8 2127   2.321   3.654  13.634 -0.1147 -0.1099  0.1767
  139TMC2    O1 2128   1.761   3.792  13.731 -0.2888 -0.0721 -0.0063
  139TMC2    O2 2129   2.380   3.545  13.612  0.3938 -0.0927  0.2052
  139TMC2    O5 2130   2.374   3.778  13.644  0.2075 -0.3739  0.1434
  139TMC2    H5 2131   2.305   3.840  13.679  1.6309  0.6938  1.0573
  140MPD2     C 2132   1.560   3.427  13.497 -0.4126 -0.3548  0.1980
  140MPD2    C1 2133   1.693   3.389  13.479 -0.6799 -0.1365 -0.1344
  140MPD2    C2 2134   1.718   3.255  13.489 -0.1601 -0.5477 -0.0956
  140MPD2    C3 2135   1.615   3.161  13.520 -0.3164  0.2261  0.5377
  140MPD2    C4 2136   1.484   3.204  13.523 -0.1374  0.3138  0.2849
  140MPD2    C5 2137   1.460   3.338  13.523  0.9846 -0.2751  0.0269
  140MPD2     H 2138   1.822   3.225  13.488 -0.7995 -2.8983  2.5741
  140MPD2    H1 2139   1.400   3.138  13.539 -2.1409  2.7437 -0.2595
  140MPD2    H2 2140   1.536   3.533  13.498 -1.8387 -0.6621 -1.9959
  140MPD2    H3 2141   1.362   3.382  13.535  0.3495 -1.4555 -0.8305
  140MPD2     N 2142   1.663   3.033  13.537  0.5446  0.1333  0.3963
  140MPD2    H5 2143   1.761   3.013  13.518 -0.2123 -2.5569 -0.7335
  140MPD2    N1 2144   1.789   3.497  13.467 -0.2378  0.2462 -0.3617
  140MPD2    H7 2145   1.753   3.591  13.483  1.2073  1.0967 -2.1704
  141TCq2    C1 2146   2.847   4.384  14.573  0.3895 -0.1026 -0.1431
  141TCq2    O2 2147   2.799   4.495  14.540  0.0455 -0.7022 -0.3220
  141TCq2    C2 2148   2.848   4.347  14.708 -0.1559 -0.2477  0.1222
  141TCq2    C3 2149   2.909   4.230  14.758 -0.1530 -0.0741 -0.4717
  141TCq2    C4 2150   2.909   4.209  14.886  0.0884  0.1422  0.1577
  141TCq2    C5 2151   2.870   4.304  14.976 -0.2980 -0.3358  0.3396
  141TCq2    C6 2152   2.821   4.418  14.933  0.5776 -0.0875  0.0257
  141TCq2    C7 2153   2.801   4.439  14.800  0.0204 -0.5792  0.4908
  141TCq2    C8 2154   2.797   4.528  15.029 -0.1958 -0.3951  0.0432
  141TCq2    O4 2155   2.785   4.494  15.148  0.1347 -0.4897  0.3816
  141TCq2    C9 2156   2.980   4.090  14.927  0.1023  0.6957  0.5759
  141TCq2    O5 2157   3.009   4.098  15.048 -0.1925 -0.4168 -0.3803
  141TCq2    O6 2158   2.952   3.986  14.861 -0.5276 -0.0604  0.0043
  141TCq2    H2 2159   2.936   4.149  14.691  1.0841  0.2509 -0.3617
  141TCq2    H3 2160   2.902   4.293  15.079 -1.4061  0.6943  0.7820
  141TCq2    H4 2161   2.755   4.527  14.756 -0.0207 -1.6916 -1.6920
  142MPD2     C 2162   0.750   3.595  10.461  0.2300  0.0964  0.6329
  142MPD2    C1 2163   0.684   3.631  10.346  0.5097 -0.0312  0.2608
  142MPD2    C2 2164   0.745   3.711  10.242  0.8449  0.0449 -0.2697
  142MPD2    C3 2165   0.876   3.755  10.267  0.5337 -0.3545 -0.0050
  142MPD2    C4 2166   0.943   3.723  10.384  0.5466 -0.4095  0.2063
  142MPD2    C5 2167   0.879   3.643  10.473  0.2716 -0.3124 -0.5177
  142MPD2     H 2168   0.691   3.733  10.150  0.9720 -0.2136 -0.4091
  142MPD2    H1 2169   1.047   3.743  10.403  0.3783 -0.5365  1.2633
  142MPD2    H2 2170   0.711   3.531  10.539 -0.4132  0.2296  0.4177
  142MPD2    H3 2171   0.934   3.614  10.562 -2.2358 -1.0419  0.7737
  142MPD2     N 2172   0.951   3.826  10.177  0.1759  0.1996 -0.5658
  142MPD2    H5 2173   1.052   3.832  10.191  0.2852  0.2998 -1.3605
  142MPD2    N1 2174   0.559   3.558  10.323  0.3537 -0.3848  0.3728
  142MPD2    H7 2175   0.544   3.483  10.390 -0.3551  0.7773  1.5111
  143TCq2    C1 2176   0.908   3.889  10.060 -1.2092  0.4202 -0.7398
  143TCq2    O2 2177   0.794   3.901  10.024 -0.5305  0.5787 -0.0028
  143TCq2    C2 2178   1.018   3.946   9.980 -0.1439 -0.4988  0.5413
  143TCq2    C3 2179   1.130   3.989  10.042 -0.0501 -0.3021 -0.3457
  143TCq2    C4 2180   1.224   4.057   9.963  0.6596  0.1131  0.5393
  143TCq2    C5 2181   1.204   4.072   9.831  0.1895 -0.4105 -0.7658
  143TCq2    C6 2182   1.100   4.014   9.763 -0.7910 -0.9008  0.2823
  143TCq2    C7 2183   1.005   3.946   9.842 -0.3761  0.6606 -0.7394
  143TCq2    C8 2184   1.086   4.013   9.622 -0.0111 -0.2463 -0.8053
  143TCq2    O4 2185   0.980   3.967   9.584 -0.1690 -0.4446  0.3387
  143TCq2    C9 2186   1.335   4.138  10.020 -1.0351 -0.7115 -0.4226
  143TCq2    O5 2187   1.353   4.255   9.974 -0.6836 -0.1221 -0.0113
  143TCq2    O6 2188   1.367   4.106  10.134  0.0442 -0.5147  0.3155
  143TCq2    H2 2189   1.136   3.994  10.150  1.5379 -3.2032 -0.3292
  143TCq2    H3 2190   1.276   4.134   9.779 -0.4512 -0.6597 -1.9442
  143TCq2    H4 2191   0.910   3.907   9.807 -0.4011 -0.0705  0.1237
  144MPD2     C 2192   3.248   2.313   0.815  0.0250  0.8797 -0.1816
  144MPD2    C1 2193   3.292   2.195   0.764  0.0750 -0.0338 -0.3362
  144MPD2    C2 2194   3.404   2.144   0.826 -0.5440  0.4410  0.3003
  144MPD2    C3 2195   3.452   2.190   0.948  0.4210  0.2847  0.7598
  144MPD2    C4 2196   3.394   2.300   1.008 -0.6411  1.1437  0.0878
  144MPD2    C5 2197   3.298   2.360   0.935 -0.9909 -0.1869 -0.1303
  144MPD2     H 2198   3.436   2.050   0.783 -1.4738  0.5830 -0.7015
  144MPD2    H1 2199   3.419   2.332   1.108  0.7020 -0.5063  0.2878
  144MPD2    H2 2200   3.172   2.373   0.768 -0.4402 -0.9486 -1.7610
  144MPD2    H3 2201   3.245   2.446   0.975 -1.9885 -0.0957 -1.6391
  144MPD2     N 2202   3.552   2.125   1.028 -0.4254 -0.3334  0.0782
  144MPD2    H5 2203   3.558   2.149   1.126 -0.2901  1.1101 -0.2789
  144MPD2    N1 2204   3.247   2.137   0.638 -0.0853 -0.3188  0.6194
  144MPD2    H7 2205   3.297   2.054   0.607 -0.5789 -0.2892 -0.2606
  145TCq2    C1 2206   3.637   2.024   0.987 -0.4645  0.4997 -0.0674
  145TCq2    O2 2207   3.655   1.975   0.875 -0.2416 -0.0285 -0.3089
  145TCq2    C2 2208   3.707   1.958   1.096  0.7442  0.4153 -0.1827
  145TCq2    C3 2209   3.765   1.841   1.060  0.2919 -0.1455  0.0329
  145TCq2    C4 2210   3.797   1.756   1.159  0.3766 -0.4740  0.0675
  145TCq2    C5 2211   3.774   1.785   1.290 -0.3041 -0.4062 -0.3105
  145TCq2    C6 2212   3.714   1.900   1.324 -0.7224 -0.3371  0.6377
  145TCq2    C7 2213   3.677   1.991   1.224  0.4528 -0.1594 -0.8376
  145TCq2    C8 2214   3.726   1.942   1.463  0.6140 -1.5900 -0.3068
  145TCq2    O4 2215   3.769   1.864   1.550 -0.2407 -0.0393  0.2973
  145TCq2    C9 2216   3.864   1.636   1.127 -0.2982  0.9062  0.0145
  145TCq2    O5 2217   3.887   1.615   1.004 -0.4664  0.4105  0.5126
  145TCq2    O6 2218   3.889   1.558   1.222  0.4119  0.4417  0.0802
  145TCq2    H2 2219   3.792   1.830   0.956  1.7113 -0.9593  0.4864
  145TCq2    H3 2220   3.795   1.707   1.363 -4.1484  0.2205  1.4873
  145TCq2    H4 2221   3.645   2.086   1.266  0.2835 -0.5833  0.0085
  146TMC2    C1 2222   4.254   0.538  13.158 -0.6471 -0.1193 -0.5299
  146TMC2    C2 2223   4.193   0.531  13.034 -0.5580 -0.1146  0.4748
  146TMC2    C3 2224   4.178   0.403  12.980 -0.8014 -0.0995  0.1664
  146TMC2    C4 2225   4.294   0.428  13.229 -0.6447 -0.9310  0.1874
  146TMC2    C5 2226   4.267   0.305  13.177  0.3389 -0.1459 -0.1569
  146TMC2    C6 2227   4.221   0.292  13.050  0.3102 -1.1450 -0.3768
  146TMC2     C 2228   4.296   0.670  13.194 -0.3421 -0.0494 -0.5925
  146TMC2     O 2229   4.243   0.760  13.126  0.4754 -0.4066  0.1048
  146TMC2     H 2230   4.167   0.620  12.977 -0.6053 -0.5681 -0.2156
  146TMC2    H1 2231   4.310   0.437  13.335 -0.0506 -1.2195  0.1174
  146TMC2    H2 2232   4.207   0.192  13.011  1.3161 -1.0437 -0.9876
  146TMC2    C7 2233   4.311   0.185  13.254  0.4748 -0.2922 -0.0598
  146TMC2    C8 2234   4.134   0.387  12.836 -0.6705  0.4348  0.3035
  146TMC2    O1 2235   4.251   0.079  13.233 -0.0676  0.1035  0.4205
  146TMC2    O2 2236   4.064   0.475  12.784 -0.1597  0.3336  0.2807
  146TMC2    O5 2237   4.200   0.296  12.769  0.6442 -0.7103 -0.3864
  146TMC2    H5 2238   4.264   0.240  12.819  0.4382 -0.8568 -0.2901
  147MPD2     C 2239   4.599   4.674  13.612  0.0737 -0.2257 -0.4443
  147MPD2    C1 2240   4.670   0.066  13.571  0.1406 -0.6421  0.3892
  147MPD2    C2 2241   4.614   0.145  13.478  0.2152  0.1205  0.4517
  147MPD2    C3 2242   4.489   0.115  13.425  0.8053  0.2209 -0.0180
  147MPD2    C4 2243   4.421   4.720  13.459 -0.3399 -0.0203 -1.1678
  147MPD2    C5 2244   4.479   4.642  13.553  0.1309 -0.8228  0.7458
  147MPD2     H 2245   4.666   0.235  13.448  1.6019 -0.3653  1.3896
  147MPD2    H1 2246   4.319   4.699  13.431 -1.0203  1.4696  0.1973
  147MPD2    H2 2247   4.635   4.613  13.694 -0.2408  2.1584  1.4544
  147MPD2    H3 2248   4.421   4.556  13.583 -1.4321  0.6572  1.9695
  147MPD2     N 2249   4.422   0.205  13.335  0.1401  0.0092  0.1217
  147MPD2    H5 2250   4.472   0.291  13.317 -1.6021  0.5564 -2.1941
  147MPD2    N1 2251   0.065   0.105  13.646  0.2668  0.0236  0.1115
  147MPD2    H7 2252   0.108   0.031  13.701 -0.4931  0.3614  1.1524
  148MPD2     C 2253   0.129   4.498  11.135  0.5424  0.4431  0.1149
  148MPD2    C1 2254   0.201   4.430  11.034 -0.4237  0.1093 -0.5875
  148MPD2    C2 2255   0.138   4.334  10.955  0.5689 -0.1272  0.3216
  148MPD2    C3 2256   0.001   4.325  10.958  0.2028 -0.5453 -0.1803
  148MPD2    C4 2257   4.654   4.392  11.055  0.1206 -0.4901  0.7547
  148MPD2    C5 2258   4.714   4.480  11.139  0.0552 -0.3228 -0.3655
  148MPD2     H 2259   0.192   4.279  10.879  0.4717 -0.8271  0.7611
  148MPD2    H1 2260   4.546   4.393  11.063 -0.0875 -2.4498 -1.9128
  148MPD2    H2 2261   0.156   4.581  11.199 -0.5867 -0.5858  1.9409
  148MPD2    H3 2262   4.652   4.538  11.207 -0.0441 -1.6767  0.6997
  148MPD2     N 2263   4.644   4.255  10.869  0.6213 -0.2322  0.3911
  148MPD2    H5 2264   4.544   4.277  10.869  0.5055 -0.7653 -0.2837
  148MPD2    N1 2265   0.337   4.451  11.013  0.1027 -0.2336  0.7684
  148MPD2    H7 2266   0.372   4.401  10.932 -0.5776 -2.5277  1.8932
  149TCq2    C1 2267   0.416   4.547  11.076 -0.9242 -0.0444  1.2061
  149TCq2    O2 2268   0.383   4.651  11.136  0.3290 -0.0717  0.8537
  149TCq2    C2 2269   0.554   4.535  11.039 -0.3364  0.1764 -0.0314
  149TCq2    C3 2270   0.608   4.651  10.991 -0.7700 -0.0986 -0.0202
  149TCq2    C4 2271   0.712   4.647  10.904  0.6208  0.0683 -0.1203
  149TCq2    C5 2272   0.758   4.524  10.858 -0.1453 -0.0654 -0.0042
  149TCq2    C6 2273   0.710   4.411  10.914  0.2804 -0.0052 -0.3182
  149TCq2    C7 2274   0.600   4.411  10.999  0.2721  0.1312 -0.3357
  149TCq2    C8 2275   0.721   4.291  10.832  0.1433  0.0336 -0.6363
  149TCq2    O4 2276   0.648   4.198  10.864  0.0213  0.5364  0.1880
  149TCq2    C9 2277   0.751   0.044  10.824  0.0292 -0.4872 -0.3256
  149TCq2    O5 2278   0.705   0.156  10.856 -0.0968 -0.1935  0.3877
  149TCq2    O6 2279   0.847   0.040  10.740 -0.1310  0.0562 -0.2025
  149TCq2    H2 2280   0.549   0.019  11.003 -1.4721 -0.6114  0.4240
  149TCq2    H3 2281   0.837   4.531  10.784  2.7527 -2.3707  2.8377
  149TCq2    H4 2282   0.550   4.317  11.019  0.8150  0.2309  1.5248
  150MPD2     C 2283   1.098   3.979  12.443  0.6359 -0.1615  0.6472
  150MPD2    C1 2284   1.179   4.006  12.340  0.1289  0.0050  0.2192
  150MPD2    C2 2285   1.309   4.043  12.373 -0.4267 -0.2503 -0.4398
  150MPD2    C3 2286   1.350   4.059  12.503  0.0624  0.4512 -0.3746
  150MPD2    C4 2287   1.267   4.037  12.606 -1.0671  0.0497  0.5387
  150MPD2    C5 2288   1.144   3.995  12.566 -0.4504  0.2220  0.4715
  150MPD2     H 2289   1.379   4.053  12.290  0.7613  1.9940  0.8491
  150MPD2    H1 2290   1.301   4.030  12.709  0.7248 -0.0218 -0.0526
  150MPD2    H2 2291   0.998   3.942  12.423  1.1519 -1.1545 -0.0408
  150MPD2    H3 2292   1.078   3.980  12.650 -2.0776  1.8871 -0.5044
  150MPD2     N 2293   1.485   4.087  12.510  0.0899  0.1574 -0.4851
  150MPD2    H5 2294   1.535   4.087  12.422  0.7418 -1.8642 -0.1132
  150MPD2    N1 2295   1.124   3.989  12.212  0.9318 -0.2936 -0.2391
  150MPD2    H7 2296   1.030   3.952  12.205  0.6169  0.7491 -1.5430
  151TCq2    C1 2297   1.548   4.136  12.618 -0.4340 -0.4134 -0.1104
  151TCq2    O2 2298   1.514   4.145  12.738 -0.4040 -0.2700 -0.2228
  151TCq2    C2 2299   1.676   4.190  12.577 -0.4760  0.8332  0.3379
  151TCq2    C3 2300   1.707   4.211  12.438 -0.4857 -0.2894  0.1120
  151TCq2    C4 2301   1.831   4.226  12.399  0.4750  0.0921 -0.0926
  151TCq2    C5 2302   1.935   4.224  12.489 -0.4114  0.0242 -0.2512
  151TCq2    C6 2303   1.902   4.205  12.622  0.6216 -0.1379 -0.8378
  151TCq2    C7 2304   1.772   4.202  12.670  0.6772 -0.0243  0.0356
  151TCq2    C8 2305   2.012   4.182  12.714  0.4582  0.5421  0.5941
  151TCq2    O4 2306   2.017   4.251  12.813 -0.4076  0.4875 -0.1328
  151TCq2    C9 2307   1.857   4.239  12.259 -0.3540  0.9097 -0.1952
  151TCq2    O5 2308   1.976   4.270  12.224  0.4277  0.2470  0.1221
  151TCq2    O6 2309   1.771   4.192  12.189  0.1682  0.5096 -0.3931
  151TCq2    H2 2310   1.627   4.220  12.366 -1.2037  0.7926  1.0421
  151TCq2    H3 2311   2.033   4.230  12.443 -1.2321 -0.7703 -2.1216
  151TCq2    H4 2312   1.756   4.168  12.772 -3.3101 -0.5139 -0.7417
  152MPD2     C 2313   1.309   3.488  13.169 -0.0617  0.7707  0.0403
  152MPD2    C1 2314   1.307   3.568  13.057  0.5552  0.2312 -0.4232
  152MPD2    C2 2315   1.187   3.589  12.992  0.2500 -0.1296 -0.5332
  152MPD2    C3 2316   1.067   3.536  13.035 -0.5708 -0.4044  0.4785
  152MPD2    C4 2317   1.071   3.444  13.133  0.1066  0.1960  0.4327
  152MPD2    C5 2318   1.197   3.419  13.192  0.6762  0.2588 -0.8821
  152MPD2     H 2319   1.177   3.658  12.909  1.2786  0.0006 -0.5489
  152MPD2    H1 2320   0.981   3.392  13.165 -2.0886  3.2930 -0.7089
  152MPD2    H2 2321   1.402   3.452  13.211 -1.6718 -0.1706  2.8618
  152MPD2    H3 2322   1.207   3.352  13.277  3.4236  2.6800  0.6931
  152MPD2     N 2323   0.950   3.574  12.962 -0.4882  0.4331  0.6010
  152MPD2    H5 2324   0.970   3.638  12.886  2.7745  0.4092  1.4388
  152MPD2    N1 2325   1.429   3.615  13.006  1.1214 -0.1032 -1.1213
  152MPD2    H7 2326   1.507   3.576  13.057 -0.3691 -0.1204  1.1482
  153TCq2    C1 2327   1.447   3.712  12.921  0.1327 -0.3450  0.1313
  153TCq2    O2 2328   1.368   3.772  12.849 -0.4035 -0.7674 -0.3009
  153TCq2    C2 2329   1.590   3.735  12.895 -0.3479  0.2281  0.2405
  153TCq2    C3 2330   1.635   3.773  12.773 -0.4549 -0.1952 -0.4743
  153TCq2    C4 2331   1.766   3.800  12.758 -0.5456 -0.6018  0.4454
  153TCq2    C5 2332   1.852   3.775  12.865 -0.3378 -0.5133  0.0716
  153TCq2    C6 2333   1.805   3.735  12.987  0.0997  0.6609 -0.0715
  153TCq2    C7 2334   1.675   3.717  13.006  0.9096  0.7852 -0.6377
  153TCq2    C8 2335   1.891   3.746  13.106 -1.1476 -0.1750 -0.0407
  153TCq2    O4 2336   1.844   3.757  13.217 -0.0813  0.5240 -0.3802
  153TCq2    C9 2337   1.811   3.839  12.625  0.2338  0.4512 -0.2387
  153TCq2    O5 2338   1.933   3.856  12.609 -0.1269  0.0524 -0.0507
  153TCq2    O6 2339   1.732   3.825  12.528 -0.9347 -0.4623 -0.0388
  153TCq2    H2 2340   1.566   3.783  12.690 -2.2085  2.3428  1.2802
  153TCq2    H3 2341   1.957   3.796  12.851 -0.6797 -0.2877 -2.1520
  153TCq2    H4 2342   1.646   3.701  13.109 -1.8315  0.2721 -1.4847
  154MPD2     C 2343   4.163   3.232   0.929  0.2371 -0.3516 -0.5558
  154MPD2    C1 2344   4.122   3.244   1.056  0.0503  0.4906  0.2082
  154MPD2    C2 2345   4.006   3.309   1.083 -0.3792 -0.3251  0.1666
  154MPD2    C3 2346   3.941   3.381   0.989  0.6563  0.2713 -0.0744
  154MPD2    C4 2347   3.976   3.368   0.854 -0.1215  0.3870 -0.4830
  154MPD2    C5 2348   4.090   3.297   0.836 -0.1191  0.1810 -0.1640
  154MPD2     H 2349   3.966   3.325   1.182  1.4923  0.8305  0.7398
  154MPD2    H1 2350   3.911   3.419   0.783 -1.9453  0.3472  1.1711
  154MPD2    H2 2351   4.249   3.173   0.898  0.5843 -0.1718  0.0749
  154MPD2    H3 2352   4.109   3.283   0.730  0.3022  0.5434 -0.1331
  154MPD2     N 2353   3.831   3.455   1.040  0.1305  0.0921  0.2476
  154MPD2    H5 2354   3.811   3.449   1.139  0.5199 -0.9434  0.2665
  154MPD2    N1 2355   4.187   3.178   1.162 -0.2311 -0.3026 -0.4242
  154MPD2    H7 2356   4.257   3.108   1.137 -0.6060 -0.4864 -0.9589
  155TCq2    C1 2357   4.154   3.180   1.295 -0.0237 -0.2508  0.4769
  155TCq2    O2 2358   4.080   3.255   1.358  0.2968  0.4182  0.3056
  155TCq2    C2 2359   4.232   3.090   1.378  0.1509 -0.1808 -0.0442
  155TCq2    C3 2360   4.237   3.119   1.512 -0.6747  0.0676  0.3645
  155TCq2    C4 2361   4.285   3.018   1.598 -0.3582 -0.2497  0.0085
  155TCq2    C5 2362   4.336   2.897   1.552 -0.6873 -0.4163 -0.0522
  155TCq2    C6 2363   4.331   2.876   1.413 -0.1621 -0.4484 -0.2832
  155TCq2    C7 2364   4.276   2.970   1.329  0.6932  0.6484  0.2715
  155TCq2    C8 2365   4.396   2.752   1.365 -0.1046 -0.2744 -0.2067
  155TCq2    O4 2366   4.448   2.672   1.443  0.4423  0.5617 -0.1977
  155TCq2    C9 2367   4.287   3.044   1.743 -0.5860 -0.6079  0.6123
  155TCq2    O5 2368   4.333   2.958   1.818  0.3256  0.1485 -0.2087
  155TCq2    O6 2369   4.235   3.149   1.772 -0.2343  0.8760 -0.0883
  155TCq2    H2 2370   4.215   3.221   1.542 -2.9558 -0.4121  0.3404
  155TCq2    H3 2371   4.353   2.822   1.629 -0.5836  1.2767  1.5943
  155TCq2    H4 2372   4.258   2.942   1.226 -1.0208  1.4132  0.3663
  156MPD2     C 2373   1.488   1.792  11.727 -0.6533  0.0243 -0.5069
  156MPD2    C1 2374   1.466   1.658  11.695  0.2813  0.7785 -0.1139
  156MPD2    C2 2375   1.372   1.585  11.772  0.1445  0.3332 -0.8689
  156MPD2    C3 2376   1.298   1.650  11.874  0.4151 -0.3429  1.1033
  156MPD2    C4 2377   1.318   1.790  11.887  0.2877 -0.2833 -0.1435
  156MPD2    C5 2378   1.403   1.853  11.809  0.3939 -0.6686 -0.2039
  156MPD2     H 2379   1.365   1.477  11.762  1.2071  0.1274  0.5991
  156MPD2    H1 2380   1.242   1.849  11.936 -0.7522 -1.7584  0.0367
  156MPD2    H2 2381   1.563   1.852  11.676 -0.0874  0.3654  0.7387
  156MPD2    H3 2382   1.409   1.961  11.818  0.8253 -0.5747 -1.6441
  156MPD2     N 2383   1.202   1.572  11.957  0.2899  0.1642 -0.0350
  156MPD2    H5 2384   1.189   1.475  11.931  1.7682 -0.3142  1.0440
  156MPD2    N1 2385   1.544   1.602  11.589 -0.0573 -0.5091 -0.3830
  156MPD2    H7 2386   1.595   1.665  11.528  1.6235 -1.2897  0.2248
  157TCq2    C1 2387   1.582   1.476  11.585  0.2438  0.2505 -0.4907
  157TCq2    O2 2388   1.562   1.397  11.673 -0.3749  0.3975  0.4514
  157TCq2    C2 2389   1.669   1.439  11.471  0.1950 -0.1858 -0.7134
  157TCq2    C3 2390   1.728   1.314  11.480  0.5803 -0.5127  0.2252
  157TCq2    C4 2391   1.814   1.264  11.382  0.1153  0.2033 -0.7919
  157TCq2    C5 2392   1.852   1.350  11.283  0.2858 -0.4039  0.0651
  157TCq2    C6 2393   1.786   1.473  11.271  0.0520 -0.4578  0.2162
  157TCq2    C7 2394   1.700   1.519  11.367 -0.2978  0.0122 -0.4206
  157TCq2    C8 2395   1.836   1.570  11.180  0.7750 -0.0289 -0.1357
  157TCq2    O4 2396   1.880   1.531  11.073  0.4688 -0.5461  0.3428
  157TCq2    C9 2397   1.875   1.136  11.393  0.0098  0.2558  0.8156
  157TCq2    O5 2398   1.837   1.065  11.490  0.8506 -0.5140  0.1844
  157TCq2    O6 2399   1.977   1.131  11.313  0.7414 -0.0124 -0.1531
  157TCq2    H2 2400   1.712   1.251  11.567  1.5411 -2.5803 -1.1073
  157TCq2    H3 2401   1.915   1.312  11.203 -0.6341 -0.9569 -0.3927
  157TCq2    H4 2402   1.660   1.620  11.365  2.2975  1.0279 -0.2754
  158TMC2    C1 2403   1.803   0.133  13.742  0.7188 -0.7707  0.4516
  158TMC2    C2 2404   1.818   0.188  13.619 -0.2091  0.0586  0.0179
  158TMC2    C3 2405   1.710   0.241  13.569 -0.1721  0.8562  0.3644
  158TMC2    C4 2406   1.684   0.120  13.816 -0.5892 -0.1585  1.1077
  158TMC2    C5 2407   1.583   0.195  13.757 -0.2907 -0.5786  0.2701
  158TMC2    C6 2408   1.591   0.250  13.635 -0.3542 -0.0652  0.6987
  158TMC2     C 2409   1.924   0.054  13.781 -0.0598  0.2589  0.1025
  158TMC2     O 2410   2.004   0.028  13.689  0.2994 -0.0827 -0.0279
  158TMC2     H 2411   1.909   0.193  13.560  0.3009 -2.5474  0.5844
  158TMC2    H1 2412   1.681   0.091  13.921  0.8739 -1.5878  0.7500
  158TMC2    H2 2413   1.516   0.322  13.605 -1.1457 -0.8320  0.8654
  158TMC2    C7 2414   1.445   0.184  13.810  0.5405  0.5525  0.3639
  158TMC2    C8 2415   1.714   0.310  13.439 -0.1544  0.4388  0.1126
  158TMC2    O1 2416   1.354   0.237  13.746  0.0646  0.2498  0.4938
  158TMC2    O2 2417   1.818   0.357  13.389  0.6154 -0.0266 -0.1824
  158TMC2    O5 2418   1.600   0.274  13.372 -0.3013 -0.2061 -0.1164
  158TMC2    H5 2419   1.542   0.205  13.412 -0.3065 -1.8163 -2.8672
  159MPD2     C 2420   2.189   4.492  14.135  0.1481  0.0079 -1.1076
  159MPD2    C1 2421   2.076   4.545  14.194 -0.7113 -0.2585  0.2494
  159MPD2    C2 2422   1.985   4.618  14.116  0.5243 -0.6738  0.2772
  159MPD2    C3 2423   2.010   4.652  13.984 -0.1744  0.6185  0.3783
  159MPD2    C4 2424   2.126   4.604  13.927  0.5662  0.3530 -0.2418
  159MPD2    C5 2425   2.201   4.510  13.996  0.1721  0.4896  0.5280
  159MPD2     H 2426   1.897   4.662  14.162 -1.5805 -2.8671 -1.6258
  159MPD2    H1 2427   2.152   4.610  13.822  0.1085  0.1497 -0.3657
  159MPD2    H2 2428   2.262   4.444  14.201  0.4852  0.1950 -1.3431
  159MPD2    H3 2429   2.287   4.468  13.945  0.3582  2.3431 -0.6695
  159MPD2     N 2430   1.915   0.003  13.914  0.2596  0.6070  0.8874
  159MPD2    H5 2431   1.833   0.023  13.970 -1.5513 -1.1803 -1.1194
  159MPD2    N1 2432   2.057   4.536  14.334  0.1982  0.2495 -0.0649
  159MPD2    H7 2433   2.131   4.487  14.384 -1.3570  0.4962  2.4787
  160TMC2    C1 2434   1.716   2.467   1.777  0.2789  0.3763  0.1651
  160TMC2    C2 2435   1.706   2.602   1.773 -0.3038 -0.5151 -0.7397
  160TMC2    C3 2436   1.801   2.669   1.699 -0.1301  0.1811  0.2995
  160TMC2    C4 2437   1.822   2.399   1.718 -0.3582  0.4634 -0.0007
  160TMC2    C5 2438   1.913   2.469   1.644 -1.0306  0.2192 -0.3763
  160TMC2    C6 2439   1.906   2.604   1.638  0.6381 -0.0667  0.2134
  160TMC2     C 2440   1.607   2.382   1.806  0.3148 -0.1220 -0.1104
  160TMC2     O 2441   1.624   2.260   1.819 -0.0713 -0.2754  0.1524
  160TMC2     H 2442   1.624   2.648   1.827 -1.1590 -2.0572 -0.7030
  160TMC2    H1 2443   1.835   2.292   1.731  1.3768  0.9102  1.9538
  160TMC2    H2 2444   1.989   2.663   1.600  0.5012 -0.4938 -0.7589
  160TMC2    C7 2445   2.027   2.385   1.602  0.1356  0.5344 -0.2674
  160TMC2    C8 2446   1.811   2.812   1.717  0.2367  0.0900 -0.1785
  160TMC2    O1 2447   2.031   2.268   1.646  0.1706  0.1024 -0.7534
  160TMC2    O2 2448   1.910   2.877   1.688 -0.6648 -0.0003 -0.7623
  160TMC2    O5 2449   1.685   2.862   1.729  0.3663  0.7064 -0.2759
  160TMC2    H5 2450   1.608   2.802   1.736  1.3092 -0.5494 -0.5184
  161MPD2     C 2451   1.334   2.276   1.884 -0.1643 -0.3085  0.0675
  161MPD2    C1 2452   1.365   2.402   1.840 -0.2302  1.2113  0.2093
  161MPD2    C2 2453   1.267   2.495   1.846  0.1842 -0.0050 -0.2664
  161MPD2    C3 2454   1.137   2.464   1.855 -0.1300  0.1522  0.2398
  161MPD2    C4 2455   1.108   2.333   1.864  0.8093 -0.1177 -0.0375
  161MPD2    C5 2456   1.206   2.238   1.882  0.6581 -0.6533 -0.6113
  161MPD2     H 2457   1.288   2.596   1.814  0.7138 -0.3601 -1.0529
  161MPD2    H1 2458   1.008   2.292   1.871  0.3817  0.6939 -1.3575
  161MPD2    H2 2459   1.408   2.197   1.874  0.8893  0.6590  0.3311
  161MPD2    H3 2460   1.182   2.133   1.886 -0.4760 -0.3790 -0.2868
  161MPD2     N 2461   1.023   2.549   1.847 -0.7548 -0.2906 -0.5340
  161MPD2    H5 2462   0.935   2.499   1.852 -1.2166  0.5929  0.1796
  161MPD2    N1 2463   1.491   2.457   1.805  0.4454  0.0089 -0.4103
  161MPD2    H7 2464   1.492   2.558   1.793 -2.4114 -0.0586 -1.0376
  162TMC2    C1 2465   0.241   4.623   1.711  0.2568 -0.2560  0.6152
  162TMC2    C2 2466   0.213   0.023   1.771 -0.2100  0.8308 -0.0029
  162TMC2    C3 2467   0.117   0.021   1.870  0.3359  0.4801  0.1347
  162TMC2    C4 2468   0.202   4.506   1.769 -0.0164  0.4976 -0.1730
  162TMC2    C5 2469   0.116   4.516   1.870  0.4530  0.3050  0.5717
  162TMC2    C6 2470   0.067   4.632   1.923  0.9235  0.5716 -0.1130
  162TMC2     C 2471   0.360   4.611   1.629 -0.3983 -0.8277  0.8038
  162TMC2     O 2472   0.421   4.506   1.629  0.7721 -0.0414  0.0286
  162TMC2     H 2473   0.269   0.112   1.750 -0.7488  1.3689  0.8428
  162TMC2    H1 2474   0.223   4.412   1.719  0.9698  1.0632 -0.8164
  162TMC2    H2 2475   4.709   4.638   1.995  0.8019 -3.2230  0.0872
  162TMC2    C7 2476   0.073   4.392   1.935 -0.2249 -0.6275 -0.1142
  162TMC2    C8 2477   0.096   0.149   1.935  0.3045 -0.5123  0.4101
  162TMC2    O1 2478   4.706   4.410   2.017  0.3779  0.2523 -0.7824
  162TMC2    O2 2479   0.054   0.164   2.049  0.0430 -0.0430  0.8373
  162TMC2    O5 2480   0.062   0.229   1.832 -0.0534  0.3224  0.0838
  162TMC2    H5 2481   0.027   0.181   1.754 -0.3262  3.1267 -1.5078
  163MPD2     C 2482   0.662   0.090   1.256  0.1988 -0.0088  0.7571
  163MPD2    C1 2483   0.643   4.682   1.303  0.0675 -0.2999 -0.0395
  163MPD2    C2 2484   0.561   4.655   1.412  0.2709  0.1369  0.4566
  163MPD2    C3 2485   0.478   0.031   1.455  0.3656  0.4375 -0.3453
  163MPD2    C4 2486   0.489   0.160   1.400  0.3118  0.3631 -0.1944
  163MPD2    C5 2487   0.579   0.191   1.302  0.7556 -0.8079 -0.1788
  163MPD2     H 2488   0.560   4.557   1.460  0.2714 -0.8615 -1.5764
  163MPD2    H1 2489   0.429   0.240   1.441 -0.3907  0.1553 -0.8159
  163MPD2    H2 2490   0.738   0.110   1.181  0.9237  3.8866  2.5157
  163MPD2    H3 2491   0.584   0.294   1.269  2.9637 -0.6548  0.5951
  163MPD2     N 2492   0.386   0.008   1.555  0.2178 -0.1921 -0.2317
  163MPD2    H5 2493   0.314   0.079   1.559 -0.9417 -1.4638  1.9968
  163MPD2    N1 2494   0.722   4.584   1.235  0.5411 -0.1290  0.0835
  163MPD2    H7 2495   0.780   4.617   1.159  1.8676  0.4099  1.3150
  164TCq2    C1 2496   0.598   4.532  11.386 -0.7589  0.1812  0.1072
  164TCq2    O2 2497   0.551   4.419  11.365  0.9854 -0.0103  0.0239
  164TCq2    C2 2498   0.522   4.628  11.468 -0.0924  0.0247 -0.6045
  164TCq2    C3 2499   0.581   4.665  11.588  0.8201  0.5238 -0.4660
  164TCq2    C4 2500   0.497   4.690  11.691  0.3561  0.2013 -0.8494
  164TCq2    C5 2501   0.356   4.684  11.687 -0.3535 -0.3058  0.1413
  164TCq2    C6 2502   0.303   4.652  11.564 -0.1228  0.1232  0.1477
  164TCq2    C7 2503   0.383   4.616  11.462  0.1518 -0.1636 -0.4561
  164TCq2    C8 2504   0.164   4.671  11.536 -0.4639 -0.5146 -0.0402
  164TCq2    O4 2505   0.134   4.705  11.422  0.7446 -0.4887  0.1235
  164TCq2    C9 2506   0.558   4.719  11.817 -0.1049 -0.5040 -0.1462
  164TCq2    O5 2507   0.683   4.704  11.820  0.3788 -0.5434 -0.3919
  164TCq2    O6 2508   0.483   4.707  11.917  0.1129  0.2305 -0.0333
  164TCq2    H2 2509   0.690   4.663  11.587  0.7864 -0.7174 -1.6294
  164TCq2    H3 2510   0.291   4.710  11.770 -0.0220 -0.6769  0.5197
  164TCq2    H4 2511   0.335   4.595  11.367 -0.0070 -1.4891 -0.0846
  165MPD2     C 2512   1.308   1.607   2.291  0.6637  0.0925  0.1596
  165MPD2    C1 2513   1.412   1.633   2.209  0.1254  0.0082  0.0219
  165MPD2    C2 2514   1.458   1.762   2.182 -0.4537  0.1711  0.2725
  165MPD2    C3 2515   1.382   1.871   2.229 -0.2855  1.1272 -0.1159
  165MPD2    C4 2516   1.273   1.844   2.309  0.7235 -0.1712  0.1933
  165MPD2    C5 2517   1.242   1.713   2.346  0.2756 -0.3039  0.5787
  165MPD2     H 2518   1.553   1.783   2.134 -2.1532  3.3242 -1.7213
  165MPD2    H1 2519   1.217   1.928   2.347  0.0311 -0.8893  0.7559
  165MPD2    H2 2520   1.294   1.506   2.327 -4.1365  0.3868 -0.8355
  165MPD2    H3 2521   1.159   1.692   2.411  0.5947 -1.4246  0.6129
  165MPD2     N 2522   1.404   2.008   2.201  0.0666 -0.2285 -0.4388
  165MPD2    H5 2523   1.344   2.073   2.251 -1.1565 -1.1894 -0.6431
  165MPD2    N1 2524   1.488   1.516   2.161 -0.3784  0.3578 -0.1900
  165MPD2    H7 2525   1.437   1.430   2.149 -0.6634  0.7841 -1.9981
  166TCq2    C1 2526   1.514   2.060   2.135 -0.3988 -0.2813  0.5142
  166TCq2    O2 2527   1.604   1.998   2.077 -0.0925  0.0157 -0.2539
  166TCq2    C2 2528   1.519   2.204   2.165 -0.4418  0.8196 -0.2995
  166TCq2    C3 2529   1.411   2.270   2.203 -0.7027  0.0991 -0.4514
  166TCq2    C4 2530   1.421   2.406   2.217 -0.4309 -0.5728  0.0247
  166TCq2    C5 2531   1.534   2.472   2.191 -0.3199 -0.1916  0.3020
  166TCq2    C6 2532   1.641   2.392   2.154 -0.3761 -0.1546 -0.7297
  166TCq2    C7 2533   1.638   2.259   2.135 -0.0730  0.8055  0.1930
  166TCq2    C8 2534   1.775   2.443   2.121  0.0826 -0.7117 -0.3374
  166TCq2    O4 2535   1.868   2.363   2.137 -0.2287  0.0283 -0.0461
  166TCq2    C9 2536   1.319   2.468   2.298  0.8009 -0.3968  0.4262
  166TCq2    O5 2537   1.312   2.595   2.284  0.4133  0.4123 -0.1395
  166TCq2    O6 2538   1.255   2.398   2.379 -0.6792 -0.3272 -0.1322
  166TCq2    H2 2539   1.312   2.229   2.220 -1.6596  2.0619 -1.3061
  166TCq2    H3 2540   1.543   2.576   2.219 -0.0540 -0.4349  1.1271
  166TCq2    H4 2541   1.720   2.196   2.101  0.5629  2.5432 -1.4805
  167TMC2    C1 2542   0.034   4.049  13.266 -0.5674 -0.3680 -0.4163
  167TMC2    C2 2543   0.097   3.985  13.370 -0.8840  0.2478  0.0850
  167TMC2    C3 2544   0.021   3.904  13.445  0.1694 -0.1675  0.5543
  167TMC2    C4 2545   4.627   4.028  13.230  0.5192  0.1740 -0.3240
  167TMC2    C5 2546   4.561   3.929  13.300 -0.1624  0.4097 -0.0245
  167TMC2    C6 2547   4.617   3.868  13.413  0.3902  0.3804 -0.3182
  167TMC2     C 2548   0.111   4.163  13.205  0.3408  0.0050  0.6021
  167TMC2     O 2549   0.213   4.201  13.258 -0.0955 -0.1428  0.0204
  167TMC2     H 2550   0.200   4.009  13.394 -0.7130 -0.2940 -0.1208
  167TMC2    H1 2551   4.577   4.087  13.154  0.7890  0.1905 -0.4874
  167TMC2    H2 2552   4.555   3.809  13.479  1.0932  0.5915  0.5222
  167TMC2    C7 2553   4.437   3.867  13.256  0.0337 -0.1633 -0.5420
  167TMC2    C8 2554   0.080   3.856  13.566 -0.1625  0.4833 -0.1847
  167TMC2    O1 2555   4.373   3.791  13.329 -0.1669 -0.5266 -0.0014
  167TMC2    O2 2556   0.024   3.831  13.668  0.1338  0.7218 -0.9443
  167TMC2    O5 2557   0.201   3.804  13.532 -0.2975 -0.1684  0.3681
  167TMC2    H5 2558   0.216   3.807  13.435 -0.2780  1.7205  0.4306
  168MPD2     C 2559   0.151   4.417  13.055  0.8338  0.9410  0.1850
  168MPD2    C1 2560   0.084   4.314  13.004  0.4357 -0.7143  0.2577
  168MPD2    C2 2561   0.034   4.313  12.873 -0.0586  0.8871  0.2662
  168MPD2    C3 2562   0.054   4.420  12.797  0.3885  0.0062  0.0470
  168MPD2    C4 2563   0.125   4.526  12.844  0.5759  0.3092 -0.0073
  168MPD2    C5 2564   0.171   4.530  12.972  0.2039 -0.2414  0.5034
  168MPD2     H 2565   4.708   4.222  12.841  1.6098 -0.6013  1.9053
  168MPD2    H1 2566   0.139   4.615  12.783  0.0937  0.3779 -0.0166
  168MPD2    H2 2567   0.185   4.426  13.157 -1.6506 -1.1115  1.2004
  168MPD2    H3 2568   0.219   4.621  13.006  0.4311  0.3686 -1.4496
  168MPD2     N 2569   0.022   4.418  12.654 -0.0068  0.4058 -0.8816
  168MPD2    H5 2570   0.056   4.496  12.598 -0.2309 -0.7149 -2.5990
  168MPD2    N1 2571   0.061   4.196  13.078 -0.3911 -0.1222  0.2653
  168MPD2    H7 2572   0.000   4.124  13.042 -0.7355  0.0945  0.4121
  169MPD1     C 2573   1.343   3.990   8.872  0.2739  0.1435  0.0198
  169MPD1    C1 2574   1.337   3.865   8.930  0.1682 -0.4835 -0.6604
  169MPD1    C2 2575   1.409   3.838   9.043 -0.2376 -0.5726  0.6407
  169MPD1    C3 2576   1.479   3.933   9.112  0.4646 -0.3577  0.3909
  169MPD1    C4 2577   1.471   4.060   9.053  0.1021  0.4165 -0.0471
  169MPD1    C5 2578   1.402   4.091   8.938  0.1030  0.3690 -0.0831
  169MPD1     H 2579   1.413   3.734   9.074  1.5193 -0.5693  0.4387
  169MPD1    H1 2580   1.524   4.134   9.111 -0.0950  1.5330 -1.2770
  169MPD1    H2 2581   1.291   4.016   8.781  1.3622 -1.5076 -1.0825
  169MPD1    H3 2582   1.389   4.191   8.898 -0.2604  0.7523  0.9887
  169MPD1     N 2583   1.540   3.895   9.230  0.2375  0.0539  0.3954
  169MPD1    H5 2584   1.527   3.798   9.255  0.3530 -0.0012  0.2421
  169MPD1    N1 2585   1.276   3.769   8.852  0.1330 -0.1923 -0.3158
  169MPD1    H6 2586   1.214   3.814   8.784  1.1195 -0.5473 -1.4326
  169MPD1    H7 2587   1.226   3.696   8.902  0.3600  0.7942  1.3543
  170MPD1     C 2588   0.061   1.376  13.708 -0.1491  1.3760  0.9295
  170MPD1    C1 2589   0.163   1.360  13.799 -0.3865  0.3204 -0.6546
  170MPD1    C2 2590   0.228   1.473  13.843  0.3972  0.0945 -0.4657
  170MPD1    C3 2591   0.215   1.592  13.776 -1.0213  0.3337 -0.3748
  170MPD1    C4 2592   0.110   1.611  13.686  0.3651  0.0614  0.1489
  170MPD1    C5 2593   0.037   1.501  13.651 -0.6161  0.3801  0.3928
  170MPD1     H 2594   0.304   1.473  13.920 -1.2305 -1.1597  1.1300
  170MPD1    H1 2595   0.095   1.705  13.633  1.7037  0.0173 -0.3121
  170MPD1    H2 2596   0.003   1.288  13.681  0.8382  1.3866 -1.2670
  170MPD1    H3 2597   4.675   1.532  13.592 -0.3277 -1.3373 -0.9283
  170MPD1     N 2598   0.303   1.686  13.821 -0.9045 -0.3450  1.0042
  170MPD1    H5 2599   0.360   1.656  13.899  0.4664  1.1241  0.5569
  170MPD1    N1 2600   0.178   1.236  13.859 -0.1791  0.0191  0.8528
  170MPD1    H6 2601   0.126   1.161  13.814  2.2673 -2.3304  1.9076
  170MPD1    H7 2602   0.277   1.212  13.864 -0.1350 -0.1929 -1.2285
  171MPD1     C 2603   4.638   3.203  15.429 -0.1496 -0.0154 -0.6588
  171MPD1    C1 2604   4.534   3.119  15.395 -0.1594  1.1324  1.1134
  171MPD1    C2 2605   4.467   3.062  15.505  0.5664  0.1352 -0.1179
  171MPD1    C3 2606   4.515   3.069  15.635 -0.0257  0.1556  0.7265
  171MPD1    C4 2607   4.632   3.144  15.647 -0.2316 -0.1326 -0.2054
  171MPD1    C5 2608   4.687   3.213  15.552 -0.4578  0.0515 -0.1105
  171MPD1     H 2609   4.386   2.992  15.490 -1.9980  3.1007 -0.1843
  171MPD1    H1 2610   4.681   3.152  15.743  2.4258 -1.0159 -1.4950
  171MPD1    H2 2611   4.684   3.267  15.355 -0.6380 -1.4513 -2.1864
  171MPD1    H3 2612   0.033   3.294  15.570  0.2749 -0.3092 -1.2864
  171MPD1     N 2613   4.472   2.984  15.743 -0.0961  0.3279 -0.6866
  171MPD1    H5 2614   4.541   2.961  15.814 -0.4065 -0.8462 -0.7525
  171MPD1    N1 2615   4.492   3.127  15.260  0.0989 -0.1575  0.7368
  171MPD1    H6 2616   4.436   3.046  15.235 -0.3016  0.3357  0.0237
  171MPD1    H7 2617   4.576   3.118  15.203  0.6987 -0.7836  1.7297
  172MPD1     C 2618   4.091   2.051   1.325  0.2272 -0.0191  0.0277
  172MPD1    C1 2619   4.080   2.024   1.192  0.3828  0.1265  0.0340
  172MPD1    C2 2620   3.997   2.104   1.121  0.3326  0.1058  0.6040
  172MPD1    C3 2621   3.934   2.212   1.172 -0.4155  0.0811 -0.3337
  172MPD1    C4 2622   3.951   2.240   1.309 -0.0738  0.2674 -0.4717
  172MPD1    C5 2623   4.015   2.150   1.385  0.2272  0.2723  0.2087
  172MPD1     H 2624   3.994   2.079   1.015 -2.1023 -1.2896  1.0159
  172MPD1    H1 2625   3.899   2.328   1.347  1.0705  0.5202  0.5039
  172MPD1    H2 2626   4.158   1.984   1.378 -0.7151 -1.8910 -1.1271
  172MPD1    H3 2627   4.024   2.171   1.491 -0.5725 -0.5930  0.4405
  172MPD1     N 2628   3.853   2.307   1.104  0.1866  1.0012  0.3651
  172MPD1    H5 2629   3.806   2.382   1.153  0.4885  1.1602  0.4130
  172MPD1    N1 2630   4.159   1.925   1.134  0.8718 -0.2519 -0.1652
  172MPD1    H6 2631   4.223   1.873   1.194  0.3439  0.4491  0.9952
  172MPD1    H7 2632   4.115   1.876   1.056  3.1525 -0.9742 -1.0120
  173MPD1     C 2633   4.635   2.211  15.133 -0.6613 -0.1250  0.1387
  173MPD1    C1 2634   4.527   2.137  15.181  0.1036 -0.2323 -0.4411
  173MPD1    C2 2635   4.459   2.057  15.092  0.3447 -0.2647  0.7009
  173MPD1    C3 2636   4.497   2.043  14.961 -0.0325 -0.5426  0.0748
  173MPD1    C4 2637   4.607   2.116  14.914 -0.0945 -0.6039  0.6905
  173MPD1    C5 2638   4.674   2.196  14.999  0.3917 -0.2898  0.3636
  173MPD1     H 2639   4.368   2.009  15.126 -0.8874  1.0269 -0.7250
  173MPD1    H1 2640   4.655   2.104  14.817  1.4499 -0.2723  1.4158
  173MPD1    H2 2641   4.694   2.276  15.197 -0.0195  1.4985 -2.1243
  173MPD1    H3 2642   0.040   2.247  14.967 -2.3443  3.4015 -1.3203
  173MPD1     N 2643   4.421   1.960  14.877 -0.0589  0.1720 -0.4553
  173MPD1    H5 2644   4.351   1.895  14.912  0.1344 -0.8763 -2.0211
  173MPD1    N1 2645   4.467   2.177  15.298  0.0997 -0.9345 -0.4107
  173MPD1    H6 2646   4.413   2.103  15.343 -2.0895  0.2413 -1.0924
  173MPD1    H7 2647   4.545   2.208  15.356 -0.6010  0.2313 -0.0982
  174MPD1     C 2648   4.608   1.461  14.038 -0.3381 -0.3920  0.1994
  174MPD1    C1 2649   4.483   1.408  14.081 -0.7161 -0.1868  0.2311
  174MPD1    C2 2650   4.435   1.447  14.203 -0.2391  0.0606 -0.4607
  174MPD1    C3 2651   4.506   1.538  14.288  0.3171  0.0891  0.3043
  174MPD1    C4 2652   4.628   1.582  14.245  1.0088  0.1981 -0.2441
  174MPD1    C5 2653   4.675   1.556  14.121 -0.0667 -0.6798 -0.2965
  174MPD1     H 2654   4.344   1.404  14.242 -0.5188  0.0250 -1.1710
  174MPD1    H1 2655   4.696   1.637  14.309  1.4250 -0.0618 -0.4631
  174MPD1    H2 2656   4.661   1.441  13.946 -0.3013 -0.3498  0.2113
  174MPD1    H3 2657   0.051   1.588  14.092  0.4040 -0.2840  1.7464
  174MPD1     N 2658   4.471   1.589  14.418 -0.3350  0.6682 -0.4839
  174MPD1    H5 2659   4.545   1.635  14.471 -0.1073  2.3853 -2.2666
  174MPD1    N1 2660   4.430   1.303  14.004  0.9018  0.7168  0.3851
  174MPD1    H6 2661   4.444   1.297  13.904 -0.2447 -2.3619  0.3886
  174MPD1    H7 2662   4.330   1.284  14.015  1.0256  0.5288  1.1963
  175MPD1     C 2663   3.246   3.297  15.806  0.4562  0.4813 -0.0616
  175MPD1    C1 2664   3.115   3.331  15.846  0.0800  0.6194 -0.5374
  175MPD1    C2 2665   3.066   3.282  15.961 -0.1437 -0.0265 -0.0022
  175MPD1    C3 2666   3.147   3.201  16.036 -0.0745  0.6126 -0.5818
  175MPD1    C4 2667   3.271   3.170  15.997  0.6828  0.0552  0.9508
  175MPD1    C5 2668   3.316   3.211  15.884 -0.1229 -0.4130 -0.2617
  175MPD1     H 2669   2.964   3.304  15.994 -0.7059 -1.3645 -0.8538
  175MPD1    H1 2670   3.338   3.106  16.054  0.2343  1.1538  2.7021
  175MPD1    H2 2671   3.294   3.340  15.719  1.8174 -0.1302  0.3854
  175MPD1    H3 2672   3.420   3.197  15.858  0.0057  1.1351 -0.5612
  175MPD1     N 2673   3.102   3.146  16.155 -0.5232 -0.6320  0.0458
  175MPD1    H5 2674   3.157   3.083  16.212  0.6048  0.2306 -0.0973
  175MPD1    N1 2675   3.058   3.441  15.772  0.8261 -0.1980  0.3747
  175MPD1    H6 2676   3.093   3.448  15.677 -1.2982  1.2424 -0.2839
  175MPD1    H7 2677   2.957   3.444  15.779  0.7785  0.5581 -0.6409
  176MPD1     C 2678   4.594   0.597   0.765 -0.3378  0.6392 -0.1082
  176MPD1    C1 2679   4.558   0.728   0.739 -0.2319 -0.5672 -0.1902
  176MPD1    C2 2680   4.493   0.750   0.616  0.8844  0.0160 -0.7128
  176MPD1    C3 2681   4.454   0.646   0.530 -0.8998  0.2631  0.2159
  176MPD1    C4 2682   4.479   0.510   0.569 -0.1422  0.1534  0.4796
  176MPD1    C5 2683   4.559   0.495   0.687  0.8295 -0.2546 -0.2959
  176MPD1     H 2684   4.485   0.853   0.585  0.4007  0.8449  2.1975
  176MPD1    H1 2685   4.452   0.416   0.523 -0.9096 -0.3634  2.0003
  176MPD1    H2 2686   4.658   0.574   0.850 -0.3180  1.6001  0.1432
  176MPD1    H3 2687   4.581   0.400   0.733  1.0047  0.4937  1.1565
  176MPD1     N 2688   4.383   0.677   0.405 -0.1162 -0.0993 -0.0814
  176MPD1    H5 2689   4.347   0.772   0.395  0.3591 -0.1746 -2.6009
  176MPD1    N1 2690   4.632   0.828   0.798  0.7507 -0.4379  0.5214
  176MPD1    H6 2691   4.643   0.816   0.899 -0.0551  4.1018  1.1604
  176MPD1    H7 2692   4.590   0.920   0.789  0.3830 -0.6117  0.4587
  177MPD1     C 2693   3.070   4.502  10.081 -0.1109 -0.5537 -0.0909
  177MPD1    C1 2694   3.091   4.622  10.018  0.6252 -0.1297 -0.3111
  177MPD1    C2 2695   3.017   4.648   9.899 -0.0880 -0.2422  0.5601
  177MPD1    C3 2696   2.920   4.562   9.848  0.4095  0.0629  0.7835
  177MPD1    C4 2697   2.914   4.441   9.907  0.2492  0.7684 -0.5768
  177MPD1    C5 2698   2.986   4.411  10.020 -0.4652 -0.2462  0.0069
  177MPD1     H 2699   3.034   0.018   9.846  0.2646  0.4699  1.9331
  177MPD1    H1 2700   2.848   4.365   9.866 -0.0145  1.5785 -1.6390
  177MPD1    H2 2701   3.123   4.481  10.173  1.2134  0.8516 -0.5243
  177MPD1    H3 2702   2.976   4.313  10.065 -0.3100 -1.5045 -2.6821
  177MPD1     N 2703   2.851   4.598   9.732  0.1647 -0.5918 -0.1838
  177MPD1    H5 2704   2.886   4.682   9.687 -0.5717 -0.4169 -0.4152
  177MPD1    N1 2705   3.162   0.007  10.076  0.0705 -0.1790  0.3204
  177MPD1    H6 2706   3.185   0.067   9.997 -0.6375  1.4249  1.3223
  177MPD1    H7 2707   3.245   4.702  10.128 -0.6241  1.0959  2.1197
  178MPD1     C 2708   0.268   1.188   0.448 -0.4548  0.0140 -0.5056
  178MPD1    C1 2709   0.347   1.275   0.373  0.4425 -0.1012  0.2866
  178MPD1    C2 2710   0.448   1.215   0.299 -0.3420 -0.2930  0.3361
  178MPD1    C3 2711   0.485   1.083   0.318  0.1649  0.5294  0.3504
  178MPD1    C4 2712   0.417   1.010   0.413 -0.3822  0.2772 -0.0345
  178MPD1    C5 2713   0.298   1.055   0.464 -0.0674 -0.5508  0.3211
  178MPD1     H 2714   0.509   1.269   0.228  0.7865  1.6476  2.7724
  178MPD1    H1 2715   0.434   0.907   0.441 -0.0611  0.6892  1.2862
  178MPD1    H2 2716   0.178   1.223   0.497 -0.4673 -1.5166  0.5672
  178MPD1    H3 2717   0.231   0.993   0.522 -3.2654  2.5055 -0.1445
  178MPD1     N 2718   0.580   1.017   0.240 -0.4323 -0.1218 -0.8116
  178MPD1    H5 2719   0.583   0.915   0.244  0.3687 -0.0099  1.2965
  178MPD1    N1 2720   0.300   1.405   0.335 -1.1833 -0.3736  0.6697
  178MPD1    H6 2721   0.248   1.450   0.410 -3.3501 -1.7277 -0.0153
  178MPD1    H7 2722   0.372   1.469   0.303 -1.9169  0.9301  1.6353
  179MPD1     C 2723   0.252   3.954  14.940 -0.8268 -0.4075 -0.0770
  179MPD1    C1 2724   0.340   3.967  15.040 -0.2367 -0.1118  0.6529
  179MPD1    C2 2725   0.328   3.903  15.158 -0.0224 -0.2624  0.2815
  179MPD1    C3 2726   0.221   3.817  15.184  0.6821 -0.0459  0.4453
  179MPD1    C4 2727   0.125   3.798  15.089  0.3158 -0.1046 -0.2463
  179MPD1    C5 2728   0.144   3.873  14.968 -0.3660 -0.0550  0.1383
  179MPD1     H 2729   0.407   3.925  15.229  0.8367  1.0269 -1.0714
  179MPD1    H1 2730   0.048   3.723  15.102  0.8585 -0.2379  2.1046
  179MPD1    H2 2731   0.263   4.016  14.851 -0.6275  1.5851  1.3416
  179MPD1    H3 2732   0.062   3.869  14.898  0.1518 -1.0697 -0.4047
  179MPD1     N 2733   0.216   3.735  15.301  0.3349 -0.1623  0.2114
  179MPD1    H5 2734   0.139   3.672  15.319 -1.1409  1.3267 -0.8331
  179MPD1    N1 2735   0.456   4.046  15.017  0.1118  0.3449 -0.7080
  179MPD1    H6 2736   0.448   4.110  14.938  2.3424  2.7356  1.0010
  179MPD1    H7 2737   0.476   4.101  15.101  0.5234 -0.3607 -0.3431
  180MPD1     C 2738   1.436   1.161  15.563 -0.3620  0.2979 -0.0771
  180MPD1    C1 2739   1.305   1.140  15.623 -0.2374 -0.0848  0.5006
  180MPD1    C2 2740   1.195   1.127  15.543  0.1455 -0.3406  0.1685
  180MPD1    C3 2741   1.206   1.124  15.403 -1.0006  0.2032 -0.3092
  180MPD1    C4 2742   1.333   1.130  15.340  0.1525  0.5030  0.2069
  180MPD1    C5 2743   1.442   1.147  15.423  0.0942  0.1153 -0.1229
  180MPD1     H 2744   1.095   1.121  15.584  0.3364  0.2596  0.7282
  180MPD1    H1 2745   1.359   1.126  15.235 -3.6501 -0.8781 -0.6685
  180MPD1    H2 2746   1.524   1.195  15.616 -1.0393 -0.0357  1.2672
  180MPD1    H3 2747   1.539   1.160  15.377 -0.7912  3.4751 -1.0715
  180MPD1     N 2748   1.091   1.087  15.330  0.2385  0.2085 -0.1614
  180MPD1    H5 2749   1.002   1.074  15.376 -0.1328 -0.5323 -1.0961
  180MPD1    N1 2750   1.292   1.166  15.759  0.1631  0.6382 -0.1081
  180MPD1    H6 2751   1.218   1.109  15.798 -1.4121  1.9938 -1.0845
  180MPD1    H7 2752   1.379   1.133  15.800  0.8145  0.2340 -1.8059
  181MPD1     C 2753   1.048   2.244   9.595  0.0317  0.4709 -0.4891
  181MPD1    C1 2754   1.048   2.380   9.549  0.5912 -0.3447  0.3033
  181MPD1    C2 2755   1.097   2.474   9.635 -1.1474 -0.1743 -0.0358
  181MPD1    C3 2756   1.141   2.444   9.762  0.0294  0.0064  0.0449
  181MPD1    C4 2757   1.139   2.313   9.803  0.2944 -0.6391  0.1504
  181MPD1    C5 2758   1.096   2.213   9.722 -0.2591 -0.1670 -0.1312
  181MPD1     H 2759   1.079   2.579   9.612  1.3504 -0.0726 -1.5877
  181MPD1    H1 2760   1.180   2.269   9.894  0.4830  0.6385  0.6775
  181MPD1    H2 2761   0.998   2.166   9.540  1.0953  0.8929 -2.0464
  181MPD1    H3 2762   1.089   2.112   9.761 -1.6596 -0.1216 -0.2435
  181MPD1     N 2763   1.194   2.546   9.849 -0.6549 -0.4279 -0.6179
  181MPD1    H5 2764   1.223   2.506   9.937  0.7488  1.8948 -0.0285
  181MPD1    N1 2765   0.998   2.415   9.423 -0.2349 -0.7431  0.0787
  181MPD1    H6 2766   0.943   2.500   9.408  0.2892 -0.7716 -2.0500
  181MPD1    H7 2767   0.943   2.338   9.385  0.9573 -0.5196 -2.1027
  182MPD1     C 2768   2.863   1.385   1.752 -0.2623  0.8490 -0.7708
  182MPD1    C1 2769   2.914   1.284   1.677  0.1363 -0.2647 -0.0399
  182MPD1    C2 2770   2.885   1.267   1.546 -0.2185 -0.2925  0.9290
  182MPD1    C3 2771   2.777   1.337   1.491 -0.2520  0.4233 -0.5717
  182MPD1    C4 2772   2.718   1.437   1.568  0.1394  0.5260  0.0247
  182MPD1    C5 2773   2.757   1.459   1.697  0.7675 -0.1459  0.6042
  182MPD1     H 2774   2.940   1.196   1.485 -0.9840 -0.6103  0.5985
  182MPD1    H1 2775   2.632   1.499   1.544 -0.3580 -1.2025 -2.7137
  182MPD1    H2 2776   2.904   1.406   1.850 -1.0304 -1.5862  0.0514
  182MPD1    H3 2777   2.707   1.539   1.750 -0.9789 -0.5578 -0.4236
  182MPD1     N 2778   2.733   1.319   1.357  0.3420  0.5583  0.2924
  182MPD1    H5 2779   2.670   1.390   1.322  0.5220 -0.2007 -1.5842
  182MPD1    N1 2780   3.030   1.215   1.729  0.1814  0.2312  0.2136
  182MPD1    H6 2781   3.027   1.211   1.831  0.4983  0.6532  0.2417
  182MPD1    H7 2782   3.035   1.121   1.692 -1.9732 -0.5515  1.8883
  183MPD1     C 2783   2.711   1.687   9.621  0.4258  0.2223  0.2086
  183MPD1    C1 2784   2.840   1.724   9.602 -0.3504  0.4777 -0.8184
  183MPD1    C2 2785   2.878   1.855   9.614  0.1445 -0.0505  0.0484
  183MPD1    C3 2786   2.780   1.956   9.641 -0.5554 -0.0964  0.0489
  183MPD1    C4 2787   2.655   1.919   9.665  0.2764  0.7578  0.7267
  183MPD1    C5 2788   2.618   1.785   9.651 -0.1996  0.1072 -0.0648
  183MPD1     H 2789   2.983   1.881   9.613  0.6219 -1.9615  0.4703
  183MPD1    H1 2790   2.569   1.983   9.684 -0.4691  0.0027 -0.1107
  183MPD1    H2 2791   2.685   1.582   9.632 -0.8762  0.3753 -1.3666
  183MPD1    H3 2792   2.517   1.750   9.667 -0.5171  0.9482 -0.2196
  183MPD1     N 2793   2.826   2.094   9.648  0.6910 -0.6483 -0.2366
  183MPD1    H5 2794   2.927   2.102   9.646  0.5922  0.6039 -0.0295
  183MPD1    N1 2795   2.949   1.637   9.593  0.2703  0.1120 -0.2979
  183MPD1    H6 2796   2.915   1.543   9.572  0.9018 -0.4822  1.3750
  183MPD1    H7 2797   3.011   1.662   9.516 -0.6403 -1.2498 -1.4801
  184MPD1     C 2798   1.852   4.560  10.403  0.0164 -0.1931  0.9652
  184MPD1    C1 2799   1.971   4.515  10.342  0.2026 -0.0817  0.2378
  184MPD1    C2 2800   1.992   4.548  10.210 -0.4244  0.1088 -0.3888
  184MPD1    C3 2801   1.908   4.639  10.153  0.4861 -0.1512  0.2640
  184MPD1    C4 2802   1.806   4.692  10.219  0.2271 -0.6559  0.6204
  184MPD1    C5 2803   1.771   4.650  10.341  0.6219 -0.3353  0.1167
  184MPD1     H 2804   2.066   4.498  10.148 -0.1040  2.0623 -1.6139
  184MPD1    H1 2805   1.749   0.053  10.181  0.3264 -0.6620  0.4554
  184MPD1    H2 2806   1.832   4.545  10.508 -0.5134  1.5535  1.1155
  184MPD1    H3 2807   1.689   4.699  10.393  1.1090  0.0624  0.5082
  184MPD1     N 2808   1.954   4.685  10.023 -0.4868 -0.0200  0.6907
  184MPD1    H5 2809   2.044   4.653   9.990 -0.1850 -0.4464  1.9110
  184MPD1    N1 2810   2.057   4.433  10.415  0.3066  0.7605 -0.3877
  184MPD1    H6 2811   2.071   4.479  10.505 -0.6533 -1.6887  1.0248
  184MPD1    H7 2812   2.147   4.426  10.368  0.8388  0.2867  0.6977
  185MPD1     C 2813   1.438   0.505   9.406  0.2022 -0.2937 -0.5699
  185MPD1    C1 2814   1.422   0.441   9.523  0.2609 -0.4761 -0.1454
  185MPD1    C2 2815   1.528   0.372   9.582 -0.9146 -0.7409 -0.1598
  185MPD1    C3 2816   1.642   0.358   9.509  0.0702  0.0047 -0.0440
  185MPD1    C4 2817   1.669   0.437   9.402 -0.5855  0.0104  0.1682
  185MPD1    C5 2818   1.566   0.512   9.352 -0.2997 -0.0140 -0.3954
  185MPD1     H 2819   1.507   0.301   9.661  0.1070 -0.7468  0.1019
  185MPD1    H1 2820   1.759   0.436   9.341 -0.3371  3.7181  0.4806
  185MPD1    H2 2821   1.354   0.540   9.348  0.2806 -0.7513 -0.9619
  185MPD1    H3 2822   1.589   0.556   9.256 -0.3135 -0.5485 -0.6434
  185MPD1     N 2823   1.740   0.267   9.557  0.4912 -0.6677  0.3547
  185MPD1    H5 2824   1.712   0.213   9.639 -2.0100 -0.3511 -0.2708
  185MPD1    N1 2825   1.294   0.438   9.574 -0.6124  0.6323 -0.4320
  185MPD1    H6 2826   1.291   0.429   9.676  2.7033  1.6753 -0.2630
  185MPD1    H7 2827   1.222   0.501   9.541  0.3087  2.4455  1.0060
  186MPD1     C 2828   1.287   3.975  16.111  0.1239  0.3886 -0.4123
  186MPD1    C1 2829   1.267   3.874  16.201  0.3329 -0.2640 -0.6358
  186MPD1    C2 2830   1.174   3.898  16.307 -0.2315  0.2066  0.9249
  186MPD1    C3 2831   1.106   4.019  16.321 -0.3974  0.2826  0.4291
  186MPD1    C4 2832   1.138   4.118  16.230 -0.4448 -0.1117 -0.0161
  186MPD1    C5 2833   1.219   4.096  16.129  0.3695  0.8721  0.1880
  186MPD1     H 2834   1.162   3.825  16.386 -0.9855  1.2243  1.7548
  186MPD1    H1 2835   1.080   4.210  16.232  1.4979  1.1418 -1.0079
  186MPD1    H2 2836   1.345   3.960  16.021 -1.5336  2.6732 -1.8661
  186MPD1    H3 2837   1.227   4.173  16.053  0.3649  1.4948  0.8141
  186MPD1     N 2838   1.026   4.056  16.428 -0.5539  0.4278 -0.0007
  186MPD1    H5 2839   0.985   4.149  16.424 -2.1110 -0.2035  1.3964
  186MPD1    N1 2840   1.328   3.752  16.173  0.3181  0.1833 -0.1351
  186MPD1    H6 2841   1.341   3.701  16.261  2.5211  0.2159 -0.4370
  186MPD1    H7 2842   1.426   3.767  16.147  0.6426  2.1006  2.2225
  187MPD1     C 2843   4.613   0.381   0.056 -0.3404 -0.0233  0.2959
  187MPD1    C1 2844   4.542   0.365  17.633  0.5066  0.3098 -0.2053
  187MPD1    C2 2845   4.517   0.470  17.563 -0.2727 -0.2778  0.0114
  187MPD1    C3 2846   4.564   0.595  17.603 -0.4004  0.3223 -0.0162
  187MPD1    C4 2847   4.629   0.611   0.029 -0.2248  0.3660 -0.4257
  187MPD1    C5 2848   4.658   0.500   0.107 -0.5105 -0.0129 -0.2632
  187MPD1     H 2849   4.467   0.457  17.468  0.8504  2.1948 -0.9037
  187MPD1    H1 2850   4.662   0.709   0.061  0.4356 -0.6630  2.0358
  187MPD1    H2 2851   4.637   0.297   0.121 -1.5645  0.4677  1.3957
  187MPD1    H3 2852   4.706   0.511   0.203 -0.2522 -2.7748 -0.0640
  187MPD1     N 2853   4.549   0.706  17.520  0.4330 -0.3148  0.1343
  187MPD1    H5 2854   4.578   0.797  17.554 -1.4145  0.5308 -0.6125
  187MPD1    N1 2855   4.517   0.235  17.585 -0.2553 -0.1151  0.9249
  187MPD1    H6 2856   4.421   0.224  17.554  0.5494 -2.1250 -0.8659
  187MPD1    H7 2857   4.534   0.157  17.648  0.8112 -0.5443  0.1042
  188MPD1     C 2858   0.646   1.561  10.176  0.3579 -0.2642 -0.6810
  188MPD1    C1 2859   0.551   1.536  10.275  0.2662  0.4525 -0.0753
  188MPD1    C2 2860   0.466   1.427  10.251 -0.3566  0.1040 -0.6897
  188MPD1    C3 2861   0.500   1.327  10.161 -0.3641 -0.3052  0.5725
  188MPD1    C4 2862   0.607   1.349  10.075  0.7638 -0.0859 -0.5564
  188MPD1    C5 2863   0.672   1.471  10.078 -0.2626 -0.0625 -0.4079
  188MPD1     H 2864   0.386   1.418  10.323  0.1629 -2.9116 -0.4682
  188MPD1    H1 2865   0.630   1.276   9.998  0.5750  1.8831 -2.4849
  188MPD1    H2 2866   0.716   1.644  10.179  0.8814 -0.7149 -0.4827
  188MPD1    H3 2867   0.762   1.495  10.023 -0.6454 -0.1562 -1.0771
  188MPD1     N 2868   0.427   1.210  10.153 -0.7983  0.1318 -0.5305
  188MPD1    H5 2869   0.457   1.149  10.078 -1.0228  0.1550 -0.6399
  188MPD1    N1 2870   0.514   1.630  10.376 -0.2311  0.6390  0.0117
  188MPD1    H6 2871   0.600   1.675  10.406 -0.1864  0.5870 -0.0378
  188MPD1    H7 2872   0.474   1.582  10.456  0.6970  1.1236  0.7625
  189MPD1     C 2873   2.482   1.313   0.162  0.8129 -0.5774  0.2025
  189MPD1    C1 2874   2.428   1.270   0.282 -0.4861  0.2318 -0.4589
  189MPD1    C2 2875   2.312   1.326   0.326  0.4686  0.1051 -0.3280
  189MPD1    C3 2876   2.251   1.431   0.256  0.0891  0.1697 -0.7986
  189MPD1    C4 2877   2.303   1.458   0.128 -0.3425  0.0442 -0.2552
  189MPD1    C5 2878   2.411   1.396   0.085  0.0601 -0.4028  0.4602
  189MPD1     H 2879   2.266   1.288   0.417  0.6201  2.0765  0.5821
  189MPD1    H1 2880   2.259   1.535   0.065  0.3629  0.5629 -0.1125
  189MPD1    H2 2881   2.582   1.280   0.137  1.4421  0.9679  0.6575
  189MPD1    H3 2882   2.435   1.419  17.676 -1.0662 -1.6079 -0.0789
  189MPD1     N 2883   2.136   1.499   0.318 -0.0846 -0.6044 -0.0245
  189MPD1    H5 2884   2.102   1.467   0.408  0.5665 -0.6867  0.1868
  189MPD1    N1 2885   2.494   1.176   0.361  0.2907  0.0501 -0.7718
  189MPD1    H6 2886   2.438   1.131   0.433 -1.2949  1.7669 -0.9431
  189MPD1    H7 2887   2.542   1.104   0.308 -2.3580 -2.7614  0.6102
  190MPD1     C 2888   0.230   0.891  16.676  0.1074 -0.0046  0.6341
  190MPD1    C1 2889   0.254   0.778  16.754 -0.8291  0.6029 -0.4171
  190MPD1    C2 2890   0.331   0.678  16.695  0.5411 -0.8224  0.3432
  190MPD1    C3 2891   0.376   0.681  16.565  1.0348 -0.6670 -0.1961
  190MPD1    C4 2892   0.353   0.792  16.492  0.2252 -0.2005  0.4333
  190MPD1    C5 2893   0.281   0.903  16.548 -0.3104 -0.0487  0.6941
  190MPD1     H 2894   0.338   0.591  16.759 -1.1683 -0.7472  0.6181
  190MPD1    H1 2895   0.382   0.812  16.389 -1.7300  3.5490  0.6090
  190MPD1    H2 2896   0.180   0.977  16.719 -2.0734 -0.6959 -0.5340
  190MPD1    H3 2897   0.257   0.987  16.483 -1.4400  0.6132  1.9693
  190MPD1     N 2898   0.450   0.576  16.508  0.3395  0.0471 -0.0350
  190MPD1    H5 2899   0.467   0.496  16.568  2.2240  0.6747  0.2778
  190MPD1    N1 2900   0.219   0.778  16.898 -0.3022  0.2289  0.6162
  190MPD1    H6 2901   0.208   0.686  16.941 -0.4306 -0.0400  0.0048
  190MPD1    H7 2902   0.137   0.835  16.915  0.6706  1.4763  1.1046
  191MPD1     C 2903   3.543   2.542  12.098 -1.0265  0.2866  0.6468
  191MPD1    C1 2904   3.531   2.579  12.231  0.1824  0.2436 -0.2126
  191MPD1    C2 2905   3.645   2.633  12.292 -0.2170  0.3221 -0.2952
  191MPD1    C3 2906   3.758   2.668  12.218 -0.7202  0.1914  0.4032
  191MPD1    C4 2907   3.758   2.645  12.087  0.3105  0.6012  0.7411
  191MPD1    C5 2908   3.656   2.578  12.030 -0.0012 -0.1163  0.6674
  191MPD1     H 2909   3.642   2.667  12.394  0.4868  0.3652 -0.2884
  191MPD1    H1 2910   3.841   2.673  12.023 -0.4234  0.6842 -0.1734
  191MPD1    H2 2911   3.465   2.500  12.035  1.4951 -0.7036 -1.8600
  191MPD1    H3 2912   3.661   2.557  11.923  1.7382 -1.2870  0.9871
  191MPD1     N 2913   3.867   2.731  12.280 -0.5574  0.3733 -0.0558
  191MPD1    H5 2914   3.869   2.732  12.381  3.7605  2.2153 -0.1572
  191MPD1    N1 2915   3.421   2.533  12.307 -0.3581  0.2961 -0.3483
  191MPD1    H6 2916   3.397   2.588  12.389  4.0622  1.4899  0.1106
  191MPD1    H7 2917   3.343   2.529  12.242  1.1222  3.1925 -2.2956
  192MPD1     C 2918   0.052   3.024  11.910  1.0837 -0.8397  0.5893
  192MPD1    C1 2919   0.071   2.924  12.002  0.4681 -0.0528 -0.1830
  192MPD1    C2 2920   4.685   2.882  12.075  0.0085  0.3673 -0.3550
  192MPD1    C3 2921   4.561   2.944  12.055 -0.3828 -0.4378 -0.8732
  192MPD1    C4 2922   4.553   3.054  11.976 -0.6666 -0.2178 -1.0093
  192MPD1    C5 2923   4.660   3.099  11.902  0.7941 -1.1966  0.3026
  192MPD1     H 2924   4.698   2.799  12.145  1.5087  0.3021 -0.7071
  192MPD1    H1 2925   4.463   3.110  11.956 -1.0872 -0.6612 -0.3639
  192MPD1    H2 2926   0.132   3.058  11.844 -0.0836  2.5792  0.9028
  192MPD1    H3 2927   4.650   3.188  11.841 -1.4151 -0.9446  1.0329
  192MPD1     N 2928   4.451   2.910  12.132 -0.1284 -0.7540  0.2390
  192MPD1    H5 2929   4.381   2.983  12.135  0.2195 -0.3567 -1.5184
  192MPD1    N1 2930   0.199   2.872  12.016 -0.1858  0.5172  0.1943
  192MPD1    H6 2931   0.262   2.927  11.959 -2.0934  0.9473 -1.5060
  192MPD1    H7 2932   0.221   2.871  12.116  0.8434 -2.7753 -0.0654
  193MPD1     C 2933   4.085   2.764  16.571  0.7867 -0.3530  0.3940
  193MPD1    C1 2934   4.214   2.774  16.536  0.1528 -0.0427 -0.1341
  193MPD1    C2 2935   4.310   2.840  16.623 -0.1279 -0.2143  0.2603
  193MPD1    C3 2936   4.262   2.903  16.740  0.5732  0.3759 -0.0290
  193MPD1    C4 2937   4.127   2.903  16.763 -0.3435  0.5261 -0.1222
  193MPD1    C5 2938   4.037   2.831  16.681 -0.3809 -0.8788  0.4907
  193MPD1     H 2939   4.415   2.815  16.608 -0.0104  0.7809 -0.5237
  193MPD1    H1 2940   4.089   2.960  16.847  0.6516 -0.1545  0.7922
  193MPD1    H2 2941   4.025   2.705  16.503 -1.0339 -0.9855  2.5993
  193MPD1    H3 2942   3.931   2.833  16.706 -0.6401 -1.5525 -0.5788
  193MPD1     N 2943   4.354   2.960  16.835  0.1873  0.0558  0.1686
  193MPD1    H5 2944   4.451   2.933  16.822 -0.0046 -1.1900  1.3490
  193MPD1    N1 2945   4.269   2.690  16.436 -0.4758 -0.3335  0.0441
  193MPD1    H6 2946   4.205   2.673  16.359  1.5156 -0.0106 -1.7082
  193MPD1    H7 2947   4.339   2.739  16.381 -0.0969 -0.4671  0.4086
  194MPD1     C 2948   3.357   0.460  17.270 -0.5170  0.1103 -0.4996
  194MPD1    C1 2949   3.419   0.420  17.387 -0.0372 -0.5451 -0.3094
  194MPD1    C2 2950   3.379   0.306  17.454  0.5527 -0.7434 -0.8932
  194MPD1    C3 2951   3.272   0.234  17.407  0.1112 -0.8485  0.1381
  194MPD1    C4 2952   3.196   0.284  17.298  0.1420  0.3205  0.4726
  194MPD1    C5 2953   3.246   0.394  17.225 -0.2248  0.4691  0.4210
  194MPD1     H 2954   3.432   0.271  17.542  2.2601  0.3789 -1.4636
  194MPD1    H1 2955   3.102   0.243  17.264  0.6092 -1.7170  1.6797
  194MPD1    H2 2956   3.387   0.548  17.214  1.1034  0.0234  0.2298
  194MPD1    H3 2957   3.205   0.411  17.126 -0.7105  0.0664  0.5491
  194MPD1     N 2958   3.229   0.111  17.452 -0.0022 -0.0129  0.1807
  194MPD1    H5 2959   3.140   0.081  17.414  0.1547  0.7719 -0.7958
  194MPD1    N1 2960   3.543   0.482  17.415 -0.4397 -0.3349  0.6758
  194MPD1    H6 2961   3.557   0.572  17.371 -0.2323 -0.0372  1.3565
  194MPD1    H7 2962   3.561   0.486  17.515 -2.2860 -2.9753  1.1396
  195MPD1     C 2963   4.659   1.757   1.053 -0.4713 -0.0836  0.2775
  195MPD1    C1 2964   4.713   1.740   0.932 -0.3254  0.4688 -0.1622
  195MPD1    C2 2965   4.630   1.719   0.831  0.0790 -0.0734  0.1936
  195MPD1    C3 2966   4.490   1.742   0.839 -0.6330  0.6439  0.3887
  195MPD1    C4 2967   4.441   1.793   0.960  0.3098  0.1700  0.2431
  195MPD1    C5 2968   4.524   1.786   1.066  0.2676 -0.3805 -0.0566
  195MPD1     H 2969   4.678   1.679   0.743 -1.2392  1.5320 -1.2576
  195MPD1    H1 2970   4.335   1.800   0.979 -0.1833 -0.1894 -2.3524
  195MPD1    H2 2971   4.713   1.758   1.147  1.0167  2.5599 -0.5963
  195MPD1    H3 2972   4.481   1.798   1.165  0.0385  2.8109 -0.5318
  195MPD1     N 2973   4.394   1.726   0.736  0.1695  0.0644  0.2930
  195MPD1    H5 2974   4.295   1.728   0.759  0.3742  2.4137  1.0423
  195MPD1    N1 2975   0.125   1.717   0.918  0.1121  0.2731 -0.4997
  195MPD1    H6 2976   0.155   1.731   0.822  0.4790 -0.8964 -0.5554
  195MPD1    H7 2977   0.174   1.779   0.982 -1.8978 -1.2247  2.4822
  196MPD1     C 2978   3.249   0.561   0.362 -0.5680  0.0989 -0.2586
  196MPD1    C1 2979   3.256   0.694   0.327  1.0268 -0.2176 -0.3310
  196MPD1    C2 2980   3.289   0.784   0.427  0.3179 -0.6397  0.7063
  196MPD1    C3 2981   3.307   0.746   0.564 -0.3919  0.2604  0.4160
  196MPD1    C4 2982   3.286   0.611   0.600 -0.1988 -0.4482  0.1236
  196MPD1    C5 2983   3.262   0.522   0.496  0.7220  0.3288  0.4637
  196MPD1     H 2984   3.302   0.886   0.391  0.1062 -0.1899  1.9281
  196MPD1    H1 2985   3.299   0.580   0.703 -0.8963  2.4012  1.0602
  196MPD1    H2 2986   3.244   0.481   0.288 -0.6125  1.7021 -1.9960
  196MPD1    H3 2987   3.258   0.417   0.523  3.0591 -0.1620 -1.1039
  196MPD1     N 2988   3.355   0.832   0.659  0.2898 -0.1937 -0.2152
  196MPD1    H5 2989   3.372   0.801   0.754 -1.9671 -0.0990  0.2141
  196MPD1    N1 2990   3.282   0.724   0.200 -0.6318 -0.3841 -0.8944
  196MPD1    H6 2991   3.250   0.817   0.170 -0.2963 -0.3141 -1.0413
  196MPD1    H7 2992   3.226   0.665   0.139  0.9975 -2.1063 -0.7290
  197MPD1     C 2993   3.084   2.461  17.544 -0.1767 -0.3194 -0.2186
  197MPD1    C1 2994   3.115   2.539  17.649 -0.7454  0.2235 -0.1583
  197MPD1    C2 2995   3.108   2.673  17.632 -0.1994 -0.1577  0.1686
  197MPD1    C3 2996   3.055   2.728  17.514 -0.2628  0.1192  0.3197
  197MPD1    C4 2997   3.008   2.646  17.418 -0.2969 -0.8890  0.3123
  197MPD1    C5 2998   3.029   2.511  17.436  0.0816  0.3225  0.4157
  197MPD1     H 2999   3.134   2.743   0.017  1.2875 -1.2491  0.6247
  197MPD1    H1 3000   2.962   2.685  17.328 -0.4522 -2.8947 -0.4884
  197MPD1    H2 3001   3.095   2.353  17.544 -1.7021 -0.4816 -1.0365
  197MPD1    H3 3002   3.013   2.452  17.346  1.7300  0.9336 -0.2798
  197MPD1     N 3003   3.060   2.865  17.471  0.3423 -0.2082 -0.2959
  197MPD1    H5 3004   3.006   2.887  17.388  0.1620  0.8757  0.1028
  197MPD1    N1 3005   3.191   2.481   0.065 -0.7784 -0.3271  0.2957
  197MPD1    H6 3006   3.166   2.384   0.081  2.5009 -1.1582  0.3446
  197MPD1    H7 3007   3.194   2.533   0.152 -1.2225 -0.0176  0.1279
  198MPD1     C 3008   1.328   1.982  16.367 -0.2619 -0.2434  0.7496
  198MPD1    C1 3009   1.312   2.090  16.456  0.1221 -0.4804 -0.4977
  198MPD1    C2 3010   1.181   2.125  16.482 -0.1233  0.0995 -0.1653
  198MPD1    C3 3011   1.076   2.077  16.402  0.1518 -0.3106 -0.4471
  198MPD1    C4 3012   1.103   1.983  16.298 -0.2492  0.1399 -0.0450
  198MPD1    C5 3013   1.231   1.939  16.285  0.5796  0.4915  0.2415
  198MPD1     H 3014   1.158   2.207  16.548 -0.8337  0.0049 -0.2991
  198MPD1    H1 3015   1.018   1.937  16.250  0.5849 -1.0161 -0.4235
  198MPD1    H2 3016   1.429   1.944  16.357 -0.0305  1.2236 -2.5250
  198MPD1    H3 3017   1.259   1.851  16.227 -1.3151 -0.4813  0.7748
  198MPD1     N 3018   0.946   2.131  16.429  0.1156  0.1872 -0.0320
  198MPD1    H5 3019   0.946   2.201  16.503 -1.6637  0.9525 -0.7529
  198MPD1    N1 3020   1.425   2.138  16.531  0.3659 -0.1307 -0.5272
  198MPD1    H6 3021   1.506   2.126  16.471  1.0588 -0.0225  0.3828
  198MPD1    H7 3022   1.409   2.233  16.565  1.7979 -0.2948  0.5720
  199MPD1     C 3023   1.039   3.155   8.494 -0.4520 -0.0060  0.7159
  199MPD1    C1 3024   1.000   3.270   8.560 -0.0315  0.5135  0.2380
  199MPD1    C2 3025   0.987   3.274   8.694 -0.5856  0.0818 -0.3990
  199MPD1    C3 3026   0.996   3.157   8.763  0.3459  0.3486  0.4352
  199MPD1    C4 3027   1.030   3.034   8.703 -0.3687  0.6034 -0.3346
  199MPD1    C5 3028   1.052   3.039   8.568  0.5968  0.0959  0.1086
  199MPD1     H 3029   0.966   3.369   8.742 -0.5920  0.4114 -1.0549
  199MPD1    H1 3030   1.032   2.941   8.758 -2.0491  0.7416 -0.0202
  199MPD1    H2 3031   1.051   3.152   8.387 -0.1160  1.9926  0.6987
  199MPD1    H3 3032   1.076   2.950   8.511  1.9105 -0.3165  1.3094
  199MPD1     N 3033   0.979   3.153   8.907  0.2235 -0.0433 -0.4062
  199MPD1    H5 3034   0.997   3.061   8.944  3.2473  0.9237  0.5064
  199MPD1    N1 3035   0.987   3.389   8.483  0.0722  0.1407  0.1014
  199MPD1    H6 3036   0.956   3.383   8.386 -0.0546 -1.2857  0.2278
  199MPD1    H7 3037   0.947   3.466   8.536 -3.9726 -1.2633 -0.9088
  200MPD1     C 3038   1.760   2.423  15.639 -0.0894  1.1517  0.1105
  200MPD1    C1 3039   1.699   2.337  15.553  0.4448 -0.4661 -0.2486
  200MPD1    C2 3040   1.679   2.380  15.421  0.7953 -0.8534  0.0089
  200MPD1    C3 3041   1.718   2.506  15.378  0.0945 -0.2113 -0.3010
  200MPD1    C4 3042   1.793   2.589  15.461  0.0837  0.2484 -0.5419
  200MPD1    C5 3043   1.812   2.549  15.596 -0.5742  0.6698 -0.0417
  200MPD1     H 3044   1.626   2.307  15.360  0.5643  0.0415 -0.8631
  200MPD1    H1 3045   1.834   2.683  15.425 -1.8715  1.3414  0.0774
  200MPD1    H2 3046   1.785   2.391  15.739 -2.1745  0.2506  0.3497
  200MPD1    H3 3047   1.883   2.607  15.655  2.0507 -1.6763 -0.8680
  200MPD1     N 3048   1.671   2.540  15.246 -0.5001 -0.1176  1.1470
  200MPD1    H5 3049   1.608   2.473  15.202  0.4680 -0.9680  1.0426
  200MPD1    N1 3050   1.649   2.219  15.614  0.7247 -0.1677  0.1082
  200MPD1    H6 3051   1.698   2.196  15.700  1.6966 -0.1873 -0.4393
  200MPD1    H7 3052   1.630   2.144  15.549  0.0373 -0.8183  1.0693
  201MPD1     C 3053   3.410   1.114  14.058 -0.1929  0.0552 -0.1282
  201MPD1    C1 3054   3.541   1.072  14.072 -0.2909  0.0589 -0.1483
  201MPD1    C2 3055   3.611   1.055  13.955 -0.6569 -0.4300  0.0987
  201MPD1    C3 3056   3.549   1.061  13.831  0.4008  0.3124  0.2526
  201MPD1    C4 3057   3.413   1.096  13.822 -0.6020 -0.4612 -0.1842
  201MPD1    C5 3058   3.346   1.113  13.941 -0.7613  0.1899  0.1995
  201MPD1     H 3059   3.714   1.023  13.958 -0.3533  0.6277  1.1468
  201MPD1    H1 3060   3.361   1.111  13.728  1.3767 -0.3084 -1.2561
  201MPD1    H2 3061   3.353   1.141  14.146  1.1109  1.1130  0.3767
  201MPD1    H3 3062   3.246   1.156  13.938 -1.1984 -0.8370  0.2430
  201MPD1     N 3063   3.632   1.048  13.721 -0.8384  0.3860 -0.5361
  201MPD1    H5 3064   3.722   1.001  13.726 -0.1042  1.8485 -0.0199
  201MPD1    N1 3065   3.610   1.053  14.191 -0.4066 -0.0761 -0.0588
  201MPD1    H6 3066   3.553   1.032  14.273 -0.9842 -0.3102 -0.5141
  201MPD1    H7 3067   3.690   0.991  14.181  0.3626  1.1386 -1.4505
  202MPD1     C 3068   2.927   1.312  10.156  0.4577  0.1501  0.0341
  202MPD1    C1 3069   2.939   1.437  10.203 -0.4097 -1.1504 -0.1841
  202MPD1    C2 3070   3.069   1.493  10.195 -0.3060 -0.0041 -0.1721
  202MPD1    C3 3071   3.172   1.427  10.128 -0.1084  0.2034 -0.9395
  202MPD1    C4 3072   3.146   1.302  10.083 -0.0583 -0.2633 -0.0438
  202MPD1    C5 3073   3.022   1.250  10.091 -0.2206 -0.8237 -0.2848
  202MPD1     H 3074   3.089   1.578  10.260  0.2733 -0.1505 -0.1562
  202MPD1    H1 3075   3.224   1.256  10.024  0.8193  0.7783  0.2997
  202MPD1    H2 3076   2.831   1.262  10.159  1.9586 -2.8349 -1.1596
  202MPD1    H3 3077   3.000   1.158  10.037 -2.9669  0.0791 -0.6833
  202MPD1     N 3078   3.306   1.477  10.118 -0.3237  0.0722 -0.5559
  202MPD1    H5 3079   3.376   1.408  10.092  0.2824  0.6014 -0.3111
  202MPD1    N1 3080   2.843   1.482  10.295 -0.2328  0.2390  0.5168
  202MPD1    H6 3081   2.846   1.584  10.301 -0.6631  0.3620 -1.2377
  202MPD1    H7 3082   2.751   1.445  10.273  0.0861  0.9561 -1.9869
  203MPD1     C 3083   1.901   2.450  12.853 -0.2700  0.3571  0.0270
  203MPD1    C1 3084   1.906   2.341  12.937  0.1393 -0.2375  0.0513
  203MPD1    C2 3085   1.989   2.237  12.890 -0.6616  0.2158 -0.4561
  203MPD1    C3 3086   2.063   2.244  12.773 -0.4546 -0.1443 -0.1117
  203MPD1    C4 3087   2.059   2.358  12.700 -0.2426 -0.0505 -0.1284
  203MPD1    C5 3088   1.974   2.453  12.740 -0.0456  0.0404 -0.0704
  203MPD1     H 3089   1.981   2.143  12.944  0.9542  1.8529  2.6047
  203MPD1    H1 3090   2.106   2.366  12.602  0.0047  1.3258  0.1005
  203MPD1    H2 3091   1.846   2.541  12.875  0.1278  0.6808 -0.3175
  203MPD1    H3 3092   1.969   2.538  12.673  0.5919 -0.5144 -0.8285
  203MPD1     N 3093   2.138   2.128  12.737  0.2125  0.3928  0.1592
  203MPD1    H5 3094   2.120   2.046  12.793 -1.7455 -0.2475 -1.3848
  203MPD1    N1 3095   1.821   2.333  13.044 -0.6920  0.0113  0.3562
  203MPD1    H6 3096   1.790   2.421  13.085 -0.1713  0.4688 -0.2418
  203MPD1    H7 3097   1.854   2.266  13.114  2.1233 -0.0201 -1.0237
  204MPD1     C 3098   1.912   3.254  17.682  0.5583  0.9822  0.4120
  204MPD1    C1 3099   1.809   3.167  17.669  0.1498 -0.1485 -0.1630
  204MPD1    C2 3100   1.813   3.082  17.567 -0.3929 -0.6181  0.4222
  204MPD1    C3 3101   1.923   3.068  17.487 -0.5534 -0.0654 -0.3356
  204MPD1    C4 3102   2.030   3.150  17.508  0.2400  0.0012 -0.7263
  204MPD1    C5 3103   2.024   3.242  17.605  0.4753  0.0353 -0.0028
  204MPD1     H 3104   1.732   3.011  17.556 -0.6393 -0.3208  0.3374
  204MPD1    H1 3105   2.108   3.150  17.434 -0.9106  1.9031 -1.9214
  204MPD1    H2 3106   1.911   3.326   0.070  0.0710  0.9270  0.4517
  204MPD1    H3 3107   2.105   3.311  17.626 -0.7207  0.8726  1.8400
  204MPD1     N 3108   1.912   2.973  17.382  0.5409  0.2077  0.1335
  204MPD1    H5 3109   1.830   2.914  17.380  1.4120 -0.9917 -0.0025
  204MPD1    N1 3110   1.691   3.205   0.036  0.8746 -0.9804  0.0340
  204MPD1    H6 3111   1.701   3.253   0.126 -1.0536 -0.0705 -0.2396
  204MPD1    H7 3112   1.637   3.119   0.051  0.1889 -0.8784 -1.9351
  205MPD1     C 3113   2.482   1.710  16.854 -0.0313  0.0832  0.1372
  205MPD1    C1 3114   2.454   1.622  16.960  0.3170  0.3836  0.3985
  205MPD1    C2 3115   2.331   1.635  17.023 -0.4569  0.4655 -0.0302
  205MPD1    C3 3116   2.238   1.737  16.986 -0.1577 -0.0766  0.5315
  205MPD1    C4 3117   2.269   1.813  16.874 -0.2568  0.2317 -0.2922
  205MPD1    C5 3118   2.389   1.795  16.814 -0.2829  0.4415 -0.3803
  205MPD1     H 3119   2.310   1.554  17.091 -0.3463  0.4231 -0.0456
  205MPD1    H1 3120   2.215   1.889  16.820 -0.4328  0.2858 -0.0399
  205MPD1    H2 3121   2.568   1.700  16.789 -0.0373  1.2872 -0.0595
  205MPD1    H3 3122   2.406   1.845  16.719 -0.9924 -1.0958 -1.3041
  205MPD1     N 3123   2.119   1.764  17.059  0.5978  0.5165 -0.6693
  205MPD1    H5 3124   2.058   1.832  17.015 -0.8709 -1.2259 -1.3168
  205MPD1    N1 3125   2.556   1.547  17.010  0.6255  0.2212 -0.4245
  205MPD1    H6 3126   2.529   1.458  17.050 -0.4973  1.7079  2.0825
  205MPD1    H7 3127   2.618   1.526  16.931  0.7402  0.1820 -0.3236
  206MPD1     C 3128   2.521   0.015  16.736 -0.2788 -0.4424 -0.2305
  206MPD1    C1 3129   2.383   0.020  16.732 -0.3181  0.4446  0.2065
  206MPD1    C2 3130   2.323   0.028  16.607  0.3144 -0.2252  0.2954
  206MPD1    C3 3131   2.395   0.032  16.492 -0.0651  0.0738 -0.0476
  206MPD1    C4 3132   2.529   0.011  16.498 -0.4085 -0.4953  0.7510
  206MPD1    C5 3133   2.596   0.010  16.623 -0.0952 -0.3358 -0.7604
  206MPD1     H 3134   2.214   0.025  16.607  0.2993  0.5436  1.5922
  206MPD1    H1 3135   2.589   0.017  16.408 -1.7197 -1.3929 -0.1885
  206MPD1    H2 3136   2.566   0.018  16.834 -1.3721  3.2951  0.1397
  206MPD1    H3 3137   2.703   4.722  16.624 -0.3041 -2.0815  2.3779
  206MPD1     N 3138   2.337   0.037  16.362  0.5765  0.0303  0.4109
  206MPD1    H5 3139   2.404   0.032  16.287 -0.6543  0.1224 -0.6955
  206MPD1    N1 3140   2.319   0.003  16.853 -0.3898  0.0258  0.1699
  206MPD1    H6 3141   2.381   0.009  16.933 -0.4586 -1.4830  0.3473
  206MPD1    H7 3142   2.247   0.075  16.861 -1.1701 -0.8552  1.0933
  207MPD1     C 3143   4.259   3.544   9.929  0.0311  0.3239  0.2017
  207MPD1    C1 3144   4.327   3.649   9.974 -0.3174  0.5078  0.0543
  207MPD1    C2 3145   4.457   3.621  10.020  0.0323 -0.3716 -0.2017
  207MPD1    C3 3146   4.516   3.494  10.015  0.2579  0.3743 -0.1597
  207MPD1    C4 3147   4.438   3.392   9.969 -0.5510 -0.7195 -0.6156
  207MPD1    C5 3148   4.311   3.419   9.922  0.1184  0.4055  0.5074
  207MPD1     H 3149   4.518   3.703  10.054 -0.4462 -1.1716  2.5741
  207MPD1    H1 3150   4.460   3.288   9.951  1.1686 -0.6416  1.0982
  207MPD1    H2 3151   4.158   3.551   9.889 -0.2466 -1.0726  0.6438
  207MPD1    H3 3152   4.261   3.330   9.887  1.0584 -0.2651  0.8598
  207MPD1     N 3153   4.646   3.463  10.067 -0.0678 -0.3228  0.5955
  207MPD1    H5 3154   4.673   3.366  10.056 -0.1723 -0.3323  0.4213
  207MPD1    N1 3155   4.271   3.784   9.967 -0.2810  0.2468 -0.3525
  207MPD1    H6 3156   4.345   3.853   9.973 -1.3432  1.5264 -1.8988
  207MPD1    H7 3157   4.227   3.793   9.876 -0.1195 -0.6016 -0.5146
  208MPD1     C 3158   2.679   1.223  17.364 -0.1462 -0.5720  0.4181
  208MPD1    C1 3159   2.560   1.291  17.393  0.0966 -0.8812  0.4912
  208MPD1    C2 3160   2.471   1.220  17.469  0.1049 -0.3677  0.0538
  208MPD1    C3 3161   2.494   1.095  17.526  0.9560  0.1193  0.1519
  208MPD1    C4 3162   2.602   1.029  17.494 -0.0808  1.0256  0.1935
  208MPD1    C5 3163   2.690   1.092  17.407 -0.0016 -0.4048  0.4404
  208MPD1     H 3164   2.376   1.270  17.487  0.2389 -0.4577  0.9800
  208MPD1    H1 3165   2.608   0.923  17.514  2.1619  0.9492 -0.8740
  208MPD1    H2 3166   2.747   1.249  17.284  0.7114 -1.9177  0.7094
  208MPD1    H3 3167   2.772   1.039  17.360  0.3754  1.0068 -0.5268
  208MPD1     N 3168   2.391   1.057  17.616  0.6785 -0.8043  0.1464
  208MPD1    H5 3169   2.320   1.127  17.632  1.4008  0.0389 -0.3350
  208MPD1    N1 3170   2.536   1.418  17.328 -0.1139  0.2129  0.0803
  208MPD1    H6 3171   2.458   1.466  17.374  0.2623  0.3339  0.5899
  208MPD1    H7 3172   2.618   1.478  17.326 -0.1868  0.3046 -0.1273
  209MPD1     C 3173   0.871   1.818  10.459  0.4976 -0.3156  0.5825
  209MPD1    C1 3174   0.903   1.873  10.577  0.2288 -0.1065 -0.6677
  209MPD1    C2 3175   0.856   1.999  10.604  0.8003  0.3702 -0.1073
  209MPD1    C3 3176   0.760   2.062  10.528  0.4534 -0.3316 -0.9635
  209MPD1    C4 3177   0.706   1.989  10.424  0.0525  0.1397 -0.3108
  209MPD1    C5 3178   0.768   1.876  10.389 -0.1968  0.0713 -0.4330
  209MPD1     H 3179   0.886   2.047  10.696 -1.0320 -0.3079  0.8617
  209MPD1    H1 3180   0.630   2.029  10.358 -1.1335  2.2353  2.2901
  209MPD1    H2 3181   0.919   1.728  10.421 -1.9386 -1.4315  0.1474
  209MPD1    H3 3182   0.742   1.825  10.297 -0.3085  0.1546 -0.4475
  209MPD1     N 3183   0.713   2.190  10.569  0.2042  0.2023 -0.9905
  209MPD1    H5 3184   0.758   2.234  10.648 -0.7305  0.9530 -0.8794
  209MPD1    N1 3185   0.998   1.814  10.664 -0.3661  0.7925 -0.4325
  209MPD1    H6 3186   0.999   1.715  10.642  0.8636  0.0781  2.9047
  209MPD1    H7 3187   0.993   1.837  10.763  2.5208  1.9715 -0.5541
  210MPD1     C 3188   0.967   2.822  11.227 -0.2016 -0.0967  0.4586
  210MPD1    C1 3189   0.931   2.690  11.230  0.4424  0.2038  0.0620
  210MPD1    C2 3190   0.844   2.653  11.135 -0.2312  0.0670 -0.2756
  210MPD1    C3 3191   0.805   2.729  11.028 -0.3264 -0.6151  0.2515
  210MPD1    C4 3192   0.842   2.861  11.031  0.3739  0.8618  0.1090
  210MPD1    C5 3193   0.913   2.908  11.139 -0.4967  0.2684 -0.5214
  210MPD1     H 3194   0.795   2.556  11.136  1.7114 -0.9246 -0.7079
  210MPD1    H1 3195   0.806   2.933  10.958  0.0785 -2.8381 -3.4191
  210MPD1    H2 3196   1.026   2.854  11.312 -0.1308  1.1791 -0.0731
  210MPD1    H3 3197   0.936   3.013  11.147  0.0784 -0.0938  2.9830
  210MPD1     N 3198   0.721   2.685  10.923 -0.3987  0.4537 -0.2967
  210MPD1    H5 3199   0.696   2.762  10.861 -0.3675 -1.1911 -2.3455
  210MPD1    N1 3200   0.966   2.611  11.340  0.0140 -0.2474  0.4179
  210MPD1    H6 3201   0.976   2.514  11.314  0.3645 -0.2475  0.5590
  210MPD1    H7 3202   1.061   2.639  11.363 -0.2558  1.1066 -0.1003
  211MPD1     C 3203   2.881   1.091  16.837 -0.7494  0.3745  0.0165
  211MPD1    C1 3204   2.814   1.136  16.956  0.1394 -0.3382  0.2449
  211MPD1    C2 3205   2.689   1.189  16.939 -0.2615 -0.4639  0.5656
  211MPD1    C3 3206   2.645   1.230  16.816  0.1401  0.5568  0.1918
  211MPD1    C4 3207   2.727   1.208  16.704  0.3948  0.6834 -0.2505
  211MPD1    C5 3208   2.840   1.134  16.713  0.0156 -0.0865 -0.4125
  211MPD1     H 3209   2.623   1.195  17.025 -1.8810  0.9032 -0.7709
  211MPD1    H1 3210   2.692   1.235  16.605 -2.2171 -0.9031  0.2569
  211MPD1    H2 3211   2.971   1.033  16.848 -1.9103 -1.5094 -0.4200
  211MPD1    H3 3212   2.890   1.101  16.623 -0.9080 -0.5798 -0.7441
  211MPD1     N 3213   2.510   1.280  16.807  0.1342 -0.6112  0.3360
  211MPD1    H5 3214   2.464   1.299  16.896 -1.0101 -0.3564 -0.3104
  211MPD1    N1 3215   2.858   1.071  17.073 -0.3426  0.1492 -0.1619
  211MPD1    H6 3216   2.838   1.123  17.158  0.6297 -1.9950  1.3650
  211MPD1    H7 3217   2.958   1.058  17.063 -0.3345 -1.0505  1.5144
  212MPD1     C 3218   1.809   0.150  16.678 -0.6486 -0.6452  0.2661
  212MPD1    C1 3219   1.746   0.199  16.793 -0.3772  0.4621  0.5680
  212MPD1    C2 3220   1.751   0.125  16.917 -0.3596 -0.5528  0.3563
  212MPD1    C3 3221   1.799   4.716  16.911 -0.2694  0.0838  0.1708
  212MPD1    C4 3222   1.855   4.670  16.793  0.1655 -0.4303  0.4913
  212MPD1    C5 3223   1.864   0.027  16.678  0.1697 -0.3510 -1.0167
  212MPD1     H 3224   1.729   0.168  17.014 -0.9949 -1.1364  0.4765
  212MPD1    H1 3225   1.884   4.566  16.787  1.2999 -0.2041  2.1315
  212MPD1    H2 3226   1.820   0.206  16.586 -1.7783 -1.9076 -0.6185
  212MPD1    H3 3227   1.902   4.706  16.586  0.7165 -2.4591  0.1950
  212MPD1     N 3228   1.787   4.626  17.016 -0.4337 -0.0875 -0.5933
  212MPD1    H5 3229   1.839   4.539  17.006 -0.1554 -0.1995  1.8348
  212MPD1    N1 3230   1.703   0.335  16.797  0.0889 -0.0333 -0.0638
  212MPD1    H6 3231   1.646   0.365  16.718  1.2426  4.1585  0.6887
  212MPD1    H7 3232   1.637   0.340  16.874  0.5930 -0.3282  0.3813
  213MPD1     C 3233   4.291   1.263  15.975 -0.3738 -0.4074 -0.0563
  213MPD1    C1 3234   4.297   1.355  15.872  0.1505  1.0221 -0.1873
  213MPD1    C2 3235   4.314   1.295  15.745 -0.3663  0.4456  0.1921
  213MPD1    C3 3236   4.310   1.158  15.715  0.3218 -0.1953  0.1492
  213MPD1    C4 3237   4.284   1.075  15.820 -0.1883  0.5565  0.4094
  213MPD1    C5 3238   4.271   1.132  15.944  0.3489  0.6118 -0.4666
  213MPD1     H 3239   4.347   1.350  15.657 -2.8470 -2.7559 -2.7438
  213MPD1    H1 3240   4.255   0.971  15.807  0.1887  0.5014 -0.0034
  213MPD1    H2 3241   4.286   1.287  16.080  0.3586 -0.3350 -0.0404
  213MPD1    H3 3242   4.262   1.064  16.028 -2.3899  0.2606 -1.0173
  213MPD1     N 3243   4.317   1.118  15.579  0.6168  0.2109 -0.2557
  213MPD1    H5 3244   4.347   1.188  15.512 -0.8115  2.9002  1.9335
  213MPD1    N1 3245   4.339   1.486  15.891 -0.0459 -0.2675 -0.3574
  213MPD1    H6 3246   4.327   1.550  15.813 -0.1808  0.4093  0.2244
  213MPD1    H7 3247   4.305   1.539  15.971  0.0881 -1.6821  0.6330
  214MPD1     C 3248   3.726   0.431  15.326  0.2201 -0.4904 -0.1384
  214MPD1    C1 3249   3.762   0.482  15.204 -1.1666  0.6233 -0.8348
  214MPD1    C2 3250   3.872   0.571  15.196 -1.1039 -0.1662  0.3915
  214MPD1    C3 3251   3.943   0.610  15.308  0.3571 -0.0482 -0.0881
  214MPD1    C4 3252   3.882   0.573  15.425 -1.0834 -0.0036 -0.2433
  214MPD1    C5 3253   3.776   0.491  15.434  0.1707  0.5956  0.3494
  214MPD1     H 3254   3.906   0.601  15.097  0.8625  2.0965  1.7633
  214MPD1    H1 3255   3.916   0.619  15.517  0.4231 -2.0162  0.2091
  214MPD1    H2 3256   3.668   0.340  15.333 -0.9725  0.4002  1.8335
  214MPD1    H3 3257   3.728   0.471  15.528  0.4215  0.8777  0.5399
  214MPD1     N 3258   4.057   0.695  15.303 -0.0815 -0.6097 -1.0010
  214MPD1    H5 3259   4.097   0.728  15.390 -1.2019 -0.1442 -0.6556
  214MPD1    N1 3260   3.698   0.434  15.091 -0.1417 -0.8207  0.1168
  214MPD1    H6 3261   3.707   0.490  15.006 -1.5179 -2.6359 -1.2259
  214MPD1    H7 3262   3.599   0.416  15.107 -0.6366  1.1070 -0.7682
  215MPD1     C 3263   0.239   1.091  11.019  0.3685 -0.0623  0.0979
  215MPD1    C1 3264   0.250   1.127  11.153 -0.7287 -0.7264 -0.2942
  215MPD1    C2 3265   0.279   1.258  11.179  0.1355  0.1489  0.8574
  215MPD1    C3 3266   0.316   1.349  11.085 -0.1806  0.7986 -0.3957
  215MPD1    C4 3267   0.319   1.308  10.954  1.2314 -0.6841 -0.6691
  215MPD1    C5 3268   0.271   1.180  10.918 -0.1344  0.1801 -0.3450
  215MPD1     H 3269   0.280   1.282  11.284  1.0095  2.8641  0.2234
  215MPD1    H1 3270   0.365   1.362  10.872  0.4542  0.5901 -0.2533
  215MPD1    H2 3271   0.213   0.991  10.989 -1.3463  0.4269 -0.0485
  215MPD1    H3 3272   0.283   1.146  10.816 -1.8755  0.4998 -0.6654
  215MPD1     N 3273   0.378   1.474  11.123 -0.1193 -0.2759 -0.1633
  215MPD1    H5 3274   0.374   1.487  11.224 -0.1813  1.1505 -0.3543
  215MPD1    N1 3275   0.205   1.040  11.255  0.1795 -0.6731 -0.2481
  215MPD1    H6 3276   0.285   1.038  11.317 -1.2142  1.5630  1.6026
  215MPD1    H7 3277   0.195   0.944  11.223  1.7492 -1.1738  0.7551
  216MPD1     C 3278   2.151   4.053  16.389  0.0447 -0.2763 -0.4917
  216MPD1    C1 3279   2.128   3.918  16.394 -0.4853  0.2200  0.6019
  216MPD1    C2 3280   2.117   3.857  16.514 -0.4199 -0.7360 -0.2193
  216MPD1    C3 3281   2.149   3.921  16.623 -0.3929 -0.5555 -0.1385
  216MPD1    C4 3282   2.180   4.053  16.624 -0.3212 -0.1788  0.6836
  216MPD1    C5 3283   2.171   4.121  16.507  0.5610  0.5349  0.7856
  216MPD1     H 3284   2.100   3.750  16.512 -0.0078 -0.8267  1.0884
  216MPD1    H1 3285   2.216   4.108  16.710 -0.5816 -0.9518  1.2812
  216MPD1    H2 3286   2.166   4.104  16.295  0.6696  1.3451  0.4912
  216MPD1    H3 3287   2.206   4.224  16.506  1.6938  0.1075 -2.8256
  216MPD1     N 3288   2.136   3.843  16.743 -0.7270  0.2298 -0.8589
  216MPD1    H5 3289   2.116   3.744  16.732  0.6638  0.0709 -1.9984
  216MPD1    N1 3290   2.107   3.851  16.273  0.1250  0.3270  0.3984
  216MPD1    H6 3291   2.143   3.905  16.195  0.7321 -0.3795  0.1926
  216MPD1    H7 3292   2.150   3.759  16.280 -0.0836  0.3106  1.5440
  217MPD1     C 3293   1.782   2.069   9.928  0.0578  0.0676  0.5256
  217MPD1    C1 3294   1.698   1.980   9.860  0.5461  0.0043 -0.3563
  217MPD1    C2 3295   1.757   1.866   9.802  0.2788 -0.3946 -0.0069
  217MPD1    C3 3296   1.892   1.846   9.815 -0.4926 -0.1745 -0.3508
  217MPD1    C4 3297   1.972   1.929   9.893  0.5503 -0.2040 -0.2057
  217MPD1    C5 3298   1.910   2.039   9.941 -0.3661  0.0421  0.6606
  217MPD1     H 3299   1.697   1.795   9.747 -1.3659  0.6545  0.4115
  217MPD1    H1 3300   2.080   1.919   9.901  0.4882 -1.0944 -0.5066
  217MPD1    H2 3301   1.744   2.159   9.974 -1.9033  0.1318 -1.1780
  217MPD1    H3 3302   1.964   2.102  10.011 -0.3325 -0.9408  1.5105
  217MPD1     N 3303   1.965   1.739   9.754  0.6734 -0.4012  0.1710
  217MPD1    H5 3304   2.066   1.751   9.764  0.4099  0.4708  1.7343
  217MPD1    N1 3305   1.563   2.021   9.836 -0.2343  0.5959 -0.4428
  217MPD1    H6 3306   1.520   1.936   9.802 -1.9836  1.1944  0.2621
  217MPD1    H7 3307   1.515   2.065   9.915  0.0205 -0.5384  0.3402
  218MPD1     C 3308   3.896   2.362  13.183  0.3952  0.2207  0.2202
  218MPD1    C1 3309   3.808   2.271  13.132 -0.0133  0.3295  0.4438
  218MPD1    C2 3310   3.808   2.140  13.176 -0.1292  0.1790 -0.9121
  218MPD1    C3 3311   3.894   2.099  13.275 -0.0271  0.3795 -0.1294
  218MPD1    C4 3312   3.975   2.195  13.334  0.0885 -0.3779 -0.4782
  218MPD1    C5 3313   3.975   2.320  13.287 -0.3001 -0.3251  0.6922
  218MPD1     H 3314   3.743   2.064  13.134  1.1354 -1.5799  0.3068
  218MPD1    H1 3315   4.036   2.175  13.421 -1.1410  0.5163  0.5934
  218MPD1    H2 3316   3.899   2.467  13.154 -1.0253  0.6715  1.6656
  218MPD1    H3 3317   4.052   2.392  13.313 -2.3742  1.8281  0.9237
  218MPD1     N 3318   3.912   1.960  13.301 -0.2176 -0.2428  0.0120
  218MPD1    H5 3319   3.864   1.895  13.240  0.2840 -1.3575  0.7934
  218MPD1    N1 3320   3.722   2.311  13.032  0.2886  0.6085 -0.5023
  218MPD1    H6 3321   3.642   2.254  13.007 -0.6240  0.8192  1.9878
  218MPD1    H7 3322   3.712   2.412  13.035  1.7447  0.8115 -2.2653
  219MPD1     C 3323   3.799   1.024  12.980 -0.9951  0.4575  0.1318
  219MPD1    C1 3324   3.921   1.003  13.039  0.3089 -0.7213  0.0656
  219MPD1    C2 3325   3.982   1.112  13.110  0.1251  0.4549  0.4965
  219MPD1    C3 3326   3.906   1.227  13.133 -0.0382 -0.0008  0.4921
  219MPD1    C4 3327   3.775   1.231  13.091 -0.1656 -0.1091 -0.4489
  219MPD1    C5 3328   3.721   1.125  13.026 -0.3045 -0.4845  0.5709
  219MPD1     H 3329   4.083   1.099  13.146 -0.7402 -1.0310  2.4640
  219MPD1    H1 3330   3.704   1.311  13.110  1.5417  1.5202 -0.8344
  219MPD1    H2 3331   3.761   0.940  12.923 -0.0203 -0.8195  1.3714
  219MPD1    H3 3332   3.620   1.134  12.990  0.0950  2.8709  0.2313
  219MPD1     N 3333   3.965   1.328  13.209 -0.0858  0.3586 -0.5275
  219MPD1    H5 3334   4.053   1.298  13.249  1.3740 -1.4898 -5.1548
  219MPD1    N1 3335   4.006   0.892  12.995 -0.3863 -0.1574 -0.1494
  219MPD1    H6 3336   3.958   0.813  12.952 -0.7397  0.4093 -0.7888
  219MPD1    H7 3337   4.077   0.853  13.057 -0.6608 -0.0639  0.2260
  220MPD1     C 3338   4.713   2.505   9.546 -0.0717 -0.1032  0.3248
  220MPD1    C1 3339   4.691   2.374   9.566 -0.0385  0.8640  0.6630
  220MPD1    C2 3340   4.692   2.315   9.690  0.5457  0.2073 -0.2753
  220MPD1    C3 3341   4.706   2.399   9.801 -0.7877 -0.4776  0.0094
  220MPD1    C4 3342   4.705   2.536   9.781  0.9123 -1.3231 -0.6405
  220MPD1    C5 3343   4.705   2.587   9.655 -0.2011  0.1679  0.3086
  220MPD1     H 3344   4.686   2.207   9.694 -0.9366  0.3083  0.3242
  220MPD1    H1 3345   4.708   2.611   9.860 -0.9363 -0.2148 -1.6302
  220MPD1    H2 3346   4.715   2.549   9.447 -3.2753 -0.3700  0.1237
  220MPD1    H3 3347   4.717   2.694   9.646  2.0478  0.0405  1.8785
  220MPD1     N 3348   4.718   2.347   9.932  0.5394  0.1867 -0.4738
  220MPD1    H5 3349   4.701   2.247   9.927 -1.3134  0.6214 -2.6794
  220MPD1    N1 3350   4.691   2.292   9.452  0.4356 -0.0791 -0.0885
  220MPD1    H6 3351   4.644   2.203   9.470  1.1146 -0.4553 -0.1678
  220MPD1    H7 3352   4.654   2.327   9.364  0.6247  1.1475  0.3132
  221MPD1     C 3353   1.110   1.328  17.414 -0.0750 -0.1729 -0.0655
  221MPD1    C1 3354   1.073   1.287  17.287  0.5102  0.1105  0.7440
  221MPD1    C2 3355   1.162   1.227  17.202 -0.2147 -0.4018  0.4053
  221MPD1    C3 3356   1.294   1.223  17.242 -0.1813  0.2755  0.4011
  221MPD1    C4 3357   1.329   1.268  17.370 -0.3896  0.0787  0.0042
  221MPD1    C5 3358   1.238   1.313  17.458 -0.4913 -0.7416 -0.0894
  221MPD1     H 3359   1.128   1.191  17.105  0.0713 -4.1119  1.7024
  221MPD1    H1 3360   1.433   1.273  17.402 -0.2952 -3.4371  0.2639
  221MPD1    H2 3361   1.030   1.366  17.477  2.0997  3.3954  0.5845
  221MPD1    H3 3362   1.272   1.356  17.552 -0.7086  0.9641 -0.7866
  221MPD1     N 3363   1.400   1.171  17.171  0.0411 -0.2209  0.6679
  221MPD1    H5 3364   1.488   1.172  17.221  1.4954  0.8836 -1.8520
  221MPD1    N1 3365   0.939   1.281  17.251 -0.0211 -0.1179 -0.1954
  221MPD1    H6 3366   0.928   1.257  17.153 -0.5819  0.7011 -0.3290
  221MPD1    H7 3367   0.889   1.366  17.276 -3.6948 -1.9300 -1.5265
  222MPD1     C 3368   2.029   0.301  17.365  0.5721 -0.7091  0.7988
  222MPD1    C1 3369   1.897   0.319  17.345 -0.2386 -0.3014 -0.4583
  222MPD1    C2 3370   1.814   0.373  17.446 -0.2935  0.0811  0.2587
  222MPD1    C3 3371   1.864   0.375  17.575 -0.6989 -0.2717  0.0263
  222MPD1    C4 3372   2.000   0.340  17.603 -0.1755  0.0041 -0.5939
  222MPD1    C5 3373   2.083   0.305  17.496  0.1922 -0.1257 -0.0543
  222MPD1     H 3374   1.714   0.411  17.430 -1.0421 -0.9639  2.4478
  222MPD1    H1 3375   2.044   0.328   0.008 -0.8260 -1.2310 -0.4528
  222MPD1    H2 3376   2.089   0.266  17.282  2.8906  1.0981  1.6979
  222MPD1    H3 3377   2.185   0.281  17.525  0.9559  0.9821 -1.8358
  222MPD1     N 3378   1.790   0.423  17.687 -0.0495 -0.2654  0.6740
  222MPD1    H5 3379   1.841   0.451   0.076 -0.7289  2.6915  0.1263
  222MPD1    N1 3380   1.842   0.299  17.218  0.0612  0.8680  0.1348
  222MPD1    H6 3381   1.895   0.229  17.168 -0.3780  0.7279 -0.1314
  222MPD1    H7 3382   1.742   0.280  17.210  0.7277 -1.9703 -1.1709
  223MPD1     C 3383   1.933   0.418   0.941 -0.0052  0.3446 -0.1308
  223MPD1    C1 3384   1.794   0.442   0.931  0.0147 -0.2817  0.8181
  223MPD1    C2 3385   1.732   0.456   0.805  0.3245  0.4898 -0.1407
  223MPD1    C3 3386   1.810   0.451   0.691 -0.0337  0.9219 -0.1731
  223MPD1    C4 3387   1.951   0.431   0.705 -0.4875  0.0955  0.4905
  223MPD1    C5 3388   2.012   0.406   0.826  0.1304  0.2702  0.4547
  223MPD1     H 3389   1.627   0.482   0.797  0.3547  0.6478 -0.0065
  223MPD1    H1 3390   2.013   0.401   0.621 -0.2073  1.7344  0.1093
  223MPD1    H2 3391   1.972   0.407   1.041 -0.3751  1.2239  0.1147
  223MPD1    H3 3392   2.114   0.371   0.829  1.0330  2.7574 -0.7206
  223MPD1     N 3393   1.744   0.473   0.572 -0.8337 -0.7082  0.0337
  223MPD1    H5 3394   1.644   0.482   0.580 -0.7292  0.8653 -0.4334
  223MPD1    N1 3395   1.716   0.451   1.050 -0.0800 -0.0325  0.3148
  223MPD1    H6 3396   1.747   0.397   1.131 -0.5713 -1.1662 -0.2593
  223MPD1    H7 3397   1.617   0.444   1.031  0.2684  1.2034 -1.9020
  224MPD1     C 3398   1.625   1.807   9.251  0.0877 -0.0811  0.4253
  224MPD1    C1 3399   1.743   1.874   9.204 -0.0863 -0.8819 -0.1862
  224MPD1    C2 3400   1.817   1.946   9.288  0.2310  0.2539  0.1921
  224MPD1    C3 3401   1.763   1.975   9.418 -0.5453 -0.7566 -1.1602
  224MPD1    C4 3402   1.633   1.941   9.446 -0.3332  0.0312  0.6795
  224MPD1    C5 3403   1.568   1.851   9.366  0.1956  0.6923  0.2023
  224MPD1     H 3404   1.914   1.984   9.261  1.0996  0.0891  3.0744
  224MPD1    H1 3405   1.588   1.987   9.534  0.9115  1.3109  0.6458
  224MPD1    H2 3406   1.565   1.738   9.193 -0.0673 -0.7201  1.3500
  224MPD1    H3 3407   1.471   1.813   9.396  0.2850  2.1103  2.2232
  224MPD1     N 3408   1.828   2.053   9.520 -0.2328  0.5565 -0.0796
  224MPD1    H5 3409   1.771   2.073   9.602  0.4318  0.2590  0.4491
  224MPD1    N1 3410   1.795   1.831   9.080 -0.8214  0.1933  0.8058
  224MPD1    H6 3411   1.858   1.900   9.040 -1.3130  0.1865  0.0039
  224MPD1    H7 3412   1.720   1.809   9.014  0.7758  0.7436 -1.2002
  225MPD1     C 3413   3.888   3.439  12.808 -0.0864 -0.5439  0.1957
  225MPD1    C1 3414   3.872   3.310  12.843  0.3362  0.3462  1.5479
  225MPD1    C2 3415   3.774   3.236  12.779 -0.2117  0.2494  0.0582
  225MPD1    C3 3416   3.691   3.286  12.678  0.5100  0.1647 -0.2177
  225MPD1    C4 3417   3.710   3.423  12.649 -0.8948 -0.0243  0.3073
  225MPD1    C5 3418   3.809   3.496  12.705 -0.2316  0.3525 -0.5039
  225MPD1     H 3419   3.741   3.139  12.814  0.7519 -0.2690 -0.4800
  225MPD1    H1 3420   3.643   3.474  12.581  0.0196  1.5078  0.5557
  225MPD1    H2 3421   3.954   3.510  12.856 -1.4247  0.7418  0.1242
  225MPD1    H3 3422   3.824   3.597  12.667  0.2846 -0.0490 -1.3549
  225MPD1     N 3423   3.580   3.222  12.620  0.4986 -0.0149 -0.0080
  225MPD1    H5 3424   3.529   3.280  12.554  0.2518  2.5939  2.4485
  225MPD1    N1 3425   3.936   3.262  12.962  0.0515  0.1973 -0.4547
  225MPD1    H6 3426   4.029   3.303  12.969 -0.3154  0.3278  3.3224
  225MPD1    H7 3427   3.945   3.161  12.958  0.3060  0.2077 -0.0220
  226MPD1     C 3428   1.970   2.390   9.275  0.7117  0.5236  0.8647
  226MPD1    C1 3429   2.094   2.433   9.319 -0.0732 -0.8211  0.2489
  226MPD1    C2 3430   2.113   2.566   9.347  1.4353 -0.7944  0.5874
  226MPD1    C3 3431   2.007   2.659   9.359 -0.4191 -0.1504 -0.1928
  226MPD1    C4 3432   1.883   2.613   9.329  0.1043 -0.1582 -0.1664
  226MPD1    C5 3433   1.863   2.482   9.278  0.1693 -0.1582  0.4563
  226MPD1     H 3434   2.211   2.593   9.383  1.3492 -1.1622  1.0987
  226MPD1    H1 3435   1.798   2.680   9.340  1.2379  1.5397 -1.8388
  226MPD1    H2 3436   1.958   2.288   9.240  0.5013  0.7829  0.1728
  226MPD1    H3 3437   1.764   2.446   9.250  1.0437  0.0143 -2.8198
  226MPD1     N 3438   2.042   2.792   9.401  0.0342  0.3564  1.0109
  226MPD1    H5 3439   2.142   2.808   9.408 -0.1183  1.9602 -0.5115
  226MPD1    N1 3440   2.208   2.352   9.304  0.1629 -0.1993  0.3759
  226MPD1    H6 3441   2.276   2.368   9.378  0.5472 -2.0323  0.4185
  226MPD1    H7 3442   2.182   2.254   9.311 -2.2068  0.2685 -1.7332
  227MPD1     C 3443   1.790   3.682   9.098  0.3095  0.4452 -0.0097
  227MPD1    C1 3444   1.702   3.568   9.101  0.2757 -0.1922  0.9761
  227MPD1    C2 3445   1.726   3.472   9.195  0.0177  0.7937 -0.8059
  227MPD1    C3 3446   1.836   3.477   9.281 -0.3708  0.2334 -0.0162
  227MPD1    C4 3447   1.911   3.587   9.279 -0.5123 -0.6575  0.2750
  227MPD1    C5 3448   1.889   3.696   9.190 -0.3918  0.3915  0.1300
  227MPD1     H 3449   1.658   3.387   9.198 -0.7593  1.4773  0.4207
  227MPD1    H1 3450   1.985   3.606   9.356 -0.7127 -0.4909  0.4251
  227MPD1    H2 3451   1.767   3.758   9.024 -3.3614 -0.3784  0.2901
  227MPD1    H3 3452   1.952   3.784   9.189  1.6860 -1.0973  1.9729
  227MPD1     N 3453   1.865   3.366   9.364 -0.4400  0.3232 -0.8960
  227MPD1    H5 3454   1.812   3.279   9.355  0.3382 -0.3004  0.5719
  227MPD1    N1 3455   1.614   3.538   8.995 -0.4515  0.0531  0.2685
  227MPD1    H6 3456   1.566   3.617   8.951 -1.4274 -0.1501  0.9572
  227MPD1    H7 3457   1.542   3.470   9.018  0.7144 -1.6687 -1.2408
  228MPD1     C 3458   0.815   0.802  13.541  0.3772  0.5359 -0.1689
  228MPD1    C1 3459   0.683   0.791  13.494  0.4505 -0.1223  0.2355
  228MPD1    C2 3460   0.587   0.714  13.555 -0.4374  0.0684 -0.1369
  228MPD1    C3 3461   0.623   0.637  13.666  0.1931 -0.4624  0.8843
  228MPD1    C4 3462   0.758   0.634  13.703  0.1317 -1.0293 -0.0490
  228MPD1    C5 3463   0.844   0.725  13.645 -0.3569  0.2563 -0.1628
  228MPD1     H 3464   0.487   0.697  13.517  0.0887  0.1861 -1.5836
  228MPD1    H1 3465   0.802   0.572  13.780  1.5925 -0.3321 -0.3091
  228MPD1    H2 3466   0.896   0.856  13.494  0.9023 -0.2250 -0.1278
  228MPD1    H3 3467   0.949   0.728  13.671 -0.3460 -0.7516 -0.0778
  228MPD1     N 3468   0.522   0.536  13.699  0.4180 -0.2655 -0.5116
  228MPD1    H5 3469   0.441   0.536  13.638  0.2092 -1.0869 -0.2299
  228MPD1    N1 3470   0.656   0.859  13.378  0.1572 -0.2235 -0.0135
  228MPD1    H6 3471   0.555   0.859  13.368  0.3172 -2.3400 -1.7733
  228MPD1    H7 3472   0.698   0.810  13.299 -0.3466  1.0773 -1.0829
  229MPD1     C 3473   0.192   3.456  14.977  0.1872 -0.6427 -0.0325
  229MPD1    C1 3474   0.219   3.373  15.091  0.3897 -0.1573 -0.2503
  229MPD1    C2 3475   0.344   3.373  15.146  0.7681 -0.1653  0.3110
  229MPD1    C3 3476   0.443   3.453  15.096 -0.3423  0.3376  0.1232
  229MPD1    C4 3477   0.418   3.539  14.992 -0.3679  0.3109 -0.0327
  229MPD1    C5 3478   0.293   3.543  14.931  0.1201  0.5620 -0.3162
  229MPD1     H 3479   0.363   3.320  15.239  0.1099  1.2802  1.2774
  229MPD1    H1 3480   0.499   3.604  14.964  0.2731 -0.0341  1.0204
  229MPD1    H2 3481   0.091   3.465  14.939  0.3193 -2.1263 -0.7359
  229MPD1    H3 3482   0.265   3.615  14.855 -0.1304  0.9861  0.1793
  229MPD1     N 3483   0.573   3.450  15.153 -0.6137 -0.4690 -0.3705
  229MPD1    H5 3484   0.656   3.481  15.103  0.4812 -0.1671  1.6285
  229MPD1    N1 3485   0.109   3.316  15.155 -0.0744  0.5113 -0.5293
  229MPD1    H6 3486   0.043   3.280  15.086 -2.0630  0.4009  1.4305
  229MPD1    H7 3487   0.142   3.245  15.220  1.7399  2.3181  0.5385
  230MPD1     C 3488   0.949   3.724  16.063  0.0865  0.6249  0.4194
  230MPD1    C1 3489   0.856   3.780  15.980 -0.6371  0.0286  0.2223
  230MPD1    C2 3490   0.844   3.723  15.850 -0.0975  0.2556  0.6943
  230MPD1    C3 3491   0.915   3.611  15.807  0.0017 -0.3801 -0.5569
  230MPD1    C4 3492   1.005   3.555  15.901 -0.9133  0.1396  0.5936
  230MPD1    C5 3493   1.020   3.619  16.022 -0.3164  0.4147  0.4858
  230MPD1     H 3494   0.781   3.771  15.776  0.4317  2.0399  1.4117
  230MPD1    H1 3495   1.076   3.478  15.875 -0.7738  0.6002 -0.4111
  230MPD1    H2 3496   0.982   3.775  16.153 -2.7451  1.7390  0.8439
  230MPD1    H3 3497   1.097   3.578  16.086 -1.1410  0.3268  1.4144
  230MPD1     N 3498   0.901   3.567  15.672 -0.3980  0.6770 -0.6743
  230MPD1    H5 3499   0.818   3.599  15.624  0.7474  4.3968 -0.1380
  230MPD1    N1 3500   0.791   3.899  16.013 -0.2394  0.5414 -0.1495
  230MPD1    H6 3501   0.703   3.910  15.963 -0.6767  0.4544  0.6078
  230MPD1    H7 3502   0.773   3.905  16.113 -0.4638 -0.2893 -0.1379
  231MPD1     C 3503   3.292   0.486  15.757  0.3609 -0.1467  0.1489
  231MPD1    C1 3504   3.249   0.502  15.629 -0.7915 -0.5129 -0.2833
  231MPD1    C2 3505   3.327   0.568  15.534  0.2770  0.5692  0.3587
  231MPD1    C3 3506   3.438   0.637  15.572 -0.1108  0.0835  0.4690
  231MPD1    C4 3507   3.482   0.627  15.704 -0.0353  0.2179  0.7628
  231MPD1    C5 3508   3.410   0.545  15.789 -1.2860 -0.4713  0.2390
  231MPD1     H 3509   3.294   0.568  15.431  2.0859  0.3072 -0.2048
  231MPD1    H1 3510   3.577   0.665  15.739  0.0316 -0.3207  1.1700
  231MPD1    H2 3511   3.243   0.424  15.831  1.6868  0.4057  1.4971
  231MPD1    H3 3512   3.459   0.521  15.882 -0.4638 -0.0773 -0.0917
  231MPD1     N 3513   3.502   0.707  15.468 -0.3931 -0.3126 -0.4836
  231MPD1    H5 3514   3.466   0.690  15.375  0.0225  1.6657 -1.0233
  231MPD1    N1 3515   3.122   0.449  15.599  0.3967  0.2080 -1.2256
  231MPD1    H6 3516   3.076   0.502  15.525 -0.3988  1.3422  0.0685
  231MPD1    H7 3517   3.065   0.455  15.683 -1.3629 -1.2202 -2.3115
  232MPD1     C 3518   1.147   3.854   0.100  0.2536  0.0646  0.1472
  232MPD1    C1 3519   1.212   3.855   0.218 -1.0007 -0.2871 -0.5445
  232MPD1    C2 3520   1.182   3.753   0.313  0.3976  0.5418  0.0954
  232MPD1    C3 3521   1.112   3.638   0.278  0.6977  0.1254  0.0011
  232MPD1    C4 3522   1.055   3.637   0.156  0.6131  0.2125 -0.7939
  232MPD1    C5 3523   1.077   3.738   0.067  0.1838  1.2343 -0.2655
  232MPD1     H 3524   1.211   3.762   0.417 -1.6258 -0.3263  0.7329
  232MPD1    H1 3525   1.005   3.552   0.111  0.8500 -0.4938  0.2881
  232MPD1    H2 3526   1.175   3.922   0.020 -2.7953 -0.1397 -1.0877
  232MPD1    H3 3527   1.032   3.732  17.662 -1.7203 -0.5122  0.7215
  232MPD1     N 3528   1.068   3.544   0.376 -0.3354  0.2534 -1.3430
  232MPD1    H5 3529   1.101   3.555   0.471 -0.8953  0.3542 -1.1612
  232MPD1    N1 3530   1.271   3.972   0.258 -0.5997  0.1622  0.6964
  232MPD1    H6 3531   1.320   4.017   0.181  0.2691  0.8458  1.6701
  232MPD1    H7 3532   1.332   3.966   0.339  1.9511 -2.6727 -1.4083
  233MPD1     C 3533   1.597   2.555   1.361 -0.2730  0.5588  0.1121
  233MPD1    C1 3534   1.720   2.560   1.302 -0.1523 -0.3192  0.1099
  233MPD1    C2 3535   1.795   2.441   1.289 -0.3875  0.3014  1.1269
  233MPD1    C3 3536   1.739   2.323   1.339 -0.2385  0.4133 -0.6829
  233MPD1    C4 3537   1.618   2.335   1.412  0.3311 -0.1368 -0.3817
  233MPD1    C5 3538   1.550   2.445   1.429 -0.7262 -0.1855  0.4124
  233MPD1     H 3539   1.893   2.435   1.244 -1.8417 -1.4622 -1.7796
  233MPD1    H1 3540   1.566   2.252   1.457 -0.2376 -0.2274 -1.1935
  233MPD1    H2 3541   1.536   2.643   1.374 -0.1906  0.7378 -0.6739
  233MPD1    H3 3542   1.452   2.440   1.475 -1.0485 -0.9764 -0.3682
  233MPD1     N 3543   1.810   2.200   1.343 -0.4674  0.0458  0.3103
  233MPD1    H5 3544   1.771   2.125   1.398 -1.6103 -0.2841 -0.9354
  233MPD1    N1 3545   1.759   2.671   1.233 -0.1101 -0.5880  0.5014
  233MPD1    H6 3546   1.859   2.691   1.241 -0.1744 -0.5268  1.1476
  233MPD1    H7 3547   1.705   2.752   1.264 -0.5683 -1.7158  2.7042
  234MPD1     C 3548   3.663   1.520   9.593 -0.3872  0.1152  0.3056
  234MPD1    C1 3549   3.580   1.422   9.629 -0.0399  0.2765  0.4641
  234MPD1    C2 3550   3.456   1.465   9.679 -0.2827  0.2816 -0.3165
  234MPD1    C3 3551   3.431   1.595   9.711 -0.9407 -0.4975 -0.3417
  234MPD1    C4 3552   3.525   1.687   9.681  0.1972  0.0849  0.5838
  234MPD1    C5 3553   3.640   1.651   9.623 -0.7916  0.0365 -0.0123
  234MPD1     H 3554   3.379   1.392   9.700 -0.2569  1.1056  2.6738
  234MPD1    H1 3555   3.508   1.792   9.699  2.4696  0.7302 -1.0537
  234MPD1    H2 3556   3.756   1.492   9.544 -1.3967  1.0189 -2.1088
  234MPD1    H3 3557   3.721   1.720   9.602 -0.0623 -0.0155  2.6478
  234MPD1     N 3558   3.311   1.627   9.774 -1.0434 -0.2715 -0.2692
  234MPD1    H5 3559   3.262   1.542   9.799  2.0495 -2.1053 -0.4586
  234MPD1    N1 3560   3.619   1.283   9.618 -0.9747  0.5010  0.4608
  234MPD1    H6 3561   3.719   1.266   9.607 -1.3746 -0.7006 -1.3354
  234MPD1    H7 3562   3.578   1.234   9.697  1.1268 -0.4531  0.9325
  235MPD1     C 3563   4.422   2.646   9.360 -0.4864  0.2700  0.2075
  235MPD1    C1 3564   4.549   2.671   9.303 -0.0581 -0.5765  0.1251
  235MPD1    C2 3565   4.614   2.789   9.325 -0.7436  0.3120  0.0853
  235MPD1    C3 3566   4.558   2.883   9.419 -0.5792  0.0596  0.3016
  235MPD1    C4 3567   4.433   2.854   9.471 -0.1357 -0.1044  0.5698
  235MPD1    C5 3568   4.368   2.741   9.437 -0.0082  0.3210 -0.2125
  235MPD1     H 3569   4.710   2.800   9.276 -0.0815  1.7726  1.7086
  235MPD1    H1 3570   4.386   2.917   9.545  0.5891 -1.9518  2.5998
  235MPD1    H2 3571   4.370   2.552   9.342  0.9782 -0.6484  0.7709
  235MPD1    H3 3572   4.279   2.717   9.494  0.9506 -3.7537 -0.4335
  235MPD1     N 3573   4.640   2.991   9.461 -0.4794 -0.6782 -0.5449
  235MPD1    H5 3574   0.009   3.001   9.420  0.6530  1.1830  2.4975
  235MPD1    N1 3575   4.587   2.586   9.198 -0.3138 -0.3884  0.5791
  235MPD1    H6 3576   4.687   2.575   9.179 -0.3039  2.5100 -0.9448
  235MPD1    H7 3577   4.553   2.490   9.202 -2.7272  0.4268 -0.5965
  236MPD1     C 3578   4.317   0.108  10.478  0.1868  0.1892 -0.6432
  236MPD1    C1 3579   4.221   0.010  10.460  0.6769 -0.7472 -0.7383
  236MPD1    C2 3580   4.261   4.602  10.459  0.3572  0.3457 -0.1328
  236MPD1    C3 3581   4.390   4.561  10.483  0.3753 -0.7815  0.5565
  236MPD1    C4 3582   4.490   4.656  10.496 -0.0242 -0.4765 -0.6255
  236MPD1    C5 3583   4.454   0.068  10.491 -0.3917 -0.6818 -0.0867
  236MPD1     H 3584   4.183   4.528  10.447 -0.1507  1.2817 -2.5479
  236MPD1    H1 3585   4.589   4.618  10.520  0.2391  1.3030  1.0857
  236MPD1    H2 3586   4.297   0.213  10.498 -1.6786  0.3470 -3.3867
  236MPD1    H3 3587   4.529   0.144  10.509 -1.4499  0.4567 -0.4482
  236MPD1     N 3588   4.429   4.427  10.482  0.3761  0.1182 -0.0070
  236MPD1    H5 3589   4.528   4.402  10.486  0.3916  0.3855  1.4093
  236MPD1    N1 3590   4.088   0.052  10.469 -0.4051  0.0451  0.1251
  236MPD1    H6 3591   4.028   4.714  10.414 -0.6881  0.6188 -0.1995
  236MPD1    H7 3592   4.079   0.147  10.434 -2.6244 -0.2689 -0.1861
  237MPD1     C 3593   3.302   3.098  15.549  0.7985  0.3843  0.3689
  237MPD1    C1 3594   3.382   2.992  15.578 -0.4570  0.8297  0.1832
  237MPD1    C2 3595   3.337   2.860  15.576 -0.1074  0.3662  0.2120
  237MPD1    C3 3596   3.209   2.831  15.527  0.0296 -0.2417 -0.0472
  237MPD1    C4 3597   3.127   2.938  15.497 -0.5153 -0.1078 -0.5962
  237MPD1    C5 3598   3.170   3.067  15.523 -0.3798  0.0957  0.0014
  237MPD1     H 3599   3.408   2.788  15.614  0.1519  0.8082  0.5634
  237MPD1    H1 3600   3.027   2.930  15.455 -1.2716  0.3878  1.1034
  237MPD1    H2 3601   3.335   3.200  15.535 -0.2524  0.6407 -0.2896
  237MPD1    H3 3602   3.090   3.137  15.503 -0.0749  0.4488  0.0289
  237MPD1     N 3603   3.165   2.700  15.498 -0.2986 -0.1898 -0.2418
  237MPD1    H5 3604   3.070   2.699  15.462 -0.3056 -3.0015 -0.1384
  237MPD1    N1 3605   3.508   3.022  15.627  0.2196 -0.2013  0.3837
  237MPD1    H6 3606   3.565   2.940  15.608  0.1845 -0.6907  2.4600
  237MPD1    H7 3607   3.556   3.107  15.597  0.8232  0.3505  2.8804
  238MPD1     C 3608   0.967   0.656  15.787 -0.4557  0.3582  0.5325
  238MPD1    C1 3609   1.027   0.743  15.692  0.3564 -0.2016  0.3455
  238MPD1    C2 3610   0.940   0.843  15.651 -0.6834 -0.3888 -0.2061
  238MPD1    C3 3611   0.827   0.883  15.717 -0.0695  0.5122  0.3197
  238MPD1    C4 3612   0.781   0.804  15.824  0.9595  0.3220 -0.5860
  238MPD1    C5 3613   0.840   0.683  15.834  0.7351 -1.1147  0.0504
  238MPD1     H 3614   0.955   0.885  15.553 -1.6253  3.8567  1.4854
  238MPD1    H1 3615   0.685   0.818  15.873  0.5165 -0.6083 -1.1914
  238MPD1    H2 3616   1.012   0.563  15.821 -1.6430  0.2878  1.8922
  238MPD1    H3 3617   0.785   0.619  15.903  1.3951  0.3208  1.9023
  238MPD1     N 3618   0.749   0.992  15.684 -0.2369 -0.1277 -0.5001
  238MPD1    H5 3619   0.673   1.021  15.745  1.4912 -1.1618  2.1486
  238MPD1    N1 3620   1.146   0.700  15.621  0.2666  0.0042 -0.2432
  238MPD1    H6 3621   1.205   0.778  15.593 -3.7923  3.2535  0.1916
  238MPD1    H7 3622   1.213   0.637  15.664  0.8443  0.6544 -0.1808
  239MPD1     C 3623   1.160   1.996  15.309 -0.1005 -0.8549  0.5078
  239MPD1    C1 3624   1.239   2.073  15.225 -0.2215  0.0638  0.4540
  239MPD1    C2 3625   1.196   2.101  15.092 -0.4242  0.4715 -0.1890
  239MPD1    C3 3626   1.078   2.034  15.048  0.3262 -0.2011 -0.1054
  239MPD1    C4 3627   1.011   1.956  15.135 -0.5093  0.2051 -0.4672
  239MPD1    C5 3628   1.044   1.935  15.265 -0.0358  0.0659  0.1682
  239MPD1     H 3629   1.243   2.171  15.024 -0.3120  1.7819  1.2311
  239MPD1    H1 3630   0.919   1.910  15.100  0.0413 -1.1233 -0.1574
  239MPD1    H2 3631   1.198   1.976  15.409  0.3820 -1.1052  0.2732
  239MPD1    H3 3632   0.975   1.871  15.319  0.8863 -0.4693  0.7129
  239MPD1     N 3633   1.023   2.053  14.920 -0.3818 -0.1689 -0.3179
  239MPD1    H5 3634   0.926   2.026  14.904 -0.7998  0.5438  1.0002
  239MPD1    N1 3635   1.337   2.148  15.290  0.1795 -0.1638 -0.3221
  239MPD1    H6 3636   1.410   2.187  15.231 -1.1302 -0.1271 -1.9165
  239MPD1    H7 3637   1.383   2.090  15.360 -0.1831 -2.0927 -1.6768
  240MPD1     C 3638   0.238   1.384  14.216  0.6733 -0.9442 -0.0534
  240MPD1    C1 3639   0.137   1.297  14.243 -0.0204  0.3212 -0.0568
  240MPD1    C2 3640   0.074   1.302  14.370  0.8610 -0.2337 -0.1423
  240MPD1    C3 3641   0.130   1.386  14.468 -1.0910  0.0041 -0.1050
  240MPD1    C4 3642   0.229   1.475  14.434  0.7171  0.7540  0.6233
  240MPD1    C5 3643   0.275   1.482  14.305 -0.4309 -0.0378 -1.1068
  240MPD1     H 3644   4.723   1.229  14.399 -1.4985  3.1639  2.3589
  240MPD1    H1 3645   0.272   1.539  14.510  1.2096  1.5126 -0.2820
  240MPD1    H2 3646   0.285   1.380  14.118  1.0805  0.8144  0.0750
  240MPD1    H3 3647   0.355   1.548  14.274 -0.2604 -0.1712 -0.9491
  240MPD1     N 3648   0.082   1.364  14.600  0.4303  0.2812 -0.3237
  240MPD1    H5 3649   0.007   1.296  14.604  1.0553 -0.3706  0.2292
  240MPD1    N1 3650   0.117   1.188  14.160 -0.3311  0.6269 -0.1691
  240MPD1    H6 3651   0.029   1.142  14.182 -0.8106  1.4454 -0.4164
  240MPD1    H7 3652   0.128   1.203  14.060 -2.6242  1.0387 -0.3619
  241MPD1     C 3653   0.419   1.622  15.503  0.4301 -0.6260 -0.2921
  241MPD1    C1 3654   0.321   1.528  15.537 -0.3196 -0.0712 -0.6960
  241MPD1    C2 3655   0.260   1.472  15.427 -0.1458  0.3512  0.2212
  241MPD1    C3 3656   0.286   1.505  15.294  0.5822 -0.4071 -0.1632
  241MPD1    C4 3657   0.378   1.603  15.271 -0.3198 -0.7608 -0.0108
  241MPD1    C5 3658   0.449   1.650  15.376  0.0763 -0.2213 -0.2590
  241MPD1     H 3659   0.181   1.402  15.451 -1.6713  1.4285 -1.6891
  241MPD1    H1 3660   0.397   1.641  15.171 -0.2317  0.5416  0.5037
  241MPD1    H2 3661   0.474   1.676  15.579  2.5698 -0.3815 -2.0164
  241MPD1    H3 3662   0.523   1.728  15.360  0.6824 -1.1868 -2.1117
  241MPD1     N 3663   0.213   1.447  15.180  0.3718 -0.5839  0.1503
  241MPD1    H5 3664   0.232   1.482  15.086  1.7120 -1.1748  0.1947
  241MPD1    N1 3665   0.283   1.501  15.672 -0.6295 -0.0921 -0.3578
  241MPD1    H6 3666   0.363   1.495  15.734  0.0864 -1.2967 -1.3941
  241MPD1    H7 3667   0.230   1.414  15.675  0.5233 -0.6925  2.2119
  242MPD1     C 3668   0.271   0.374  15.652 -0.2124  0.3317  0.5891
  242MPD1    C1 3669   0.192   0.277  15.712  0.6869  0.5033 -0.3854
  242MPD1    C2 3670   0.165   0.158  15.645  0.3295  0.2367 -0.2487
  242MPD1    C3 3671   0.223   0.134  15.519  0.5323 -0.0511  0.5047
  242MPD1    C4 3672   0.313   0.226  15.466 -0.5116 -0.4868 -0.2749
  242MPD1    C5 3673   0.323   0.345  15.528  0.0052 -0.5970 -0.3243
  242MPD1     H 3674   0.105   0.078  15.688  0.0485  1.3817  1.4718
  242MPD1    H1 3675   0.353   0.203  15.368  0.8697  3.8385 -0.6962
  242MPD1    H2 3676   0.288   0.463  15.712  2.5842  0.4633 -0.4255
  242MPD1    H3 3677   0.391   0.410  15.474  3.1246 -1.8543  2.1033
  242MPD1     N 3678   0.201   0.020  15.438 -0.3676 -0.7533 -0.2638
  242MPD1    H5 3679   0.268   0.008  15.363  1.0701  0.9537  0.7610
  242MPD1    N1 3680   0.145   0.286  15.846  0.1889  0.8633 -0.3586
  242MPD1    H6 3681   0.127   0.381  15.878  0.3476  1.2549 -1.4272
  242MPD1    H7 3682   0.062   0.227  15.858  0.2886  1.5356  3.4106
  243MPD1     C 3683   3.013   2.498  16.289  0.7188 -0.5466 -0.0323
  243MPD1    C1 3684   2.896   2.488  16.211 -0.0007 -0.1869  0.0379
  243MPD1    C2 3685   2.784   2.551  16.258 -0.0406  0.5718  0.2473
  243MPD1    C3 3686   2.781   2.626  16.374  0.2332 -0.5842  0.5392
  243MPD1    C4 3687   2.898   2.628  16.451 -0.2084  0.8498 -0.0912
  243MPD1    C5 3688   3.010   2.564  16.409 -0.3333 -0.4924 -1.2518
  243MPD1     H 3689   2.701   2.546  16.188  0.6622  5.2988 -0.9197
  243MPD1    H1 3690   2.912   2.687  16.542 -0.9385 -0.7778  1.0811
  243MPD1    H2 3691   3.109   2.457  16.257  0.9706 -0.2149  0.2953
  243MPD1    H3 3692   3.099   2.558  16.470 -1.2009  0.5381  0.0937
  243MPD1     N 3693   2.666   2.695  16.420 -0.5783 -0.0615  0.1806
  243MPD1    H5 3694   2.590   2.697  16.353  0.2148  2.7406 -0.6270
  243MPD1    N1 3695   2.908   2.448  16.075 -0.8067 -0.8525  0.4939
  243MPD1    H6 3696   2.830   2.402  16.027 -0.5669 -1.0545  0.3023
  243MPD1    H7 3697   2.997   2.403  16.056  0.0837  0.5152  1.4998
  244MPD1     C 3698   2.457   3.273  17.252  0.0026 -0.2147  0.6833
  244MPD1    C1 3699   2.578   3.220  17.194  0.0833  0.4777  0.3330
  244MPD1    C2 3700   2.575   3.154  17.071 -0.0930 -0.2434  0.9209
  244MPD1    C3 3701   2.445   3.130  17.009  0.0282 -0.3325  0.1702
  244MPD1    C4 3702   2.336   3.184  17.076  0.2954 -0.0266 -0.4226
  244MPD1    C5 3703   2.336   3.254  17.198 -0.0849  0.3290  0.2014
  244MPD1     H 3704   2.656   3.101  17.021 -2.0309 -1.2507 -1.1311
  244MPD1    H1 3705   2.239   3.161  17.032  0.3672 -0.6538 -0.2517
  244MPD1    H2 3706   2.468   3.311  17.353 -1.1045  0.4708  0.5526
  244MPD1    H3 3707   2.243   3.286  17.242 -1.9035 -4.7917  0.0233
  244MPD1     N 3708   2.437   3.054  16.892  0.8267  0.0587  0.6518
  244MPD1    H5 3709   2.529   3.034  16.855  0.1443 -0.4226 -0.7629
  244MPD1    N1 3710   2.701   3.221  17.260 -0.3205 -0.0980 -0.2910
  244MPD1    H6 3711   2.778   3.238  17.196 -1.5383 -0.3471 -1.8304
  244MPD1    H7 3712   2.695   3.301  17.323 -3.1244 -0.4973 -0.0390
  245MPD1     C 3713   3.265   4.198  13.178 -0.3799 -0.4593  0.7298
  245MPD1    C1 3714   3.226   4.156  13.297 -0.0887 -0.0458 -0.5257
  245MPD1    C2 3715   3.257   4.237  13.412  0.4849  0.1165  0.3417
  245MPD1    C3 3716   3.339   4.341  13.405  0.2368  0.1911  0.0712
  245MPD1    C4 3717   3.386   4.375  13.286  0.0669 -0.1736 -0.0911
  245MPD1    C5 3718   3.343   4.307  13.171  0.8453 -0.2300  0.3950
  245MPD1     H 3719   3.220   4.226  13.513  2.1305 -1.1593  0.8149
  245MPD1    H1 3720   3.455   4.457  13.271  2.1462 -1.9956 -0.5220
  245MPD1    H2 3721   3.249   4.148  13.083 -2.4489  0.6164  0.5324
  245MPD1    H3 3722   3.384   4.338  13.076 -0.2154 -2.7529 -0.8656
  245MPD1     N 3723   3.366   4.415  13.525 -0.7828 -0.3445  0.0002
  245MPD1    H5 3724   3.309   4.394  13.606 -0.1927 -1.2378  0.1969
  245MPD1    N1 3725   3.119   4.063  13.305 -0.3962 -0.0937 -0.3647
  245MPD1    H6 3726   3.119   3.987  13.238 -0.1478  1.6981 -2.3719
  245MPD1    H7 3727   3.128   4.012  13.393  1.7684  1.7888  0.4990
  246MPD1     C 3728   0.920   0.156   9.447  0.0526 -0.7578 -0.8098
  246MPD1    C1 3729   0.794   0.105   9.449 -0.5695  0.0390  0.4909
  246MPD1    C2 3730   0.692   0.199   9.470  0.7093  0.4623 -0.1804
  246MPD1    C3 3731   0.713   0.334   9.462  0.3928  0.2931  0.1487
  246MPD1    C4 3732   0.835   0.386   9.438  0.0298  0.5336 -0.1486
  246MPD1    C5 3733   0.931   0.293   9.452  0.6656 -0.4508 -0.1614
  246MPD1     H 3734   0.587   0.178   9.491  0.6578  2.8693  2.0049
  246MPD1    H1 3735   0.873   0.487   9.449 -0.1379  0.7258 -1.3397
  246MPD1    H2 3736   1.012   0.100   9.462 -0.0771 -0.7732 -0.0559
  246MPD1    H3 3737   1.031   0.333   9.438  1.9723 -3.1785  1.4975
  246MPD1     N 3738   0.601   0.419   9.501  0.2189 -0.3185 -0.1313
  246MPD1    H5 3739   0.515   0.370   9.523 -0.6891  1.5089  0.2985
  246MPD1    N1 3740   0.762   4.697   9.480 -0.5241 -0.3826 -0.0829
  246MPD1    H6 3741   0.829   4.631   9.441 -0.7775  0.7176 -2.4111
  246MPD1    H7 3742   0.668   4.667   9.454 -0.8367  1.3764 -0.9353
  247MPD1     C 3743   3.333   4.640  17.168  0.5909  0.0892 -0.8866
  247MPD1    C1 3744   3.301   4.638  17.035  0.1500 -0.5219  0.2071
  247MPD1    C2 3745   3.275   4.516  16.978 -0.3434 -0.2903 -0.5650
  247MPD1    C3 3746   3.288   4.393  17.050  0.0721  0.3784  0.4026
  247MPD1    C4 3747   3.324   4.397  17.178 -0.6399  0.9212  0.0979
  247MPD1    C5 3748   3.351   4.519  17.233  0.4338 -0.2030 -1.0543
  247MPD1     H 3749   3.262   4.522  16.871 -0.7307 -0.0013 -0.5021
  247MPD1    H1 3750   3.340   4.308  17.239  1.3520  1.5215  0.4666
  247MPD1    H2 3751   3.342   0.010  17.224 -0.7143 -0.5099  0.3109
  247MPD1    H3 3752   3.390   4.529  17.333  0.0242 -0.1287 -0.9005
  247MPD1     N 3753   3.276   4.265  16.998  0.0421  0.0184  0.4658
  247MPD1    H5 3754   3.300   4.191  17.063  1.2940  1.0600  1.1821
  247MPD1    N1 3755   3.270   0.036  16.971 -0.6228  0.0712 -0.0274
  247MPD1    H6 3756   3.293   0.022  16.873 -0.2778  0.4125  0.0049
  247MPD1    H7 3757   3.325   0.111  17.011  1.8804 -1.2479 -0.9809
  248MPD1     C 3758   4.631   2.489   0.985 -0.2449  0.2154 -0.5660
  248MPD1    C1 3759   4.538   2.568   0.932  0.4772  1.2164  1.1160
  248MPD1    C2 3760   4.470   2.652   1.020  0.1622  0.0130  0.4954
  248MPD1    C3 3761   4.492   2.665   1.156 -0.0688 -0.3106  0.6784
  248MPD1    C4 3762   4.591   2.583   1.209 -0.1768 -0.0257 -0.4322
  248MPD1    C5 3763   4.659   2.496   1.124  0.2291 -0.2943 -0.7938
  248MPD1     H 3764   4.401   2.723   0.975 -1.8566 -1.0571  1.8656
  248MPD1    H1 3765   4.623   2.570   1.312  2.8449 -0.7552 -1.4428
  248MPD1    H2 3766   4.671   2.407   0.926 -0.2118 -1.3987  1.7061
  248MPD1    H3 3767   0.008   2.426   1.164  0.3711 -0.2279 -0.9312
  248MPD1     N 3768   4.402   2.745   1.231  0.4142 -0.3651 -0.3394
  248MPD1    H5 3769   4.348   2.816   1.183  1.1767  1.1213  0.9621
  248MPD1    N1 3770   4.492   2.546   0.803 -0.3219  0.4858  0.3374
  248MPD1    H6 3771   4.565   2.516   0.739  0.3780  1.5976  0.6258
  248MPD1    H7 3772   4.455   2.628   0.755 -0.0491  1.5419  1.9247
  249MPD1     C 3773   0.417   2.206  10.008 -0.0406  0.5851 -0.0715
  249MPD1    C1 3774   0.348   2.294   9.935 -0.8613 -0.1248  0.7775
  249MPD1    C2 3775   0.372   2.433   9.953  0.1744 -0.5633  0.0173
  249MPD1    C3 3776   0.454   2.484  10.053 -0.1644  0.2717 -0.4300
  249MPD1    C4 3777   0.514   2.391  10.129  0.6773 -0.2320 -0.4581
  249MPD1    C5 3778   0.496   2.252  10.111  0.4628  0.6110  0.0039
  249MPD1     H 3779   0.319   2.496   9.883 -0.8340  0.1136  1.3940
  249MPD1    H1 3780   0.582   2.422  10.208  0.2584 -1.2177  0.3016
  249MPD1    H2 3781   0.407   2.098  10.000 -0.7329  0.5680  0.9679
  249MPD1    H3 3782   0.561   2.186  10.167  0.8968  0.1120 -1.1033
  249MPD1     N 3783   0.472   2.629  10.066 -0.3564 -0.4706  0.0335
  249MPD1    H5 3784   0.423   2.689  10.000  1.5546  0.8691 -0.1526
  249MPD1    N1 3785   0.262   2.259   9.833 -0.4641  0.8920  0.1835
  249MPD1    H6 3786   0.182   2.319   9.816 -0.6803 -0.2168 -2.7902
  249MPD1    H7 3787   0.246   2.158   9.827 -0.3436  1.0110 -1.9615
  250MPD2     C 3788   1.221   2.195  13.317 -0.0006  0.2359 -0.3672
  250MPD2    C1 3789   1.154   2.298  13.254 -0.0605  0.4869 -0.0572
  250MPD2    C2 3790   1.029   2.269  13.193 -0.8415 -0.0941 -0.2451
  250MPD2    C3 3791   0.990   2.138  13.167 -0.5004  0.0711 -0.2803
  250MPD2    C4 3792   1.058   2.041  13.229  0.4243  0.1838 -0.1772
  250MPD2    C5 3793   1.172   2.069  13.306  0.4945  0.5817 -1.0977
  250MPD2     H 3794   0.972   2.346  13.142 -0.9676  1.5039  2.3032
  250MPD2    H1 3795   1.036   1.935  13.218 -0.4527  0.5107 -1.4374
  250MPD2    H2 3796   1.308   2.216  13.378 -0.0942 -0.5061  0.0126
  250MPD2    H3 3797   1.213   1.979  13.349 -1.2421  0.0779 -0.4818
  250MPD2     N 3798   0.879   2.094  13.097  0.0767 -0.9424 -0.3463
  250MPD2    H5 3799   0.850   1.998  13.114 -0.1734 -0.7005  0.6134
  250MPD2    N1 3800   1.201   2.421  13.286  0.8085 -0.3621 -0.2180
  250MPD2    H7 3801   1.290   2.435  13.334  0.3682  2.3155 -0.2029
  251TMC3    C1 3802   1.226   2.662  13.279 -0.4290  0.0498 -0.1287
  251TMC3    C2 3803   1.163   2.788  13.275 -0.4661  0.2059  0.1659
  251TMC3    C3 3804   1.249   2.893  13.251 -0.0766 -0.4380  0.0655
  251TMC3    C4 3805   1.360   2.645  13.262 -1.3608  0.4837 -0.2512
  251TMC3    C5 3806   1.433   2.759  13.236 -0.5098 -0.2557  0.5372
  251TMC3    C6 3807   1.386   2.883  13.246 -0.2573 -0.1449  0.2801
  251TMC3     C 3808   1.139   2.542  13.283  0.0078 -0.9005  1.0320
  251TMC3     O 3809   1.020   2.567  13.262 -0.4104 -0.3785  0.0910
  251TMC3     H 3810   1.057   2.791  13.294  0.1187  0.0368  3.4453
  251TMC3    H1 3811   1.412   2.551  13.254 -1.6878  0.1844  1.0862
  251TMC3    H2 3812   1.444   2.974  13.232  0.1740 -0.0892  2.4191
  251TMC3    C7 3813   1.579   2.745  13.216  0.2356 -0.1103  0.4674
  251TMC3    C8 3814   1.194   3.027  13.248 -0.2460  0.3509 -0.1786
  251TMC3    O1 3815   1.626   2.633  13.231  0.1705 -0.0199 -0.0967
  251TMC3    O2 3816   1.266   3.127  13.256 -0.0908 -0.1683  0.0210
  252TMC3    C1 3817   1.704   3.908   9.410  0.0412  0.2146  0.1623
  252TMC3    C2 3818   1.780   3.990   9.491 -0.1784 -0.2252 -0.4155
  252TMC3    C3 3819   1.849   3.937   9.598  0.7405  0.3171 -0.4255
  252TMC3    C4 3820   1.684   3.782   9.446  0.1137 -0.2120 -0.4616
  252TMC3    C5 3821   1.747   3.730   9.560  0.5852 -0.1741  0.8971
  252TMC3    C6 3822   1.836   3.805   9.632  0.1541 -0.4171 -0.9815
  252TMC3     C 3823   1.622   3.975   9.307 -0.3195  0.1057 -0.4043
  252TMC3     O 3824   1.662   4.090   9.297  0.0646  0.7339 -0.4916
  252TMC3     H 3825   1.798   4.095   9.473  3.4260 -1.2637 -2.6350
  252TMC3    H1 3826   1.626   3.711   9.387  0.0917  0.1510 -0.8809
  252TMC3    H2 3827   1.880   3.764   9.722  1.4304  0.0540 -1.3878
  252TMC3    C7 3828   1.713   3.599   9.614 -0.4193  0.4444  0.8605
  252TMC3    C8 3829   1.950   4.021   9.658  0.0618  0.1825  0.2856
  252TMC3    O1 3830   1.786   3.560   9.702 -0.2873 -0.3340  0.0842
  252TMC3    O2 3831   1.973   4.132   9.607  0.5143 -0.1670  0.7504
  253MPD2     C 3832   3.379   2.674  16.350 -0.1905  0.1431 -1.1080
  253MPD2    C1 3833   3.372   2.593  16.239 -0.0192  0.2213  1.0723
  253MPD2    C2 3834   3.436   2.474  16.243  0.4592  0.3552 -0.7948
  253MPD2    C3 3835   3.502   2.430  16.359  0.5057  0.3569  0.0067
  253MPD2    C4 3836   3.495   2.504  16.470 -0.6799 -0.7123  0.5076
  253MPD2    C5 3837   3.440   2.628  16.467  0.2431  0.3237  0.2067
  253MPD2     H 3838   3.442   2.418  16.151 -1.7118 -0.9055 -0.1817
  253MPD2    H1 3839   3.545   2.468  16.559  0.8215  1.2330  0.4389
  253MPD2    H2 3840   3.325   2.768  16.356 -0.6714 -0.2369  0.8129
  253MPD2    H3 3841   3.440   2.688  16.558  0.1074 -1.6440  1.5028
  253MPD2     N 3842   3.550   2.303  16.353  0.4775  0.0037 -0.1384
  253MPD2    H5 3843   3.551   2.263  16.260  0.3009 -3.4005  1.2947
  253MPD2    N1 3844   3.308   2.630  16.125  0.7028 -0.8678 -0.0410
  253MPD2    H7 3845   3.292   2.558  16.056 -1.1513 -0.5061  0.0128
  254TMC3    C1 3846   3.637   2.094  16.417  0.2839 -0.1476 -0.1633
  254TMC3    C2 3847   3.528   2.041  16.346  0.8863  0.0755 -0.5286
  254TMC3    C3 3848   3.493   1.909  16.368  0.6667  0.1219 -0.4390
  254TMC3    C4 3849   3.700   2.016  16.511 -0.2217 -0.2585 -0.6210
  254TMC3    C5 3850   3.664   1.886  16.529  0.0916 -0.1738  0.3821
  254TMC3    C6 3851   3.554   1.838  16.465  0.3414  0.5746 -0.0530
  254TMC3     C 3852   3.630   2.233  16.448  0.5298  0.0540  0.8367
  254TMC3     O 3853   3.674   2.273  16.555 -0.4665  0.0633  0.8136
  254TMC3     H 3854   3.462   2.096  16.279 -1.0679  0.3401  1.6335
  254TMC3    H1 3855   3.776   2.054  16.579  0.3393 -0.2036 -1.2770
  254TMC3    H2 3856   3.518   1.742  16.500 -0.6756  0.8143 -0.4338
  254TMC3    C7 3857   3.685   1.841  16.669  0.2650 -0.7047  0.2690
  254TMC3    C8 3858   3.356   1.884  16.333  0.4694 -0.6635 -0.4875
  254TMC3    O1 3859   3.709   1.925  16.760 -0.9002  0.5589  0.2891
  254TMC3    O2 3860   3.287   1.856  16.429 -0.0764  0.3475  0.0125
  255MPD2     C 3861   1.389   0.103  11.064  0.6915  0.6048 -0.2441
  255MPD2    C1 3862   1.397   0.228  11.013 -0.7251  0.0699  0.8466
  255MPD2    C2 3863   1.495   0.263  10.920  0.3684 -0.0632 -0.0125
  255MPD2    C3 3864   1.591   0.178  10.877 -0.4252 -0.0467  0.2611
  255MPD2    C4 3865   1.580   0.048  10.921  0.5862 -0.1937  0.4126
  255MPD2    C5 3866   1.478   0.012  11.006 -0.2080  0.4519 -0.0023
  255MPD2     H 3867   1.494   0.364  10.880  0.4648 -0.7054 -1.6165
  255MPD2    H1 3868   1.656   4.697  10.897 -1.2435 -1.9285 -0.0276
  255MPD2    H2 3869   1.322   0.078  11.146 -0.6414  0.3225 -1.4082
  255MPD2    H3 3870   1.484   4.637  11.053  1.0689  0.9206  0.8459
  255MPD2     N 3871   1.694   0.233  10.793  0.7756  0.3540  0.3091
  255MPD2    H5 3872   1.692   0.332  10.774  0.2405  0.2441 -0.1834
  255MPD2    N1 3873   1.300   0.320  11.062 -0.6262  0.4386 -0.0790
  255MPD2    H7 3874   1.230   0.284  11.125  0.6861 -1.3850  0.3362
  256TMC3    C1 3875   1.191   0.525  11.099  0.9830 -0.1353 -0.5969
  256TMC3    C2 3876   1.228   0.651  11.151 -0.1284  0.3668 -0.2369
  256TMC3    C3 3877   1.147   0.757  11.145  0.3044 -0.4694  0.3553
  256TMC3    C4 3878   1.067   0.523  11.034  0.3347  0.0961  0.4257
  256TMC3    C5 3879   0.999   0.642  11.021 -0.1925 -0.0413 -0.0346
  256TMC3    C6 3880   1.023   0.750  11.104 -0.2044 -0.6114 -0.3083
  256TMC3     C 3881   1.300   0.456  11.038 -0.6319 -0.3537 -0.5131
  256TMC3     O 3882   1.401   0.527  11.011  0.0307  0.1099  0.0328
  256TMC3     H 3883   1.325   0.663  11.198 -0.8755  0.6735  1.2289
  256TMC3    H1 3884   1.050   0.441  10.966 -0.6392  1.3328 -0.7914
  256TMC3    H2 3885   0.971   0.845  11.109  3.0172  1.1182  0.0199
  256TMC3    C7 3886   0.959   0.667  10.892  0.2797 -0.3636  0.4260
  256TMC3    C8 3887   1.214   0.877  11.109 -0.0166  0.7455 -0.4517
  256TMC3    O1 3888   0.930   0.565  10.830  0.0111 -0.4092  0.6870
  256TMC3    O2 3889   1.178   0.978  11.169  0.0092 -0.5657 -0.2153
  257MPD2     C 3890   0.668   2.581  13.520 -0.2288  0.8785  0.0769
  257MPD2    C1 3891   0.558   2.507  13.474  0.7593 -0.3493 -0.3062
  257MPD2    C2 3892   0.529   2.389  13.537 -0.0803 -0.3641 -0.4874
  257MPD2    C3 3893   0.594   2.352  13.652  0.6190  0.1002 -0.0856
  257MPD2    C4 3894   0.690   2.436  13.704  0.1784 -0.3653 -0.4698
  257MPD2    C5 3895   0.728   2.546  13.635 -1.1526  0.5342 -0.7541
  257MPD2     H 3896   0.443   2.330  13.509 -1.1426  1.3941 -0.9780
  257MPD2    H1 3897   0.742   2.408  13.795  1.4326  1.9003 -0.5008
  257MPD2    H2 3898   0.702   2.666  13.462  0.4823  1.1918  0.9442
  257MPD2    H3 3899   0.809   2.602  13.679  1.3483 -1.0062 -3.4020
  257MPD2     N 3900   0.563   2.228  13.711 -0.0890  0.9856 -0.0754
  257MPD2    H5 3901   0.478   2.185  13.678  1.0278 -0.2488 -1.3202
  257MPD2    N1 3902   0.500   2.567  13.357  0.4704 -0.1827 -0.4666
  257MPD2    H7 3903   0.568   2.617  13.300  0.8438 -1.1800 -0.8914
  258TMC3    C1 3904   0.566   2.045  13.881 -0.3401 -0.1814  0.3156
  258TMC3    C2 3905   0.483   1.978  13.789  0.0488  0.2238 -0.0240
  258TMC3    C3 3906   0.412   1.880  13.846 -0.5112  0.0763  0.2211
  258TMC3    C4 3907   0.604   1.993  14.004  0.1134  0.5433 -0.2084
  258TMC3    C5 3908   0.523   1.899  14.059 -0.0581 -0.3039 -0.7589
  258TMC3    C6 3909   0.425   1.844  13.976  0.5895 -0.1751  0.2564
  258TMC3     C 3910   0.631   2.166  13.821  0.5613  0.4087  1.0421
  258TMC3     O 3911   0.730   2.201  13.879 -0.5275 -0.8159  0.2933
  258TMC3     H 3912   0.473   2.002  13.684 -1.8471 -0.1361  0.0652
  258TMC3    H1 3913   0.689   2.037  14.055 -0.3693  0.5893  0.5497
  258TMC3    H2 3914   0.345   1.786  14.020 -1.2313  2.1553  0.0436
  258TMC3    C7 3915   0.508   1.859  14.201 -1.2012  0.1477  0.6828
  258TMC3    C8 3916   0.327   1.802  13.758 -0.2042 -0.3895 -0.4309
  258TMC3    O1 3917   0.399   1.818  14.232 -0.1138 -0.1851  0.3373
  258TMC3    O2 3918   0.309   1.844  13.643  0.1374  0.3599  0.0779
  259MPD2     C 3919   4.518   3.743   1.987 -0.5965 -0.2521 -0.3275
  259MPD2    C1 3920   4.592   3.626   1.986  0.0813 -0.4073  0.4984
  259MPD2    C2 3921   4.694   3.604   1.886 -1.2581  0.5024 -0.2351
  259MPD2    C3 3922   4.717   3.699   1.785  1.4696  0.3602  0.4908
  259MPD2    C4 3923   4.640   3.818   1.790  0.1563  0.1169 -0.1998
  259MPD2    C5 3924   4.559   3.837   1.897  0.2686 -0.7250 -0.5792
  259MPD2     H 3925   0.019   3.507   1.878 -0.2345  1.1398 -1.6725
  259MPD2    H1 3926   4.654   3.903   1.725  1.5525 -0.4036 -0.5799
  259MPD2    H2 3927   4.438   3.753   2.060  1.2971 -3.0098  2.0842
  259MPD2    H3 3928   4.504   3.931   1.895 -0.5113 -1.1711  0.7561
  259MPD2     N 3929   0.077   3.660   1.680 -0.2936 -0.3783 -0.0970
  259MPD2    H5 3930   0.119   3.568   1.677 -1.1666 -0.8750  2.6009
  259MPD2    N1 3931   4.545   3.524   2.075 -0.3553 -0.9387  0.0836
  259MPD2    H7 3932   4.475   3.555   2.142  0.4311 -1.2860  1.0589
  260TMC3    C1 3933   0.199   3.665   1.489  0.5524  0.2324 -0.3174
  260TMC3    C2 3934   0.303   3.728   1.434  0.1592  0.5708  0.6020
  260TMC3    C3 3935   0.390   3.651   1.360 -0.4036 -1.1408 -0.4147
  260TMC3    C4 3936   0.167   3.533   1.466 -0.4478  1.0814  0.4247
  260TMC3    C5 3937   0.251   3.460   1.388 -0.3806 -0.1936  0.0391
  260TMC3    C6 3938   0.361   3.521   1.324  0.0817 -0.1713  0.1647
  260TMC3     C 3939   0.112   3.741   1.577 -0.0588  0.4804 -0.0220
  260TMC3     O 3940   0.101   3.864   1.556 -0.3190 -0.1943  0.7092
  260TMC3     H 3941   0.318   3.835   1.447  0.4743  0.5715  0.2414
  260TMC3    H1 3942   0.067   3.505   1.499 -0.5440  1.8810  0.8370
  260TMC3    H2 3943   0.436   3.465   1.269  1.3697 -0.2202  1.9617
  260TMC3    C7 3944   0.218   3.322   1.342 -0.1381 -0.3804  0.6626
  260TMC3    C8 3945   0.473   3.736   1.275  0.2877  0.5156 -1.2818
  260TMC3    O1 3946   0.267   3.299   1.235  0.3967  0.2357 -0.1400
  260TMC3    O2 3947   0.497   3.850   1.311 -0.7799  0.1503 -0.3995
  261MPD2     C 3948   0.285   2.527  12.681  0.4404 -0.3774 -0.2640
  261MPD2    C1 3949   0.415   2.512  12.700 -0.6882  0.1884  0.0281
  261MPD2    C2 3950   0.492   2.621  12.680  0.7084  0.2759  0.0576
  261MPD2    C3 3951   0.445   2.732  12.625 -0.0680 -0.1627  0.5677
  261MPD2    C4 3952   0.313   2.751  12.608  0.3399 -0.2378 -0.0963
  261MPD2    C5 3953   0.228   2.649  12.648  0.2130 -0.2064 -0.2621
  261MPD2     H 3954   0.600   2.606  12.676  0.7160 -0.0967  1.7097
  261MPD2    H1 3955   0.269   2.838  12.560  1.4534  1.0708  1.2617
  261MPD2    H2 3956   0.216   2.447  12.703  0.6204 -1.1477 -2.4292
  261MPD2    H3 3957   0.122   2.657  12.629  0.0787 -1.8778 -0.2161
  261MPD2     N 3958   0.550   2.820  12.595 -0.3865 -0.0689 -0.4215
  261MPD2    H5 3959   0.645   2.790  12.615 -0.1209  1.7074  1.0328
  261MPD2    N1 3960   0.472   2.382  12.738 -0.1826 -0.4711  0.1184
  261MPD2    H7 3961   0.569   2.388  12.770 -0.2139 -0.6358  0.2485
  262TMC3    C1 3962   0.651   3.002  12.484  0.0956 -0.1722 -0.2206
  262TMC3    C2 3963   0.647   3.137  12.462 -0.0800 -0.6925  0.1802
  262TMC3    C3 3964   0.762   3.204  12.445  0.6142 -0.0267  0.2219
  262TMC3    C4 3965   0.771   2.937  12.504 -0.5435  0.1473  0.7168
  262TMC3    C5 3966   0.889   3.008  12.476  1.2466 -1.0356 -0.2934
  262TMC3    C6 3967   0.884   3.143  12.457  0.2061 -0.5913 -0.2036
  262TMC3     C 3968   0.531   2.938  12.527  0.1907  0.0325 -0.6847
  262TMC3     O 3969   0.425   2.994  12.500  0.8306  0.4109  0.2794
  262TMC3     H 3970   0.552   3.185  12.440  0.0323 -0.2380  0.6868
  262TMC3    H1 3971   0.774   2.830  12.516  2.1760  0.3138  1.4035
  262TMC3    H2 3972   0.969   3.210  12.448  0.3996 -1.1116 -2.1733
  262TMC3    C7 3973   1.018   2.941  12.485 -0.2198 -0.0718  0.0898
  262TMC3    C8 3974   0.760   3.317  12.354  0.2789 -0.0239  0.0637
  262TMC3    O1 3975   1.023   2.823  12.520 -0.4105 -0.1073 -0.3129
  262TMC3    O2 3976   0.844   3.404  12.378 -0.2893 -0.0137 -0.2347
  263MPD2     C 3977   2.406   1.867  11.421  0.2027 -0.2197 -0.0831
  263MPD2    C1 3978   2.540   1.853  11.399  0.3169  0.1637 -0.3431
  263MPD2    C2 3979   2.585   1.889  11.277 -0.5185 -0.1524 -0.1057
  263MPD2    C3 3980   2.507   1.930  11.176  0.3286  0.1353 -0.2906
  263MPD2    C4 3981   2.370   1.937  11.196 -0.0677 -0.2441 -0.3284
  263MPD2    C5 3982   2.323   1.907  11.317  0.3331  0.5947 -0.2612
  263MPD2     H 3983   2.692   1.902  11.261 -0.4280  0.1817  0.7771
  263MPD2    H1 3984   2.309   1.978  11.117 -2.0581  0.7576  1.7561
  263MPD2    H2 3985   2.359   1.845  11.516  1.7461  1.3605  1.0355
  263MPD2    H3 3986   2.218   1.928  11.338  0.1022 -1.0346  0.2383
  263MPD2     N 3987   2.549   1.963  11.045  0.3160  0.7717 -0.3902
  263MPD2    H5 3988   2.477   1.968  10.973  1.7411 -1.7097 -1.9983
  263MPD2    N1 3989   2.621   1.804  11.505 -0.2077 -0.1709 -0.2100
  263MPD2    H7 3990   2.588   1.762  11.591  0.1127  1.6624  0.8095
  264TMC3    C1 3991   2.689   2.007  10.861  0.7510  0.3458  0.0083
  264TMC3    C2 3992   2.612   2.116  10.825  0.1626  0.2893  0.6726
  264TMC3    C3 3993   2.653   2.199  10.728  0.0689 -0.1694 -0.0187
  264TMC3    C4 3994   2.812   1.981  10.799 -0.3674  0.2740 -0.0180
  264TMC3    C5 3995   2.849   2.059  10.693  0.9320 -0.7637 -0.5541
  264TMC3    C6 3996   2.771   2.166  10.657 -0.3265  0.4951 -0.3976
  264TMC3     C 3997   2.675   1.948  10.993 -0.0571  0.0112  0.1553
  264TMC3     O 3998   2.775   1.911  11.047 -0.0801  0.1699 -0.3286
  264TMC3     H 3999   2.530   2.150  10.887 -2.4331 -1.3253 -1.8965
  264TMC3    H1 4000   2.874   1.895  10.826 -0.5689 -0.0942 -0.7423
  264TMC3    H2 4001   2.798   2.231  10.575 -0.5555 -0.1009 -0.9488
  264TMC3    C7 4002   2.966   2.024  10.619 -0.5327 -0.0307 -0.6742
  264TMC3    C8 4003   2.662   2.341  10.760  0.0207  0.1759 -0.3180
  264TMC3    O1 4004   3.017   1.916  10.645 -0.1797 -0.5345 -0.3205
  264TMC3    O2 4005   2.750   2.408  10.700 -0.3723  0.2580 -0.0130
  265MPD2     C 4006   4.503   2.127  15.980 -0.0970  0.7086  0.1090
  265MPD2    C1 4007   4.518   2.218  15.874 -0.0572 -0.7301  0.4598
  265MPD2    C2 4008   4.581   2.185  15.746 -0.2069 -0.3904  0.1440
  265MPD2    C3 4009   4.614   2.050  15.724  0.1572  0.1626  0.2387
  265MPD2    C4 4010   4.598   1.965  15.828  0.4770 -0.0034 -0.0922
  265MPD2    C5 4011   4.545   2.001  15.950 -0.7810  0.2501 -0.5518
  265MPD2     H 4012   4.574   2.261  15.668 -0.3163 -1.1308 -0.5722
  265MPD2    H1 4013   4.627   1.861  15.821  1.2715  0.1406  1.1803
  265MPD2    H2 4014   4.457   2.149  16.075 -1.1446 -2.3185  0.2924
  265MPD2    H3 4015   4.530   1.932  16.033  1.5449  0.8793  0.3896
  265MPD2     N 4016   4.668   1.999  15.601 -0.5701  0.3605  0.1095
  265MPD2    H5 4017   4.699   1.902  15.595  0.8300  0.8704 -0.8539
  265MPD2    N1 4018   4.464   2.347  15.895 -1.0936 -0.0861 -0.2630
  265MPD2    H7 4019   4.423   2.374  15.984  0.3069  0.4978  0.2096
  266TMC3    C1 4020   4.420   2.580  15.876 -0.2229 -0.7054  0.0995
  266TMC3    C2 4021   4.454   2.609  16.005 -0.2571 -0.7893 -0.5250
  266TMC3    C3 4022   4.446   2.739  16.050 -0.0991 -0.1469 -0.0870
  266TMC3    C4 4023   4.369   2.680  15.799  0.0453  0.1292  0.5821
  266TMC3    C5 4024   4.370   2.802  15.842  0.4478  0.0253 -0.8532
  266TMC3    C6 4025   4.418   2.839  15.961 -0.0877 -0.2293  0.2519
  266TMC3     C 4026   4.471   2.460  15.814 -0.6659  0.2897 -0.0475
  266TMC3     O 4027   4.510   2.471  15.695  0.0935 -0.1158 -0.3144
  266TMC3     H 4028   4.484   2.526  16.067  1.3924  1.5748  1.8150
  266TMC3    H1 4029   4.334   2.657  15.699  0.0200 -1.2848  0.9070
  266TMC3    H2 4030   4.430   2.939  16.001 -1.6205  0.7840 -1.7990
  266TMC3    C7 4031   4.366   2.898  15.732  0.5823  0.4875  0.5660
  266TMC3    C8 4032   4.514   2.767  16.176  0.1875  0.3365 -0.7502
  266TMC3    O1 4033   4.272   2.892  15.654 -0.1027 -0.3439 -0.7073
  266TMC3    O2 4034   4.551   2.670  16.241 -0.5262  0.5139 -0.3982
  267MPD2     C 4035   2.512   4.028  17.615 -0.0775 -0.1491  0.5299
  267MPD2    C1 4036   2.498   3.891  17.614 -0.3836  0.4531  0.2202
  267MPD2    C2 4037   2.405   3.836  17.525 -0.5494  0.2480  0.7938
  267MPD2    C3 4038   2.335   3.925  17.438  0.5678  0.0772  0.0281
  267MPD2    C4 4039   2.346   4.063  17.449 -0.2404 -0.1264 -0.4349
  267MPD2    C5 4040   2.435   4.114  17.541 -0.6841  0.1787  0.4349
  267MPD2     H 4041   2.401   3.729  17.506 -1.8408  0.6713 -1.2696
  267MPD2    H1 4042   2.281   4.129  17.393 -1.4979 -0.2064  0.9436
  267MPD2    H2 4043   2.587   4.068  17.682  1.3845 -0.0598 -1.1644
  267MPD2    H3 4044   2.439   4.217  17.575  2.1640  0.3966 -0.6261
  267MPD2     N 4045   2.249   3.876  17.336  0.0120  0.5929  0.0343
  267MPD2    H5 4046   2.209   3.948  17.276  0.6873 -1.0191 -2.3512
  267MPD2    N1 4047   2.581   3.815   0.004  0.4808 -0.3429 -0.1570
  267MPD2    H7 4048   2.631   3.865   0.077 -0.1721 -0.9094  0.6775
  268TMC3    C1 4049   2.671   3.628   0.120  0.5657 -0.4026  0.1899
  268TMC3    C2 4050   2.764   3.710   0.181 -0.4308  0.2125  0.0860
  268TMC3    C3 4051   2.831   3.658   0.283  0.0948 -0.4936 -0.2957
  268TMC3    C4 4052   2.653   3.498   0.154 -0.0781 -0.7834  0.6056
  268TMC3    C5 4053   2.728   3.449   0.255  0.9312  0.1060 -0.2205
  268TMC3    C6 4054   2.819   3.531   0.322 -0.7874  0.1013 -0.3651
  268TMC3     C 4055   2.587   3.676   0.014 -0.8544 -0.3950 -0.8453
  268TMC3     O 4056   2.523   3.595  17.642 -0.3822 -0.2606  0.1665
  268TMC3     H 4057   2.777   3.813   0.148 -0.8360  0.6889  1.3830
  268TMC3    H1 4058   2.575   3.434   0.114 -0.3484 -0.8459  1.2344
  268TMC3    H2 4059   2.885   3.492   0.400 -0.7568  0.3889 -0.2488
  268TMC3    C7 4060   2.696   3.313   0.306 -0.8134 -0.2519 -0.2064
  268TMC3    C8 4061   2.953   3.727   0.321 -0.0292 -0.7080 -0.2617
  268TMC3    O1 4062   2.739   3.311   0.420  0.3330 -0.5692 -0.1419
  268TMC3    O2 4063   3.022   3.677   0.413 -0.0917  0.1243  0.4388
  269MPD2     C 4064   2.521   2.530  15.916 -0.4403 -0.5042 -0.8467
  269MPD2    C1 4065   2.388   2.537  15.865  0.3640 -0.6597  0.4653
  269MPD2    C2 4066   2.341   2.663  15.821  0.0460 -0.3282  0.4511
  269MPD2    C3 4067   2.429   2.769  15.829  0.0551  0.7041 -0.5805
  269MPD2    C4 4068   2.563   2.758  15.849  0.4343  0.4126  0.0043
  269MPD2    C5 4069   2.606   2.634  15.890 -0.2951  0.0093 -0.1458
  269MPD2     H 4070   2.244   2.671  15.772  0.2243 -4.1457 -0.5741
  269MPD2    H1 4071   2.625   2.847  15.841  1.5870 -0.4160 -0.4295
  269MPD2    H2 4072   2.565   2.438  15.954  0.6936  0.5945  0.4996
  269MPD2    H3 4073   2.713   2.631  15.909 -0.5315 -0.6164  1.0502
  269MPD2     N 4074   2.364   2.886  15.808 -0.5318 -0.5333 -0.0041
  269MPD2    H5 4075   2.263   2.896  15.818 -0.5479  0.5069 -1.0739
  269MPD2    N1 4076   2.316   2.420  15.860 -0.0363  0.2043 -0.2867
  269MPD2    H7 4077   2.359   2.330  15.883 -1.7426 -0.6849 -0.5749
  270TMC3    C1 4078   2.151   2.258  15.812  0.6986  0.3341 -0.0542
  270TMC3    C2 4079   2.039   2.218  15.743  0.5280  0.1536  0.2198
  270TMC3    C3 4080   1.991   2.090  15.770 -0.3058 -0.4441 -0.1409
  270TMC3    C4 4081   2.206   2.173  15.892  0.6682  0.2462  0.8244
  270TMC3    C5 4082   2.151   2.050  15.926 -0.5060  0.0747  0.3583
  270TMC3    C6 4083   2.031   2.013  15.873  0.1907  0.0484 -0.6648
  270TMC3     C 4084   2.189   2.397  15.819  0.3680  0.7530  0.4148
  270TMC3     O 4085   2.110   2.475  15.767  0.2021  0.3420 -0.3933
  270TMC3     H 4086   2.003   2.286  15.667  1.6033  1.2066  0.6525
  270TMC3    H1 4087   2.302   2.189  15.940  1.3079 -1.6703  0.1990
  270TMC3    H2 4088   1.997   1.911  15.890 -0.2489  0.2630 -0.2402
  270TMC3    C7 4089   2.248   1.944  15.958  0.1102 -0.0484  0.3333
  270TMC3    C8 4090   1.948   2.027  15.651 -0.1195  0.3755  0.6232
  270TMC3    O1 4091   2.365   1.962  15.925 -0.2220 -0.4457 -0.1619
  270TMC3    O2 4092   1.959   2.086  15.543  0.1190  0.0013 -0.1170
  271MPD2     C 4093   1.347   2.152  14.130  0.1405 -0.0358 -0.1655
  271MPD2    C1 4094   1.384   2.223  14.239  0.7987 -0.0904 -0.0758
  271MPD2    C2 4095   1.319   2.346  14.256  0.4440 -0.3311 -0.0013
  271MPD2    C3 4096   1.229   2.401  14.164  0.2568  0.0695  0.0394
  271MPD2    C4 4097   1.193   2.323  14.060 -0.0616  0.1935  0.6761
  271MPD2    C5 4098   1.249   2.195  14.044 -0.3832 -0.5500 -0.3012
  271MPD2     H 4099   1.341   2.404  14.345  0.6348 -0.7288  0.2113
  271MPD2    H1 4100   1.112   2.348  13.993 -1.2340  0.7772  2.3211
  271MPD2    H2 4101   1.393   2.059  14.102 -0.3440 -0.4685  0.4698
  271MPD2    H3 4102   1.234   2.140  13.952  2.7643 -2.1626  0.1681
  271MPD2     N 4103   1.173   2.535  14.181 -0.8168 -0.3363  0.1292
  271MPD2    H5 4104   1.114   2.557  14.102 -1.7451  2.5218  1.6215
  271MPD2    N1 4105   1.485   2.183  14.327 -0.5242 -1.1044 -0.1694
  271MPD2    H7 4106   1.499   2.234  14.414 -3.1061 -1.5973  0.5324
  272TMC3    C1 4107   1.662   2.046  14.410  0.6672 -0.2795  0.4904
  272TMC3    C2 4108   1.793   2.019  14.378 -0.1431  0.7217 -0.0458
  272TMC3    C3 4109   1.881   1.983  14.478 -0.0284  0.6463  0.1432
  272TMC3    C4 4110   1.609   2.032  14.533 -0.1460 -0.2829 -0.5882
  272TMC3    C5 4111   1.702   1.988  14.625  0.6304  0.2032 -0.8702
  272TMC3    C6 4112   1.836   1.974  14.607  0.0786 -0.4895 -0.9636
  272TMC3     C 4113   1.568   2.079  14.301  0.0257 -0.3075  0.4292
  272TMC3     O 4114   1.598   2.025  14.196  0.4557 -0.1321 -0.0009
  272TMC3     H 4115   1.823   2.027  14.274  0.1670 -1.5400 -0.1388
  272TMC3    H1 4116   1.506   2.048  14.563  0.0378  0.2606 -0.2442
  272TMC3    H2 4117   1.900   1.953  14.691  0.7626 -2.9601 -2.1044
  272TMC3    C7 4118   1.655   1.996  14.758  0.4786  0.4320  0.5994
  272TMC3    C8 4119   1.980   1.886  14.434 -0.6842  1.1041  0.5934
  272TMC3    O1 4120   1.536   1.974  14.790  0.5632 -0.2451  0.1504
  272TMC3    O2 4121   2.011   1.895  14.315  0.5524  0.0174  0.1104
  273MPD2     C 4122   2.350   0.469  11.458  0.2517  0.6842 -0.2865
  273MPD2    C1 4123   2.441   0.546  11.530  0.5181 -0.1079 -0.6460
  273MPD2    C2 4124   2.540   0.617  11.462  0.5391 -0.0485  0.1098
  273MPD2    C3 4125   2.547   0.602  11.322 -0.2738 -0.4688 -0.3374
  273MPD2    C4 4126   2.458   0.526  11.255  0.6568 -0.3102 -0.1908
  273MPD2    C5 4127   2.365   0.449  11.317 -0.4633  0.4322  0.0787
  273MPD2     H 4128   2.601   0.687  11.517  1.8034  0.9250 -2.5004
  273MPD2    H1 4129   2.461   0.522  11.147  2.2627  1.9593 -0.2165
  273MPD2    H2 4130   2.287   0.404  11.517  0.0132  0.9153 -0.2862
  273MPD2    H3 4131   2.301   0.389  11.254 -0.0557  1.4486 -1.3022
  273MPD2     N 4132   2.646   0.668  11.242  0.5796  0.1715 -0.1813
  273MPD2    H5 4133   2.647   0.655  11.141 -1.6230  2.8419 -0.5723
  273MPD2    N1 4134   2.442   0.536  11.668 -0.4813  0.2029  0.4333
  273MPD2    H7 4135   2.368   0.482  11.713 -0.8368  0.2493 -0.0928
  274TMC3    C1 4136   2.834   0.796  11.185 -0.0957 -0.3760 -0.2122
  274TMC3    C2 4137   2.767   0.827  11.068 -0.6876 -0.1583 -0.0048
  274TMC3    C3 4138   2.840   0.882  10.971  0.1705 -0.1324 -0.3133
  274TMC3    C4 4139   2.960   0.837  11.215  0.3286 -0.6077 -0.2375
  274TMC3    C5 4140   3.024   0.899  11.110  0.0094  0.3995 -0.3704
  274TMC3    C6 4141   2.977   0.923  10.985  0.2140 -0.3039  0.2804
  274TMC3     C 4142   2.756   0.744  11.292  0.3579 -0.1140  0.5196
  274TMC3     O 4143   2.786   0.759  11.407 -0.2552 -0.3291 -0.6224
  274TMC3     H 4144   2.659   0.817  11.057 -0.5710  2.3083 -3.4265
  274TMC3    H1 4145   2.993   0.825  11.317  0.2750  1.1882 -0.0185
  274TMC3    H2 4146   3.015   0.998  10.918  0.2848 -0.7696 -0.2015
  274TMC3    C7 4147   3.127   0.993  11.144 -1.0192 -0.1333  0.2297
  274TMC3    C8 4148   2.764   0.920  10.852 -0.0960 -0.6763 -0.9649
  274TMC3    O1 4149   3.214   1.008  11.065 -0.4395  0.2429 -0.6464
  274TMC3    O2 4150   2.644   0.921  10.866 -0.3416  0.5713  0.4935
  275MPD2     C 4151   2.901   3.257  15.085  1.3793 -0.4377 -0.1387
  275MPD2    C1 4152   2.784   3.322  15.062  0.3803  0.1034  0.4021
  275MPD2    C2 4153   2.681   3.248  15.005  0.2207  0.7485 -0.0594
  275MPD2    C3 4154   2.698   3.119  14.954  0.3657 -0.7098 -0.1722
  275MPD2    C4 4155   2.813   3.055  14.964  0.3214 -1.0537 -0.2677
  275MPD2    C5 4156   2.914   3.130  15.028  0.1561 -0.4294  0.9415
  275MPD2     H 4157   2.589   3.303  14.989 -0.2872 -0.2504 -0.5426
  275MPD2    H1 4158   2.834   2.960  14.915  1.1141 -0.6074 -0.8042
  275MPD2    H2 4159   2.982   3.303  15.141  2.2624 -0.6512 -1.2334
  275MPD2    H3 4160   3.011   3.085  15.039  0.8068 -0.6513 -5.3485
  275MPD2     N 4161   2.583   3.060  14.902  0.1418  0.1942  0.2625
  275MPD2    H5 4162   2.493   3.106  14.915  1.0533  2.3514 -1.0257
  275MPD2    N1 4163   2.761   3.453  15.114  0.6924  0.5679 -0.8175
  275MPD2    H7 4164   2.667   3.489  15.128  1.0158  1.0342  0.1616
  276TMC3    C1 4165   2.786   3.624  15.266  0.3540 -0.1526  0.4737
  276TMC3    C2 4166   2.730   3.570  15.382  0.1469  0.6899  0.0986
  276TMC3    C3 4167   2.747   3.639  15.492  0.2642 -0.2850 -0.1823
  276TMC3    C4 4168   2.861   3.741  15.268 -0.7710 -0.1545 -0.1077
  276TMC3    C5 4169   2.879   3.805  15.389  0.6053 -0.4698  0.2095
  276TMC3    C6 4170   2.818   3.758  15.500 -1.0306 -0.5486  0.8368
  276TMC3     C 4171   2.855   3.530  15.179 -0.0823  0.0856 -0.4844
  276TMC3     O 4172   2.977   3.540  15.182  0.1475  0.3364 -0.1553
  276TMC3     H 4173   2.703   3.465  15.385 -0.1807  0.6976 -2.0107
  276TMC3    H1 4174   2.898   3.794  15.181  1.0490 -0.8316  0.2514
  276TMC3    H2 4175   2.831   3.807  15.596  1.1729  1.0451 -0.2716
  276TMC3    C7 4176   3.022   3.812  15.414  0.0412  0.2089 -0.1306
  276TMC3    C8 4177   2.711   3.563  15.617  0.1216  0.0819 -0.0308
  276TMC3    O1 4178   3.052   3.868  15.522 -0.3623 -0.1004  0.0222
  276TMC3    O2 4179   2.668   3.638  15.705  0.2872 -0.3206  0.2164
  277MPD2     C 4180   4.432   2.530  13.374 -0.2616 -0.0777 -0.1601
  277MPD2    C1 4181   4.302   2.528  13.417  0.0716  0.3232  0.5757
  277MPD2    C2 4182   4.270   2.428  13.506 -0.3978  0.4131  0.4401
  277MPD2    C3 4183   4.355   2.328  13.539  0.3182  0.0377  0.7109
  277MPD2    C4 4184   4.486   2.331  13.485 -0.1221 -0.1544  0.8147
  277MPD2    C5 4185   4.520   2.437  13.404  0.2180 -0.5735  0.3178
  277MPD2     H 4186   4.169   2.426  13.547 -0.9994  0.6701 -1.0135
  277MPD2    H1 4187   4.560   2.255  13.508  0.7302  0.7282  0.9741
  277MPD2    H2 4188   4.462   2.614  13.313  1.2257 -1.2598 -1.0551
  277MPD2    H3 4189   4.616   2.438  13.355 -0.2109 -0.2781 -0.5148
  277MPD2     N 4190   4.301   2.228  13.623  0.3010 -0.6539  0.7043
  277MPD2    H5 4191   4.204   2.247  13.644  0.1422 -0.3787 -0.2868
  277MPD2    N1 4192   4.217   2.624  13.365 -0.6088  0.9156  0.4883
  277MPD2    H7 4193   4.257   2.685  13.295 -1.9978 -0.4273 -1.4625
  278TMC3    C1 4194   4.279   2.028  13.744  0.0233 -0.1262  0.7754
  278TMC3    C2 4195   4.271   1.894  13.713  0.5766 -0.5102 -0.1708
  278TMC3    C3 4196   4.179   1.816  13.780  0.3616  0.3724  0.1674
  278TMC3    C4 4197   4.191   2.084  13.834  0.0475 -0.2396 -0.4207
  278TMC3    C5 4198   4.095   1.997  13.889  0.4576  0.6389 -0.2215
  278TMC3    C6 4199   4.077   1.865  13.863  0.3735  0.0102  0.5432
  278TMC3     C 4200   4.359   2.106  13.653 -0.0667 -0.2441 -0.2202
  278TMC3     O 4201   4.458   2.054  13.609  0.2870 -0.3373  0.2169
  278TMC3     H 4202   4.336   1.860  13.633  1.2701 -0.3745  0.3333
  278TMC3    H1 4203   4.203   2.189  13.858 -1.3682  0.0745 -1.0849
  278TMC3    H2 4204   4.007   1.796  13.910  0.1326 -0.1834 -0.1076
  278TMC3    C7 4205   4.011   2.054  13.987 -0.1479 -0.3604  0.2648
  278TMC3    C8 4206   4.157   1.680  13.746 -0.2282  0.5311 -0.0181
  278TMC3    O1 4207   4.055   2.149  14.045  0.2264 -0.2473 -0.2735
  278TMC3    O2 4208   4.056   1.621  13.789 -0.2243  0.5150  0.3210
  279MPD2     C 4209   3.670   3.053   0.946  0.2070 -0.1326  0.2522
  279MPD2    C1 4210   3.688   2.922   0.931  0.4889  0.4650  0.8259
  279MPD2    C2 4211   3.748   2.876   0.815 -0.8486  0.3344  0.0155
  279MPD2    C3 4212   3.775   2.959   0.706  0.1264  0.3467 -0.0439
  279MPD2    C4 4213   3.750   3.091   0.728 -0.4833  0.1602  0.4301
  279MPD2    C5 4214   3.697   3.138   0.844  0.0110  0.2625  0.6108
  279MPD2     H 4215   3.771   2.770   0.812  1.6370  0.8136  1.6106
  279MPD2    H1 4216   3.767   3.161   0.647 -1.7226  0.1314  0.1350
  279MPD2    H2 4217   3.629   3.093   1.039 -0.0083 -1.1637  0.6074
  279MPD2    H3 4218   3.677   3.244   0.849 -0.6144  0.2205 -1.1348
  279MPD2     N 4219   3.841   2.919   0.584  0.3567  0.4445 -0.0929
  279MPD2    H5 4220   3.876   2.997   0.529  0.4002  0.6837  0.2739
  279MPD2    N1 4221   3.645   2.848   1.043 -0.3580  0.2029 -0.2752
  279MPD2    H7 4222   3.612   2.899   1.124  1.9510  0.9364  0.2008
  280TMC3    C1 4223   3.663   2.616   0.958  0.7653  0.4629 -0.2192
  280TMC3    C2 4224   3.737   2.514   1.003  0.7172 -0.3170  0.0139
  280TMC3    C3 4225   3.745   2.403   0.923  0.3284 -0.0583 -0.7901
  280TMC3    C4 4226   3.588   2.615   0.846  0.0033  0.5467  0.5451
  280TMC3    C5 4227   3.607   2.504   0.764  0.6489 -0.3648 -0.0351
  280TMC3    C6 4228   3.682   2.401   0.800  0.1041  0.4262  0.2480
  280TMC3     C 4229   3.651   2.713   1.062 -0.2950  0.0789 -0.4082
  280TMC3     O 4230   3.630   2.658   1.170 -0.3920  0.3218  0.1828
  280TMC3     H 4231   3.779   2.522   1.103 -0.3769  0.1605  0.4413
  280TMC3    H1 4232   3.533   2.703   0.814  0.9773  0.7189 -0.6760
  280TMC3    H2 4233   3.690   2.312   0.738  1.7697  0.7818 -0.0465
  280TMC3    C7 4234   3.528   2.489   0.637 -0.0776  0.3444 -0.6685
  280TMC3    C8 4235   3.829   2.303   0.968 -0.4308 -0.2168  0.2852
  280TMC3    O1 4236   3.555   2.393   0.566  0.2378 -0.1947  0.1223
  280TMC3    O2 4237   3.883   2.229   0.886 -0.5221 -0.1301 -0.1843
  281TMC3    C1 4238   1.661   2.801  13.580  0.0656  0.0698  0.3039
  281TMC3    C2 4239   1.800   2.806  13.578 -0.5898 -0.1845 -0.1014
  281TMC3    C3 4240   1.855   2.686  13.545  0.4522  0.1267  0.3819
  281TMC3    C4 4241   1.581   2.690  13.564  0.4860 -0.5053 -0.6067
  281TMC3    C5 4242   1.642   2.578  13.546  0.3393  0.0470 -0.7273
  281TMC3    C6 4243   1.780   2.570  13.534  0.2747  0.7896 -0.2338
  281TMC3     C 4244   1.588   2.926  13.580 -0.2214 -0.2247 -0.4517
  281TMC3     O 4245   1.472   2.933  13.613 -0.1922  0.0999  0.2424
  281TMC3     H 4246   1.863   2.893  13.559  1.0519 -0.9056  1.9755
  281TMC3    H1 4247   1.473   2.702  13.561  0.2909 -1.6147  1.6127
  281TMC3    H2 4248   1.832   2.479  13.505 -0.4648  0.4867 -0.6177
  281TMC3    C7 4249   1.561   2.453  13.529 -0.0401 -0.1995  0.0066
  281TMC3    C8 4250   1.994   2.679  13.487  0.8456  0.3909 -0.5543
  281TMC3    O1 4251   1.455   2.452  13.470 -0.0153  0.0831 -0.2204
  281TMC3    O2 4252   2.061   2.585  13.526  0.2998 -0.0609  0.7451
  282MPD2     C 4253   4.594   3.887  15.472 -0.7083 -0.2269  0.1949
  282MPD2    C1 4254   4.470   3.897  15.534  0.6185 -0.8468 -0.5339
  282MPD2    C2 4255   4.363   3.836  15.476 -0.7136 -0.2575 -0.3437
  282MPD2    C3 4256   4.375   3.779  15.345 -0.2456  0.1225  0.2826
  282MPD2    C4 4257   4.492   3.783  15.278 -0.5317 -0.1676  0.0480
  282MPD2    C5 4258   4.600   3.836  15.341 -0.6550  0.2805  0.5756
  282MPD2     H 4259   4.267   3.838  15.528 -0.9701  1.3960 -0.8774
  282MPD2    H1 4260   4.512   3.739  15.181 -1.0947 -0.6927  0.1681
  282MPD2    H2 4261   4.688   3.915  15.519  0.6548 -0.0544 -2.6348
  282MPD2    H3 4262   4.694   3.833  15.288 -0.9062  2.5259  0.0194
  282MPD2     N 4263   4.255   3.742  15.276 -0.6576  0.5347 -0.2423
  282MPD2    H5 4264   4.168   3.742  15.330  0.3382  3.3877  1.3563
  282MPD2    N1 4265   4.451   3.958  15.660  0.1131  0.1765 -0.4656
  282MPD2    H7 4266   4.358   3.950  15.698  0.5367 -1.6581  0.1789
  283TMC3    C1 4267   4.482   4.062  15.854  0.5013 -1.0299 -0.4501
  283TMC3    C2 4268   4.502   4.191  15.888  0.2561 -0.4923 -0.2798
  283TMC3    C3 4269   4.427   4.242  15.993 -0.4936 -0.1431 -0.3360
  283TMC3    C4 4270   4.381   3.991  15.912 -0.1692  0.7100  0.3685
  283TMC3    C5 4271   4.315   4.043  16.019 -0.0008 -0.3533  0.2858
  283TMC3    C6 4272   4.335   4.168  16.070  0.0445  0.0844  0.3394
  283TMC3     C 4273   4.547   4.021  15.735 -0.2322 -0.1219 -0.1123
  283TMC3     O 4274   4.658   4.064  15.714  0.0447  0.5429 -0.0917
  283TMC3     H 4275   4.581   4.241  15.833 -0.4834  0.0841 -0.8209
  283TMC3    H1 4276   4.392   3.886  15.887 -1.9723  0.8428 -0.9399
  283TMC3    H2 4277   4.268   4.210  16.145 -2.0821  1.2337 -2.2142
  283TMC3    C7 4278   4.191   3.981  16.064  0.2805  0.8223 -0.0127
  283TMC3    C8 4279   4.428   4.382  16.020 -0.3530  0.0679 -0.4004
  283TMC3    O1 4280   4.141   4.016  16.171 -0.1102  0.0215  0.0706
  283TMC3    O2 4281   4.414   4.423  16.135  0.1237 -0.2078  0.1040
  284MPD2     C 4282   2.382   3.489  11.629 -0.0080  0.6657  0.3486
  284MPD2    C1 4283   2.499   3.551  11.677 -0.5940  0.3231  0.0956
  284MPD2    C2 4284   2.542   3.519  11.812 -0.1025  0.1287 -0.4439
  284MPD2    C3 4285   2.459   3.449  11.899 -0.4665 -0.1183  0.2313
  284MPD2    C4 4286   2.342   3.393  11.846 -1.1463  0.2650  0.5741
  284MPD2    C5 4287   2.301   3.420  11.721  0.5698 -0.3449  0.3186
  284MPD2     H 4288   2.634   3.561  11.850 -0.1816 -0.7796  0.7710
  284MPD2    H1 4289   2.274   3.338  11.909  1.8493 -0.7949  2.8700
  284MPD2    H2 4290   2.347   3.499  11.527 -1.7548  3.6296  1.2423
  284MPD2    H3 4291   2.210   3.370  11.691 -1.6576  1.9879  3.1944
  284MPD2     N 4292   2.510   3.417  12.031  0.4025 -0.4172  0.2863
  284MPD2    H5 4293   2.597   3.464  12.055  0.0655  1.0670 -1.4213
  284MPD2    N1 4294   2.596   3.621  11.593  0.6635  0.4427 -0.2637
  284MPD2    H7 4295   2.689   3.640  11.631 -0.2077 -0.4916  2.3377
  285TMC3    C1 4296   2.691   3.697  11.404  0.7291 -0.4984  0.1065
  285TMC3    C2 4297   2.806   3.627  11.428 -0.1011 -0.0913  0.2275
  285TMC3    C3 4298   2.909   3.659  11.348 -0.5279  0.5431  0.2844
  285TMC3    C4 4299   2.688   3.802  11.317  0.3872  0.2505  0.4122
  285TMC3    C5 4300   2.800   3.836  11.249  0.0639 -0.0270  0.0602
  285TMC3    C6 4301   2.917   3.767  11.263  0.1708 -0.3881  0.4140
  285TMC3     C 4302   2.573   3.645  11.458  0.0477  0.1741 -0.1919
  285TMC3     O 4303   2.466   3.654  11.399  0.1154  0.1747  0.2972
  285TMC3     H 4304   2.802   3.541  11.494 -0.2762  0.5093  1.0018
  285TMC3    H1 4305   2.593   3.854  11.315  0.3609  0.1322 -1.0177
  285TMC3    H2 4306   2.996   3.782  11.190 -2.1819  0.7882 -1.8969
  285TMC3    C7 4307   2.802   3.952  11.156 -0.1307 -0.0387  0.3804
  285TMC3    C8 4308   3.010   3.561  11.344 -0.1853  1.2416 -0.2318
  285TMC3    O1 4309   2.910   4.009  11.147 -0.0199 -0.3595 -0.4596
  285TMC3    O2 4310   2.977   3.452  11.385 -0.0641  0.1740  0.3843
  286MPD2     C 4311   2.778   2.024   2.085  0.5052 -0.1586  0.7420
  286MPD2    C1 4312   2.778   2.031   1.951  0.5493  1.0352  0.4997
  286MPD2    C2 4313   2.859   1.938   1.880  0.6854  0.1135  0.4723
  286MPD2    C3 4314   2.943   1.853   1.944  0.2879 -0.0162  0.4124
  286MPD2    C4 4315   2.946   1.852   2.082  0.2815 -0.2267 -0.1629
  286MPD2    C5 4316   2.862   1.934   2.150 -0.7118 -0.4573  0.3147
  286MPD2     H 4317   2.836   1.929   1.774 -0.8649  0.1898  0.7924
  286MPD2    H1 4318   3.012   1.782   2.132 -1.2736 -1.3302  0.3712
  286MPD2    H2 4319   2.719   2.088   2.150 -1.6964  0.8290 -2.2309
  286MPD2    H3 4320   2.858   1.934   2.258  0.5164  0.6006  0.3689
  286MPD2     N 4321   3.018   1.752   1.877 -0.4600 -0.4250 -0.0696
  286MPD2    H5 4322   3.084   1.703   1.938 -0.0521 -1.5364 -1.4046
  286MPD2    N1 4323   2.692   2.116   1.874  0.5979  0.7141  0.6031
  286MPD2    H7 4324   2.698   2.109   1.773  0.5228 -1.1512  0.7269
  287TMC3    C1 4325   3.107   1.602   1.724 -0.6321  0.3411  0.4705
  287TMC3    C2 4326   3.090   1.548   1.596  0.4306 -0.1427  0.2544
  287TMC3    C3 4327   3.183   1.453   1.560 -0.1954  0.3621 -0.2616
  287TMC3    C4 4328   3.207   1.569   1.812  0.0320 -0.1146  0.4973
  287TMC3    C5 4329   3.299   1.480   1.762  0.7136 -0.4462 -0.4206
  287TMC3    C6 4330   3.290   1.420   1.641  0.6360 -0.2672 -0.9559
  287TMC3     C 4331   3.008   1.698   1.752 -0.7007  0.3732 -0.4153
  287TMC3     O 4332   2.920   1.728   1.668 -0.4670 -0.1826  0.2979
  287TMC3     H 4333   3.000   1.565   1.537 -0.7918 -1.6510  1.6793
  287TMC3    H1 4334   3.219   1.615   1.910 -2.6395  0.3731  0.5732
  287TMC3    H2 4335   3.363   1.348   1.606  2.4154  0.7403  0.6688
  287TMC3    C7 4336   3.431   1.469   1.825  0.1752 -0.0589  0.4169
  287TMC3    C8 4337   3.168   1.381   1.439 -0.5220  0.5845 -0.1379
  287TMC3    O1 4338   3.454   1.540   1.924  0.0097 -0.1634 -0.6451
  287TMC3    O2 4339   3.224   1.274   1.435 -0.3628  0.7791 -0.0483
  288TMC3    C1 4340   4.340   1.647  14.593 -0.0612 -0.8961  0.6654
  288TMC3    C2 4341   4.234   1.621  14.682 -0.3575  0.2493  0.7113
  288TMC3    C3 4342   4.182   1.720  14.764  0.3328 -0.6946  0.0529
  288TMC3    C4 4343   4.378   1.779  14.592  0.2205  0.3434  0.3675
  288TMC3    C5 4344   4.333   1.879  14.674  0.3327 -0.0485 -0.1521
  288TMC3    C6 4345   4.230   1.846  14.761 -0.9441  0.2162  0.5014
  288TMC3     C 4346   4.359   1.559  14.482  0.2591  0.6553  0.0828
  288TMC3     O 4347   4.268   1.478  14.456 -0.0163 -0.6182 -0.2039
  288TMC3     H 4348   4.207   1.516  14.687 -0.3655  0.2808  1.2712
  288TMC3    H1 4349   4.456   1.814  14.525 -0.7067  0.2905 -0.7396
  288TMC3    H2 4350   4.175   1.929  14.804 -1.9424  0.0642 -0.4966
  288TMC3    C7 4351   4.433   1.959  14.736  0.4061 -0.1610 -0.6506
  288TMC3    C8 4352   4.163   1.692  14.903 -0.2032  1.3153 -0.2493
  288TMC3    O1 4353   4.522   2.008  14.671  0.3717  0.3800  0.4823
  288TMC3    O2 4354   4.196   1.778  14.976 -0.1825  0.2053 -0.3742
  289MPD2     C 4355   4.519   0.734  15.032 -1.1858  0.1980  0.6516
  289MPD2    C1 4356   4.556   0.827  14.932  0.3223 -0.2948  0.6413
  289MPD2    C2 4357   4.481   0.815  14.810 -1.0635  0.5165 -0.2958
  289MPD2    C3 4358   4.370   0.724  14.804  0.0841  0.0560 -0.2627
  289MPD2    C4 4359   4.342   0.635  14.904 -0.8412  0.2365 -0.0479
  289MPD2    C5 4360   4.419   0.648  15.016  0.5010 -0.4793  0.0829
  289MPD2     H 4361   4.503   0.862  14.716 -0.9303  1.8604  0.4067
  289MPD2    H1 4362   4.258   0.567  14.903 -1.6563  1.2247  1.2422
  289MPD2    H2 4363   4.568   0.733  15.129  1.5747  1.5618 -0.7283
  289MPD2    H3 4364   4.382   0.581  15.093  3.6008 -0.0902  1.9167
  289MPD2     N 4365   4.303   0.708  14.681  0.3563 -0.6612 -0.2480
  289MPD2    H5 4366   4.234   0.633  14.689  0.8630 -1.0569  0.3822
  289MPD2    N1 4367   4.643   0.936  14.949 -0.0927  0.6438  0.7984
  289MPD2    H7 4368   4.679   0.955  15.042  0.1720 -1.5219  1.1400
  290TMC3    C1 4369   4.188   0.742  14.467 -0.2038 -0.3130 -0.1892
  290TMC3    C2 4370   4.140   0.843  14.386 -0.1186  0.1007 -0.0012
  290TMC3    C3 4371   4.021   0.831  14.327 -0.1930 -0.3278  0.1822
  290TMC3    C4 4372   4.112   0.635  14.494  0.5006 -0.0701  0.0643
  290TMC3    C5 4373   3.991   0.625  14.437 -0.4285  0.0921 -0.3524
  290TMC3    C6 4374   3.942   0.719  14.348 -0.0528 -0.0292  0.5594
  290TMC3     C 4375   4.297   0.780  14.558  0.3031  0.2001  0.7027
  290TMC3     O 4376   4.346   0.890  14.532  0.1573  0.2292 -0.1640
  290TMC3     H 4377   4.198   0.932  14.368 -0.7160  1.0900  2.9987
  290TMC3    H1 4378   4.149   0.552  14.554 -2.2325 -2.2659 -1.3313
  290TMC3    H2 4379   3.845   0.707  14.301  0.6102 -0.0898 -0.8025
  290TMC3    C7 4380   3.888   0.551  14.502  0.6058 -0.0477  0.7297
  290TMC3    C8 4381   3.957   0.946  14.268  0.6920 -0.2177  0.4924
  290TMC3    O1 4382   3.770   0.590  14.495  0.1003  0.7045 -0.2023
  290TMC3    O2 4383   3.848   0.930  14.216 -0.1278 -0.0452 -0.0777
  291MPD2     C 4384   3.583   1.277   0.475 -0.0381 -0.1043  0.4098
  291MPD2    C1 4385   3.703   1.252   0.547 -0.0286 -0.3206 -0.0668
  291MPD2    C2 4386   3.793   1.355   0.554 -0.4561  0.4307 -0.6310
  291MPD2    C3 4387   3.766   1.475   0.498  0.4180 -0.1185  1.2993
  291MPD2    C4 4388   3.650   1.497   0.431  0.4453  0.8196 -0.0965
  291MPD2    C5 4389   3.555   1.400   0.428 -0.2075 -0.0164  0.2271
  291MPD2     H 4390   3.880   1.330   0.613  0.4014  1.7346 -1.3661
  291MPD2    H1 4391   3.622   1.587   0.377 -0.5556  0.8437  0.4642
  291MPD2    H2 4392   3.503   1.203   0.478 -0.3692  0.1841 -1.2781
  291MPD2    H3 4393   3.460   1.422   0.380 -0.9274 -0.1730  1.5657
  291MPD2     N 4394   3.857   1.583   0.494 -0.0086  0.1835  0.5165
  291MPD2    H5 4395   3.859   1.667   0.437 -0.6793  0.5838  1.0862
  291MPD2    N1 4396   3.737   1.125   0.603  0.2061 -0.1824  0.6634
  291MPD2    H7 4397   3.817   1.120   0.666  1.6526 -1.9957 -1.3467
  292TMC3    C1 4398   3.730   0.879   0.620 -0.7842 -0.1015  0.1888
  292TMC3    C2 4399   3.803   0.886   0.735  0.0383 -0.1926  0.1126
  292TMC3    C3 4400   3.839   0.767   0.788 -0.3587  0.3002 -0.3684
  292TMC3    C4 4401   3.689   0.763   0.556 -0.3012  0.0711 -0.5487
  292TMC3    C5 4402   3.736   0.646   0.611 -0.1427 -0.2210 -0.0608
  292TMC3    C6 4403   3.806   0.649   0.732 -0.4765  0.0758 -0.2469
  292TMC3     C 4404   3.684   1.005   0.562  0.1732 -0.3502 -0.4912
  292TMC3     O 4405   3.619   0.991   0.460 -0.4180  0.3636  0.1653
  292TMC3     H 4406   3.829   0.979   0.785 -3.1160 -0.2430  1.8317
  292TMC3    H1 4407   3.626   0.772   0.468  1.6368 -0.9143 -2.0496
  292TMC3    H2 4408   3.861   0.560   0.761  0.1912  0.2140 -1.0934
  292TMC3    C7 4409   3.706   0.513   0.555  0.2730  0.0207 -0.0135
  292TMC3    C8 4410   3.916   0.768   0.907 -0.1004  0.4141 -0.7514
  292TMC3    O1 4411   3.719   0.417   0.629  0.5131  0.0756 -0.1674
  292TMC3    O2 4412   3.995   0.859   0.938 -0.6638  0.3821  1.1083
  293MPD2     C 4413   0.263   2.091  13.050  0.2931  0.1764  0.3225
  293MPD2    C1 4414   0.308   1.969  13.090 -0.7384  0.1238  0.2878
  293MPD2    C2 4415   0.418   1.961  13.177  0.4568  0.3579  0.0020
  293MPD2    C3 4416   0.480   2.077  13.222 -0.5803 -0.3014  0.2570
  293MPD2    C4 4417   0.427   2.201  13.183  0.3609 -0.7252 -0.1134
  293MPD2    C5 4418   0.330   2.206  13.096 -0.2351 -0.8070 -0.2236
  293MPD2     H 4419   0.454   1.865  13.212  2.2189  1.1599  0.3898
  293MPD2    H1 4420   0.470   2.293  13.220  2.7631 -2.0684  0.4359
  293MPD2    H2 4421   0.180   2.099  12.981  0.8217  0.7001 -0.2620
  293MPD2    H3 4422   0.287   2.294  13.050 -1.7031 -0.1966  2.3757
  293MPD2     N 4423   0.584   2.071  13.316 -0.0636 -0.2229  0.1814
  293MPD2    H5 4424   0.597   1.977  13.354 -1.2386 -0.1726  0.7094
  293MPD2    N1 4425   0.256   1.855  13.030  0.2294  0.0292 -0.3213
  293MPD2    H7 4426   0.168   1.870  12.983 -0.1948 -0.2633  0.3765
  294TMC3    C1 4427   0.227   1.639  12.948 -0.2289  0.1591 -0.1717
  294TMC3    C2 4428   0.091   1.650  12.955  0.5424 -0.6830 -0.2533
  294TMC3    C3 4429   0.016   1.572  12.867 -0.0899  0.0946 -0.4813
  294TMC3    C4 4430   0.285   1.588  12.835 -0.3880  0.8661  0.1538
  294TMC3    C5 4431   0.209   1.524  12.740 -0.7080  1.1239  0.1675
  294TMC3    C6 4432   0.073   1.516  12.757  0.2368  0.1430  0.3118
  294TMC3     C 4433   0.306   1.723  13.035 -0.2712  0.2150 -0.8154
  294TMC3     O 4434   0.419   1.685  13.066 -0.5217 -0.4612 -0.1518
  294TMC3     H 4435   0.047   1.695  13.044 -1.2319 -1.3470 -0.7807
  294TMC3    H1 4436   0.393   1.585  12.826 -0.3164  0.3858  1.2063
  294TMC3    H2 4437   0.022   1.458  12.681  0.7825 -1.1432  0.9430
  294TMC3    C7 4438   0.273   1.466  12.621  0.5640  0.1555 -1.0485
  294TMC3    C8 4439   4.592   1.580  12.886  0.4858 -0.5463  0.1408
  294TMC3    O1 4440   0.215   1.372  12.562  0.1212  0.0759 -0.1608
  294TMC3    O2 4441   4.543   1.656  12.968  1.0440  0.5362  0.4172
  295MPD2     C 4442   0.534   1.039   0.903  0.1743 -0.4172 -0.0505
  295MPD2    C1 4443   0.662   1.033   0.849  0.5697 -0.3431 -0.1706
  295MPD2    C2 4444   0.757   0.965   0.920  0.2612  0.6493 -0.1191
  295MPD2    C3 4445   0.732   0.908   1.044  0.2270 -0.9904  0.5205
  295MPD2    C4 4446   0.603   0.918   1.090 -0.4674 -0.2683 -0.4506
  295MPD2    C5 4447   0.508   0.985   1.022 -0.1038 -0.5518 -0.3424
  295MPD2     H 4448   0.860   0.967   0.886 -0.1629  3.6253 -1.2439
  295MPD2    H1 4449   0.574   0.875   1.186 -0.3516 -1.3339 -0.8927
  295MPD2    H2 4450   0.452   1.093   0.856 -0.0651 -0.1583  0.6632
  295MPD2    H3 4451   0.409   0.982   1.066 -0.4638 -3.1875 -1.2938
  295MPD2     N 4452   0.830   0.856   1.133 -0.0802  1.1372 -0.7228
  295MPD2    H5 4453   0.795   0.830   1.225 -0.8263 -0.1495 -1.3666
  295MPD2    N1 4454   0.706   1.092   0.732 -0.1984 -0.1350  0.2384
  295MPD2    H7 4455   0.802   1.076   0.703 -0.3582 -0.2079 -0.2478
  296TMC3    C1 4456   1.035   0.789   1.214 -0.0899  0.1104  0.4682
  296TMC3    C2 4457   1.169   0.801   1.209  0.9313  0.5139 -0.2622
  296TMC3    C3 4458   1.251   0.780   1.315 -0.0618 -0.1801  0.4071
  296TMC3    C4 4459   0.980   0.762   1.331 -0.4956 -0.2269 -0.4419
  296TMC3    C5 4460   1.059   0.733   1.439  0.1647  0.6974  0.7577
  296TMC3    C6 4461   1.196   0.742   1.438  0.3818 -0.7560 -0.9272
  296TMC3     C 4462   0.958   0.835   1.101 -0.5088 -0.2030  0.0710
  296TMC3     O 4463   1.024   0.855   0.995 -0.3399  0.5039  0.0850
  296TMC3     H 4464   1.209   0.815   1.109  0.6989 -0.4741 -0.4954
  296TMC3    H1 4465   0.872   0.755   1.342 -0.3000  0.2007  1.7447
  296TMC3    H2 4466   1.257   0.705   1.520  0.6180  0.6531 -0.4693
  296TMC3    C7 4467   0.989   0.686   1.556 -0.7394 -0.1934 -0.4155
  296TMC3    C8 4468   1.374   0.856   1.308 -0.5382  0.8001  0.6401
  296TMC3    O1 4469   0.871   0.725   1.572  0.2982 -0.1704 -0.1809
  296TMC3    O2 4470   1.426   0.877   1.204 -0.7041 -0.0241  0.4179
  297MPD2     C 4471   3.364   2.948  16.813  0.2681  0.2327 -0.1638
  297MPD2    C1 4472   3.371   2.997  16.688 -0.1117  0.5862  0.3026
  297MPD2    C2 4473   3.481   3.059  16.643 -0.5462  0.0623 -0.9263
  297MPD2    C3 4474   3.596   3.071  16.722  0.0565 -0.8828  0.4853
  297MPD2    C4 4475   3.585   3.024  16.854  0.2613  0.3766  0.0084
  297MPD2    C5 4476   3.469   2.968  16.900 -0.1837 -0.1056  0.3313
  297MPD2     H 4477   3.479   3.094  16.540 -2.2050  0.2654 -0.8239
  297MPD2    H1 4478   3.665   3.037  16.927 -0.8914  0.2068  1.3136
  297MPD2    H2 4479   3.273   2.907  16.854  1.4728 -0.4188  1.8425
  297MPD2    H3 4480   3.467   2.927  17.000 -2.7226 -0.1958  0.2497
  297MPD2     N 4481   3.713   3.134  16.676  0.4962  0.0752 -0.6434
  297MPD2    H5 4482   3.777   3.163  16.749 -0.9358 -1.3784  1.1687
  297MPD2    N1 4483   3.255   2.995  16.605  0.2437  0.0013 -0.1138
  297MPD2    H7 4484   3.255   3.064  16.530  1.3156 -0.4977 -0.5692
  298TMC3    C1 4485   3.036   2.970  16.544 -0.4171 -1.1331  0.0398
  298TMC3    C2 4486   3.065   3.022  16.414  0.4543  0.0215 -0.1984
  298TMC3    C3 4487   2.970   3.109  16.358 -0.4408 -0.3137  0.1638
  298TMC3    C4 4488   2.928   3.003  16.612  0.0486  0.3407 -0.0571
  298TMC3    C5 4489   2.836   3.090  16.555 -0.1898 -0.1337 -0.1536
  298TMC3    C6 4490   2.860   3.148  16.433  0.1056 -0.0064 -0.6456
  298TMC3     C 4491   3.144   2.919  16.626  0.1792 -0.0545  0.6369
  298TMC3     O 4492   3.111   2.839  16.714 -0.4369 -0.4939  0.1905
  298TMC3     H 4493   3.154   2.988  16.363 -0.3392 -0.0577 -1.5276
  298TMC3    H1 4494   2.905   2.962  16.710 -1.3467  0.6720 -0.2445
  298TMC3    H2 4495   2.781   3.206  16.388  0.0920  0.7166  0.3363
  298TMC3    C7 4496   2.743   3.151  16.650 -0.6321 -0.1322 -0.0359
  298TMC3    C8 4497   2.994   3.183  16.234 -0.0001 -0.2591  0.0260
  298TMC3    O1 4498   2.762   3.141  16.770  0.0043 -0.0337 -0.8719
  298TMC3    O2 4499   2.907   3.269  16.212 -0.3053 -0.0295 -0.5536
  299MPD2     C 4500   4.668   2.131  10.816 -0.2967 -0.0260  1.0206
  299MPD2    C1 4501   4.609   2.246  10.765 -0.1627  0.0063  0.7203
  299MPD2    C2 4502   4.485   2.232  10.713  0.3057  0.5731  0.5367
  299MPD2    C3 4503   4.414   2.113  10.725 -0.1740  0.5129 -1.3479
  299MPD2    C4 4504   4.481   2.001  10.768 -0.2565 -0.6212 -0.0513
  299MPD2    C5 4505   4.612   2.004  10.811  0.1829 -0.4107 -0.1453
  299MPD2     H 4506   4.434   2.318  10.670  1.2120  1.6001  1.5155
  299MPD2    H1 4507   4.422   1.911  10.776 -2.4943  0.8862  0.4134
  299MPD2    H2 4508   0.046   2.138  10.856  0.1777  0.7031 -0.3169
  299MPD2    H3 4509   4.664   1.919  10.855 -0.2575 -0.3970  0.3990
  299MPD2     N 4510   4.278   2.097  10.693  0.7828  0.0469 -0.2513
  299MPD2    H5 4511   4.233   2.007  10.700  0.7878  0.0405 -0.3022
  299MPD2    N1 4512   4.674   2.376  10.786  0.2689  0.5112 -0.1361
  299MPD2    H7 4513   0.040   2.368  10.834  0.1385  2.4478  0.4177
  300TMC3    C1 4514   4.052   2.159  10.649  0.0086  0.0382 -0.0230
  300TMC3    C2 4515   3.975   2.228  10.559 -0.0450 -0.1759  0.0798
  300TMC3    C3 4516   3.850   2.273  10.593 -0.2047  0.0434 -0.0830
  300TMC3    C4 4517   4.006   2.138  10.776  0.1927 -0.5707 -0.1065
  300TMC3    C5 4518   3.882   2.192  10.804 -0.1892  0.0903 -1.1379
  300TMC3    C6 4519   3.804   2.267  10.722  0.2331  0.0679  0.2132
  300TMC3     C 4520   4.195   2.196  10.645  0.2731 -0.5733  0.4798
  300TMC3     O 4521   4.219   2.303  10.595 -0.2789  1.2281 -0.1101
  300TMC3     H 4522   4.011   2.254  10.460  0.5044 -2.1035 -0.2203
  300TMC3    H1 4523   4.060   2.081  10.851  1.5020  1.8463  0.7850
  300TMC3    H2 4524   3.708   2.313  10.742  0.4513  0.6370 -0.0509
  300TMC3    C7 4525   3.843   2.182  10.938  0.3436  0.0144  0.3690
  300TMC3    C8 4526   3.793   2.381  10.517  0.0450  0.2685 -0.5173
  300TMC3    O1 4527   3.863   2.072  10.993 -0.1544 -0.1163  0.6117
  300TMC3    O2 4528   3.878   2.461  10.479  0.3018 -0.1257  0.2499
  301MPD2     C 4529   0.653   3.550   2.036 -0.0784  1.0690  0.4230
  301MPD2    C1 4530   0.747   3.508   1.947 -0.3640  0.2693  0.2057
  301MPD2    C2 4531   0.759   3.369   1.925  0.8007  0.8964  0.3369
  301MPD2    C3 4532   0.681   3.278   1.993 -0.2400  0.1625  0.0437
  301MPD2    C4 4533   0.586   3.327   2.085  0.3452 -0.1385 -0.2277
  301MPD2    C5 4534   0.580   3.463   2.104  0.1161 -0.5365  0.2073
  301MPD2     H 4535   0.824   3.338   1.845  0.1025 -1.9759  0.8863
  301MPD2    H1 4536   0.526   3.270   2.155 -0.4843  0.9710 -0.0390
  301MPD2    H2 4537   0.622   3.651   2.058 -0.6469  0.7003  1.3528
  301MPD2    H3 4538   0.512   3.501   2.180  2.7793  1.6293  1.4809
  301MPD2     N 4539   0.689   3.138   1.981  0.0046 -0.3174 -0.5435
  301MPD2    H5 4540   0.622   3.086   2.036 -0.2164  0.2759 -0.2458
  301MPD2    N1 4541   0.833   3.598   1.880  0.1858 -0.1566  0.3460
  301MPD2    H7 4542   0.890   3.553   1.810 -1.4049 -2.0049  0.2289
  302TMC3    C1 4543   0.785   2.932   1.924 -0.0971 -0.4747 -0.1790
  302TMC3    C2 4544   0.902   2.869   1.897  0.7984 -0.1752  0.7406
  302TMC3    C3 4545   0.898   2.742   1.845 -0.4692  0.2642  0.2971
  302TMC3    C4 4546   0.668   2.888   1.865  0.0157  0.2975  0.6784
  302TMC3    C5 4547   0.680   2.774   1.789 -0.1336  0.0671 -0.9811
  302TMC3    C6 4548   0.785   2.695   1.781  0.0451  0.4483  0.0690
  302TMC3     C 4549   0.800   3.076   1.929  0.0321 -0.5433  0.1860
  302TMC3     O 4550   0.904   3.129   1.900  0.3257 -0.3886 -0.3495
  302TMC3     H 4551   0.993   2.910   1.939  1.7216 -1.0509 -0.3972
  302TMC3    H1 4552   0.590   2.963   1.856 -0.0956 -0.2238 -2.4682
  302TMC3    H2 4553   0.792   2.605   1.721 -2.4745 -0.0605  0.5258
  302TMC3    C7 4554   0.603   2.795   1.672  0.2099 -0.1035  0.2540
  302TMC3    C8 4555   1.026   2.689   1.822  0.7998 -0.1594 -0.4651
  302TMC3    O1 4556   0.488   2.835   1.689 -0.0561  0.0925 -0.1081
  302TMC3    O2 4557   1.130   2.755   1.833  0.1880 -0.1535 -0.1576
  303MPD2     C 4558   1.043   2.857  10.704  0.1641 -0.1737 -0.2175
  303MPD2    C1 4559   1.047   2.720  10.714 -0.3920 -0.2010 -0.0217
  303MPD2    C2 4560   1.002   2.645  10.605 -0.0794  0.8811 -0.5797
  303MPD2    C3 4561   0.947   2.702  10.493 -0.0047  0.1755 -0.0784
  303MPD2    C4 4562   0.937   2.837  10.491 -0.3567  0.3541  0.8261
  303MPD2    C5 4563   0.988   2.913  10.592  0.4415 -0.0515  0.5349
  303MPD2     H 4564   1.014   2.537  10.610 -0.6125  0.9239  1.5406
  303MPD2    H1 4565   0.906   2.894  10.404 -0.2447  0.7133  1.0197
  303MPD2    H2 4566   1.073   2.922  10.785  0.1264  0.1985 -0.5017
  303MPD2    H3 4567   0.992   3.020  10.576 -1.5590 -0.2481 -1.1765
  303MPD2     N 4568   0.910   2.637  10.374  0.1279 -0.8989 -0.5661
  303MPD2    H5 4569   0.887   2.699  10.298 -1.0268  2.0412  2.1602
  303MPD2    N1 4570   1.084   2.656  10.834  0.3745 -0.1639  0.1985
  303MPD2    H7 4571   1.126   2.717  10.904  1.3958 -0.3424 -0.2624
  304TMC3    C1 4572   1.144   2.491  11.000 -1.0796  0.0899 -1.1021
  304TMC3    C2 4573   1.092   2.386  11.068 -0.1996  0.3631 -0.3690
  304TMC3    C3 4574   1.181   2.317  11.141  0.3424 -0.3216 -0.0162
  304TMC3    C4 4575   1.279   2.531  10.999 -0.1710  0.4500  0.0175
  304TMC3    C5 4576   1.360   2.463  11.083  0.8746 -0.4326  0.4835
  304TMC3    C6 4577   1.313   2.363  11.157 -0.0612  0.0502 -0.0185
  304TMC3     C 4578   1.076   2.521  10.871 -0.1413 -0.3179  0.1764
  304TMC3     O 4579   0.999   2.436  10.829 -0.3302 -0.6527  0.1082
  304TMC3     H 4580   0.989   2.355  11.057 -0.1110 -0.3526  0.7856
  304TMC3    H1 4581   1.314   2.606  10.930 -1.7801  2.6885  1.6030
  304TMC3    H2 4582   1.382   2.319  11.228  1.5322  0.1729 -1.4947
  304TMC3    C7 4583   1.489   2.431  11.024  0.3097 -0.0674 -0.1256
  304TMC3    C8 4584   1.186   2.173  11.121 -0.4056 -0.8493  0.2292
  304TMC3    O1 4585   1.585   2.422  11.098 -0.6024 -0.9505  0.3375
  304TMC3    O2 4586   1.297   2.122  11.108  0.5790 -0.2930  0.2087
  305MPD2     C 4587   3.853   3.881  14.348  0.3752 -0.3906 -0.8495
  305MPD2    C1 4588   3.985   3.861  14.313  0.0170  0.2852  0.0803
  305MPD2    C2 4589   4.011   3.843  14.178  0.0910  0.0301 -0.5200
  305MPD2    C3 4590   3.918   3.868  14.077  0.0155 -0.4604  0.1376
  305MPD2    C4 4591   3.789   3.899  14.115 -0.2222  0.5294 -0.0368
  305MPD2    C5 4592   3.766   3.902  14.251 -0.0225  0.0632 -0.0944
  305MPD2     H 4593   4.117   3.837  14.153 -0.2876  2.0451 -2.6056
  305MPD2    H1 4594   3.708   3.909  14.044 -0.9503  2.4237  1.0563
  305MPD2    H2 4595   3.819   3.887  14.451 -0.7142 -1.7307 -1.1435
  305MPD2    H3 4596   3.665   3.917  14.287 -0.8763 -0.5293 -2.2168
  305MPD2     N 4597   3.956   3.867  13.940  0.1204 -0.3477  0.5983
  305MPD2    H5 4598   4.056   3.857  13.929  0.1845 -1.0578  1.8269
  305MPD2    N1 4599   4.078   3.845  14.412 -0.1487  0.3211  0.4222
  305MPD2    H7 4600   4.057   3.875  14.507  2.7499 -0.3811  1.2980
  306TMC3    C1 4601   4.291   3.785  14.520 -0.0827 -1.5504 -0.5118
  306TMC3    C2 4602   4.376   3.686  14.552  0.3796 -0.6163 -0.6951
  306TMC3    C3 4603   4.437   3.689  14.679  0.0163 -0.1551 -0.4698
  306TMC3    C4 4604   4.271   3.893  14.603  0.5447  0.2489  0.7158
  306TMC3    C5 4605   4.333   3.894  14.725  0.5997 -0.5311  0.4513
  306TMC3    C6 4606   4.411   3.790  14.773  0.1527  0.5494 -0.1546
  306TMC3     C 4607   4.198   3.771  14.402 -0.6760 -0.1651  0.5837
  306TMC3     O 4608   4.240   3.705  14.306  0.0501 -0.0339  0.0988
  306TMC3     H 4609   4.389   3.612  14.475 -2.1524 -0.4463 -1.2921
  306TMC3    H1 4610   4.212   3.978  14.570 -0.8930 -1.4734 -1.0797
  306TMC3    H2 4611   4.451   3.792  14.874  0.3772 -2.7303 -0.1556
  306TMC3    C7 4612   4.299   3.997  14.817  0.3884  0.8708  0.0143
  306TMC3    C8 4613   4.536   3.588  14.703  0.5771  0.1669  0.5393
  306TMC3    O1 4614   4.179   4.030  14.819  1.2758 -0.3583 -0.0058
  306TMC3    O2 4615   4.623   3.608  14.786  0.2697 -0.5627  0.3541
  307MPD2     C 4616   2.898   1.538  17.506  0.3746  0.3058 -0.4179
  307MPD2    C1 4617   2.826   1.639  17.454  0.9778 -0.1011  0.4417
  307MPD2    C2 4618   2.725   1.699  17.529 -0.3031 -0.1811  0.1840
  307MPD2    C3 4619   2.701   1.658  17.660 -0.0703  0.4992 -0.1603
  307MPD2    C4 4620   2.781   1.553   0.014 -0.4263 -0.6192 -0.5761
  307MPD2    C5 4621   2.870   1.488  17.624  0.2001 -0.4898 -0.1441
  307MPD2     H 4622   2.660   1.776  17.489  1.6814  0.5969 -1.5839
  307MPD2    H1 4623   2.777   1.526   0.119 -2.7320 -1.1334 -0.8143
  307MPD2    H2 4624   2.972   1.478  17.455  0.3674  0.4511 -0.5964
  307MPD2    H3 4625   2.929   1.403  17.655 -0.4090 -1.4198 -1.5057
  307MPD2     N 4626   2.612   1.736   0.046  0.3743 -0.0774  0.3918
  307MPD2    H5 4627   2.566   1.815   0.002  2.3544  1.1429  0.5055
  307MPD2    N1 4628   2.843   1.692  17.319  0.3765  0.0340  0.0176
  307MPD2    H7 4629   2.773   1.752  17.277 -0.2766 -0.4629  0.3854
  308TMC3    C1 4630   2.340   1.816   0.420  0.5432  0.1251 -0.7781
  308TMC3    C2 4631   2.338   1.945   0.404  0.1955  0.7128  0.0995
  308TMC3    C3 4632   2.400   1.999   0.296 -0.2125  0.9014  0.0924
  308TMC3    C4 4633   2.413   1.737   0.336 -0.3566 -0.0651 -0.2000
  308TMC3    C5 4634   2.468   1.788   0.220  0.2259 -0.4892  0.5801
  308TMC3    C6 4635   2.462   1.927   0.196  0.1657  0.4575 -0.4449
  308TMC3     C 4636   2.300   1.755   0.546  0.0706 -0.4901  0.2170
  308TMC3     O 4637   2.333   1.638   0.563  0.6473 -0.2687 -0.0062
  308TMC3     H 4638   2.293   2.014   0.475 -1.5675 -0.7332  0.3795
  308TMC3    H1 4639   2.423   1.630   0.348  0.5352  0.0260 -0.1174
  308TMC3    H2 4640   2.516   1.982   0.121  0.5992  0.9063  0.1942
  308TMC3    C7 4641   2.584   1.710   0.174  0.3418 -0.0315 -0.0104
  308TMC3    C8 4642   2.418   2.143   0.305  0.0559  0.0908  0.3718
  308TMC3    O1 4643   2.633   1.630   0.248 -0.1463  0.7790 -0.3776
  308TMC3    O2 4644   2.432   2.190   0.419  0.5451  0.4812  0.0387
  309MPD2     C 4645   1.044   2.063  17.281  0.1815  0.3817 -0.0750
  309MPD2    C1 4646   1.111   2.178  17.283 -0.3601 -0.0543  0.5343
  309MPD2    C2 4647   1.078   2.265  17.380 -0.4064  0.1096  0.1705
  309MPD2    C3 4648   0.973   2.242  17.472  0.6474  0.2460  0.3658
  309MPD2    C4 4649   0.900   2.123  17.452  0.7959  0.2565 -0.2260
  309MPD2    C5 4650   0.940   2.035  17.362 -0.3723 -0.2299  0.2088
  309MPD2     H 4651   1.128   2.361  17.384 -0.0430 -0.0293 -1.0688
  309MPD2    H1 4652   0.817   2.093  17.514  1.3136  2.0774  1.3501
  309MPD2    H2 4653   1.063   1.994  17.199 -0.6077 -1.7534  1.5536
  309MPD2    H3 4654   0.889   1.940  17.348 -1.3015  0.0828  1.5200
  309MPD2     N 4655   0.941   2.330  17.579 -0.3971  0.1446  0.1539
  309MPD2    H5 4656   0.850   2.316  17.623 -1.5471 -2.1152 -2.9092
  309MPD2    N1 4657   1.203   2.207  17.178 -0.1097 -0.2646 -0.3568
  309MPD2    H7 4658   1.239   2.302  17.181 -0.8088  0.0582 -2.4082
  310TMC3    C1 4659   1.367   2.179  17.002 -0.5893 -1.0819 -0.7912
  310TMC3    C2 4660   1.338   2.295  16.942  0.6379  0.0020 -0.1610
  310TMC3    C3 4661   1.419   2.339  16.837 -0.1086  0.0349 -0.5745
  310TMC3    C4 4662   1.476   2.105  16.963  0.3030 -0.2731  0.3611
  310TMC3    C5 4663   1.557   2.165  16.871  0.1618 -0.5473 -0.0733
  310TMC3    C6 4664   1.532   2.281  16.804  0.0497 -0.8144  0.5655
  310TMC3     C 4665   1.266   2.115  17.092 -0.3972 -0.3825 -0.3361
  310TMC3     O 4666   1.285   2.000  17.123  0.3972 -0.4141  0.3714
  310TMC3     H 4667   1.240   2.336  16.964  1.3634  0.5741  1.9643
  310TMC3    H1 4668   1.494   2.014  17.019 -0.4205 -0.0044  1.0388
  310TMC3    H2 4669   1.598   2.323  16.728  1.5868 -2.1564  1.1497
  310TMC3    C7 4670   1.658   2.071  16.827 -0.5105 -0.4307  0.1147
  310TMC3    C8 4671   1.360   2.417  16.737 -0.2025 -0.3655  0.4738
  310TMC3    O1 4672   1.648   1.955  16.861  0.2106 -0.4016 -0.1952
  310TMC3    O2 4673   1.406   2.406  16.624 -0.0356  0.2285  0.1411
  311MPD2     C 4674   3.198   3.910  12.729 -0.2369 -0.4258  0.3638
  311MPD2    C1 4675   3.259   3.907  12.850 -0.0807 -0.0799 -0.5106
  311MPD2    C2 4676   3.191   3.844  12.957 -0.8861 -0.4359 -0.2693
  311MPD2    C3 4677   3.082   3.765  12.925 -0.3618 -0.3259  0.4563
  311MPD2    C4 4678   3.038   3.751  12.793 -0.2520 -0.0518 -0.1799
  311MPD2    C5 4679   3.092   3.827  12.695 -0.3909 -0.2936  0.4965
  311MPD2     H 4680   3.234   3.842  13.056 -2.3430 -1.1010  0.3534
  311MPD2    H1 4681   2.961   3.682  12.760 -2.1971  1.3004  1.5648
  311MPD2    H2 4682   3.236   3.973  12.649 -0.9241 -0.2826  0.1518
  311MPD2    H3 4683   3.062   3.825  12.591 -0.8745  2.2882  0.5879
  311MPD2     N 4684   3.004   3.691  13.015  0.6299 -0.1351  0.0913
  311MPD2    H5 4685   2.937   3.629  12.971 -3.1990  1.4127  3.7555
  311MPD2    N1 4686   3.384   3.970  12.874 -0.3922 -0.0807  0.0105
  311MPD2    H7 4687   3.411   3.981  12.971 -1.2610  1.5856  0.0692
  312TMC3    C1 4688   2.889   3.648  13.227 -0.3696 -0.0746 -0.6393
  312TMC3    C2 4689   2.766   3.627  13.161 -0.3777  0.4460 -0.3213
  312TMC3    C3 4690   2.659   3.606  13.247  0.0975  0.5879  0.0089
  312TMC3    C4 4691   2.896   3.651  13.364  0.5039 -0.9082  0.5628
  312TMC3    C5 4692   2.784   3.644  13.447 -0.5412  0.1644  0.1200
  312TMC3    C6 4693   2.663   3.624  13.384 -0.2775 -0.9489  0.8335
  312TMC3     C 4694   2.999   3.702  13.156  0.5706  0.2413 -0.3879
  312TMC3     O 4695   3.073   3.776  13.218  0.2250  0.4823 -0.0406
  312TMC3     H 4696   2.757   3.606  13.055 -1.8841 -1.1464  0.1129
  312TMC3    H1 4697   2.990   3.683  13.406 -0.2634  1.4963  0.4130
  312TMC3    H2 4698   2.572   3.620  13.443 -0.7480  2.0032  0.2822
  312TMC3    C7 4699   2.758   3.765  13.527  0.0233 -0.2354  0.2495
  312TMC3    C8 4700   2.534   3.652  13.200 -0.0570  0.8137 -0.0744
  312TMC3    O1 4701   2.687   3.842  13.473  0.1784  0.2848 -0.8482
  312TMC3    O2 4702   2.513   3.604  13.087  0.7235 -0.1280 -0.9519
  313MPD2     C 4703   3.199   2.950  10.296  0.4946  0.0178  0.3177
  313MPD2    C1 4704   3.110   2.980  10.389  0.3560 -0.3018  0.2806
  313MPD2    C2 4705   2.979   2.953  10.381  0.0997  0.1018  0.3884
  313MPD2    C3 4706   2.933   2.878  10.275 -0.1041 -0.5723 -0.2617
  313MPD2    C4 4707   3.023   2.828  10.186  0.0854  0.5413 -0.6270
  313MPD2    C5 4708   3.152   2.872  10.192  0.3453 -0.6489 -0.0634
  313MPD2     H 4709   2.921   2.999  10.460  0.4968  0.3386  0.5444
  313MPD2    H1 4710   2.995   2.772  10.097 -1.3011 -1.2678  0.9621
  313MPD2    H2 4711   3.303   2.977  10.311  0.1043  1.1466  0.9995
  313MPD2    H3 4712   3.235   2.856  10.124  0.6084  0.9904 -0.1266
  313MPD2     N 4713   2.793   2.866  10.260  0.7053  0.2747 -0.2197
  313MPD2    H5 4714   2.734   2.911  10.329 -0.0469  1.7884 -1.8488
  313MPD2    N1 4715   3.162   3.044  10.505  0.2796  0.0209  0.2811
  313MPD2    H7 4716   3.090   3.066  10.573 -1.3086 -1.0734 -1.0205
  314TMC3    C1 4717   3.260   3.140  10.680  0.7238 -0.8304 -0.1046
  314TMC3    C2 4718   3.320   3.261  10.688 -0.2315  0.3746  0.6102
  314TMC3    C3 4719   3.250   3.352  10.766  0.1285  0.0576 -0.0940
  314TMC3    C4 4720   3.145   3.107  10.750  0.5704  0.4028  0.0103
  314TMC3    C5 4721   3.088   3.208  10.829 -0.3026 -0.3480 -0.0292
  314TMC3    C6 4722   3.129   3.336  10.819 -1.4924 -0.0752 -0.1650
  314TMC3     C 4723   3.278   3.082  10.552 -0.4807 -0.1564 -0.0306
  314TMC3     O 4724   3.387   3.070  10.499 -0.7414 -0.1080  0.2477
  314TMC3     H 4725   3.406   3.292  10.629  2.1078 -0.4782  3.5442
  314TMC3    H1 4726   3.095   3.011  10.750  0.1167  0.6422 -1.3751
  314TMC3    H2 4727   3.093   3.411  10.890 -0.0995 -0.0525  0.5201
  314TMC3    C7 4728   2.940   3.192  10.826  0.2770  0.4139  0.3680
  314TMC3    C8 4729   3.296   3.489  10.779 -0.0096  0.2847  0.5778
  314TMC3    O1 4730   2.885   3.084  10.817  0.1829  0.4344  0.5822
  314TMC3    O2 4731   3.215   3.576  10.777  0.3256 -0.1039  1.0723
  315MPD2     C 4732   2.776   2.293  17.647 -0.1545  0.5485  0.4120
  315MPD2    C1 4733   2.799   2.321   0.090 -0.3634 -0.7353  0.7135
  315MPD2    C2 4734   2.786   2.453   0.135  0.2180 -0.7727  0.1497
  315MPD2    C3 4735   2.755   2.554   0.044 -0.1675  0.8838 -0.0933
  315MPD2    C4 4736   2.727   2.523  17.609 -0.2511  0.0436  0.3401
  315MPD2    C5 4737   2.729   2.391  17.564 -0.0465  0.5553  0.3422
  315MPD2     H 4738   2.807   2.474   0.240 -0.0699 -0.4377  0.1384
  315MPD2    H1 4739   2.706   2.602  17.538  0.6938  1.0753  1.2157
  315MPD2    H2 4740   2.792   2.196  17.602  3.9548  2.0040 -1.2336
  315MPD2    H3 4741   2.701   2.374  17.461  1.1439  0.4774  0.0264
  315MPD2     N 4742   2.755   2.680   0.100 -0.9706 -0.3094  0.1509
  315MPD2    H5 4743   2.777   2.695   0.198  0.2491  2.3301 -0.5239
  315MPD2    N1 4744   2.832   2.226   0.190 -0.0740  0.2195 -0.0635
  315MPD2    H7 4745   2.855   2.259   0.284 -0.7405  3.1177 -0.9007
  316TMC3    C1 4746   2.747   2.906   0.122 -0.3345  0.5379 -0.1147
  316TMC3    C2 4747   2.756   2.873   0.254  0.0025  0.5794 -0.0697
  316TMC3    C3 4748   2.861   2.908   0.331 -0.6261 -0.7003 -0.4882
  316TMC3    C4 4749   2.835   2.999   0.073 -0.0986  0.0494 -0.1315
  316TMC3    C5 4750   2.925   3.049   0.164 -0.2277  1.2664 -0.5377
  316TMC3    C6 4751   2.957   2.990   0.283  0.5607 -0.1278  0.7470
  316TMC3     C 4752   2.726   2.796   0.034 -0.1173  0.1368  0.0647
  316TMC3     O 4753   2.691   2.812  17.610  0.2071  0.8735 -0.3335
  316TMC3     H 4754   2.671   2.812   0.282  1.5282 -0.0331  3.2521
  316TMC3    H1 4755   2.835   3.020  17.660 -0.8921  2.7874  0.3949
  316TMC3    H2 4756   3.031   3.036   0.347  3.8084 -2.8379 -1.0337
  316TMC3    C7 4757   2.977   3.175   0.151  0.1517  0.7961 -0.3821
  316TMC3    C8 4758   2.914   2.777   0.383 -0.0960 -1.0404  0.1399
  316TMC3    O1 4759   3.055   3.223   0.228  0.4858 -0.4134  0.4982
  316TMC3    O2 4760   2.841   2.681   0.358 -0.0200  0.2386 -0.3697
  317MPD2     C 4761   4.468   0.910  13.284 -0.4315 -0.1672 -0.3702
  317MPD2    C1 4762   4.476   0.777  13.332 -0.1667  0.0479 -0.3298
  317MPD2    C2 4763   4.558   0.750  13.443 -0.1938  0.1945  0.5296
  317MPD2    C3 4764   4.632   0.858  13.499 -0.4613  0.5243  0.3069
  317MPD2    C4 4765   4.627   0.991  13.437 -0.1607 -0.1080 -0.0292
  317MPD2    C5 4766   4.547   1.011  13.322  0.2093 -0.0794  0.2108
  317MPD2     H 4767   4.547   0.652  13.488 -0.7674 -0.6245 -1.4146
  317MPD2    H1 4768   4.677   1.079  13.474 -0.2759  0.8812 -2.2521
  317MPD2    H2 4769   4.398   0.937  13.206 -1.0001 -2.9616 -0.8527
  317MPD2    H3 4770   4.535   1.110  13.280 -0.2932 -0.8352 -1.4476
  317MPD2     N 4771   4.709   0.824  13.616  0.4795  0.3419  0.1260
  317MPD2    H5 4772   4.718   0.726  13.640  0.4076  0.1638 -0.5834
  317MPD2    N1 4773   4.394   0.668  13.289 -0.0966 -0.1244 -0.3459
  317MPD2    H7 4774   4.425   0.578  13.325  1.3005  1.6018  2.7828
  318TMC3    C1 4775   0.150   0.844  13.785  0.5429 -0.3135  0.7324
  318TMC3    C2 4776   0.123   0.712  13.809  0.6467  0.9387  0.3358
  318TMC3    C3 4777   0.214   0.641  13.887 -0.2712  0.0567 -0.1315
  318TMC3    C4 4778   0.262   0.907  13.830  0.1349 -0.2365 -0.0360
  318TMC3    C5 4779   0.349   0.837  13.913  0.1266 -0.4690  0.1616
  318TMC3    C6 4780   0.324   0.706  13.944  0.1278 -0.6423  0.7213
  318TMC3     C 4781   0.072   0.911  13.680  0.1947 -0.0584  0.2920
  318TMC3     O 4782   0.097   1.031  13.659 -0.2426 -0.4151  0.0443
  318TMC3     H 4783   0.023   0.672  13.799  0.4202  1.6662 -0.3055
  318TMC3    H1 4784   0.297   1.005  13.802 -0.3537  0.2158  0.9371
  318TMC3    H2 4785   0.394   0.651  14.005  1.7372  0.8977  0.2684
  318TMC3    C7 4786   0.464   0.909  13.978  0.3263 -0.4143 -0.6796
  318TMC3    C8 4787   0.171   0.512  13.949 -0.0790  0.6850 -0.1466
  318TMC3    O1 4788   0.436   1.015  14.035  0.1249  0.1570 -0.0037
  318TMC3    O2 4789   0.229   0.472  14.047  0.0217 -0.0351  0.0467
  319MPD2     C 4790   0.387   2.940  17.261 -0.3646 -0.0691  0.4142
  319MPD2    C1 4791   0.258   2.918  17.222 -0.1573  0.4022  0.2502
  319MPD2    C2 4792   0.232   2.830  17.119  0.4910  0.5562  0.4547
  319MPD2    C3 4793   0.332   2.764  17.044 -0.3527 -0.1397  1.1280
  319MPD2    C4 4794   0.458   2.801  17.067 -0.0773  0.1923 -0.3616
  319MPD2    C5 4795   0.482   2.889  17.168 -0.6052  0.4337  0.3318
  319MPD2     H 4796   0.132   2.810  17.081  0.7586  1.9795 -0.9798
  319MPD2    H1 4797   0.531   2.765  16.996 -0.7442  1.4114 -1.6874
  319MPD2    H2 4798   0.417   3.009  17.339 -0.8087  0.1205  0.4127
  319MPD2    H3 4799   0.588   2.909  17.166 -0.3242 -1.2913 -1.3824
  319MPD2     N 4800   0.304   2.684  16.930  0.4653 -0.0211  0.5393
  319MPD2    H5 4801   0.383   2.661  16.871 -1.1650 -0.0457 -1.6550
  319MPD2    N1 4802   0.146   2.960  17.303  0.1115 -0.9501 -0.4850
  319MPD2    H7 4803   0.054   2.920  17.292 -0.7958  1.0988 -0.3171
  320TMC3    C1 4804   0.208   2.514  16.806  0.4092  0.0897  0.0138
  320TMC3    C2 4805   0.261   2.564  16.682 -0.2287  0.3802 -0.0612
  320TMC3    C3 4806   0.274   2.471  16.583 -0.2492  0.5090  0.8269
  320TMC3    C4 4807   0.138   2.396  16.812 -0.8623  0.3669 -0.0776
  320TMC3    C5 4808   0.146   2.317  16.702  0.3046 -0.5971 -0.1470
  320TMC3    C6 4809   0.212   2.348  16.593  0.3100 -0.1287  0.5520
  320TMC3     C 4810   0.191   2.605  16.912  0.2906  0.2014  0.3147
  320TMC3     O 4811   0.101   2.574  16.990 -0.0402 -0.3259 -0.1737
  320TMC3     H 4812   0.288   2.668  16.675  3.6966 -0.5364  1.2497
  320TMC3    H1 4813   0.096   2.367  16.908 -2.3629  0.6605 -0.6494
  320TMC3    H2 4814   0.201   2.280  16.508  1.7858  1.5860 -1.0022
  320TMC3    C7 4815   0.092   2.182  16.723  0.0272  0.7470 -0.0363
  320TMC3    C8 4816   0.288   2.531  16.452 -0.0807  0.2708 -0.1399
  320TMC3    O1 4817   0.116   2.097  16.639 -0.4839 -0.1014 -0.4454
  320TMC3    O2 4818   0.337   2.643  16.456  0.4126 -0.6082 -0.3149
  321TMC3    C1 4819   0.045   3.044  17.501  0.1151  0.9960  0.4252
  321TMC3    C2 4820   4.702   2.920  17.517  0.3816 -0.8347  0.0079
  321TMC3    C3 4821   4.639   2.892  17.634  0.4871 -0.1040  0.5695
  321TMC3    C4 4822   0.045   3.140  17.596  0.0037  0.1146 -0.1771
  321TMC3    C5 4823   4.715   3.101   0.027 -0.4470  0.7205  0.2641
  321TMC3    C6 4824   4.645   2.986   0.036 -0.3045 -0.0281  0.4972
  321TMC3     C 4825   0.156   3.047  17.412  0.2127 -0.4385  0.9381
  321TMC3     O 4826   0.243   3.130  17.434 -0.1150  0.0731  0.2905
  321TMC3     H 4827   4.718   2.842  17.443  0.5926  0.6190 -1.4665
  321TMC3    H1 4828   0.096   3.234  17.577  0.3702  0.0882  0.6348
  321TMC3    H2 4829   4.601   2.965   0.133  1.5110 -0.5654  1.1994
  321TMC3    C7 4830   0.081   3.118   0.133  0.3476 -0.3710  0.0537
  321TMC3    C8 4831   4.673   2.764  17.678  0.2674 -0.2307 -0.3972
  321TMC3    O1 4832   0.140   3.224   0.134 -0.3654  0.1257 -0.0912
  321TMC3    O2 4833   4.723   2.762   0.097  1.0362  0.6100  0.1847
  322MPD2     C 4834   4.253   2.914  13.659  0.1804 -0.6146  0.9303
  322MPD2    C1 4835   4.298   2.826  13.759  0.1025 -0.0309  0.7714
  322MPD2    C2 4836   4.417   2.758  13.733  0.0042  0.4108 -0.4049
  322MPD2    C3 4837   4.483   2.787  13.613  0.2390 -0.3425  0.5603
  322MPD2    C4 4838   4.426   2.863  13.512  0.3025  0.5203 -0.1102
  322MPD2    C5 4839   4.306   2.924  13.537  0.2383 -0.6716  0.2812
  322MPD2     H 4840   4.470   2.690  13.800  1.4735  1.5067 -0.4580
  322MPD2    H1 4841   4.489   2.877  13.424  0.0153 -0.4930 -0.4787
  322MPD2    H2 4842   4.173   2.978  13.693 -1.0062 -1.4496 -0.3258
  322MPD2    H3 4843   4.261   2.997  13.471 -0.7846 -3.4233 -2.0443
  322MPD2     N 4844   4.612   2.727  13.604 -0.2853 -0.0927 -0.3932
  322MPD2    H5 4845   4.645   2.695  13.695  2.3705  3.8004  0.0223
  322MPD2    N1 4846   4.226   2.829  13.887  0.0704  0.3939  0.7608
  322MPD2    H7 4847   4.141   2.885  13.895  0.0334  0.3134  0.9300
  323TMC3    C1 4848   4.221   2.797  14.130  0.1335 -0.3340  0.6639
  323TMC3    C2 4849   4.198   2.934  14.153  0.9451  0.3096 -0.6702
  323TMC3    C3 4850   4.219   2.970  14.282 -0.5549 -0.0503 -1.1061
  323TMC3    C4 4851   4.246   2.711  14.231 -0.2268 -0.1367 -0.1478
  323TMC3    C5 4852   4.258   2.746  14.360 -0.2944 -0.8979  0.1292
  323TMC3    C6 4853   4.242   2.879  14.388  0.1281  0.3981 -0.2588
  323TMC3     C 4854   4.268   2.753  13.996 -0.0040  0.0056  0.3303
  323TMC3     O 4855   4.336   2.646  13.993  0.4537  0.1924 -0.3439
  323TMC3     H 4856   4.181   3.002  14.069  0.1362  2.3092  1.1127
  323TMC3    H1 4857   4.270   2.609  14.205 -1.3878 -0.3565 -0.3826
  323TMC3    H2 4858   4.274   2.934  14.476 -0.6732  1.5449 -0.6845
  323TMC3    C7 4859   4.330   2.663  14.451 -0.7530 -0.7628  0.4258
  323TMC3    C8 4860   4.299   3.096  14.298 -0.0766  0.1065 -0.0768
  323TMC3    O1 4861   4.389   2.565  14.403 -0.1458  0.2232 -0.0267
  323TMC3    O2 4862   4.347   3.124  14.411 -0.1104  0.0405  0.3480
  324MPD2     C 4863   1.379   0.008  14.952 -0.1325 -0.0907 -0.2175
  324MPD2    C1 4864   1.408   0.116  14.867  0.0014  0.0702  0.3600
  324MPD2    C2 4865   1.308   0.167  14.792  0.2816 -0.5213 -0.8804
  324MPD2    C3 4866   1.182   0.107  14.785 -0.2168 -0.0584  0.6141
  324MPD2    C4 4867   1.158   4.710  14.848  0.1875  1.0436  0.6283
  324MPD2    C5 4868   1.254   4.672  14.942  0.2645  0.1824  0.0534
  324MPD2     H 4869   1.333   0.260  14.741  0.8407  0.0612  0.4618
  324MPD2    H1 4870   1.064   4.660  14.826  2.0937 -1.7122 -1.2358
  324MPD2    H2 4871   1.450   4.686  15.020 -1.4632 -0.9075  0.6240
  324MPD2    H3 4872   1.233   4.587  15.007 -1.8473  0.5639 -0.1319
  324MPD2     N 4873   1.082   0.157  14.700  0.1375  0.1628  0.1901
  324MPD2    H5 4874   0.991   0.111  14.703  0.7905 -1.1595 -0.2371
  324MPD2    N1 4875   1.530   0.184  14.874  0.1513  0.1484  0.0797
  324MPD2    H7 4876   1.522   0.274  14.828  1.6394 -0.3792 -1.2018
  325TMC3    C1 4877   0.969   0.308  14.552 -0.4130  0.3246  0.2112
  325TMC3    C2 4878   0.849   0.286  14.617 -0.4679  0.0766  0.4022
  325TMC3    C3 4879   0.739   0.360  14.592 -0.2558  0.4862 -0.0013
  325TMC3    C4 4880   0.979   0.400  14.455 -0.3655  0.9130  0.3512
  325TMC3    C5 4881   0.863   0.471  14.424 -0.2419  0.1153 -0.2073
  325TMC3    C6 4882   0.746   0.446  14.492  0.0351  0.8926 -0.0641
  325TMC3     C 4883   1.091   0.270  14.620 -0.1186 -0.1165  0.2803
  325TMC3     O 4884   1.192   0.324  14.577  0.5028 -0.1370 -0.1090
  325TMC3     H 4885   0.835   0.211  14.694 -1.9280  1.6683  1.6883
  325TMC3    H1 4886   1.068   0.446  14.416 -0.6165  0.3082 -0.9579
  325TMC3    H2 4887   0.652   0.495  14.467  0.1930  0.9222 -0.5944
  325TMC3    C7 4888   0.898   0.613  14.410  0.3376  0.1999 -0.2637
  325TMC3    C8 4889   0.619   0.279  14.595 -0.3996  0.3625 -0.2638
  325TMC3    O1 4890   0.993   0.641  14.342  0.1287 -0.4747  0.2787
  325TMC3    O2 4891   0.535   0.285  14.505 -0.0965  0.9808 -0.0867
  326MPD2     C 4892   2.262   1.548  10.965  0.0310  0.0056  0.9507
  326MPD2    C1 4893   2.303   1.436  10.905 -0.4502 -0.0530  0.5482
  326MPD2    C2 4894   2.424   1.384  10.935 -0.3233 -1.4479 -0.6270
  326MPD2    C3 4895   2.506   1.444  11.032 -0.4546 -0.5311 -0.6427
  326MPD2    C4 4896   2.462   1.554  11.094  0.3128 -0.0108  0.0071
  326MPD2    C5 4897   2.336   1.598  11.068  0.0245  0.1212  0.4762
  326MPD2     H 4898   2.456   1.296  10.880  0.3856 -0.9219 -1.0519
  326MPD2    H1 4899   2.510   1.608  11.174  1.5486 -0.7919 -0.2163
  326MPD2    H2 4900   2.167   1.594  10.942 -0.1206 -1.5902 -1.6416
  326MPD2    H3 4901   2.283   1.670  11.129 -1.3328  3.1771 -4.3345
  326MPD2     N 4902   2.646   1.398  11.056  0.5993  0.1478 -0.0105
  326MPD2    H5 4903   2.691   1.462  11.120  0.5205  0.0028  0.1900
  326MPD2    N1 4904   2.220   1.383  10.792 -0.2694  0.2525 -0.4095
  326MPD2    H7 4905   2.140   1.439  10.766 -0.8251  0.5704  1.9598
  327TMC3    C1 4906   2.193   1.308  10.572 -0.4736 -0.5665 -0.9309
  327TMC3    C2 4907   2.153   1.434  10.567 -0.3554  0.0337  0.1221
  327TMC3    C3 4908   2.204   1.503  10.463 -0.0971 -0.3669 -0.1704
  327TMC3    C4 4909   2.270   1.250  10.474 -0.2864 -0.1204  0.0245
  327TMC3    C5 4910   2.338   1.322  10.386  0.1331  0.6644  0.1573
  327TMC3    C6 4911   2.302   1.454  10.376 -0.4879 -0.1530 -0.4830
  327TMC3     C 4912   2.253   1.277  10.708 -0.1859  0.4346  0.5068
  327TMC3     O 4913   2.331   1.186  10.721  0.1725 -0.0653 -0.0108
  327TMC3     H 4914   2.089   1.477  10.642  2.4115  2.1144  1.2961
  327TMC3    H1 4915   2.290   1.145  10.493  2.3855  0.4653  0.4634
  327TMC3    H2 4916   2.360   1.528  10.321 -0.5353  0.8511  0.8149
  327TMC3    C7 4917   2.487   1.297  10.383 -0.1411  0.5330 -0.3948
  327TMC3    C8 4918   2.165   1.643  10.475 -0.3049  0.2136  0.2502
  327TMC3    O1 4919   2.557   1.364  10.309  0.0845 -0.0737  0.8588
  327TMC3    O2 4920   2.045   1.655  10.497 -0.4842  0.1451 -0.0678
  328MPD2     C 4921   4.187   0.126  17.544  0.0757  0.4129 -0.2173
  328MPD2    C1 4922   4.148   0.253  17.507  0.4414 -0.6418 -0.4286
  328MPD2    C2 4923   4.079   0.264  17.392 -0.0019 -0.4255 -0.7040
  328MPD2    C3 4924   4.054   0.155  17.307 -0.1384  0.7064 -0.2497
  328MPD2    C4 4925   4.088   0.028  17.351 -0.2100  0.2216 -0.1878
  328MPD2    C5 4926   4.163   0.022  17.463  0.2526 -0.3645 -0.4773
  328MPD2     H 4927   4.039   0.360  17.362 -1.5732 -1.6388 -2.5160
  328MPD2    H1 4928   4.077   4.665  17.286 -0.8867 -0.5410  0.9311
  328MPD2    H2 4929   4.259   0.106  17.622 -0.2900 -0.2884 -0.0571
  328MPD2    H3 4930   4.178   4.641  17.489 -1.7136 -0.3841  0.6341
  328MPD2     N 4931   3.996   0.159  17.186 -0.1283  0.2202 -0.0308
  328MPD2    H5 4932   3.981   0.072  17.136 -1.2235  1.5238 -2.0082
  328MPD2    N1 4933   4.179   0.360  17.591 -0.1978  0.5356 -0.6050
  328MPD2    H7 4934   4.195   0.335  17.688  3.8841  0.1329 -1.3778
  329TMC3    C1 4935   4.197   0.584  17.672  0.1563 -0.2245  0.2049
  329TMC3    C2 4936   4.179   0.712  17.638 -0.2917  0.6507 -0.3856
  329TMC3    C3 4937   4.247   0.799   0.021 -0.3853 -0.5098 -0.2515
  329TMC3    C4 4938   4.252   0.540   0.095  0.0726 -0.4350  0.6264
  329TMC3    C5 4939   4.306   0.636   0.177 -0.0677 -0.4302  0.6109
  329TMC3    C6 4940   4.315   0.767   0.137  0.1347 -0.3044 -0.0496
  329TMC3     C 4941   4.174   0.493  17.562  0.7002 -0.0322  0.2366
  329TMC3     O 4942   4.131   0.548  17.463  0.4592  0.2275  0.6084
  329TMC3     H 4943   4.120   0.739  17.551  1.7965 -1.7339 -2.5278
  329TMC3    H1 4944   4.276   0.435   0.106 -0.9347 -0.6049  1.2034
  329TMC3    H2 4945   4.369   0.838   0.199 -1.1098 -0.0183  0.7132
  329TMC3    C7 4946   4.356   0.583   0.304 -0.7046 -0.2207 -0.3749
  329TMC3    C8 4947   4.256   0.933  17.658 -0.6097 -0.1442  0.5552
  329TMC3    O1 4948   4.379   0.463   0.308  0.0208  0.0856  0.2309
  329TMC3    O2 4949   4.231   0.937  17.537  0.1734  0.2697  0.2162
  330TMC3    C1 4950   2.707   0.051   9.392  0.1433 -0.2082 -0.2615
  330TMC3    C2 4951   2.576   0.045   9.354 -0.7608 -0.7532 -0.2730
  330TMC3    C3 4952   2.499   4.682   9.431 -0.3549 -0.1776 -0.7417
  330TMC3    C4 4953   2.764   4.696   9.488  0.0586  0.7332  0.4002
  330TMC3    C5 4954   2.687   4.617   9.563  0.1922  0.0201 -0.1832
  330TMC3    C6 4955   2.551   4.620   9.543 -0.3042 -0.7182 -0.2447
  330TMC3     C 4956   2.777   0.175   9.361  0.0981 -0.0690 -0.7033
  330TMC3     O 4957   2.898   0.168   9.372 -0.1650  0.1126 -0.0514
  330TMC3     H 4958   2.543   0.110   9.274 -0.8358 -1.0356 -0.4719
  330TMC3    H1 4959   2.872   4.688   9.489 -0.1122 -1.7926 -1.5212
  330TMC3    H2 4960   2.491   4.559   9.609  0.0534 -0.8781 -0.0717
  330TMC3    C7 4961   2.747   4.533   9.668 -0.4509  0.2003 -0.3297
  330TMC3    C8 4962   2.352   4.693   9.408 -0.4764  0.9277 -0.3303
  330TMC3    O1 4963   2.677   4.438   9.707  0.3613  0.4269  0.3022
  330TMC3    O2 4964   2.309   0.028   9.310 -0.0596  0.0631  0.1536
  331MPD2     C 4965   0.758   4.260  13.456  0.0413 -0.0767  0.2344
  331MPD2    C1 4966   0.815   4.279  13.334  0.0969 -0.1629  0.2893
  331MPD2    C2 4967   0.780   4.194  13.233  0.0754  0.4191 -0.3906
  331MPD2    C3 4968   0.702   4.090  13.252 -0.1832  0.9719  0.1405
  331MPD2    C4 4969   0.647   4.069  13.376  0.1884  0.0887  0.2506
  331MPD2    C5 4970   0.683   4.152  13.482 -0.1304  0.1537  0.1965
  331MPD2     H 4971   0.821   4.196  13.133 -1.0897 -0.0473 -0.8696
  331MPD2    H1 4972   0.568   3.997  13.393  0.4755  0.0034  1.1929
  331MPD2    H2 4973   0.773   4.327  13.540 -1.2697 -1.7799  1.8415
  331MPD2    H3 4974   0.650   4.141  13.585  1.1993  1.6376  0.7851
  331MPD2     N 4975   0.685   4.005  13.142  0.7560  0.3011  0.0491
  331MPD2    H5 4976   0.724   4.036  13.054 -3.0872 -0.2525 -1.8229
  331MPD2    N1 4977   0.917   4.376  13.336  0.0434 -0.3347  0.1478
  331MPD2    H7 4978   0.925   4.443  13.412  0.2196 -0.7144  0.4593
  332TMC3    C1 4979   0.634   3.813  13.020  0.7475  0.0088 -0.6153
  332TMC3    C2 4980   0.654   3.890  12.904  0.0274  0.0671  0.3073
  332TMC3    C3 4981   0.717   3.823  12.802 -0.8297  0.4972  0.8637
  332TMC3    C4 4982   0.657   3.682  13.028  0.3171  0.1167 -0.0615
  332TMC3    C5 4983   0.730   3.626  12.928 -0.0103  0.1282  0.1233
  332TMC3    C6 4984   0.763   3.698  12.815 -0.5614 -0.9434  0.1417
  332TMC3     C 4985   0.627   3.883  13.143  0.0475  0.1530  0.0373
  332TMC3     O 4986   0.579   3.818  13.237 -0.8737 -0.3956  1.5092
  332TMC3     H 4987   0.625   3.994  12.893  3.4999  0.9028 -0.7913
  332TMC3    H1 4988   0.621   3.622  13.110  0.5955  0.5641  0.3821
  332TMC3    H2 4989   0.823   3.652  12.737 -1.8480 -0.0213 -1.3918
  332TMC3    C7 4990   0.822   3.533  12.988 -0.0518 -0.4017 -0.4769
  332TMC3    C8 4991   0.751   3.905  12.689 -0.7235  0.3798 -0.7322
  332TMC3    O1 4992   0.779   3.474  13.089 -0.1537  0.1440  0.4518
  332TMC3    O2 4993   0.855   3.873  12.628  0.4241  0.4320  0.4234
  333MPD2     C 4994   0.697   4.175  11.571 -0.5809 -0.0703  0.4381
  333MPD2    C1 4995   0.792   4.078  11.545 -0.6366 -0.6979  0.1229
  333MPD2    C2 4996   0.754   3.945  11.571 -0.4366 -0.6549  0.3344
  333MPD2    C3 4997   0.628   3.911  11.607 -0.0231  0.2984  0.2367
  333MPD2    C4 4998   0.533   4.014  11.622 -0.2100  0.3802  0.6128
  333MPD2    C5 4999   0.576   4.144  11.618  0.5054 -0.3992  0.2597
  333MPD2     H 5000   0.817   3.858  11.560 -2.1439 -1.6478 -1.6996
  333MPD2    H1 5001   0.437   4.001  11.671 -1.0479 -0.3606 -1.2265
  333MPD2    H2 5002   0.723   4.279  11.550 -1.2514 -0.1314 -0.7279
  333MPD2    H3 5003   0.502   4.219  11.642  0.2497 -0.5248 -0.1307
  333MPD2     N 5004   0.596   3.780  11.636  0.3253 -0.0201  0.3125
  333MPD2    H5 5005   0.675   3.716  11.633  0.5368  0.2566 -0.0361
  333MPD2    N1 5006   0.911   4.121  11.484 -0.0623  0.1561 -0.1177
  333MPD2    H7 5007   0.929   4.220  11.480  0.3664  0.0431 -0.9542
  334TMC3    C1 5008   1.111   4.078  11.357  0.9259 -0.4235 -0.8388
  334TMC3    C2 5009   1.172   4.000  11.266 -0.9505  0.1251  0.6007
  334TMC3    C3 5010   1.284   4.053  11.201  0.1548  0.3239  0.0620
  334TMC3    C4 5011   1.159   4.207  11.381  0.0693  0.1537 -0.0202
  334TMC3    C5 5012   1.258   4.263  11.310  0.0239 -0.1619  0.1652
  334TMC3    C6 5013   1.319   4.187  11.210 -0.3205  0.2305  0.1127
  334TMC3     C 5014   0.990   4.030  11.423 -0.1328 -0.5166 -1.2804
  334TMC3     O 5015   0.978   3.908  11.395 -0.7184  0.1108  0.1052
  334TMC3     H 5016   1.167   3.892  11.261  1.6394  0.1185 -1.8655
  334TMC3    H1 5017   1.118   4.251  11.472 -2.6830  0.3652 -1.3556
  334TMC3    H2 5018   1.396   4.225  11.144  0.0057  0.8189  0.8353
  334TMC3    C7 5019   1.300   4.403  11.307 -0.2969 -1.0085 -0.2216
  334TMC3    C8 5020   1.334   3.972  11.089  0.1741 -0.2055  0.5620
  334TMC3    O1 5021   1.410   4.426  11.258 -0.5409  0.3652 -0.0665
  334TMC3    O2 5022   1.255   3.889  11.043 -0.0361 -0.0762 -0.0051
  335TMC3    C1 5023   0.758   0.966   0.095 -0.1058 -0.5568 -0.0174
  335TMC3    C2 5024   0.694   0.848   0.060 -0.4958 -0.1826 -0.0689
  335TMC3    C3 5025   0.774   0.740   0.041  1.3081  0.7926 -0.1553
  335TMC3    C4 5026   0.896   0.982   0.081  0.6921 -0.0272  0.9129
  335TMC3    C5 5027   0.971   0.864   0.072  0.5251  0.6780 -0.6146
  335TMC3    C6 5028   0.912   0.742   0.046 -0.4492  0.8503  0.0748
  335TMC3     C 5029   0.683   1.072   0.154 -0.1788 -0.5143  0.5385
  335TMC3     O 5030   0.720   1.188   0.152  0.0306 -0.0970  0.2702
  335TMC3     H 5031   0.588   0.843   0.082 -0.4617 -1.3926 -0.1862
  335TMC3    H1 5032   0.936   1.076   0.116 -1.5232  0.1994  2.8842
  335TMC3    H2 5033   0.966   0.649   0.036  1.2216  1.8683 -0.3735
  335TMC3    C7 5034   1.104   0.871   0.013 -0.7072  0.2852 -0.0722
  335TMC3    C8 5035   0.723   0.600   0.049 -0.5119  0.3509  0.2540
  335TMC3    O1 5036   1.164   0.765  17.691  0.3657 -0.1200  0.6867
  335TMC3    O2 5037   0.803   0.511   0.081  0.0126 -0.3459 -0.1259
  336MPD2     C 5038   0.645   3.433  15.999 -0.5122 -0.0412  0.3104
  336MPD2    C1 5039   0.564   3.341  15.933  0.4643  0.0619  0.0622
  336MPD2    C2 5040   0.560   3.207  15.983  0.1927 -0.2908  0.3953
  336MPD2    C3 5041   0.642   3.169  16.087 -0.3011  0.1904  0.4748
  336MPD2    C4 5042   0.712   3.258  16.152  0.2962 -0.9075  0.1351
  336MPD2    C5 5043   0.717   3.387  16.106  0.3961 -0.4993 -0.5868
  336MPD2     H 5044   0.496   3.133  15.936 -0.6868 -0.6469  2.1333
  336MPD2    H1 5045   0.782   3.218  16.225 -1.3965  0.5377  2.5558
  336MPD2    H2 5046   0.657   3.535  15.964 -1.5213 -0.6987 -1.9522
  336MPD2    H3 5047   0.774   3.464  16.157  0.3630 -1.6721  1.2473
  336MPD2     N 5048   0.640   3.047  16.150  0.1270 -0.2931 -0.5750
  336MPD2    H5 5049   0.697   3.033  16.232 -0.3561  0.1822 -0.1545
  336MPD2    N1 5050   0.480   3.383  15.828 -0.3089 -0.1235  0.2172
  336MPD2    H7 5051   0.413   3.315  15.793 -1.8741  1.8871 -0.7214
  337TMC3    C1 5052   0.367   3.539  15.693  0.2518  0.9633 -0.7556
  337TMC3    C2 5053   0.241   3.514  15.746 -0.6131  0.3861  0.0218
  337TMC3    C3 5054   0.130   3.557  15.668 -0.6627  0.1629 -0.5319
  337TMC3    C4 5055   0.387   3.599  15.574 -0.2732  0.5038  0.0077
  337TMC3    C5 5056   0.278   3.646  15.508  1.1989 -0.2779 -0.3838
  337TMC3    C6 5057   0.146   3.620  15.541  0.0793  0.6412 -0.2559
  337TMC3     C 5058   0.486   3.506  15.766  0.1388 -0.0750 -0.0392
  337TMC3     O 5059   0.576   3.585  15.755 -0.4174 -0.0645  0.1449
  337TMC3     H 5060   0.229   3.461  15.840  0.9675 -3.1329 -1.7686
  337TMC3    H1 5061   0.486   3.598  15.531 -0.6216 -0.4388 -0.7703
  337TMC3    H2 5062   0.064   3.659  15.482  0.6685  1.9119 -0.2308
  337TMC3    C7 5063   0.310   3.733  15.400  0.0958 -0.0651 -0.3628
  337TMC3    C8 5064   0.001   3.513  15.713 -0.0375 -0.8171  0.1736
  337TMC3    O1 5065   0.412   3.800  15.423  0.6675 -0.3463  0.4421
  337TMC3    O2 5066   4.719   3.486  15.833 -0.2409  0.3741 -0.1575
  338MPD2     C 5067   1.257   2.243   1.418  0.3980  0.1022 -0.5934
  338MPD2    C1 5068   1.216   2.260   1.289 -0.1818 -0.1842 -0.4886
  338MPD2    C2 5069   1.093   2.311   1.261 -0.4699 -0.3093 -0.1828
  338MPD2    C3 5070   1.007   2.352   1.362 -0.2217 -0.0661 -0.2957
  338MPD2    C4 5071   1.044   2.349   1.494 -0.4002 -0.3018  0.3438
  338MPD2    C5 5072   1.171   2.295   1.515 -0.2749  0.1612 -0.2525
  338MPD2     H 5073   1.079   2.344   1.159 -2.3650 -0.2063  0.1170
  338MPD2    H1 5074   0.985   2.400   1.569  0.2823  1.1049 -0.0725
  338MPD2    H2 5075   1.352   2.203   1.451 -0.6042 -2.3731 -0.7559
  338MPD2    H3 5076   1.197   2.281   1.620 -2.4649 -0.0541  0.2526
  338MPD2     N 5077   0.887   2.414   1.318  0.5863 -0.5797 -0.4253
  338MPD2    H5 5078   0.874   2.406   1.217  1.3565 -2.3077 -0.3762
  338MPD2    N1 5079   1.295   2.223   1.178 -0.5274  0.3333 -0.3818
  338MPD2    H7 5080   1.248   2.231   1.088  0.0132  0.0217 -0.6887
  339TMC3    C1 5081   0.670   2.521   1.324 -0.0945 -0.3445 -0.3152
  339TMC3    C2 5082   0.549   2.512   1.382 -0.6412  0.1664  0.2215
  339TMC3    C3 5083   0.442   2.559   1.315  0.7267  0.3938  0.3216
  339TMC3    C4 5084   0.691   2.569   1.201  0.2211 -0.1222  0.6123
  339TMC3    C5 5085   0.581   2.608   1.129 -0.3576 -0.1641 -0.1725
  339TMC3    C6 5086   0.458   2.611   1.188 -0.2262  0.3845 -0.1525
  339TMC3     C 5087   0.783   2.465   1.394 -0.1867 -0.2682 -0.4819
  339TMC3     O 5088   0.776   2.461   1.516  0.5894 -0.3688 -0.7052
  339TMC3     H 5089   0.526   2.462   1.475 -1.5833 -2.1578 -1.2876
  339TMC3    H1 5090   0.790   2.588   1.164  0.4940 -1.3532  0.6911
  339TMC3    H2 5091   0.385   2.662   1.127 -0.8625 -0.6213 -0.2251
  339TMC3    C7 5092   0.602   2.671   1.007 -0.3727  0.5942  0.5142
  339TMC3    C8 5093   0.307   2.524   1.346  0.2930  0.4264 -0.2594
  339TMC3    O1 5094   0.522   2.759   0.970 -0.1303  0.1896  0.4612
  339TMC3    O2 5095   0.216   2.568   1.277  1.0451 -0.7232  0.1838
  340MPD2     C 5096   0.915   0.931  10.467  0.4063  0.0966 -0.4359
  340MPD2    C1 5097   0.928   0.799  10.490 -0.6085 -0.1688 -0.0041
  340MPD2    C2 5098   0.948   0.753  10.616  0.5710 -0.5351 -0.4726
  340MPD2    C3 5099   0.933   0.837  10.728 -0.5228 -0.4723 -0.2422
  340MPD2    C4 5100   0.920   0.968  10.700 -0.0955  0.1065 -0.1314
  340MPD2    C5 5101   0.929   1.014  10.572  0.6908 -0.1903  0.6920
  340MPD2     H 5102   0.990   0.654  10.625  1.0431 -0.2402  0.5028
  340MPD2    H1 5103   0.916   1.045  10.776  2.6590  0.7788 -0.6417
  340MPD2    H2 5104   0.897   0.961  10.365  0.4621  2.1176  0.1474
  340MPD2    H3 5105   0.923   1.121  10.555 -1.5047 -0.3863  0.2774
  340MPD2     N 5106   0.971   0.795  10.857  0.3507  0.2717 -0.2077
  340MPD2    H5 5107   0.977   0.869  10.926 -0.9153  0.4498 -0.2949
  340MPD2    N1 5108   0.941   0.710  10.386  0.0945 -0.1209  0.0243
  340MPD2    H7 5109   0.961   0.744  10.293 -1.3123 -1.6228 -0.8313
  341TMC3    C1 5110   0.956   0.493  10.294  0.2623  0.3627 -0.8839
  341TMC3    C2 5111   0.926   0.361  10.303  0.0687  0.2404 -0.2428
  341TMC3    C3 5112   0.999   0.270  10.225  0.0830 -0.5712 -0.9808
  341TMC3    C4 5113   1.041   0.547  10.201 -0.1857  0.2555  0.2937
  341TMC3    C5 5114   1.099   0.456  10.118 -0.0053  0.4150  0.5174
  341TMC3    C6 5115   1.085   0.320  10.131 -0.6845 -0.3555  0.5468
  341TMC3     C 5116   0.906   0.576  10.404 -0.1735  0.6760  0.4945
  341TMC3     O 5117   0.844   0.527  10.494  0.7037  0.1761  0.1844
  341TMC3     H 5118   0.857   0.324  10.378  2.3220 -0.3607  1.5313
  341TMC3    H1 5119   1.072   0.651  10.201  0.7214 -0.0145 -0.3138
  341TMC3    H2 5120   1.135   0.254  10.061 -0.5306  0.6634 -0.3078
  341TMC3    C7 5121   1.143   0.499   9.985  0.4298 -1.2681 -0.9038
  341TMC3    C8 5122   0.957   0.129  10.234 -0.3713 -0.5663 -0.4093
  341TMC3    O1 5123   1.179   0.409   9.909 -0.2481  0.1514 -0.2145
  341TMC3    O2 5124   0.854   0.102  10.295 -0.0046 -0.2092 -0.4710
  342MPD2     C 5125   3.496   3.811   0.095  0.1073 -1.0871 -0.9340
  342MPD2    C1 5126   3.621   3.796   0.156 -0.5229  0.0529 -0.2902
  342MPD2    C2 5127   3.676   3.910   0.213  0.2030 -0.7026  0.2771
  342MPD2    C3 5128   3.603   4.023   0.225  0.4402 -0.1269  0.8565
  342MPD2    C4 5129   3.476   4.031   0.180  0.4979  1.0197 -0.2744
  342MPD2    C5 5130   3.428   3.929   0.108  0.0963 -0.0690 -0.1323
  342MPD2     H 5131   3.775   3.912   0.257  0.5018 -0.4483 -0.4100
  342MPD2    H1 5132   3.421   4.122   0.201 -1.4172 -0.0941 -0.4888
  342MPD2    H2 5133   3.444   3.737   0.035 -0.4631  0.3381 -2.1945
  342MPD2    H3 5134   3.329   3.930   0.064 -0.8173  2.3138  2.0079
  342MPD2     N 5135   3.653   4.132   0.288  0.0876 -0.1208 -0.9331
  342MPD2    H5 5136   3.592   4.213   0.294 -0.3868 -0.5239 -0.1805
  342MPD2    N1 5137   3.694   3.678   0.175 -0.0464  0.0658 -0.0671
  342MPD2    H7 5138   3.785   3.684   0.220  0.8408 -2.3260 -1.5463
  343TMC3    C1 5139   3.758   3.452   0.157 -0.6214 -0.1720  0.1296
  343TMC3    C2 5140   3.888   3.483   0.123  0.3995 -0.5750  1.0022
  343TMC3    C3 5141   3.973   3.385   0.078 -0.9173 -0.5488  0.2965
  343TMC3    C4 5142   3.711   3.320   0.151  0.3503  0.2827 -0.7831
  343TMC3    C5 5143   3.806   3.229   0.117 -0.4936  0.3778 -0.5951
  343TMC3    C6 5144   3.941   3.254   0.095  0.3151 -0.0544 -0.6373
  343TMC3     C 5145   3.651   3.552   0.158  0.0416  0.0426 -1.1691
  343TMC3     O 5146   3.534   3.522   0.140  0.1032 -0.9721  0.3515
  343TMC3     H 5147   3.916   3.587   0.114  0.2565 -0.6214 -0.0259
  343TMC3    H1 5148   3.605   3.296   0.153  0.3517  0.4484  1.3618
  343TMC3    H2 5149   4.007   3.170   0.076  0.5466  0.5242 -2.2988
  343TMC3    C7 5150   3.757   3.093   0.102 -0.4534  0.5579 -0.6500
  343TMC3    C8 5151   4.114   3.422   0.059  1.0819  0.0151 -0.1417
  343TMC3    O1 5152   3.809   3.027   0.011  0.7612 -0.5507  0.2488
  343TMC3    O2 5153   4.158   3.530   0.102 -0.2870 -0.1989 -0.5982
  344MPD2     C 5154   4.518   3.207  10.661 -0.2161  0.5549  0.2395
  344MPD2    C1 5155   4.656   3.192  10.651 -0.1755 -0.1686 -0.8862
  344MPD2    C2 5156   0.010   3.304  10.619  0.0470  0.8280  0.2106
  344MPD2    C3 5157   4.679   3.434  10.613 -0.5164 -0.1507 -0.6669
  344MPD2    C4 5158   4.538   3.442  10.633  0.5075 -0.3123 -0.4352
  344MPD2    C5 5159   4.465   3.335  10.663  0.4458  0.0306  0.3162
  344MPD2     H 5160   0.110   3.287  10.581 -0.2157 -1.5221  0.5669
  344MPD2    H1 5161   4.491   3.540  10.629 -1.5684 -1.1088  5.3395
  344MPD2    H2 5162   4.451   3.129  10.693  0.2062  0.2090  0.2701
  344MPD2    H3 5163   4.365   3.360  10.697  0.2928  0.6693 -0.5993
  344MPD2     N 5164   0.031   3.549  10.572  0.5372 -0.4063  0.4899
  344MPD2    H5 5165   4.702   3.636  10.563 -0.4036 -0.9426  0.6070
  344MPD2    N1 5166   4.718   3.069  10.677 -0.2500 -0.1100  0.1233
  344MPD2    H7 5167   0.095   3.061  10.687 -0.0124  1.1636 -1.1701
  345TMC3    C1 5168   0.202   3.683  10.505 -0.4287 -0.6518 -0.0096
  345TMC3    C2 5169   0.327   3.720  10.541  0.1860  0.3008  0.2489
  345TMC3    C3 5170   0.385   3.832  10.495 -0.0870  0.4310 -0.4572
  345TMC3    C4 5171   0.133   3.749  10.412 -0.1720  0.2032 -0.7691
  345TMC3    C5 5172   0.193   3.862  10.365 -0.0034 -0.1152 -0.2525
  345TMC3    C6 5173   0.319   3.904  10.400 -0.0395  0.5770 -0.2212
  345TMC3     C 5174   0.163   3.554  10.548  0.2612  0.5590  0.1821
  345TMC3     O 5175   0.247   3.472  10.572  0.4785 -0.0326  0.1327
  345TMC3     H 5176   0.385   3.671  10.619 -0.1118  0.3032  0.4673
  345TMC3    H1 5177   0.035   3.722  10.374  0.5514  0.7311 -2.9852
  345TMC3    H2 5178   0.374   3.984  10.352  0.7187  1.4159  2.0266
  345TMC3    C7 5179   0.108   3.972  10.318 -0.1303 -0.4855 -0.1230
  345TMC3    C8 5180   0.516   3.888  10.549 -0.3848  0.2175 -0.2273
  345TMC3    O1 5181   0.153   4.083  10.352 -0.0670  0.4752 -0.5065
  345TMC3    O2 5182   0.531   3.882  10.670 -0.3660  0.7832  0.3075
  346MPD2     C 5183   0.468   0.377  15.139  0.4290  0.1811 -0.4222
  346MPD2    C1 5184   0.437   0.460  15.035  0.0328 -0.1234 -0.3911
  346MPD2    C2 5185   0.501   0.584  15.038  0.5202  0.3632 -0.5253
  346MPD2    C3 5186   0.575   0.629  15.144  0.4990 -0.1444 -0.1435
  346MPD2    C4 5187   0.595   0.546  15.248 -0.9736  0.3269  0.4755
  346MPD2    C5 5188   0.545   0.423  15.244  0.9313 -0.1303 -0.0578
  346MPD2     H 5189   0.482   0.654  14.957  0.2838  1.0597  0.1285
  346MPD2    H1 5190   0.647   0.573  15.340  0.1618 -0.7173  0.1435
  346MPD2    H2 5191   0.441   0.272  15.131  3.1696 -0.3865 -2.0513
  346MPD2    H3 5192   0.573   0.351  15.320 -0.1706 -1.1207 -0.5796
  346MPD2     N 5193   0.624   0.766  15.141  0.2167  0.1205  0.5034
  346MPD2    H5 5194   0.606   0.829  15.063  0.2201  1.2839  1.4357
  346MPD2    N1 5195   0.359   0.424  14.926  0.2642  0.4521  0.4073
  346MPD2    H7 5196   0.364   0.487  14.847  3.5667  1.3252  1.3514
  347TMC3    C1 5197   0.722   0.963  15.207 -0.4584 -0.0135 -0.5920
  347TMC3    C2 5198   0.672   1.019  15.099 -0.5003  0.5741  0.1996
  347TMC3    C3 5199   0.757   1.072  15.003  0.2584  0.2379 -0.2432
  347TMC3    C4 5200   0.856   0.983  15.235 -0.6707 -0.2040 -0.7645
  347TMC3    C5 5201   0.946   1.047  15.153  0.4063 -0.6048 -0.3595
  347TMC3    C6 5202   0.899   1.089  15.033  0.0227  0.0141 -0.0910
  347TMC3     C 5203   0.686   0.825  15.246  0.2844 -0.4416 -0.2677
  347TMC3     O 5204   0.733   0.784  15.351  0.5675  0.3520 -0.0703
  347TMC3     H 5205   0.565   1.016  15.083 -0.0991 -0.8797 -2.3095
  347TMC3    H1 5206   0.889   0.941  15.329 -4.3763 -0.4286  0.4440
  347TMC3    H2 5207   0.971   1.136  14.968 -1.2957  1.2984 -0.6231
  347TMC3    C7 5208   1.080   1.083  15.195 -0.0274 -0.1686 -0.6661
  347TMC3    C8 5209   0.724   1.038  14.864  0.5126  0.3757  0.6622
  347TMC3    O1 5210   1.159   1.120  15.107 -0.1351 -0.2360 -0.4390
  347TMC3    O2 5211   0.647   0.941  14.856 -0.6104  0.1498  0.0649
  348MPD2     C 5212   2.865   0.031  12.185 -0.3127  0.9770 -0.0076
  348MPD2    C1 5213   2.824   4.673  12.084  0.3521  0.3243  0.1114
  348MPD2    C2 5214   2.779   0.003  11.963 -0.1925 -0.3714  0.4277
  348MPD2    C3 5215   2.785   0.141  11.946  0.7909  0.2185  0.0885
  348MPD2    C4 5216   2.823   0.224  12.049 -0.3373 -0.5000 -1.1220
  348MPD2    C5 5217   2.865   0.169  12.166 -0.1346  0.5159 -0.4233
  348MPD2     H 5218   2.750   4.655  11.885  4.1166 -0.5645 -0.9589
  348MPD2    H1 5219   2.826   0.332  12.039  0.9256 -0.5611 -1.3790
  348MPD2    H2 5220   2.894   4.715  12.282  0.2593  0.2778 -0.4588
  348MPD2    H3 5221   2.875   0.236  12.250 -0.6214 -0.7262  0.6365
  348MPD2     N 5222   2.761   0.198  11.816  0.3670  0.2113  0.2198
  348MPD2    H5 5223   2.729   0.129  11.749 -2.3420  1.5556  0.1183
  348MPD2    N1 5224   2.827   4.532  12.092 -0.4986 -0.0381  0.1864
  348MPD2    H7 5225   2.810   4.482  12.005 -0.1517 -4.0182  2.3740
  349TMC3    C1 5226   2.955   4.343  12.147  0.4359  0.2460 -0.1085
  349TMC3    C2 5227   3.057   4.293  12.232 -0.1278  0.8051 -0.1305
  349TMC3    C3 5228   3.168   4.239  12.174 -0.1937  0.2283  0.4076
  349TMC3    C4 5229   2.981   4.330  12.013 -0.1916  0.7865  0.2495
  349TMC3    C5 5230   3.101   4.294  11.960 -0.0149 -0.1530 -0.6332
  349TMC3    C6 5231   3.199   4.247  12.037  0.2731 -0.0356 -0.4605
  349TMC3     C 5232   2.895   4.464  12.193  0.3089 -0.3141 -0.1827
  349TMC3     O 5233   2.948   4.507  12.296 -0.0351  0.2129 -0.1160
  349TMC3     H 5234   3.049   4.300  12.340 -1.7354 -0.0315 -0.2077
  349TMC3    H1 5235   2.911   4.357  11.935  1.0853 -0.0148 -1.1633
  349TMC3    H2 5236   3.297   4.219  12.002 -0.6543 -2.9475 -0.7171
  349TMC3    C7 5237   3.152   4.383  11.863  0.4237  0.1896  0.3347
  349TMC3    C8 5238   3.223   4.131  12.259 -1.6713  0.1863  0.0398
  349TMC3    O1 5239   3.210   4.337  11.762  0.2532  0.2105  0.8171
  349TMC3    O2 5240   3.184   4.127  12.377  0.2746 -0.2199 -0.3745
  350MPD2     C 5241   1.842   2.740   9.763  0.4391 -0.2040 -0.5220
  350MPD2    C1 5242   1.828   2.817   9.878  0.2850  0.4556 -0.1683
  350MPD2    C2 5243   1.943   2.831   9.952  0.4275 -0.2601 -0.8352
  350MPD2    C3 5244   2.068   2.789   9.906  0.3307  0.5131 -0.1192
  350MPD2    C4 5245   2.082   2.707   9.793  0.2098  0.0341 -0.0841
  350MPD2    C5 5246   1.963   2.690   9.730  0.6287 -0.1061 -0.0620
  350MPD2     H 5247   1.938   2.898  10.038  0.8267  0.4598 -1.3730
  350MPD2    H1 5248   2.166   2.649   9.757  0.6864  0.8596 -0.2871
  350MPD2    H2 5249   1.759   2.713   9.698 -0.2844  1.4103 -0.2668
  350MPD2    H3 5250   1.969   2.621   9.647 -0.7817 -1.3389  0.8665
  350MPD2     N 5251   2.180   2.809   9.999 -0.6270 -0.0870 -0.6115
  350MPD2    H5 5252   2.178   2.872  10.079  3.3979  0.8516 -1.2716
  350MPD2    N1 5253   1.707   2.857   9.932 -0.2510  0.0272  0.0222
  350MPD2    H7 5254   1.721   2.898  10.024 -0.1570 -2.7779  1.2466
  351TMC3    C1 5255   1.464   2.901   9.938 -0.4902  0.4649  0.2882
  351TMC3    C2 5256   1.483   2.856  10.065  0.8915  0.6019  0.3042
  351TMC3    C3 5257   1.406   2.771  10.132  0.6921  0.9139 -0.4454
  351TMC3    C4 5258   1.353   2.865   9.870  0.6462 -1.1221  0.0982
  351TMC3    C5 5259   1.270   2.766   9.927  0.5935 -0.0405 -0.4109
  351TMC3    C6 5260   1.304   2.717  10.052 -0.1697 -0.2987  0.2098
  351TMC3     C 5261   1.589   2.873   9.860 -0.3991  0.6278  0.8096
  351TMC3     O 5262   1.576   2.860   9.740 -0.1663 -0.1569  0.2404
  351TMC3     H 5263   1.568   2.905  10.112  0.2052  1.0905  1.0262
  351TMC3    H1 5264   1.335   2.905   9.771 -1.8243 -1.2090  0.5154
  351TMC3    H2 5265   1.242   2.641  10.098 -0.8209  1.3239  1.9957
  351TMC3    C7 5266   1.196   2.684   9.826 -0.0995 -0.0704  1.0356
  351TMC3    C8 5267   1.496   2.662  10.161 -1.3776 -0.8875 -0.7422
  351TMC3    O1 5268   1.172   2.745   9.725 -0.4905 -0.3174 -0.2050
  351TMC3    O2 5269   1.481   2.553  10.107 -0.0254  0.1006 -0.5190
  352MPD2     C 5270   1.317   4.567   1.757 -0.2885  0.5647  0.3836
  352MPD2    C1 5271   1.183   4.545   1.717 -0.9451  0.0854  0.0954
  352MPD2    C2 5272   1.131   4.420   1.708  0.1933 -0.0586  0.0734
  352MPD2    C3 5273   1.210   4.312   1.744  0.0250  0.0323 -0.7249
  352MPD2    C4 5274   1.342   4.329   1.764  0.0702  0.1320 -1.1980
  352MPD2    C5 5275   1.392   4.453   1.774  0.1327  0.1691  0.3609
  352MPD2     H 5276   1.034   4.390   1.670  1.7333 -3.1533 -1.4665
  352MPD2    H1 5277   1.412   4.247   1.774  0.4523  0.2624 -2.7913
  352MPD2    H2 5278   1.357   4.666   1.776 -0.1246  0.5999 -0.1454
  352MPD2    H3 5279   1.497   4.455   1.801  0.7064  0.0658 -1.9072
  352MPD2     N 5280   1.156   4.180   1.742 -0.2657 -0.3584 -0.2526
  352MPD2    H5 5281   1.227   4.107   1.737  0.6945  0.4902  1.0549
  352MPD2    N1 5282   1.094   4.652   1.687  1.1059  0.2171  0.4057
  352MPD2    H7 5283   0.995   4.631   1.684  1.0535  0.6965 -1.2864
  353TMC3    C1 5284   1.013   3.996   1.725  0.0793  0.0822 -0.0150
  353TMC3    C2 5285   0.921   3.940   1.804 -0.7634  0.7106  0.0952
  353TMC3    C3 5286   0.936   3.801   1.829 -0.0719  0.5484 -0.2611
  353TMC3    C4 5287   1.123   3.931   1.682  0.0513  0.2504  0.0743
  353TMC3    C5 5288   1.137   3.798   1.712  0.7619  0.0522  0.2707
  353TMC3    C6 5289   1.050   3.725   1.795  0.5396 -0.8584 -0.0220
  353TMC3     C 5290   1.028   4.136   1.736  0.1697  0.3002 -0.6175
  353TMC3     O 5291   0.919   4.189   1.760 -0.1968  1.0587 -0.1285
  353TMC3     H 5292   0.836   3.998   1.840  0.1563  1.6680  0.7365
  353TMC3    H1 5293   1.198   3.972   1.615 -0.7776  1.7463  0.0687
  353TMC3    H2 5294   1.056   3.616   1.801 -2.0050 -0.9569  0.5715
  353TMC3    C7 5295   1.209   3.719   1.613 -0.1201  0.2525  0.1803
  353TMC3    C8 5296   0.826   3.736   1.894  0.8286 -0.7001 -0.0552
  353TMC3    O1 5297   1.215   3.754   1.493 -0.5590  0.5645  0.4022
  353TMC3    O2 5298   0.739   3.803   1.949  0.3970 -0.0785 -0.1496
  354TMC3    C1 5299   2.507   0.910  13.236 -0.1516  0.4442  0.3584
  354TMC3    C2 5300   2.424   1.010  13.187 -0.6993  0.4951 -0.6187
  354TMC3    C3 5301   2.453   1.064  13.066  0.7454  0.4716  0.1542
  354TMC3    C4 5302   2.617   0.871  13.167 -0.5837 -0.4023 -0.2430
  354TMC3    C5 5303   2.647   0.938  13.051 -0.5133  0.5225  0.5170
  354TMC3    C6 5304   2.567   1.030  12.993 -0.2384  0.1325  0.2063
  354TMC3     C 5305   2.477   0.865  13.367  0.1690 -0.4815 -0.0416
  354TMC3     O 5306   2.365   0.887  13.410  0.1790  0.2510  0.2054
  354TMC3     H 5307   2.339   1.043  13.246 -0.8024 -0.5349 -0.1963
  354TMC3    H1 5308   2.687   0.803  13.214 -0.1757  0.3048  0.1696
  354TMC3    H2 5309   2.575   1.050  12.887 -0.6153  0.8838  0.3190
  354TMC3    C7 5310   2.769   0.894  12.979 -0.3272  0.4845  0.1251
  354TMC3    C8 5311   2.366   1.170  13.006  0.6275 -0.7425  0.2030
  354TMC3    O1 5312   2.819   0.788  13.015 -0.9146  0.3940 -0.2739
  354TMC3    O2 5313   2.392   1.196  12.892 -0.3150  0.0562 -0.7812
  355MPD2     C 5314   2.460   2.216  11.870 -0.4955 -0.6370 -0.3959
  355MPD2    C1 5315   2.578   2.176  11.815  0.2671 -0.0962 -0.2785
  355MPD2    C2 5316   2.680   2.122  11.892  0.1820  0.0756 -0.4831
  355MPD2    C3 5317   2.669   2.130  12.030 -0.1855 -0.1871 -0.3113
  355MPD2    C4 5318   2.552   2.170  12.084  0.7174 -0.0271  0.4051
  355MPD2    C5 5319   2.446   2.215  12.009  0.5614  0.3842  0.4011
  355MPD2     H 5320   2.774   2.084  11.855  0.1993  0.7563 -1.1336
  355MPD2    H1 5321   2.542   2.177  12.191  0.4145  0.3862  0.3494
  355MPD2    H2 5322   2.377   2.254  11.813 -2.9849 -1.8482  2.4203
  355MPD2    H3 5323   2.358   2.250  12.061 -0.3860  0.1332 -1.0207
  355MPD2     N 5324   2.768   2.085  12.112  0.0252 -0.1041 -0.1678
  355MPD2    H5 5325   2.747   2.095  12.211  0.0799  1.0727 -0.2757
  355MPD2    N1 5326   2.583   2.187  11.679  0.2661 -0.9994  0.5079
  355MPD2    H7 5327   2.504   2.236  11.638  1.2129  0.5727  0.5571
  356TMC3    C1 5328   2.982   1.989  12.193 -0.3046  0.2363  0.6267
  356TMC3    C2 5329   3.115   1.967  12.163 -0.5480  0.1934 -0.8016
  356TMC3    C3 5330   3.211   1.961  12.262 -0.2866 -0.1058  0.2256
  356TMC3    C4 5331   2.944   1.992  12.327 -0.4297  0.7943  0.4805
  356TMC3    C5 5332   3.038   2.009  12.418 -0.4662 -0.2289  0.1190
  356TMC3    C6 5333   3.171   1.997  12.392 -0.1369 -0.3029 -0.3871
  356TMC3     C 5334   2.896   2.038  12.081  0.9498  0.2478 -0.5967
  356TMC3     O 5335   2.948   2.040  11.967  0.0753 -0.2259  0.1380
  356TMC3     H 5336   3.130   1.932  12.061 -0.1161  2.0157 -1.3557
  356TMC3    H1 5337   2.843   2.010  12.362 -1.2153  2.6914 -2.8317
  356TMC3    H2 5338   3.249   2.002  12.467  0.7689 -0.6433 -1.3137
  356TMC3    C7 5339   3.010   2.094  12.534 -0.0188  1.0518 -0.2899
  356TMC3    C8 5340   3.346   1.993  12.230  1.2560 -0.3387 -1.1005
  356TMC3    O1 5341   2.911   2.065  12.602  0.4142 -0.3460  0.1101
  356TMC3    O2 5342   3.432   1.965  12.311 -0.1231  0.4454  0.4077
  357MPD2     C 5343   2.584   1.757   0.805  0.3054 -0.9608 -0.0783
  357MPD2    C1 5344   2.564   1.686   0.924 -0.3078  0.0779  0.6508
  357MPD2    C2 5345   2.463   1.722   1.012  0.6815  0.4618 -0.2052
  357MPD2    C3 5346   2.392   1.845   0.987  0.5419 -0.0632  0.0457
  357MPD2    C4 5347   2.411   1.914   0.866 -0.3637 -0.8057 -0.5133
  357MPD2    C5 5348   2.509   1.866   0.779  0.5756  0.3356 -0.3913
  357MPD2     H 5349   2.455   1.658   1.100 -1.0460  0.0022 -0.6943
  357MPD2    H1 5350   2.356   2.003   0.840 -1.3475 -2.0739 -2.7516
  357MPD2    H2 5351   2.651   1.724   0.727  1.2756 -0.8282  0.6923
  357MPD2    H3 5352   2.514   1.910   0.680  1.4216 -0.0168 -0.5100
  357MPD2     N 5353   2.299   1.899   1.085 -0.3266  0.5777 -1.0218
  357MPD2    H5 5354   2.246   1.982   1.060  1.3121  1.9601  0.0652
  357MPD2    N1 5355   2.641   1.573   0.960  0.1983  0.3698  0.4375
  357MPD2    H7 5356   2.615   1.520   1.042  2.3092  0.4341  1.1578
  358TMC3    C1 5357   2.770   1.392   0.948  0.0671  0.2505  0.2422
  358TMC3    C2 5358   2.757   1.284   0.860 -0.5575 -0.2510  0.0193
  358TMC3    C3 5359   2.736   1.158   0.914  0.1609 -0.1983  0.3122
  358TMC3    C4 5360   2.766   1.373   1.088 -0.0085  0.6642  0.6185
  358TMC3    C5 5361   2.741   1.245   1.133  0.9755 -0.1242 -0.0079
  358TMC3    C6 5362   2.738   1.140   1.050 -0.4915 -0.0259 -0.0808
  358TMC3     C 5363   2.747   1.519   0.893 -0.6642  0.7316 -0.1281
  358TMC3     O 5364   2.798   1.563   0.788 -0.6036 -0.4593 -0.2235
  358TMC3     H 5365   2.787   1.302   0.758  0.8760 -1.1494  0.2817
  358TMC3    H1 5366   2.783   1.464   1.144 -0.2933  2.3865 -2.0976
  358TMC3    H2 5367   2.725   1.044   1.100  1.6054 -1.3391 -2.1055
  358TMC3    C7 5368   2.766   1.216   1.276 -0.1388  0.3300 -0.3167
  358TMC3    C8 5369   2.699   1.057   0.822 -0.5636  0.1403  0.2957
  358TMC3    O1 5370   2.827   1.113   1.295 -0.3894 -0.2176 -0.5421
  358TMC3    O2 5371   2.702   1.096   0.704  0.0929  0.1033 -0.2266
  359MPD2     C 5372   2.430   4.676  12.096 -0.0764 -1.0082 -0.2727
  359MPD2    C1 5373   2.485   0.046  12.183  0.0277 -0.5446 -0.1533
  359MPD2    C2 5374   2.540   0.000  12.302  0.3045  0.1314  0.5261
  359MPD2    C3 5375   2.550   4.586  12.336 -0.0104 -0.1780 -0.0491
  359MPD2    C4 5376   2.494   4.493  12.249  0.5345 -0.1112  0.1336
  359MPD2    C5 5377   2.430   4.540  12.138  0.2251 -0.1000 -0.4280
  359MPD2     H 5378   2.587   0.077  12.363 -1.3327 -0.4729  2.5281
  359MPD2    H1 5379   2.516   4.387  12.256  2.0039  0.2022  0.2792
  359MPD2    H2 5380   2.404   4.694  11.992 -2.4969  1.4865  0.7516
  359MPD2    H3 5381   2.396   4.470  12.063  0.9712 -2.3567  1.3107
  359MPD2     N 5382   2.639   4.550  12.439  0.6516 -0.4500  0.2475
  359MPD2    H5 5383   2.643   4.449  12.450  0.8388 -0.2964  1.5956
  359MPD2    N1 5384   2.487   0.183  12.156  0.0052 -0.0820 -0.2539
  359MPD2    H7 5385   2.545   0.242  12.215  0.8125  0.1161 -1.2446
  360TMC3    C1 5386   2.465   0.387  12.048  1.4360 -0.3482  0.0843
  360TMC3    C2 5387   2.561   0.423  12.133  0.6791  0.1768  0.6856
  360TMC3    C3 5388   2.630   0.534  12.099 -0.8382 -0.2118 -0.2629
  360TMC3    C4 5389   2.439   0.436  11.926 -0.1788 -0.8799 -1.2242
  360TMC3    C5 5390   2.504   0.553  11.894 -0.5242 -0.0247 -0.1130
  360TMC3    C6 5391   2.605   0.597  11.980 -0.4421  0.6645  0.2929
  360TMC3     C 5392   2.422   0.245  12.062 -0.1683  0.3659 -0.0973
  360TMC3     O 5393   2.340   0.210  11.981  0.0119  0.1540  0.4489
  360TMC3     H 5394   2.561   0.389  12.236  0.0073  0.2991  0.7276
  360TMC3    H1 5395   2.371   0.382  11.860 -1.6307 -0.1989 -0.2780
  360TMC3    H2 5396   2.672   0.681  11.964  2.1818 -0.9539  2.6972
  360TMC3    C7 5397   2.530   0.592  11.758  0.5620 -0.6528 -0.1021
  360TMC3    C8 5398   2.740   0.574  12.183 -0.1735  0.2407  0.0255
  360TMC3    O1 5399   2.620   0.676  11.742 -0.1862 -0.1606  0.3445
  360TMC3    O2 5400   2.751   0.534  12.303 -0.2405  0.5075  0.0247
  361MPD2     C 5401   0.232   4.310   0.066 -0.4435 -0.0382  0.1200
  361MPD2    C1 5402   0.231   4.208  17.668  0.1389 -0.7378  0.1464
  361MPD2    C2 5403   0.342   4.126  17.663  0.0363  0.0197 -0.4284
  361MPD2    C3 5404   0.452   4.144   0.057 -0.7965 -0.0022  0.1816
  361MPD2    C4 5405   0.453   4.247   0.146  0.2442 -0.0257  0.1507
  361MPD2    C5 5406   0.345   4.335   0.148 -0.7936  0.2703  0.2268
  361MPD2     H 5407   0.336   4.046  17.590  1.2236 -0.8759  0.4441
  361MPD2    H1 5408   0.534   4.265   0.215  0.0996 -0.3882  0.4155
  361MPD2    H2 5409   0.160   4.389   0.079  0.7800  0.9935  0.6229
  361MPD2    H3 5410   0.344   4.428   0.204  1.6628  1.0288 -0.9570
  361MPD2     N 5411   0.554   4.046   0.075  0.3524 -1.1559  0.6575
  361MPD2    H5 5412   0.622   4.069   0.146  2.5792 -0.1376 -1.8053
  361MPD2    N1 5413   0.124   4.190  17.576 -0.9768  0.5778  0.0947
  361MPD2    H7 5414   0.148   4.123  17.504  0.0891 -0.0804  1.0696
  362TMC3    C1 5415   4.625   4.183  17.505  0.9521  0.1862  0.0253
  362TMC3    C2 5416   4.489   4.186  17.551 -0.2817 -0.0620  0.1152
  362TMC3    C3 5417   4.392   4.113  17.486  0.0490  0.3517  0.1533
  362TMC3    C4 5418   4.663   4.117  17.395  0.0792  0.2818  0.2621
  362TMC3    C5 5419   4.562   4.046  17.333 -0.1376 -0.3612 -0.4939
  362TMC3    C6 5420   4.431   4.039  17.378  0.3723 -0.5422 -0.8035
  362TMC3     C 5421   0.001   4.241  17.592 -0.4037 -0.0588  0.0428
  362TMC3     O 5422   4.683   4.308  17.688 -0.6572  0.1532  1.0777
  362TMC3     H 5423   4.457   4.229  17.645  2.0151 -1.2012  1.4245
  362TMC3    H1 5424   0.039   4.136  17.355 -0.6179 -0.9841 -2.1036
  362TMC3    H2 5425   4.354   3.984  17.324  0.2031  1.0229 -2.1424
  362TMC3    C7 5426   4.581   3.999  17.198 -0.0677  0.3485  0.0020
  362TMC3    C8 5427   4.256   4.100  17.525 -0.2660  0.1246  0.3778
  362TMC3    O1 5428   4.481   4.022  17.134  0.1313 -0.9650  0.0823
  362TMC3    O2 5429   4.190   4.015  17.476  0.7971  0.2708 -0.1981
  363TMC3    C1 5430   2.831   2.333   9.662  0.2526  0.2505 -0.7112
  363TMC3    C2 5431   2.936   2.329   9.751 -0.7376  0.1844 -0.0584
  363TMC3    C3 5432   2.985   2.446   9.793 -0.4373 -0.0981 -0.4918
  363TMC3    C4 5433   2.781   2.447   9.614 -0.4006  0.1989  0.8882
  363TMC3    C5 5434   2.827   2.557   9.671 -0.7171 -0.4638 -0.2258
  363TMC3    C6 5435   2.928   2.563   9.762  0.2016  0.5717 -0.3886
  363TMC3     C 5436   2.754   2.210   9.639 -0.1325 -0.1332  0.2617
  363TMC3     O 5437   2.634   2.225   9.615  0.2239 -0.8833  0.1357
  363TMC3     H 5438   2.960   2.239   9.806 -1.7731 -0.9877 -1.5251
  363TMC3    H1 5439   2.699   2.442   9.544  0.3155 -4.9584  0.3521
  363TMC3    H2 5440   2.959   2.661   9.797 -0.7726  0.7836 -0.1254
  363TMC3    C7 5441   2.737   2.669   9.662  0.1906  0.4689 -0.1400
  363TMC3    C8 5442   3.117   2.459   9.859  0.8368 -0.2618  0.0046
  363TMC3    O1 5443   2.649   2.652   9.581  0.2594  0.6804  0.1466
  363TMC3    O2 5444   3.149   2.575   9.894 -0.1632  0.5322 -0.1632
  364MPD2     C 5445   2.278   2.147  10.517  0.0121 -0.1907  0.4270
  364MPD2    C1 5446   2.154   2.082  10.497  0.6996 -0.3036 -0.2732
  364MPD2    C2 5447   2.152   1.940  10.481 -0.1198  0.2076  0.6044
  364MPD2    C3 5448   2.267   1.870  10.473 -0.5572  0.6693  0.2120
  364MPD2    C4 5449   2.388   1.933  10.486  0.1167 -0.0930  0.3315
  364MPD2    C5 5450   2.391   2.072  10.505 -0.0800  0.6461  0.3332
  364MPD2     H 5451   2.065   1.876  10.470  0.4617 -0.7812  1.7869
  364MPD2    H1 5452   2.480   1.876  10.481 -1.4889 -2.5332 -1.6571
  364MPD2    H2 5453   2.289   2.251  10.545 -1.3839  0.6766 -2.1974
  364MPD2    H3 5454   2.484   2.127  10.506 -1.2590  2.6625 -0.9623
  364MPD2     N 5455   2.270   1.731  10.457  0.0201  0.5462  0.2695
  364MPD2    H5 5456   2.358   1.687  10.435 -0.5108 -1.1293  1.4708
  364MPD2    N1 5457   2.027   2.150  10.497 -0.4647  0.3525 -0.3096
  364MPD2    H7 5458   1.942   2.105  10.464  0.1196  0.2643 -1.7321
  365TMC3    C1 5459   1.861   2.311  10.528  0.4376 -0.3259  0.5066
  365TMC3    C2 5460   1.793   2.256  10.425  0.0561  0.5299  0.5980
  365TMC3    C3 5461   1.662   2.303  10.408  0.4668 -0.1304 -0.4347
  365TMC3    C4 5462   1.810   2.402  10.625  0.0261 -0.2122 -0.2690
  365TMC3    C5 5463   1.685   2.452  10.596  0.1111 -0.2850 -0.3589
  365TMC3    C6 5464   1.609   2.397  10.497 -0.1019  0.1788  0.1369
  365TMC3     C 5465   2.003   2.273  10.550  0.5886  0.8545  0.4285
  365TMC3     O 5466   2.079   2.328  10.631 -0.1583  0.2188 -0.1850
  365TMC3     H 5467   1.832   2.189  10.349 -2.0581 -0.8574  0.7449
  365TMC3    H1 5468   1.875   2.454  10.695 -1.8266  1.5874  0.1191
  365TMC3    H2 5469   1.510   2.436  10.477  0.4091  0.3998 -1.9724
  365TMC3    C7 5470   1.625   2.548  10.690 -0.3794  0.1249 -0.3400
  365TMC3    C8 5471   1.559   2.232  10.334  0.2746  0.2443  0.9713
  365TMC3    O1 5472   1.506   2.575  10.678  0.0271  0.1275  0.3953
  365TMC3    O2 5473   1.444   2.271  10.331 -0.8200 -0.3398 -0.4151
  366MPD2     C 5474   0.219   2.103  15.751 -0.4872  0.3050 -0.6463
  366MPD2    C1 5475   0.266   2.190  15.651  1.1143 -0.2159 -0.8462
  366MPD2    C2 5476   0.377   2.153  15.587  0.5729 -0.7415  0.4978
  366MPD2    C3 5477   0.450   2.037  15.625  0.2948 -0.3031 -0.3541
  366MPD2    C4 5478   0.404   1.957  15.724  0.7465 -0.2588 -0.0842
  366MPD2    C5 5479   0.281   1.982  15.782  0.6077 -0.9026 -0.1177
  366MPD2     H 5480   0.420   2.204  15.502 -1.8368 -0.2902 -0.4553
  366MPD2    H1 5481   0.450   1.866  15.759  0.9109  0.1265  0.7087
  366MPD2    H2 5482   0.124   2.123  15.799  0.4044  2.7177  0.1075
  366MPD2    H3 5483   0.243   1.899  15.840  1.0632 -0.3143  1.0305
  366MPD2     N 5484   0.573   2.022  15.554 -0.1065  0.0341  0.0650
  366MPD2    H5 5485   0.593   2.087  15.479 -1.1257  1.9486  1.4556
  366MPD2    N1 5486   0.203   2.314  15.636  0.0214  0.2753 -0.9760
  366MPD2    H7 5487   0.134   2.328  15.709  1.4044 -1.2323  0.6131
  367TMC3    C1 5488   0.170   2.537  15.580  0.5439  0.5919 -0.1627
  367TMC3    C2 5489   0.265   2.641  15.601 -1.0048 -0.0459  0.3185
  367TMC3    C3 5490   0.219   2.763  15.565 -0.2636  0.2660 -0.2206
  367TMC3    C4 5491   0.044   2.558  15.538  0.2707  0.5984 -1.4262
  367TMC3    C5 5492   4.719   2.687  15.533  0.1250  0.4481 -0.4141
  367TMC3    C6 5493   0.084   2.789  15.538  0.0168  0.1127  0.1888
  367TMC3     C 5494   0.240   2.412  15.553 -0.0812 -0.1178  0.3144
  367TMC3     O 5495   0.327   2.412  15.468 -0.5067 -0.4485  0.6487
  367TMC3     H 5496   0.370   2.627  15.625 -0.6328  1.4231 -0.4102
  367TMC3    H1 5497   4.706   2.468  15.534 -0.4843  1.0585 -0.3474
  367TMC3    H2 5498   0.054   2.892  15.522 -1.1240 -0.2406  0.0240
  367TMC3    C7 5499   4.596   2.712  15.466 -0.0699  1.3647 -0.0483
  367TMC3    C8 5500   0.307   2.874  15.581  0.1767  0.0986  0.0065
  367TMC3    O1 5501   4.600   2.805  15.384 -0.3572  0.5347 -0.0590
  367TMC3    O2 5502   0.259   2.978  15.540  0.4576  0.1185  0.2004
  368MPD2     C 5503   1.355   4.511  13.684  0.2482  0.8086 -0.2564
  368MPD2    C1 5504   1.367   4.615  13.586  0.3229  0.3782  0.1709
  368MPD2    C2 5505   1.489   4.615  13.523 -0.2532  0.4555 -0.7605
  368MPD2    C3 5506   1.592   4.539  13.561 -0.6132  0.0095  0.5826
  368MPD2    C4 5507   1.584   4.445  13.662  0.0994  0.1070  1.0556
  368MPD2    C5 5508   1.461   4.430  13.724 -0.2970  0.1870 -0.5841
  368MPD2     H 5509   1.494   4.695  13.450 -0.6413 -0.0508 -1.3410
  368MPD2    H1 5510   1.665   4.382  13.695  0.5357 -0.1403 -0.4966
  368MPD2    H2 5511   1.260   4.509  13.736  0.0058  0.2069 -0.7252
  368MPD2    H3 5512   1.454   4.366  13.811 -0.0921  1.4769  0.3901
  368MPD2     N 5513   1.711   4.548  13.491  0.4947  0.1434 -0.3263
  368MPD2    H5 5514   1.783   4.502  13.546 -0.3817 -0.9889 -0.1224
  368MPD2    N1 5515   1.264   4.694  13.550 -0.3221  0.3369 -0.7126
  368MPD2    H7 5516   1.176   4.665  13.591  0.3527 -2.1708 -1.0273
  369TMC3    C1 5517   1.151   0.160  13.477  0.6550  0.0590 -0.1902
  369TMC3    C2 5518   1.174   0.292  13.458  0.0508  0.1360  0.3832
  369TMC3    C3 5519   1.081   0.385  13.494 -0.5102  0.2554  0.3838
  369TMC3    C4 5520   1.034   0.116  13.524  0.4442 -0.0251  0.0959
  369TMC3    C5 5521   0.939   0.206  13.560 -0.9289  1.0066 -0.1340
  369TMC3    C6 5522   0.960   0.341  13.546 -0.4832  0.1189  0.2593
  369TMC3     C 5523   1.278   0.091  13.483 -0.9872  0.1729  0.0415
  369TMC3     O 5524   1.374   0.152  13.436 -0.0131  0.2803 -0.8876
  369TMC3     H 5525   1.258   0.326  13.398  1.6608 -1.3457  1.8055
  369TMC3    H1 5526   1.007   0.011  13.531  0.3143 -0.1270 -1.9518
  369TMC3    H2 5527   0.880   0.410  13.569  1.9421  2.2232  2.2469
  369TMC3    C7 5528   0.814   0.159  13.615 -0.1979 -0.2351 -0.2901
  369TMC3    C8 5529   1.090   0.515  13.433  0.2285  0.2680 -0.0826
  369TMC3    O1 5530   0.769   0.214  13.717  0.7069  0.6628 -0.8487
  369TMC3    O2 5531   0.988   0.552  13.376  0.0987  0.0239 -0.5894
  370TMC3    C1 5532   0.883   0.235  16.741  0.3444  0.2895 -0.4611
  370TMC3    C2 5533   0.855   0.143  16.834  0.3998 -0.0192  0.7158
  370TMC3    C3 5534   0.895   0.014  16.805  0.6944  0.4040  0.6676
  370TMC3    C4 5535   0.942   0.207  16.617 -0.1605  0.4320  0.3470
  370TMC3    C5 5536   0.969   0.074  16.591 -0.0079  0.5218  0.0617
  370TMC3    C6 5537   0.950   4.696  16.688 -0.4929 -0.0787 -0.6103
  370TMC3     C 5538   0.823   0.362  16.761  0.1384  1.1416  0.1630
  370TMC3     O 5539   0.704   0.352  16.792 -0.2296 -0.4961  0.2181
  370TMC3     H 5540   0.807   0.184  16.923 -1.7751  0.0531 -0.4932
  370TMC3    H1 5541   0.951   0.278  16.535 -1.0349 -1.3074 -1.2391
  370TMC3    H2 5542   0.958   4.589  16.667 -0.4693 -0.5048  1.5832
  370TMC3    C7 5543   1.030   0.033  16.467 -0.1362 -0.8378  0.2870
  370TMC3    C8 5544   0.912   4.637  16.911  0.4128  0.8430 -0.1342
  370TMC3    O1 5545   1.016   0.110  16.372  0.3415  0.4313 -0.1111
  370TMC3    O2 5546   0.949   4.524  16.890  0.3100 -0.1391  0.6029
  371TMC3    C1 5547   2.341   3.114  15.754 -0.0234 -0.0395  0.1246
  371TMC3    C2 5548   2.290   3.150  15.876  0.2673  0.3493 -0.3622
  371TMC3    C3 5549   2.249   3.276  15.897  0.7893  0.3710 -0.6921
  371TMC3    C4 5550   2.363   3.207  15.656  0.3651  0.4093  0.0579
  371TMC3    C5 5551   2.329   3.338  15.687 -0.1117 -0.6190  0.5049
  371TMC3    C6 5552   2.257   3.366  15.800 -0.4237 -0.1394 -0.4638
  371TMC3     C 5553   2.419   2.995  15.745  0.4045 -0.6838  0.3751
  371TMC3     O 5554   2.523   2.999  15.684  0.9258  0.8035 -0.2932
  371TMC3     H 5555   2.297   3.076  15.954  0.6212  0.6735 -0.0821
  371TMC3    H1 5556   2.420   3.182  15.567 -0.4124  0.1915 -0.3870
  371TMC3    H2 5557   2.207   3.461  15.813 -2.1421 -0.8682 -1.6477
  371TMC3    C7 5558   2.347   3.444  15.589 -0.3761  0.0859 -0.4148
  371TMC3    C8 5559   2.130   3.289  15.978 -0.5225 -0.1256 -0.4572
  371TMC3    O1 5560   2.307   3.553  15.630 -1.2055  0.7431  0.0688
  371TMC3    O2 5561   2.086   3.186  16.027 -0.1344 -0.0883 -0.2731
  372MPD2     C 5562   1.185   0.070  13.903  0.0816  0.3749 -0.2864
  372MPD2    C1 5563   1.311   0.023  13.947  0.2729  1.2609 -0.8608
  372MPD2    C2 5564   1.313   4.633  14.017  0.4209  0.4079 -0.1839
  372MPD2    C3 5565   1.200   4.558  14.029  0.4083 -0.5328  0.7005
  372MPD2    C4 5566   1.079   4.600  13.976  0.1263 -0.8390  0.4943
  372MPD2    C5 5567   1.072   0.000  13.924 -1.1848 -0.4953  0.6304
  372MPD2     H 5568   1.407   4.587  14.046  0.3947 -0.2692 -1.1902
  372MPD2    H1 5569   0.983   4.549  13.977 -0.3581 -0.0062 -3.4577
  372MPD2    H2 5570   1.171   0.157  13.840  0.5818 -0.0242 -0.9557
  372MPD2    H3 5571   0.974   0.031  13.887 -0.3140 -0.2072 -1.4447
  372MPD2     N 5572   1.219   4.427  14.090  0.0283 -0.2611  0.0532
  372MPD2    H5 5573   1.308   4.404  14.133  0.1577 -1.3743 -0.7996
  372MPD2    N1 5574   1.434   0.074  13.894 -0.0388  0.5586  0.5308
  372MPD2    H7 5575   1.519   0.027  13.923 -0.3031 -0.0040  0.3905
  373TMC3    C1 5576   1.167   4.215  14.160  0.6509  0.8159 -0.7196
  373TMC3    C2 5577   1.171   4.209  14.297  0.4120  0.6707 -0.5075
  373TMC3    C3 5578   1.252   4.104  14.335 -0.1073 -0.4624 -0.1390
  373TMC3    C4 5579   1.240   4.141  14.069  0.5835  0.4667 -0.7234
  373TMC3    C5 5580   1.327   4.052  14.112 -0.4497 -0.6630 -0.3979
  373TMC3    C6 5581   1.324   4.023  14.248 -0.0110 -0.8698 -1.0585
  373TMC3     C 5582   1.116   4.339  14.117  0.6299 -0.5641 -0.2190
  373TMC3     O 5583   1.001   4.343  14.069 -0.4959  0.2025  0.1819
  373TMC3     H 5584   1.113   4.277  14.357 -1.0446 -0.4111 -0.6838
  373TMC3    H1 5585   1.229   4.181  13.968 -0.6728 -0.5139 -0.9796
  373TMC3    H2 5586   1.374   3.942  14.299 -0.3195 -1.0554 -1.0519
  373TMC3    C7 5587   1.463   4.053  14.060  0.3847  0.1894 -0.1204
  373TMC3    C8 5588   1.331   4.147  14.447 -0.7309  0.3910  0.3065
  373TMC3    O1 5589   1.492   4.075  13.944  0.4155  0.0448  0.4862
  373TMC3    O2 5590   1.448   4.107  14.453 -0.0844 -0.2456 -0.1103
  374TMC3    C1 5591   1.953   0.074   9.817  0.1759  0.2582  0.3127
  374TMC3    C2 5592   2.088   0.092   9.822  0.2539 -0.0820  0.4915
  374TMC3    C3 5593   2.137   0.158   9.710  0.0656  0.2746 -0.0788
  374TMC3    C4 5594   1.877   0.116   9.714  0.1764  0.4545 -0.0692
  374TMC3    C5 5595   1.931   0.149   9.595  0.4094 -0.0416  0.3963
  374TMC3    C6 5596   2.067   0.175   9.590 -0.0377  0.3498 -0.2321
  374TMC3     C 5597   1.889   0.052   9.944  0.8122  0.0598 -0.0013
  374TMC3     O 5598   1.775   0.099   9.961  0.3805 -0.2805  0.8491
  374TMC3     H 5599   2.149   0.071   9.909 -0.2270 -2.4695  0.2572
  374TMC3    H1 5600   1.773   0.095   9.732 -0.0085  1.5593  0.1398
  374TMC3    H2 5601   2.117   0.202   9.498  0.4225 -0.9289 -0.3663
  374TMC3    C7 5602   1.862   0.234   9.501 -0.0011  0.9504 -0.1190
  374TMC3    C8 5603   2.276   0.183   9.686 -0.2631 -0.1444  0.2471
  374TMC3    O1 5604   1.920   0.267   9.400 -0.5800 -0.2613 -0.3953
  374TMC3    O2 5605   2.311   0.251   9.592  0.0858 -0.7524 -0.2112
  375MPD2     C 5606   2.427   0.684  17.415  0.3449  0.1488 -0.3422
  375MPD2    C1 5607   2.336   0.674  17.319 -0.4146 -0.2062 -1.0381
  375MPD2    C2 5608   2.366   0.626  17.195 -0.4432 -0.0665  0.2961
  375MPD2    C3 5609   2.492   0.591  17.169  0.4742 -0.3230 -1.1551
  375MPD2    C4 5610   2.592   0.615  17.264 -0.5498  0.0724  0.4489
  375MPD2    C5 5611   2.557   0.659  17.389 -0.0287  0.2935 -0.0830
  375MPD2     H 5612   2.284   0.618  17.124  0.2234 -0.6254 -0.3994
  375MPD2    H1 5613   2.696   0.606  17.234 -1.0780 -0.9037 -1.0509
  375MPD2    H2 5614   2.410   0.728  17.512 -0.2553 -0.7695 -0.0326
  375MPD2    H3 5615   2.630   0.701  17.457 -1.6013 -0.7737  2.2600
  375MPD2     N 5616   2.526   0.531  17.043 -0.2761  0.2393  0.0383
  375MPD2    H5 5617   2.620   0.549  17.009 -0.5502  1.2709 -0.1820
  375MPD2    N1 5618   2.194   0.676  17.343  0.0834  0.4711 -0.4684
  375MPD2    H7 5619   2.139   0.670  17.258 -0.4995 -3.0321  0.1640
  376TMC3    C1 5620   2.490   0.401  16.842 -0.5242 -0.1394  0.2633
  376TMC3    C2 5621   2.623   0.383  16.823  0.0476 -0.8211 -0.4263
  376TMC3    C3 5622   2.663   0.366  16.692 -0.1138  0.1070 -0.2380
  376TMC3    C4 5623   2.388   0.381  16.747  0.7032  0.1803 -0.3033
  376TMC3    C5 5624   2.430   0.361  16.618 -0.2866  0.3809 -0.7330
  376TMC3    C6 5625   2.566   0.352  16.589 -0.1033  0.2034 -0.3334
  376TMC3     C 5626   2.440   0.449  16.970  0.5298  0.5873  0.9166
  376TMC3     O 5627   2.322   0.432  16.989 -0.5563  0.2881  0.4678
  376TMC3     H 5628   2.700   0.397  16.898 -0.2666 -0.4881 -0.1626
  376TMC3    H1 5629   2.283   0.394  16.768  0.0302 -1.2186 -2.7413
  376TMC3    H2 5630   2.593   0.333  16.486 -2.1314  1.9888 -1.1827
  376TMC3    C7 5631   2.345   0.380  16.507  0.1128  0.2201 -0.0919
  376TMC3    C8 5632   2.802   0.386  16.646  1.3733  0.3437 -0.0266
  376TMC3    O1 5633   2.396   0.416  16.401 -0.9224 -0.2929 -0.3492
  376TMC3    O2 5634   2.819   0.393  16.524 -0.0128 -0.2229  0.0702
  377MPD2     C 5635   0.495   0.272  13.396 -0.5415  0.2304 -0.1515
  377MPD2    C1 5636   0.432   0.321  13.283  0.1280  0.3519  0.2876
  377MPD2    C2 5637   0.312   0.267  13.246  0.3944  0.3026 -0.3762
  377MPD2    C3 5638   0.267   0.149  13.305  0.0076  0.3477 -0.2189
  377MPD2    C4 5639   0.334   0.096  13.412  0.0479  0.3002  0.2145
  377MPD2    C5 5640   0.444   0.163  13.456 -0.0281 -0.1918  0.4575
  377MPD2     H 5641   0.269   0.295  13.150 -2.3085  2.3929  1.4706
  377MPD2    H1 5642   0.317   4.721  13.455  3.3032 -1.3610 -2.2940
  377MPD2    H2 5643   0.585   0.322  13.429  1.7036 -2.3992 -2.2443
  377MPD2    H3 5644   0.493   0.122  13.543  0.3529 -0.5864  0.0579
  377MPD2     N 5645   0.157   0.077  13.253  0.1213  0.5342  0.4659
  377MPD2    H5 5646   0.138   4.706  13.287 -2.5849  1.0451  0.4411
  377MPD2    N1 5647   0.501   0.408  13.198 -0.6444  0.2418  0.0354
  377MPD2    H7 5648   0.595   0.434  13.228 -0.1127 -0.0648 -1.3686
  378TMC3    C1 5649   0.682   0.513  12.784  0.2968  0.6503  0.5003
  378TMC3    C2 5650   0.586   0.529  12.872  0.1685  0.0015 -0.3973
  378TMC3    C3 5651   0.611   0.484  12.999  0.0343  0.0316  1.1867
  378TMC3    C4 5652   0.804   0.462  12.813  0.5059  1.1672  0.5540
  378TMC3    C5 5653   0.831   0.436  12.947 -0.1049 -0.6878  0.0963
  378TMC3    C6 5654   0.725   0.436  13.037  0.6203  0.1844  0.4597
  378TMC3     C 5655   0.653   0.473  12.646 -0.1581  0.3077 -0.3942
  378TMC3     O 5656   0.739   0.476  12.559  0.4804 -0.1015  0.4809
  378TMC3     H 5657   0.491   0.576  12.849  0.4773  1.6633  1.8804
  378TMC3    H1 5658   0.883   0.473  12.740 -0.7527  0.2892 -0.9528
  378TMC3    H2 5659   0.729   0.389  13.134 -0.9441 -1.6856 -0.3892
  378TMC3    C7 5660   0.955   0.380  12.991  0.0849  0.2021 -0.2931
  378TMC3    C8 5661   0.484   0.442  13.064  0.2062 -0.2626 -0.6669
  378TMC3    O1 5662   0.965   0.364  13.109 -0.4405 -0.3498 -0.8046
  378TMC3    O2 5663   0.384   0.437  12.997 -0.4115 -0.0751 -0.2409
  379MPD2     C 5664   1.003   2.756  16.591  0.0447 -0.0881 -0.3642
  379MPD2    C1 5665   1.095   2.699  16.515 -0.1324 -0.3562 -0.0854
  379MPD2    C2 5666   1.180   2.604  16.577  0.5766  0.1179  0.1257
  379MPD2    C3 5667   1.177   2.586  16.712  0.2551 -0.4215  0.1657
  379MPD2    C4 5668   1.075   2.649  16.787 -0.5488 -0.0520 -0.2425
  379MPD2    C5 5669   0.987   2.736  16.726  0.1891 -0.0515 -0.1211
  379MPD2     H 5670   1.248   2.550  16.512  0.2204  0.1398 -0.2676
  379MPD2    H1 5671   1.067   2.647  16.895  0.1697 -0.2814 -0.1920
  379MPD2    H2 5672   0.935   2.828  16.549 -0.2145 -0.6669 -0.9207
  379MPD2    H3 5673   0.899   2.777  16.774  1.2014  0.3539  1.3612
  379MPD2     N 5674   1.259   2.498  16.789 -0.0918  0.1339  0.1768
  379MPD2    H5 5675   1.228   2.499  16.885  1.2248  2.0016  0.5851
  379MPD2    N1 5676   1.089   2.730  16.371  0.0012 -0.3041  0.4416
  379MPD2    H7 5677   1.022   2.798  16.336  1.7306  0.3311 -1.6065
  380TMC3    C1 5678   1.140   2.719  16.141  0.8114 -0.1765  0.2444
  380TMC3    C2 5679   1.249   2.735  16.059 -0.2467  0.1271 -0.5174
  380TMC3    C3 5680   1.227   2.799  15.938  1.1729 -0.2315 -0.2226
  380TMC3    C4 5681   1.012   2.751  16.099  0.6962  0.1353  0.7793
  380TMC3    C5 5682   0.998   2.820  15.980  0.3558  0.5195 -0.0226
  380TMC3    C6 5683   1.105   2.846  15.900 -0.2235  0.5892 -0.1731
  380TMC3     C 5684   1.172   2.679  16.272  0.1354 -0.2401 -0.0677
  380TMC3     O 5685   1.280   2.621  16.286  0.0390 -0.4651 -0.5583
  380TMC3     H 5686   1.349   2.718  16.098 -0.6400  0.2681  0.5573
  380TMC3    H1 5687   0.922   2.742  16.159 -0.5333 -3.9783 -1.7026
  380TMC3    H2 5688   1.110   2.906  15.810  0.6471 -0.0203 -0.5298
  380TMC3    C7 5689   0.870   2.821  15.912  0.7605 -0.6904  0.4472
  380TMC3    C8 5690   1.340   2.827  15.854  1.1631 -0.1377 -0.3797
  380TMC3    O1 5691   0.812   2.716  15.923 -0.7359  0.0428 -0.4370
  380TMC3    O2 5692   1.327   2.911  15.767  0.0474 -0.6682 -0.0929
  381TMC3    C1 5693   1.019   4.078  16.659 -0.3098 -0.3603  0.1489
  381TMC3    C2 5694   1.091   4.200  16.649 -0.3665 -0.6254 -0.3610
  381TMC3    C3 5695   1.121   4.256  16.770  0.4525 -0.1696  0.8296
  381TMC3    C4 5696   1.005   4.016  16.779 -0.1893  0.7569  0.3215
  381TMC3    C5 5697   1.033   4.084  16.891 -0.4907  1.0286  0.4827
  381TMC3    C6 5698   1.082   4.212  16.897 -0.0557  0.3514 -0.4316
  381TMC3     C 5699   1.031   3.986  16.545 -0.3148 -1.1045 -0.2677
  381TMC3     O 5700   1.047   3.866  16.565 -0.3678 -0.1090  0.7692
  381TMC3     H 5701   1.116   4.241  16.552  2.6211  0.2352  0.7812
  381TMC3    H1 5702   0.946   3.926  16.788  0.0028  0.6501  0.4777
  381TMC3    H2 5703   1.095   4.268  16.989 -1.5555  1.8243 -1.1398
  381TMC3    C7 5704   1.010   4.015  17.018  0.6823  0.1475 -0.8533
  381TMC3    C8 5705   1.232   4.351  16.748  0.2156 -0.1516 -0.2860
  381TMC3    O1 5706   1.032   3.898  17.031  0.5235  0.3639  0.0619
  381TMC3    O2 5707   1.302   4.329  16.653  0.2890  0.0517  0.3554
  382MPD2     C 5708   0.348   1.292  17.655 -0.0898  0.0626 -0.5454
  382MPD2    C1 5709   0.248   1.382  17.614  0.4319  0.0634  0.2680
  382MPD2    C2 5710   0.149   1.331  17.535 -0.5634  0.2318  0.2722
  382MPD2    C3 5711   0.150   1.200  17.492 -0.2460 -0.2210 -0.3676
  382MPD2    C4 5712   0.256   1.116  17.523 -0.2934  0.1436  0.4624
  382MPD2    C5 5713   0.347   1.161  17.620  0.7881  0.1526  0.1810
  382MPD2     H 5714   0.072   1.398  17.498 -0.4552 -0.2149 -0.7779
  382MPD2    H1 5715   0.257   1.017  17.478 -0.2987  0.2140  0.3078
  382MPD2    H2 5716   0.414   1.327   0.040  0.4765  2.9977 -2.3138
  382MPD2    H3 5717   0.432   1.099  17.648 -0.5020 -1.6462  0.0908
  382MPD2     N 5718   0.047   1.139  17.411  0.8585 -0.0500 -0.8479
  382MPD2    H5 5719   0.060   1.043  17.380  2.4483  0.6707 -2.4096
  382MPD2    N1 5720   0.238   1.515  17.656 -0.0537 -0.7590 -0.2142
  382MPD2    H7 5721   0.149   1.558  17.631 -0.2613 -1.3005 -0.4228
  383TMC3    C1 5722   4.562   1.074  17.341  0.0439  0.7695 -0.4500
  383TMC3    C2 5723   4.461   1.102  17.258 -0.2932 -0.4918  0.5851
  383TMC3    C3 5724   4.375   0.995  17.227  0.6876  0.0916  0.1836
  383TMC3    C4 5725   4.591   0.934  17.374  0.2978 -0.3023 -1.3305
  383TMC3    C5 5726   4.496   0.839  17.343  0.0797 -0.9291 -0.7611
  383TMC3    C6 5727   4.388   0.868  17.269  0.4718  0.1856  0.3992
  383TMC3     C 5728   4.647   1.187  17.390  0.1917  0.0630 -0.5820
  383TMC3     O 5729   4.600   1.303  17.401 -0.3114 -0.0635 -0.1735
  383TMC3     H 5730   4.443   1.201  17.219  0.9847 -0.6746 -0.4700
  383TMC3    H1 5731   4.666   0.894  17.442 -1.1550  2.2061  1.7062
  383TMC3    H2 5732   4.322   0.792  17.229 -1.9482  2.6827 -0.3509
  383TMC3    C7 5733   4.501   0.707  17.390  0.3000 -0.8370 -0.6311
  383TMC3    C8 5734   4.240   1.039  17.183  1.1465  0.4543 -0.2271
  383TMC3    O1 5735   4.452   0.623  17.317 -0.0944  0.4273  0.4916
  383TMC3    O2 5736   4.217   1.155  17.147 -0.0316 -0.1688 -0.1194
  384MPD2     C 5737   1.601   3.449  12.603 -0.1387  0.0852  0.1215
  384MPD2    C1 5738   1.589   3.318  12.660  0.8055 -0.6607  0.0836
  384MPD2    C2 5739   1.683   3.219  12.630 -0.0833 -0.6351 -0.4124
  384MPD2    C3 5740   1.793   3.252  12.548  0.2756 -0.8411 -0.3304
  384MPD2    C4 5741   1.801   3.380  12.487 -0.2205  0.2655  0.6605
  384MPD2    C5 5742   1.702   3.474  12.510 -0.2140 -0.2766 -0.2054
  384MPD2     H 5743   1.675   3.117  12.664  0.2146 -0.4552  0.1937
  384MPD2    H1 5744   1.882   3.411  12.422 -1.5790  0.4413 -0.9442
  384MPD2    H2 5745   1.528   3.526  12.622 -1.0198 -0.4221 -1.2333
  384MPD2    H3 5746   1.704   3.573  12.466 -2.0704 -0.2916 -0.3323
  384MPD2     N 5747   1.870   3.141  12.516 -0.7380  0.2438  0.2630
  384MPD2    H5 5748   1.849   3.051  12.556 -0.8114  0.7867  1.4272
  384MPD2    N1 5749   1.484   3.275  12.745 -0.0352 -0.5976 -0.3218
  384MPD2    H7 5750   1.495   3.179  12.777  1.2583 -0.4062 -0.1941
  385TMC3    C1 5751   2.016   3.001  12.420 -0.4984 -0.8211 -0.0455
  385TMC3    C2 5752   2.008   2.962  12.291  0.4099 -0.0396  0.4585
  385TMC3    C3 5753   1.951   2.839  12.264 -0.7885  0.7676  0.4711
  385TMC3    C4 5754   1.982   2.916  12.521 -0.2282  0.3413  0.2083
  385TMC3    C5 5755   1.913   2.803  12.491 -0.5961  0.0207 -0.1230
  385TMC3    C6 5756   1.911   2.755  12.360  0.3285  0.2603 -1.1075
  385TMC3     C 5757   1.978   3.141  12.433 -0.1516 -0.0500  0.4364
  385TMC3     O 5758   2.011   3.224  12.351  0.3662  0.6389  0.2564
  385TMC3     H 5759   2.015   3.035  12.211 -0.1486  0.8783  1.2535
  385TMC3    H1 5760   2.007   2.931  12.625  2.4380  0.6540 -0.4702
  385TMC3    H2 5761   1.841   2.676  12.333 -2.6572  1.5282  2.9091
  385TMC3    C7 5762   1.790   2.798  12.564  0.3176  0.2789  0.1878
  385TMC3    C8 5763   1.861   2.846  12.157  0.2673 -0.1315 -0.3159
  385TMC3    O1 5764   1.788   2.891  12.643  0.0865  0.6540  0.4019
  385TMC3    O2 5765   1.797   2.952  12.161 -0.6849 -0.6934  0.5608
  386TMC3    C1 5766   2.058   0.222  12.258  0.9841  0.0956  0.1714
  386TMC3    C2 5767   2.069   0.160  12.138  0.0926  0.1301 -0.0276
  386TMC3    C3 5768   1.960   0.149  12.048 -0.6905 -0.7730 -0.3316
  386TMC3    C4 5769   1.941   0.293  12.278 -0.8096 -0.1172 -0.2371
  386TMC3    C5 5770   1.838   0.295  12.186  0.0847  0.3795  0.0389
  386TMC3    C6 5771   1.852   0.229  12.070 -0.2999  0.1766 -0.2037
  386TMC3     C 5772   2.125   0.173  12.377 -0.7145 -0.6111  0.1740
  386TMC3     O 5773   2.110   0.253  12.469  0.0682 -0.0207 -0.0765
  386TMC3     H 5774   2.157   0.100  12.123  0.9360  1.2350  0.4767
  386TMC3    H1 5775   1.923   0.349  12.369 -0.8304  0.7132 -0.7515
  386TMC3    H2 5776   1.776   0.230  11.992 -1.6307 -1.5225  1.0748
  386TMC3    C7 5777   1.719   0.379  12.211  0.1905 -1.0934  0.4879
  386TMC3    C8 5778   1.979   0.107  11.904  0.5232 -0.7795  0.3367
  386TMC3    O1 5779   1.698   0.430  12.318 -0.1239  0.0847  0.4164
  386TMC3    O2 5780   1.878   0.067  11.845  0.2994  0.5563  0.0139
  387MPD2     C 5781   4.374   0.757  10.145  0.0468 -0.5405 -0.9126
  387MPD2    C1 5782   4.503   0.708  10.169 -0.8547 -0.2754  0.1637
  387MPD2    C2 5783   4.529   0.571  10.182  0.1453  0.2839  0.5969
  387MPD2    C3 5784   4.425   0.474  10.187 -0.3892  0.7648  0.6994
  387MPD2    C4 5785   4.297   0.520  10.170  1.1320 -0.0722  0.0751
  387MPD2    C5 5786   4.276   0.658  10.141  0.2456 -0.0859  0.2628
  387MPD2     H 5787   4.632   0.547  10.206  0.9305  1.5323 -1.4588
  387MPD2    H1 5788   4.216   0.449  10.163  0.0900  1.2441 -1.2895
  387MPD2    H2 5789   4.340   0.860  10.146 -0.1456 -0.6117  0.3692
  387MPD2    H3 5790   4.177   0.686  10.109 -0.2626 -2.4300 -0.1810
  387MPD2     N 5791   4.464   0.338  10.180 -0.1088 -0.2690  0.1653
  387MPD2    H5 5792   4.562   0.318  10.197 -0.1600  0.1976  1.0248
  387MPD2    N1 5793   4.616   0.793  10.174 -0.6685  0.0896  0.7231
  387MPD2    H7 5794   4.702   0.747  10.202 -2.0372 -2.3075  0.9649
  388TMC3    C1 5795   0.035   0.960  10.129 -0.3034  0.1101  0.2287
  388TMC3    C2 5796   0.095   1.076  10.157  0.2533  0.3898 -0.1349
  388TMC3    C3 5797   0.237   1.080  10.155  0.1019  0.5598  0.1244
  388TMC3    C4 5798   0.103   0.857  10.073 -0.0655 -0.1339  0.3045
  388TMC3    C5 5799   0.238   0.870  10.066  0.0165 -0.4633 -0.2111
  388TMC3    C6 5800   0.317   0.979  10.099  0.6463  0.4618 -0.2168
  388TMC3     C 5801   4.623   0.928  10.158 -0.5029 -0.2797  0.4530
  388TMC3     O 5802   4.540   1.013  10.149 -0.4139  0.3255  0.0641
  388TMC3     H 5803   0.034   1.157  10.193 -0.1011  0.8158 -1.6793
  388TMC3    H1 5804   0.054   0.776  10.021  1.5716 -0.0153 -1.4284
  388TMC3    H2 5805   0.425   0.978  10.098  0.5722 -3.4295 -1.0475
  388TMC3    C7 5806   0.312   0.763  10.005 -0.0104 -0.4249  0.2697
  388TMC3    C8 5807   0.304   1.186  10.213 -0.4043 -0.4874  0.5430
  388TMC3    O1 5808   0.428   0.785   9.966  0.2936  0.2056 -0.0828
  388TMC3    O2 5809   0.243   1.245  10.303  0.4771 -0.0155  0.6325
  389MPD2     C 5810   3.883   3.455  11.034  0.9049 -0.6267 -0.4111
  389MPD2    C1 5811   3.806   3.350  10.992 -0.4344 -0.2361 -0.7868
  389MPD2    C2 5812   3.755   3.273  11.090  0.2031 -0.8485 -0.5873
  389MPD2    C3 5813   3.769   3.307  11.222 -0.7494  0.3737 -0.5842
  389MPD2    C4 5814   3.832   3.422  11.254  0.1766  0.0741  0.3513
  389MPD2    C5 5815   3.890   3.498  11.164  0.0516  0.4021 -1.3539
  389MPD2     H 5816   3.704   3.181  11.063 -2.1057  0.1969  0.2072
  389MPD2    H1 5817   3.841   3.449  11.359  1.1461  1.6706 -0.1292
  389MPD2    H2 5818   3.940   3.519  10.968  0.1190  2.5505  1.9673
  389MPD2    H3 5819   3.945   3.585  11.197  1.1838 -0.8047 -0.0421
  389MPD2     N 5820   3.724   3.232  11.333 -0.1763  0.6159 -0.7298
  389MPD2    H5 5821   3.760   3.263  11.423  0.5376  0.4477 -0.9561
  389MPD2    N1 5822   3.810   3.321  10.848  0.5688 -0.0058  0.5564
  389MPD2    H7 5823   3.865   3.383  10.789  1.9299 -2.4775 -0.7752
  390TMC3    C1 5824   3.584   3.080  11.455 -0.1024 -0.5854  0.4050
  390TMC3    C2 5825   3.487   2.989  11.432 -0.1525 -0.0646 -0.0110
  390TMC3    C3 5826   3.387   2.990  11.523  0.1577  0.2834 -0.6542
  390TMC3    C4 5827   3.581   3.172  11.556 -1.1338 -1.0600  1.0421
  390TMC3    C5 5828   3.480   3.168  11.652  0.1254  0.4719  0.3436
  390TMC3    C6 5829   3.387   3.071  11.636  0.1798  0.2050  0.4142
  390TMC3     C 5830   3.642   3.117  11.322 -0.8544  0.0329  0.1371
  390TMC3     O 5831   3.602   3.052  11.224  0.4539 -0.5152 -0.4811
  390TMC3     H 5832   3.476   2.925  11.346 -1.2970  1.2235 -0.8113
  390TMC3    H1 5833   3.655   3.251  11.561 -1.2780 -1.0277  2.5595
  390TMC3    H2 5834   3.300   3.066  11.700 -0.4605  1.8114 -0.3491
  390TMC3    C7 5835   3.473   3.281  11.740  0.3500 -0.4168  0.3148
  390TMC3    C8 5836   3.276   2.905  11.502  0.2433 -0.1249  0.0768
  390TMC3    O1 5837   3.551   3.378  11.730  0.1851 -0.2172  0.1255
  390TMC3    O2 5838   3.293   2.799  11.445  0.4695  0.1328 -0.0317
  391MPD2     C 5839   2.509   4.699  11.138  0.4229 -0.6874  0.2967
  391MPD2    C1 5840   2.597   0.074  11.110  0.2590 -0.4499 -0.6780
  391MPD2    C2 5841   2.630   0.085  10.979  0.3336  0.6717  0.6684
  391MPD2    C3 5842   2.600   4.722  10.872  0.7760  0.1381  0.8839
  391MPD2    C4 5843   2.497   4.639  10.904  0.5390 -0.0393  0.4527
  391MPD2    C5 5844   2.447   4.632  11.037  0.1990 -0.1153  0.1240
  391MPD2     H 5845   2.703   0.162  10.961  0.1267  0.8253  0.4956
  391MPD2    H1 5846   2.472   4.559  10.835 -0.2990 -0.8546  1.7004
  391MPD2    H2 5847   2.478   4.672  11.239  2.4721 -0.1246  1.0768
  391MPD2    H3 5848   2.370   4.557  11.053 -0.1221 -0.1222 -1.4870
  391MPD2     N 5849   2.663   0.004  10.750 -0.4807  0.1727  0.4082
  391MPD2    H5 5850   2.743   0.066  10.745  0.9241 -1.6975 -0.3124
  391MPD2    N1 5851   2.652   0.161  11.209 -0.0000 -0.1181 -0.1897
  391MPD2    H7 5852   2.705   0.241  11.177  1.8280 -1.1226  0.2985
  392TMC3    C1 5853   2.717   4.689  10.519  0.4502 -0.1767 -0.5171
  392TMC3    C2 5854   2.674   4.651  10.393  0.3686 -0.6769 -0.7750
  392TMC3    C3 5855   2.758   4.676  10.286  0.5478 -0.0914  0.4959
  392TMC3    C4 5856   2.841   0.018  10.541 -0.0668  0.5528 -0.6192
  392TMC3    C5 5857   2.926   0.035  10.438 -0.4187  0.1953  0.0972
  392TMC3    C6 5858   2.880   0.007  10.307  0.3149  0.8516 -0.0683
  392TMC3     C 5859   2.627   4.661  10.630 -0.6990  0.1823  0.3212
  392TMC3     O 5860   2.539   4.578  10.612  0.4579 -0.2351  0.3078
  392TMC3     H 5861   2.573   4.614  10.380  0.0908 -0.6280  1.1835
  392TMC3    H1 5862   2.889   0.040  10.636 -0.8250 -1.3735  0.2265
  392TMC3    H2 5863   2.947   0.007  10.222 -1.0415 -1.6182 -1.1259
  392TMC3    C7 5864   3.056   0.097  10.455 -0.9690  0.1900  0.5785
  392TMC3    C8 5865   2.695   4.686  10.162 -0.0743 -0.1280 -0.9253
  392TMC3    O1 5866   3.080   0.138  10.570 -0.4958 -0.0004  0.5454
  392TMC3    O2 5867   2.592   4.623  10.143 -0.6135 -0.4128 -0.3927
  393TMC3    C1 5868   1.683   3.125  10.860 -0.5211  0.0223  0.9031
  393TMC3    C2 5869   1.617   3.156  10.979 -0.3769  0.6402  0.1780
  393TMC3    C3 5870   1.688   3.171  11.093  0.3808  0.7858  0.8375
  393TMC3    C4 5871   1.815   3.086  10.859  0.1316 -0.3316 -1.1319
  393TMC3    C5 5872   1.881   3.105  10.981 -0.2306 -0.2547  0.7759
  393TMC3    C6 5873   1.825   3.160  11.090  0.5729 -0.1574  0.0709
  393TMC3     C 5874   1.601   3.130  10.739 -0.9465 -0.1238  0.3891
  393TMC3     O 5875   1.626   3.060  10.639  0.0046  0.1794 -0.2350
  393TMC3     H 5876   1.511   3.178  10.991 -0.4932  0.9581 -1.3578
  393TMC3    H1 5877   1.868   3.084  10.765  2.5764 -0.9296  0.2770
  393TMC3    H2 5878   1.876   3.152  11.186 -1.0149 -0.7500  0.8651
  393TMC3    C7 5879   2.020   3.050  10.995  0.6815 -0.1312  0.6140
  393TMC3    C8 5880   1.614   3.186  11.220  0.1368  0.2040  0.8871
  393TMC3    O1 5881   2.059   3.022  11.109 -0.8160 -0.3547 -0.0883
  393TMC3    O2 5882   1.493   3.166  11.212 -0.3400  0.2865  0.3008
  394TMC3    C1 5883   3.770   3.201  10.651 -0.0980  1.3135  0.0768
  394TMC3    C2 5884   3.700   3.103  10.592  0.3126 -0.2828  0.6841
  394TMC3    C3 5885   3.747   3.052  10.477 -0.1272  0.3342 -1.0447
  394TMC3    C4 5886   3.879   3.260  10.585  0.1128 -0.3118  0.0950
  394TMC3    C5 5887   3.921   3.204  10.463 -0.0140  0.1102 -0.6510
  394TMC3    C6 5888   3.859   3.091  10.406  0.0663  0.0916 -0.6138
  394TMC3     C 5889   3.728   3.230  10.790  0.4327 -0.2646  0.2849
  394TMC3     O 5890   3.620   3.203  10.833 -0.0374  0.3295  0.4520
  394TMC3     H 5891   3.623   3.056  10.652  0.1780 -3.4420 -1.9138
  394TMC3    H1 5892   3.953   3.317  10.639 -0.4282 -1.1357  1.7030
  394TMC3    H2 5893   3.898   3.047  10.315 -3.3655 -0.6918 -1.6968
  394TMC3    C7 5894   4.031   3.256  10.392 -0.1150  0.5577 -0.3300
  394TMC3    C8 5895   3.724   2.908  10.457  0.0794 -0.2301  0.8181
  394TMC3    O1 5896   4.060   3.199  10.288 -0.0076  0.2997 -0.2503
  394TMC3    O2 5897   3.809   2.848  10.394  0.1407 -0.2623  0.4467
  395TMC3    C1 5898   2.742   0.588  14.679  0.0071 -0.2008  0.4144
  395TMC3    C2 5899   2.661   0.561  14.783  0.7314 -0.1108 -0.0155
  395TMC3    C3 5900   2.693   0.619  14.902 -0.0701  0.2684  0.4688
  395TMC3    C4 5901   2.843   0.691  14.683  0.2741 -0.5423  0.0864
  395TMC3    C5 5902   2.870   0.744  14.807 -0.3098 -0.6075  0.1419
  395TMC3    C6 5903   2.794   0.710  14.916  0.0038  0.4803  0.1282
  395TMC3     C 5904   2.803   0.466  14.621  0.5537 -0.0839  0.4799
  395TMC3     O 5905   2.796   0.368  14.698  0.6007 -0.1257 -0.3413
  395TMC3     H 5906   2.599   0.474  14.770 -1.6749  1.8422 -1.5496
  395TMC3    H1 5907   2.913   0.714  14.604 -0.8389  0.3455 -0.6401
  395TMC3    H2 5908   2.807   0.753  15.015  0.1199 -1.9875  1.1693
  395TMC3    C7 5909   3.013   0.754  14.839 -0.6276  0.1970 -0.3291
  395TMC3    C8 5910   2.673   0.523  15.010  0.4922 -0.0399 -0.2198
  395TMC3    O1 5911   3.042   0.794  14.950 -0.3632 -0.1623  0.6931
  395TMC3    O2 5912   2.632   0.566  15.117  0.2880 -0.1545  0.1247
  396MPD2     C 5913   3.178   1.332   0.125 -0.0129  0.7310  0.4617
  396MPD2    C1 5914   3.212   1.300  17.692 -0.3137 -0.0549 -0.3994
  396MPD2    C2 5915   3.322   1.363  17.635  0.3050 -1.0213 -0.8331
  396MPD2    C3 5916   3.389   1.458   0.006  0.0334  0.1885 -0.0631
  396MPD2    C4 5917   3.354   1.483   0.138 -0.2294  0.1686  1.1840
  396MPD2    C5 5918   3.249   1.421   0.191 -0.3881  0.4749  0.0814
  396MPD2     H 5919   3.356   1.357  17.532  2.2277 -1.5022 -0.1678
  396MPD2    H1 5920   3.407   1.555   0.200  2.6434 -0.5638 -0.4595
  396MPD2    H2 5921   3.092   1.289   0.176 -0.3448 -1.7036 -2.1511
  396MPD2    H3 5922   3.213   1.443   0.291 -2.6460 -0.6539 -0.4874
  396MPD2     N 5923   3.479   1.535  17.624 -0.1788 -0.2636  0.4421
  396MPD2    H5 5924   3.483   1.518  17.524  2.2735 -0.9529  0.6703
  396MPD2    N1 5925   3.128   1.212  17.621 -0.3252 -0.2961 -0.0924
  396MPD2    H7 5926   3.055   1.169  17.677  0.0073  2.1249  2.1909
  397TMC3    C1 5927   3.056   1.040  17.476  0.1590  0.3236  0.4995
  397TMC3    C2 5928   3.091   0.975  17.361  0.8030  0.2074 -0.1154
  397TMC3    C3 5929   3.050   0.845  17.344 -0.1156 -0.0403 -0.1180
  397TMC3    C4 5930   3.011   0.970  17.588 -0.3706  0.1042  0.0006
  397TMC3    C5 5931   2.971   0.843  17.563  0.3404 -0.0178  0.8306
  397TMC3    C6 5932   2.991   0.777  17.444 -0.2955 -0.3922 -0.0687
  397TMC3     C 5933   3.151   1.152  17.502  0.6393 -0.2006 -0.8548
  397TMC3     O 5934   3.246   1.164  17.429 -0.2941  0.0927  0.3822
  397TMC3     H 5935   3.123   1.035  17.277 -1.9482 -0.2234 -1.4811
  397TMC3    H1 5936   3.006   1.010  17.689 -1.9843  1.4082 -0.5770
  397TMC3    H2 5937   2.957   0.675  17.429  1.3437 -1.4921  3.8622
  397TMC3    C7 5938   2.888   0.772  17.659  0.1204  0.8049 -0.0778
  397TMC3    C8 5939   3.025   0.806  17.206 -0.0335 -0.5769  0.6483
  397TMC3    O1 5940   2.854   0.655  17.636  0.0372 -0.0923  0.2428
  397TMC3    O2 5941   2.918   0.751  17.186 -0.3522 -0.8253  0.5863
  398MPD2     C 5942   1.657   2.199   0.080 -0.4724 -0.0635  0.3386
  398MPD2    C1 5943   1.765   2.118   0.050  0.2323  0.4216 -0.2355
  398MPD2    C2 5944   1.842   2.145  17.635  0.3482  0.1932  0.1282
  398MPD2    C3 5945   1.822   2.253  17.554 -0.6865  0.7072 -0.1020
  398MPD2    C4 5946   1.705   2.325  17.580  0.3565  0.1441  0.3883
  398MPD2    C5 5947   1.622   2.296  17.687 -0.3256  1.1894 -0.0106
  398MPD2     H 5948   1.922   2.079  17.602  0.3851 -0.3129  1.2307
  398MPD2    H1 5949   1.686   2.406  17.509  0.5729 -0.8253 -0.7719
  398MPD2    H2 5950   1.590   2.180   0.164 -0.5123 -2.0777 -0.1447
  398MPD2    H3 5951   1.530   2.353  17.692 -0.7986  0.4975 -0.8861
  398MPD2     N 5952   1.909   2.283  17.450  0.7170 -0.2392 -0.4733
  398MPD2    H5 5953   1.986   2.219  17.432  1.0831 -0.3488  1.4382
  398MPD2    N1 5954   1.805   2.009   0.135 -0.2320 -0.3363  0.8723
  398MPD2    H7 5955   1.886   1.954   0.108 -0.2444  1.6004 -3.1702
  399TMC3    C1 5956   1.797   1.834   0.296 -1.0293 -0.2669 -0.2835
  399TMC3    C2 5957   1.922   1.787   0.250 -0.1870  0.1418 -0.1781
  399TMC3    C3 5958   1.966   1.674   0.313 -0.8094  0.5844 -0.2974
  399TMC3    C4 5959   1.728   1.779   0.403 -0.3522 -0.2627  0.6712
  399TMC3    C5 5960   1.783   1.668   0.462 -0.6830 -0.4042  0.2450
  399TMC3    C6 5961   1.909   1.615   0.420  0.8162  0.0540 -0.2803
  399TMC3     C 5962   1.736   1.957   0.239  0.1576  1.0623 -0.8173
  399TMC3     O 5963   1.653   2.015   0.307  0.3342  0.3323  0.0314
  399TMC3     H 5964   1.977   1.841   0.174 -0.2328  0.6450  0.1465
  399TMC3    H1 5965   1.635   1.827   0.429 -0.9136 -0.8905 -0.1807
  399TMC3    H2 5966   1.953   1.537   0.480  1.5679 -0.5331 -1.5974
  399TMC3    C7 5967   1.704   1.598   0.565 -0.5557  0.2550 -0.4038
  399TMC3    C8 5968   2.082   1.605   0.254  0.4986  0.4262 -0.2213
  399TMC3    O1 5969   1.597   1.649   0.593  0.0535 -0.3032  0.5034
  399TMC3    O2 5970   2.130   1.681   0.166 -0.0169  0.1633 -0.8245
  400TMC3    C1 5971   3.936   0.229  16.978  0.0074 -0.5371  0.3792
  400TMC3    C2 5972   3.919   0.089  16.951 -0.7688 -0.4526  0.4710
  400TMC3    C3 5973   3.953   0.053  16.822  0.5682  0.0585 -0.0818
  400TMC3    C4 5974   3.987   0.321  16.888 -0.0752 -0.4480 -0.0508
  400TMC3    C5 5975   4.023   0.269  16.765  0.0864 -0.1505  0.7984
  400TMC3    C6 5976   4.017   0.140  16.734 -0.4003 -0.3430  0.7874
  400TMC3     C 5977   3.962   0.268  17.117  0.4514  0.3649 -1.1876
  400TMC3     O 5978   3.985   0.385  17.144 -0.3366  0.1052 -0.2390
  400TMC3     H 5979   3.880   0.011  17.015 -0.4341  0.9755  2.4340
  400TMC3    H1 5980   4.018   0.421  16.916 -0.1478 -1.0557  2.1989
  400TMC3    H2 5981   4.038   0.095  16.638 -0.4298 -1.2785  1.2224
  400TMC3    C7 5982   4.098   0.354  16.669 -0.3012 -0.1444  0.0590
  400TMC3    C8 5983   3.936   4.640  16.771  0.1716  1.3949  0.4705
  400TMC3    O1 5984   4.159   0.295  16.581  0.6299 -0.2562  0.4817
  400TMC3    O2 5985   3.838   4.593  16.826  0.0617  0.0893  0.0964
  401MPD2     C 5986   3.493   4.457   1.088  0.1580  0.2565 -0.3922
  401MPD2    C1 5987   3.580   4.413   1.191 -0.1125 -0.2570 -0.7373
  401MPD2    C2 5988   3.604   4.280   1.196 -0.2011 -0.3984 -0.2240
  401MPD2    C3 5989   3.548   4.185   1.103  0.0289 -0.3943  0.7658
  401MPD2    C4 5990   3.476   4.236   0.995  0.5898  0.3851  0.4770
  401MPD2    C5 5991   3.446   4.374   0.989  0.2253 -0.0647 -0.3018
  401MPD2     H 5992   3.665   4.252   1.281  0.4033 -0.9247 -0.8281
  401MPD2    H1 5993   3.441   4.176   0.912 -1.2742 -0.0862  1.6110
  401MPD2    H2 5994   3.460   4.559   1.075 -0.9212 -0.1509 -0.8528
  401MPD2    H3 5995   3.390   4.413   0.905  0.2450  2.1392  0.6872
  401MPD2     N 5996   3.564   4.044   1.123  0.3619 -0.2569  0.4581
  401MPD2    H5 5997   3.594   4.025   1.218  0.8326 -2.5202 -0.1407
  401MPD2    N1 5998   3.638   4.504   1.287  0.4021 -0.0727 -0.1667
  401MPD2    H7 5999   3.694   4.466   1.363  0.3397  0.2280  0.0273
  402TMC3    C1 6000   3.541   3.807   1.078 -0.2907  0.0608 -0.2065
  402TMC3    C2 6001   3.523   3.784   1.217  0.2686  0.6322 -0.0266
  402TMC3    C3 6002   3.566   3.668   1.263  0.0210  0.3799 -0.1929
  402TMC3    C4 6003   3.621   3.738   1.005  0.0270 -0.1249  0.1061
  402TMC3    C5 6004   3.672   3.624   1.064  0.0827 -0.7211 -0.6302
  402TMC3    C6 6005   3.646   3.585   1.192  0.3059 -0.3157 -0.2519
  402TMC3     C 6006   3.524   3.943   1.024 -0.0452  0.8881 -0.9465
  402TMC3     O 6007   3.508   3.949   0.905 -0.1871  0.4090 -0.5631
  402TMC3     H 6008   3.440   3.837   1.261 -0.5656  0.1035 -0.9753
  402TMC3    H1 6009   3.642   3.769   0.903 -0.2710 -1.1818 -0.2793
  402TMC3    H2 6010   3.670   3.485   1.229 -1.2842 -1.8407 -3.3762
  402TMC3    C7 6011   3.761   3.552   0.973  0.1537  0.3890  0.0177
  402TMC3    C8 6012   3.532   3.627   1.400  0.6487  0.5293 -0.3723
  402TMC3    O1 6013   3.767   3.589   0.855 -0.2009 -0.0572 -0.2394
  402TMC3    O2 6014   3.614   3.550   1.452  0.7227 -0.2488 -0.2111
  403MPD2     C 6015   1.104   2.623  13.657  0.6813 -0.6447  0.5298
  403MPD2    C1 6016   1.124   2.488  13.690 -0.5839  0.5001  0.4237
  403MPD2    C2 6017   1.231   2.462  13.772 -0.1085 -0.1219  0.2144
  403MPD2    C3 6018   1.307   2.563  13.825 -0.0396 -0.1247 -0.6811
  403MPD2    C4 6019   1.285   2.693  13.786  0.0951 -0.0893  0.5093
  403MPD2    C5 6020   1.187   2.725  13.704 -0.5597 -0.6933 -0.5398
  403MPD2     H 6021   1.263   2.362  13.799 -2.5167 -0.8514  0.3669
  403MPD2    H1 6022   1.353   2.766  13.829 -2.0418  1.1341  1.8336
  403MPD2    H2 6023   1.022   2.652  13.592 -1.7152 -2.7038  2.6554
  403MPD2    H3 6024   1.168   2.824  13.664  0.7028  0.2265  1.1191
  403MPD2     N 6025   1.413   2.523  13.909  0.0954  0.5376  0.2020
  403MPD2    H5 6026   1.407   2.422  13.916 -1.1124  0.3727 -3.0130
  403MPD2    N1 6027   1.046   2.398  13.614 -0.0435 -0.0207 -0.1550
  403MPD2    H7 6028   0.981   2.431  13.543 -2.4349  0.0560  2.0994
  404TMC3    C1 6029   0.966   2.181  13.560  0.7443 -0.7098 -0.5753
  404TMC3    C2 6030   0.987   2.047  13.582 -0.3365 -0.2908  0.3933
  404TMC3    C3 6031   0.894   1.962  13.547  0.0134  0.6870  0.1832
  404TMC3    C4 6032   0.859   2.232  13.489  0.4265  0.2898 -0.0488
  404TMC3    C5 6033   0.773   2.134  13.448  0.1787  0.0107  0.1952
  404TMC3    C6 6034   0.787   2.004  13.476  0.1449  0.3013 -0.1939
  404TMC3     C 6035   1.045   2.262  13.646  0.5515  0.0849  0.6332
  404TMC3     O 6036   1.103   2.209  13.737  0.4855 -0.4132 -0.2202
  404TMC3     H 6037   1.081   2.014  13.625 -0.0074  0.6454  0.4024
  404TMC3    H1 6038   0.835   2.335  13.466  1.7822  0.5828 -0.1264
  404TMC3    H2 6039   0.717   1.924  13.454  0.8960 -1.5051  3.9472
  404TMC3    C7 6040   0.672   2.175  13.350 -0.0445 -0.0686 -0.4726
  404TMC3    C8 6041   0.863   1.882  13.658 -0.1018  0.2019  0.0123
  404TMC3    O1 6042   0.682   2.285  13.300  0.4694  0.4963  0.0416
  404TMC3    O2 6043   0.822   1.769  13.635 -0.2277  0.2522  0.1195
  405MPD2     C 6044   1.760   3.159  14.854  0.0269  0.3192 -0.7727
  405MPD2    C1 6045   1.703   3.058  14.776 -0.1183  0.7084  0.6937
  405MPD2    C2 6046   1.625   3.098  14.668 -0.8439  0.6325 -0.2452
  405MPD2    C3 6047   1.594   3.229  14.650 -0.1867  0.1732 -0.3719
  405MPD2    C4 6048   1.630   3.328  14.744  0.3907  0.3806 -0.2927
  405MPD2    C5 6049   1.720   3.292  14.850  0.1423 -0.1533 -0.5263
  405MPD2     H 6050   1.581   3.025  14.600  0.4861 -1.9985  1.7018
  405MPD2    H1 6051   1.609   3.434  14.728  0.1937  0.0417 -2.3406
  405MPD2    H2 6052   1.835   3.140  14.929 -0.7502 -2.2026 -0.6408
  405MPD2    H3 6053   1.776   3.364  14.908  0.5976 -0.5651 -0.4541
  405MPD2     N 6054   1.519   3.257  14.529  0.6461 -0.9050  0.0535
  405MPD2    H5 6055   1.482   3.170  14.493  0.1988 -1.2144  1.2398
  405MPD2    N1 6056   1.738   2.926  14.803  0.0442 -0.3616  0.1737
  405MPD2    H7 6057   1.815   2.916  14.869  0.5637  1.1205 -0.2092
  406TMC3    C1 6058   1.160   3.437  14.289  0.1333  0.8162 -0.1381
  406TMC3    C2 6059   1.108   3.311  14.266 -0.1629  0.2761  0.1256
  406TMC3    C3 6060   1.186   3.205  14.315 -0.0978 -0.4323  0.1518
  406TMC3    C4 6061   1.274   3.458  14.357  0.1624  0.3314  0.1251
  406TMC3    C5 6062   1.354   3.351  14.389 -0.0092 -0.5828 -0.0026
  406TMC3    C6 6063   1.320   3.221  14.359  0.3341 -0.5105 -0.4893
  406TMC3     C 6064   1.063   3.533  14.330 -0.3422 -0.1518  0.0669
  406TMC3     O 6065   1.082   3.652  14.320 -0.0020 -0.3407  0.3758
  406TMC3     H 6066   1.014   3.296  14.214  1.1493  1.0639 -2.4575
  406TMC3    H1 6067   1.304   3.561  14.376 -0.3569  0.1570  1.9003
  406TMC3    H2 6068   1.374   3.137  14.401  1.9649  0.1874 -1.2071
  406TMC3    C7 6069   1.464   3.378  14.487  0.0112  0.4563  0.0608
  406TMC3    C8 6070   1.109   3.128  14.406  0.5851 -0.8762 -0.1473
  406TMC3    O1 6071   1.499   3.494  14.507 -0.1621 -0.6682  0.4056
  406TMC3    O2 6072   1.013   3.184  14.449  0.2317  0.2245 -0.0901
  407MPD2     C 6073   3.815   0.117  10.156  0.2288  0.1808 -0.0035
  407MPD2    C1 6074   3.887   0.206  10.077 -1.0107  0.2761 -0.5312
  407MPD2    C2 6075   3.881   0.344  10.105  0.4722 -0.1041  0.7134
  407MPD2    C3 6076   3.809   0.391  10.218 -0.8832 -0.2969 -0.4802
  407MPD2    C4 6077   3.740   0.301  10.292 -0.2368 -0.7051  0.0913
  407MPD2    C5 6078   3.736   0.167  10.257  0.5146  0.4527  1.2316
  407MPD2     H 6079   3.958   0.403  10.058 -1.0090  0.8533 -0.5110
  407MPD2    H1 6080   3.694   0.321  10.388  1.3496 -1.8994  1.1082
  407MPD2    H2 6081   3.807   0.010  10.139  2.0894 -0.5871  3.9306
  407MPD2    H3 6082   3.685   0.087  10.310  0.0378  0.5146  0.8656
  407MPD2     N 6083   3.828   0.514  10.284 -0.1064  0.2078 -0.7208
  407MPD2    H5 6084   3.771   0.530  10.367 -2.6620 -0.0372 -2.4012
  407MPD2    N1 6085   3.974   0.173   9.978  0.1776  0.1183 -0.7033
  407MPD2    H7 6086   4.024   0.247   9.930 -1.3908  1.0744 -0.8813
  408TMC3    C1 6087   4.129   0.059   9.845  0.1096 -0.0149  0.3994
  408TMC3    C2 6088   4.183   4.663   9.812  0.5985  0.1975 -0.4641
  408TMC3    C3 6089   4.295   4.664   9.739 -0.3432  0.4383  0.1888
  408TMC3    C4 6090   4.192   0.177   9.825  0.6257 -0.3710 -0.0902
  408TMC3    C5 6091   4.311   0.163   9.759  0.8390  0.9709 -0.1625
  408TMC3    C6 6092   4.366   0.055   9.707 -0.2937  0.1266  0.1977
  408TMC3     C 6093   4.009   0.047   9.929 -0.1156 -0.5524 -0.0886
  408TMC3     O 6094   3.972   4.656   9.956 -0.7424 -0.3212 -0.1956
  408TMC3     H 6095   4.135   4.567   9.832  2.3288 -1.0102 -2.0901
  408TMC3    H1 6096   4.168   0.269   9.877  0.0648 -0.0383 -0.9331
  408TMC3    H2 6097   4.461   0.064   9.656 -0.2165 -0.1625  0.2913
  408TMC3    C7 6098   4.415   0.272   9.779 -0.3900  0.0002 -0.5367
  408TMC3    C8 6099   4.350   4.534   9.708 -0.0457 -0.4621  0.3029
  408TMC3    O1 6100   4.533   0.234   9.773  0.2526  0.0613 -0.2239
  408TMC3    O2 6101   4.265   4.452   9.680 -0.7247 -0.6976 -0.1507
  409MPD2     C 6102   3.584   0.111  17.044  0.1170  0.4684 -0.0758
  409MPD2    C1 6103   3.596   0.219  17.129 -0.2265  0.2096 -0.3783
  409MPD2    C2 6104   3.605   0.341  17.066  0.5992  0.0819 -0.8805
  409MPD2    C3 6105   3.615   0.360  16.929 -0.6089 -0.4107 -0.4611
  409MPD2    C4 6106   3.602   0.248  16.848  0.2086 -0.5107 -0.2816
  409MPD2    C5 6107   3.580   0.127  16.911  0.0318  0.6025 -0.5518
  409MPD2     H 6108   3.627   0.426  17.129 -0.1231 -1.5936  1.6808
  409MPD2    H1 6109   3.613   0.247  16.740  3.5626 -1.1585  0.0555
  409MPD2    H2 6110   3.595   0.007  17.073 -0.4483  1.2282  2.8919
  409MPD2    H3 6111   3.565   0.033  16.858 -2.3964  0.6843  0.0149
  409MPD2     N 6112   3.619   0.484  16.859 -0.2212 -0.1861 -0.6461
  409MPD2    H5 6113   3.635   0.487  16.759 -1.7196 -1.9919 -0.9538
  409MPD2    N1 6114   3.625   0.213  17.270  0.1838  0.4426 -0.4375
  409MPD2    H7 6115   3.622   0.304  17.316  3.1393  0.5673 -0.5149
  410TMC3    C1 6116   3.649   0.719  16.820  0.2812 -0.6135  0.7988
  410TMC3    C2 6117   3.639   0.843  16.875  0.1085 -0.1272 -0.0294
  410TMC3    C3 6118   3.687   0.950  16.808 -0.4805  0.1835 -0.0684
  410TMC3    C4 6119   3.712   0.699  16.701  0.4376 -0.7907  0.6989
  410TMC3    C5 6120   3.756   0.808  16.635 -0.0157 -0.4625 -0.5213
  410TMC3    C6 6121   3.742   0.936  16.682  0.1208 -0.2203  0.3069
  410TMC3     C 6122   3.641   0.609  16.918 -0.1681  0.0517 -0.3448
  410TMC3     O 6123   3.631   0.640  17.038  0.2965  0.3088 -0.0674
  410TMC3     H 6124   3.604   0.850  16.977  2.7864 -1.2441  0.9467
  410TMC3    H1 6125   3.725   0.602  16.654 -1.4889 -0.8986  0.3898
  410TMC3    H2 6126   3.803   1.015  16.642  0.1354 -0.7139 -0.6485
  410TMC3    C7 6127   3.774   0.801  16.495 -0.2389 -0.0582  0.3284
  410TMC3    C8 6128   3.763   1.039  16.898  0.4031  0.0823  0.4710
  410TMC3    O1 6129   3.821   0.702  16.438  0.0977 -0.6013 -0.1758
  410TMC3    O2 6130   3.863   1.090  16.846  0.2216 -0.2523  0.0380
  411MPD2     C 6131   3.970   1.169  14.659  0.1116 -0.1027  0.1517
  411MPD2    C1 6132   3.855   1.216  14.596  0.5957 -0.0694 -0.0131
  411MPD2    C2 6133   3.761   1.132  14.549  0.4525  0.5342  0.0104
  411MPD2    C3 6134   3.775   0.990  14.560  0.2421  0.8062 -0.0549
  411MPD2    C4 6135   3.896   0.947  14.619 -0.5145  0.4676  0.0716
  411MPD2    C5 6136   3.986   1.032  14.675 -0.3291 -0.2674 -0.3525
  411MPD2     H 6137   3.681   1.180  14.495  0.6553 -0.5667 -1.2673
  411MPD2    H1 6138   3.907   0.840  14.635  1.9006  0.7400  0.2174
  411MPD2    H2 6139   4.052   1.235  14.684 -0.0307 -0.2138  0.9034
  411MPD2    H3 6140   4.072   0.990  14.727  0.0579  2.6636  1.3983
  411MPD2     N 6141   3.673   0.904  14.528  0.5737 -0.0766  0.2387
  411MPD2    H5 6142   3.696   0.806  14.542 -0.9836 -0.5230 -0.3195
  411MPD2    N1 6143   3.822   1.354  14.572 -0.0116  0.5023 -0.3658
  411MPD2    H7 6144   3.741   1.376  14.516  0.4476  1.1614 -0.7750
  412TMC3    C1 6145   3.486   0.823  14.421  0.6435 -0.0438 -0.2961
  412TMC3    C2 6146   3.350   0.840  14.415  0.9601  0.4006 -0.8504
  412TMC3    C3 6147   3.280   0.740  14.353 -0.7453 -0.6688  0.7501
  412TMC3    C4 6148   3.565   0.739  14.350 -0.2215 -0.0686  0.2181
  412TMC3    C5 6149   3.494   0.639  14.290 -0.0724 -0.4411 -0.0244
  412TMC3    C6 6150   3.353   0.639  14.303  0.2833 -0.5346  0.7105
  412TMC3     C 6151   3.550   0.940  14.483 -0.4388 -0.5010 -0.4751
  412TMC3     O 6152   3.498   1.045  14.474 -0.2617  0.0443  0.2733
  412TMC3     H 6153   3.304   0.930  14.453  1.1674 -0.9872  2.7115
  412TMC3    H1 6154   3.660   0.778  14.314 -0.3158 -0.3053 -0.2797
  412TMC3    H2 6155   3.311   0.555  14.250 -0.0818 -0.3602  0.7244
  412TMC3    C7 6156   3.548   0.613  14.157 -0.0298 -0.3898 -0.5208
  412TMC3    C8 6157   3.192   0.792  14.257 -0.1060 -0.6150  1.2892
  412TMC3    O1 6158   3.667   0.581  14.158 -0.3846  0.2684 -0.4407
  412TMC3    O2 6159   3.204   0.740  14.144 -0.0420  0.0594 -0.2954
  413MPD2     C 6160   0.709   4.438  15.540  0.5143 -0.7099 -0.7288
  413MPD2    C1 6161   0.661   4.355  15.445 -0.3841 -0.4097  0.0298
  413MPD2    C2 6162   0.731   4.237  15.422 -0.2005 -0.0196  0.7839
  413MPD2    C3 6163   0.848   4.212  15.482 -0.9702  0.0244 -0.4209
  413MPD2    C4 6164   0.902   4.303  15.574 -1.5304  1.1480  0.4555
  413MPD2    C5 6165   0.826   4.413  15.606 -0.6734  0.2792  0.5941
  413MPD2     H 6166   0.703   4.170  15.342  1.4856 -0.0146  0.2049
  413MPD2    H1 6167   0.981   4.273  15.641 -0.9205  0.6114 -0.5196
  413MPD2    H2 6168   0.664   4.535  15.563  1.3350 -0.7347  0.9924
  413MPD2    H3 6169   0.870   4.489  15.669  2.4081 -0.4980 -0.6463
  413MPD2     N 6170   0.917   4.094  15.453 -0.6997  0.3905  0.9668
  413MPD2    H5 6171   0.867   4.024  15.397 -0.7293  0.3905  0.9933
  413MPD2    N1 6172   0.550   4.404  15.378  0.1777 -1.0822 -0.0595
  413MPD2    H7 6173   0.511   4.493  15.407 -0.7368 -1.5045  0.0213
  414TMC3    C1 6174   1.079   3.924  15.449 -0.9894  0.3112 -0.4466
  414TMC3    C2 6175   1.155   3.838  15.528  0.3082  0.6904  0.1042
  414TMC3    C3 6176   1.178   3.718  15.479  0.4424  0.3393  1.5974
  414TMC3    C4 6177   1.043   3.900  15.316  0.3553  0.1744 -0.4867
  414TMC3    C5 6178   1.088   3.777  15.266 -0.5863 -0.2645 -0.0375
  414TMC3    C6 6179   1.137   3.688  15.354 -0.2312 -0.0341  0.3172
  414TMC3     C 6180   1.029   4.044  15.516  0.5265  0.1458 -0.4513
  414TMC3     O 6181   1.081   4.069  15.622  0.4603  0.6372 -0.0806
  414TMC3     H 6182   1.202   3.866  15.622  0.3611 -1.2643  0.6606
  414TMC3    H1 6183   1.002   3.980  15.256  0.9960 -0.0413 -1.2079
  414TMC3    H2 6184   1.162   3.589  15.317 -2.1080 -1.6140  3.3197
  414TMC3    C7 6185   1.029   3.736  15.141 -0.1099  0.0463  0.0508
  414TMC3    C8 6186   1.296   3.650  15.523 -0.2194 -0.5008 -0.3796
  414TMC3    O1 6187   0.913   3.759  15.125  0.6262 -0.3518 -0.6651
  414TMC3    O2 6188   1.318   3.547  15.468 -0.9063  0.2154 -0.2823
  415TMC3    C1 6189   0.903   2.465  10.213  0.1836  0.4230  0.1812
  415TMC3    C2 6190   0.866   2.551  10.116 -0.1579 -0.3649  0.3834
  415TMC3    C3 6191   0.840   2.498   9.991  0.6205  0.4173 -0.1744
  415TMC3    C4 6192   0.929   2.333  10.190  0.0207  0.5089  0.4612
  415TMC3    C5 6193   0.915   2.287  10.063  0.6099  0.0307  0.4931
  415TMC3    C6 6194   0.861   2.364   9.969 -0.0945  0.2902 -0.0385
  415TMC3     C 6195   0.937   2.506  10.352 -0.5706  0.0091 -0.5127
  415TMC3     O 6196   0.978   2.421  10.430 -0.3415 -0.2447  0.4904
  415TMC3     H 6197   0.835   2.652  10.141  0.7522  0.1191 -0.4259
  415TMC3    H1 6198   0.937   2.270  10.278  0.2790 -0.1384 -0.0359
  415TMC3    H2 6199   0.865   2.322   9.869 -0.4028  1.2978 -0.4809
  415TMC3    C7 6200   0.912   2.145  10.048 -0.1306  0.5196  0.3942
  415TMC3    C8 6201   0.844   2.595   9.880  0.6445  0.4403 -0.1122
  415TMC3    O1 6202   0.853   2.097   9.951 -0.0288  0.2485 -0.3911
  415TMC3    O2 6203   0.891   2.705   9.905 -0.2906 -0.1907 -0.9207
  416MPD2     C 6204   3.312   1.381  11.421  0.2027  0.3217 -0.1635
  416MPD2    C1 6205   3.186   1.338  11.474 -0.1032  1.2150  0.5916
  416MPD2    C2 6206   3.119   1.224  11.422 -0.7573 -0.3508 -0.7034
  416MPD2    C3 6207   3.175   1.158  11.320  0.5908  0.2659 -0.5586
  416MPD2    C4 6208   3.300   1.194  11.275  0.2404  0.1100  0.5499
  416MPD2    C5 6209   3.366   1.307  11.320  0.0086  0.4978  0.6397
  416MPD2     H 6210   3.017   1.199  11.450 -0.4004  0.5421  1.3905
  416MPD2    H1 6211   3.349   1.155  11.187  3.4398  0.5428  2.1318
  416MPD2    H2 6212   3.371   1.462  11.462 -0.7344  0.7659  0.3282
  416MPD2    H3 6213   3.458   1.333  11.271 -0.9648  1.0118 -0.9090
  416MPD2     N 6214   3.096   1.060  11.262  0.7945  0.3626 -0.1833
  416MPD2    H5 6215   3.003   1.045  11.299  0.8407  0.6731  0.0601
  416MPD2    N1 6216   3.121   1.431  11.565 -0.4306 -0.2721 -0.6917
  416MPD2    H7 6217   3.169   1.520  11.561 -0.7351  0.0838  3.0753
  417TMC3    C1 6218   2.951   1.543  11.682 -0.1441 -0.2158 -0.5080
  417TMC3    C2 6219   2.887   1.539  11.804 -0.6205 -0.4346 -0.1215
  417TMC3    C3 6220   2.807   1.649  11.825 -0.1652 -0.4464 -0.6267
  417TMC3    C4 6221   2.921   1.638  11.586  0.1409  0.1100 -0.6203
  417TMC3    C5 6222   2.826   1.738  11.609 -0.0875 -0.1491  0.7168
  417TMC3    C6 6223   2.760   1.734  11.725  0.0156  0.7170  0.4985
  417TMC3     C 6224   2.996   1.412  11.624 -0.8247  0.1111  0.4069
  417TMC3     O 6225   2.935   1.312  11.643 -0.0671  0.3590 -0.3597
  417TMC3     H 6226   2.924   1.464  11.874  1.1933  0.8367  0.2794
  417TMC3    H1 6227   2.966   1.633  11.488  0.8143  1.0272 -0.3547
  417TMC3    H2 6228   2.691   1.815  11.746  0.0113  0.2350  2.3604
  417TMC3    C7 6229   2.758   1.788  11.493  0.2440 -0.1732 -0.1377
  417TMC3    C8 6230   2.766   1.671  11.959 -0.5688  0.0832  0.6348
  417TMC3    O1 6231   2.830   1.802  11.395 -0.0699 -0.0804 -0.3081
  417TMC3    O2 6232   2.677   1.749  11.982 -0.4673 -0.1033  0.1120
  418TMC3    C1 6233   2.184   2.436  17.161  0.0948 -0.1522  0.2859
  418TMC3    C2 6234   2.056   2.418  17.198 -0.8001  0.5807 -0.0382
  418TMC3    C3 6235   2.039   2.447  17.331 -0.0961  0.4918 -0.0196
  418TMC3    C4 6236   2.285   2.488  17.235  0.3323  0.1751  0.1360
  418TMC3    C5 6237   2.260   2.523  17.361  0.1625  0.5086  0.0911
  418TMC3    C6 6238   2.138   2.499  17.408 -0.5063 -0.0056 -0.0325
  418TMC3     C 6239   2.217   2.390  17.032  0.0639 -0.3034 -0.6917
  418TMC3     O 6240   2.122   2.354  16.965  0.1576  0.4397  0.2500
  418TMC3     H 6241   1.989   2.350  17.147 -1.0721  1.4766 -0.8986
  418TMC3    H1 6242   2.382   2.509  17.193  0.1933  0.4581 -0.0392
  418TMC3    H2 6243   2.120   2.515  17.514  2.2370  0.9987  0.2740
  418TMC3    C7 6244   2.361   2.493  17.455  0.2706 -0.2191 -0.2642
  418TMC3    C8 6245   1.924   2.416  17.412 -0.2669  0.9359  0.7352
  418TMC3    O1 6246   2.426   2.395  17.424 -0.0195  0.9476  0.0870
  418TMC3    O2 6247   1.861   2.518  17.448  0.4778  0.1274 -0.2595
  419MPD2     C 6248   4.707   0.590  13.011  0.4893  0.5509 -0.2308
  419MPD2    C1 6249   4.655   0.716  12.999  0.1640 -0.3288 -0.2577
  419MPD2    C2 6250   4.711   0.819  13.072  0.6323 -0.8683  0.0970
  419MPD2    C3 6251   0.098   0.793  13.158  0.0961  0.3339 -0.1143
  419MPD2    C4 6252   0.148   0.665  13.162 -0.0736 -0.4021  0.1521
  419MPD2    C5 6253   0.093   0.572  13.087  0.9629 -0.0402 -0.5977
  419MPD2     H 6254   4.672   0.920  13.066  1.6228 -0.5713 -1.4286
  419MPD2    H1 6255   0.227   0.634  13.229  0.6434  1.5448  0.2256
  419MPD2    H2 6256   4.674   0.504  12.953 -0.7982  1.3322 -0.6296
  419MPD2    H3 6257   0.140   0.474  13.088  0.2681 -0.3543  0.4500
  419MPD2     N 6258   0.155   0.897  13.228 -0.1997  0.0868  0.0542
  419MPD2    H5 6259   0.108   0.987  13.231 -1.7289 -0.6964 -0.2866
  419MPD2    N1 6260   4.536   0.754  12.929 -0.4103  0.0518 -0.2890
  419MPD2    H7 6261   4.515   0.853  12.936 -1.2952 -0.4473  4.3630
  420TMC3    C1 6262   0.293   1.037  13.347 -1.1107 -0.7857  0.4809
  420TMC3    C2 6263   0.215   1.137  13.288  0.9284  0.0055 -0.2336
  420TMC3    C3 6264   0.223   1.260  13.334 -0.5007  0.0190  0.2216
  420TMC3    C4 6265   0.385   1.068  13.445 -0.1983  1.2143 -0.1722
  420TMC3    C5 6266   0.376   1.192  13.495 -0.7693 -0.7228  0.0096
  420TMC3    C6 6267   0.309   1.293  13.437  0.6037  0.6441  0.4023
  420TMC3     C 6268   0.276   0.899  13.301 -0.2408  0.8638  0.3838
  420TMC3     O 6269   0.354   0.810  13.326 -0.0227 -0.1351  0.4573
  420TMC3     H 6270   0.151   1.116  13.203  0.5182 -0.0462  0.0895
  420TMC3    H1 6271   0.427   0.989  13.505  1.1458  1.7306 -0.4237
  420TMC3    H2 6272   0.292   1.382  13.497 -0.6938  0.4213  0.3763
  420TMC3    C7 6273   0.441   1.225  13.622  0.2224  0.5535 -0.1301
  420TMC3    C8 6274   0.119   1.354  13.304  0.1972 -1.1022  0.2722
  420TMC3    O1 6275   0.468   1.127  13.692  0.1914  0.3244 -0.0865
  420TMC3    O2 6276   0.013   1.294  13.303 -0.0541 -0.4100 -0.3459
  421TMC3    C1 6277   1.613   2.518  14.030 -0.5871  0.4988 -0.6808
  421TMC3    C2 6278   1.671   2.561  14.142  0.7020 -0.4340 -0.0555
  421TMC3    C3 6279   1.796   2.509  14.176 -0.1722  0.3494 -0.4937
  421TMC3    C4 6280   1.672   2.418  13.954 -0.7301 -0.4033  0.3670
  421TMC3    C5 6281   1.796   2.366  13.990  0.2094  0.6264 -0.3081
  421TMC3    C6 6282   1.855   2.406  14.107 -0.9400 -0.4021 -0.0768
  421TMC3     C 6283   1.517   2.600  13.958 -0.1625 -0.2737  0.8996
  421TMC3     O 6284   1.506   2.720  13.987 -0.2520 -0.1853 -0.0220
  421TMC3     H 6285   1.631   2.649  14.190 -0.2836 -0.3681 -1.0205
  421TMC3    H1 6286   1.631   2.397  13.856 -0.4275  1.7061 -0.2111
  421TMC3    H2 6287   1.953   2.371  14.137 -0.1435  3.3133  1.6225
  421TMC3    C7 6288   1.886   2.347  13.872 -0.1861  0.4906 -0.4105
  421TMC3    C8 6289   1.875   2.569  14.276  0.4340  0.3405 -0.0281
  421TMC3    O1 6290   1.850   2.391  13.766  0.0961 -0.0126 -0.3289
  421TMC3    O2 6291   1.964   2.502  14.328  0.4086 -0.1051 -0.0919
  422TMC3    C1 6292   3.744   4.240  12.761  0.4480 -0.4968 -0.1281
  422TMC3    C2 6293   3.767   4.261  12.889  0.3682  0.0381  0.2578
  422TMC3    C3 6294   3.686   4.216  12.990 -0.5169  0.0192 -0.2784
  422TMC3    C4 6295   3.646   4.153  12.727 -0.6276  0.1440 -0.0503
  422TMC3    C5 6296   3.572   4.103  12.831  0.1267 -0.2401  0.2997
  422TMC3    C6 6297   3.583   4.140  12.964  0.2716 -0.2105 -0.0590
  422TMC3     C 6298   3.854   4.268  12.667  0.1217 -0.4577 -0.9319
  422TMC3     O 6299   3.961   4.283  12.715 -0.3502 -0.2803  0.0009
  422TMC3     H 6300   3.857   4.315  12.916 -0.0900  1.2366 -0.5849
  422TMC3    H1 6301   3.652   4.104  12.630  2.4752  2.0225 -0.8028
  422TMC3    H2 6302   3.516   4.123  13.048  2.5044  0.4626  1.8820
  422TMC3    C7 6303   3.462   4.028  12.777 -0.5573  0.3336 -0.0619
  422TMC3    C8 6304   3.706   4.286  13.112  0.1459  0.3895 -0.6033
  422TMC3    O1 6305   3.437   4.030  12.657 -0.2949  0.4430 -0.6268
  422TMC3    O2 6306   3.758   4.398  13.103  0.6770  0.7195 -0.4946
  423MPD2     C 6307   0.995   0.456   1.078  0.2406  0.1248  0.5644
  423MPD2    C1 6308   1.039   0.329   1.122  0.1602  0.2487 -0.1419
  423MPD2    C2 6309   1.111   0.244   1.040 -1.5149 -0.5625  0.4816
  423MPD2    C3 6310   1.132   0.275   0.906 -1.0176 -0.3628 -0.6400
  423MPD2    C4 6311   1.079   0.396   0.863  0.7545  0.4023 -0.4679
  423MPD2    C5 6312   1.026   0.486   0.946  0.0448  0.2860  0.2051
  423MPD2     H 6313   1.154   0.155   1.084 -1.2401 -0.7248 -0.1082
  423MPD2    H1 6314   1.089   0.420   0.758  3.7767 -0.1446 -0.2990
  423MPD2    H2 6315   0.954   0.535   1.141  0.9407 -0.1428  1.3485
  423MPD2    H3 6316   0.992   0.578   0.901  1.8279  0.1623 -1.3853
  423MPD2     N 6317   1.182   0.172   0.814 -0.2265 -0.4162 -0.0063
  423MPD2    H5 6318   1.189   0.199   0.717  2.6595 -1.7561 -0.1826
  423MPD2    N1 6319   1.015   0.290   1.256  0.6718 -0.3492 -0.2226
  423MPD2    H7 6320   1.041   0.193   1.271 -0.1344 -0.0760  2.9804
  424TMC3    C1 6321   0.928   0.291   1.477  0.5425  0.0065  1.3968
  424TMC3    C2 6322   1.036   0.219   1.514 -0.1640 -0.6192 -0.6328
  424TMC3    C3 6323   1.022   0.126   1.608  0.8403  0.1311 -0.3437
  424TMC3    C4 6324   0.805   0.286   1.538  0.1433  0.0344 -0.1561
  424TMC3    C5 6325   0.800   0.193   1.634 -0.1001 -0.5040 -0.0894
  424TMC3    C6 6326   0.905   0.117   1.681  0.5200 -0.2154  0.0751
  424TMC3     C 6327   0.942   0.354   1.347 -0.1833 -0.5889  0.5971
  424TMC3     O 6328   0.871   0.451   1.326 -0.4615 -0.9961  0.0288
  424TMC3     H 6329   1.129   0.212   1.458  0.9608  0.6764  1.0962
  424TMC3    H1 6330   0.717   0.340   1.507 -1.2560 -1.4190  1.2848
  424TMC3    H2 6331   0.899   0.058   1.771 -0.7911  1.1325  0.8653
  424TMC3    C7 6332   0.682   0.197   1.718 -0.0235  0.1808  0.4464
  424TMC3    C8 6333   1.136   0.059   1.653 -0.3015  0.1610  0.3997
  424TMC3    O1 6334   0.619   0.303   1.712 -0.0006 -0.1134 -0.2624
  424TMC3    O2 6335   1.252   0.100   1.638  0.2637  0.2624 -0.0276
  425MPD2     C 6336   4.618   4.279   0.320  0.5884  0.0539  0.5345
  425MPD2    C1 6337   4.533   4.179   0.271  0.3458  0.0722 -0.0814
  425MPD2    C2 6338   4.398   4.204   0.295  0.0010 -0.0233 -0.3837
  425MPD2    C3 6339   4.345   4.319   0.358 -0.0038  0.0410 -0.7436
  425MPD2    C4 6340   4.436   4.409   0.401  0.4514  0.0902 -0.7961
  425MPD2    C5 6341   4.570   4.390   0.387 -0.1740  0.3273  0.0354
  425MPD2     H 6342   4.324   4.127   0.278 -0.3217  0.1187  0.3879
  425MPD2    H1 6343   4.401   4.495   0.456  1.8751  0.5625 -0.6263
  425MPD2    H2 6344   4.723   4.256   0.302  0.0385 -2.0316 -0.0919
  425MPD2    H3 6345   4.641   4.463   0.424 -1.1094  1.0919  0.3318
  425MPD2     N 6346   4.208   4.334   0.373  0.0591  0.0629 -0.1629
  425MPD2    H5 6347   4.154   4.250   0.354  4.4849 -2.4047 -1.9189
  425MPD2    N1 6348   4.585   4.062   0.206  0.1405  0.2340 -1.1845
  425MPD2    H7 6349   4.685   4.059   0.189  0.1938 -0.0653 -0.8400
  426TMC3    C1 6350   4.573   3.876   0.066  0.2860  0.3632 -0.2639
  426TMC3    C2 6351   4.522   3.830  17.639 -0.1967 -0.1498 -0.5816
  426TMC3    C3 6352   4.609   3.782  17.548  0.0463  0.2048  0.4079
  426TMC3    C4 6353   4.700   3.852   0.109 -0.7434  0.2914 -0.3036
  426TMC3    C5 6354   0.054   3.777   0.020  0.7389  0.4694  1.3193
  426TMC3    C6 6355   0.012   3.745  17.590  0.6498 -0.2275 -0.1943
  426TMC3     C 6356   4.497   3.968   0.144 -0.4257  0.0772 -0.3583
  426TMC3     O 6357   4.373   3.958   0.137  0.6462  0.1640 -0.1003
  426TMC3     H 6358   4.429   3.873  17.603 -0.3362  0.8422  0.9572
  426TMC3    H1 6359   0.001   3.864   0.213 -0.8078  0.2734 -0.2865
  426TMC3    H2 6360   0.076   3.698  17.515  1.9911  0.3936  0.5663
  426TMC3    C7 6361   0.161   3.698   0.070  0.6415 -0.9673 -0.4479
  426TMC3    C8 6362   4.564   3.713  17.425  0.0747  0.2741  0.4302
  426TMC3    O1 6363   0.201   3.603   0.004  0.2480  0.5788 -0.6883
  426TMC3    O2 6364   4.627   3.713  17.323 -0.4770 -0.0693  0.0095
  427MPD2     C 6365   2.955   1.181  14.714 -0.1076 -0.7516 -0.3290
  427MPD2    C1 6366   2.923   1.124  14.830 -0.1532  0.3740 -0.0431
  427MPD2    C2 6367   2.795   1.086  14.844  0.4505  0.6258 -0.4512
  427MPD2    C3 6368   2.698   1.126  14.757  0.6204 -0.4310  0.4860
  427MPD2    C4 6369   2.726   1.174  14.633  0.3929 -0.7139 -0.0944
  427MPD2    C5 6370   2.858   1.211  14.617  0.6001  0.4513 -0.4115
  427MPD2     H 6371   2.783   1.051  14.946  0.4991  1.0232 -0.3061
  427MPD2    H1 6372   2.659   1.203  14.553  0.9897 -0.2208 -0.4107
  427MPD2    H2 6373   3.056   1.206  14.686 -0.0539 -0.9938 -0.3521
  427MPD2    H3 6374   2.874   1.258  14.521  0.2843 -1.6071 -1.4727
  427MPD2     N 6375   2.558   1.117  14.787 -0.4347  0.1258 -0.0537
  427MPD2    H5 6376   2.499   1.138  14.707 -0.0966 -0.3703 -0.4373
  427MPD2    N1 6377   3.009   1.107  14.938 -0.2447 -0.3882  0.2243
  427MPD2    H7 6378   2.975   1.063  15.023  0.2439  0.6755  0.9656
  428TMC3    C1 6379   3.206   1.115  15.062  0.3662  0.0219  0.1921
  428TMC3    C2 6380   3.153   1.011  15.143  0.6870  0.1483 -0.5482
  428TMC3    C3 6381   3.235   0.949  15.237  0.2453  0.9802  0.4894
  428TMC3    C4 6382   3.342   1.146  15.074  1.1594  0.0149  0.2373
  428TMC3    C5 6383   3.415   1.102  15.173  0.4508 -1.2519 -0.2747
  428TMC3    C6 6384   3.360   1.010  15.261 -0.6459 -0.6637  0.1110
  428TMC3     C 6385   3.141   1.142  14.938  0.0712  0.3907 -0.2990
  428TMC3     O 6386   3.211   1.163  14.836 -0.3354  0.1112 -0.1147
  428TMC3     H 6387   3.065   0.952  15.123 -0.7484  1.9887  0.3763
  428TMC3    H1 6388   3.383   1.206  14.994  0.2018  1.4419  0.8162
  428TMC3    H2 6389   3.418   0.967  15.341  1.7263 -1.9996 -2.3157
  428TMC3    C7 6390   3.519   1.187  15.221  0.1268 -0.8323  0.1699
  428TMC3    C8 6391   3.236   0.805  15.242 -0.0692  1.3819  0.0738
  428TMC3    O1 6392   3.548   1.157  15.336 -0.1121 -0.5193 -0.3108
  428TMC3    O2 6393   3.345   0.750  15.233 -0.2027  0.0456  0.4505
  429MPD2     C 6394   4.000   1.552  17.436  0.5052  0.8473 -1.3525
  429MPD2    C1 6395   3.957   1.425  17.398 -0.1360 -1.2577 -0.5368
  429MPD2    C2 6396   3.979   1.383  17.275  0.5768 -0.7183  0.5630
  429MPD2    C3 6397   4.033   1.463  17.176  0.2961 -0.7347 -0.0754
  429MPD2    C4 6398   4.071   1.595  17.208 -0.9134 -0.0475 -0.0064
  429MPD2    C5 6399   4.055   1.632  17.341  0.8502  0.2215 -0.2771
  429MPD2     H 6400   3.952   1.285  17.238 -0.0704 -0.6208  0.7940
  429MPD2    H1 6401   4.122   1.664  17.141  2.4729 -3.3891 -0.8127
  429MPD2    H2 6402   3.980   1.594  17.534  0.2278  1.9733 -1.8911
  429MPD2    H3 6403   4.081   1.733  17.367 -0.8046  0.0393  2.1267
  429MPD2     N 6404   4.055   1.405  17.046 -0.0341 -0.4650 -0.3157
  429MPD2    H5 6405   4.060   1.304  17.040 -1.7683 -0.7152  2.3351
  429MPD2    N1 6406   3.894   1.336  17.488  0.3275 -0.1253  0.3358
  429MPD2    H7 6407   3.890   1.240  17.455  0.4765  0.3307 -1.0234
  430TMC3    C1 6408   4.091   1.393  16.813  0.2086  0.3765 -0.6295
  430TMC3    C2 6409   4.040   1.454  16.705  0.1478 -0.0114  0.2309
  430TMC3    C3 6410   3.998   1.367  16.606 -0.2679 -0.1962 -0.3022
  430TMC3    C4 6411   4.132   1.263  16.820  1.0784 -0.7208  0.4234
  430TMC3    C5 6412   4.109   1.181  16.714  0.2368  0.3070  0.4472
  430TMC3    C6 6413   4.028   1.233  16.610  0.0690  0.2453 -0.3033
  430TMC3     C 6414   4.076   1.476  16.933 -0.9415  1.2300 -0.6467
  430TMC3     O 6415   4.062   1.593  16.908 -0.3819 -0.1868  0.0200
  430TMC3     H 6416   3.989   1.548  16.721  0.1331  0.1329 -0.6758
  430TMC3    H1 6417   4.169   1.231  16.917 -0.8133 -1.3102  0.9532
  430TMC3    H2 6418   4.018   1.165  16.525  2.5842 -0.4507 -0.0617
  430TMC3    C7 6419   4.135   1.035  16.721 -0.1931 -0.6091 -0.3265
  430TMC3    C8 6420   3.929   1.418  16.485  0.3389 -0.1542  0.2269
  430TMC3    O1 6421   4.137   0.976  16.828 -0.5160  0.1526 -0.0470
  430TMC3    O2 6422   3.879   1.332  16.416  0.6229  0.0869 -0.1150
  431MPD2     C 6423   4.304   1.530  12.904 -0.3184  0.4013 -0.1546
  431MPD2    C1 6424   4.394   1.444  12.853 -0.1960 -0.0123  0.2165
  431MPD2    C2 6425   4.348   1.313  12.825 -0.2200  0.0544  0.6298
  431MPD2    C3 6426   4.217   1.265  12.847  0.3461 -0.3809 -0.1068
  431MPD2    C4 6427   4.132   1.364  12.901  0.5916  0.7732 -0.5324
  431MPD2    C5 6428   4.175   1.486  12.924  0.1675  0.5194 -0.4627
  431MPD2     H 6429   4.422   1.250  12.777 -1.2124 -1.9995  1.7814
  431MPD2    H1 6430   4.027   1.342  12.920  1.0400 -1.4228 -0.6098
  431MPD2    H2 6431   4.338   1.628  12.936  1.5336 -0.7449  1.3993
  431MPD2    H3 6432   4.105   1.556  12.967  1.0263  1.1705 -0.1371
  431MPD2     N 6433   4.183   1.128  12.831 -0.0725  0.2938 -0.2500
  431MPD2    H5 6434   4.108   1.086  12.884 -1.2670  0.2344 -1.9846
  431MPD2    N1 6435   4.528   1.475  12.825  0.7664 -0.3293  0.4201
  431MPD2    H7 6436   4.583   1.405  12.777 -0.3128  0.3677 -1.8666
  432TMC3    C1 6437   4.201   0.913  12.735  0.6572  0.3412  0.2536
  432TMC3    C2 6438   4.167   0.872  12.612  0.7086 -1.2427 -0.5330
  432TMC3    C3 6439   4.229   0.753  12.567 -0.2852  0.0963  0.2039
  432TMC3    C4 6440   4.289   0.844  12.815  0.0232  1.1494 -0.3238
  432TMC3    C5 6441   4.351   0.736  12.767  0.1275 -0.1744 -0.4672
  432TMC3    C6 6442   4.313   0.681  12.646 -0.0495  0.5977 -0.7991
  432TMC3     C 6443   4.244   1.051  12.736 -0.3098  0.4972  0.5656
  432TMC3     O 6444   4.324   1.080  12.643 -0.5994  0.2333  0.1905
  432TMC3     H 6445   4.111   0.943  12.553 -0.2964  0.1795  2.1123
  432TMC3    H1 6446   4.317   0.880  12.914 -2.6828  0.7223  0.6026
  432TMC3    H2 6447   4.364   0.588  12.623  0.2412  0.7175 -0.6421
  432TMC3    C7 6448   4.470   0.676  12.835 -0.1094 -0.1886 -0.1521
  432TMC3    C8 6449   4.245   0.743  12.420  0.1253 -0.9047  0.9594
  432TMC3    O1 6450   4.492   0.557  12.813 -0.1094  0.2718 -0.0152
  432TMC3    O2 6451   4.166   0.811  12.360 -0.3188 -0.0957 -0.0943
  433MPD2     C 6452   3.879   0.434  11.050 -0.1536  0.1392 -0.0517
  433MPD2    C1 6453   3.760   0.371  11.020 -0.5126 -0.2423  0.3658
  433MPD2    C2 6454   3.658   0.376  11.116  0.0015 -0.3915 -0.4504
  433MPD2    C3 6455   3.680   0.433  11.245 -0.1494 -0.3698  0.7089
  433MPD2    C4 6456   3.795   0.507  11.263  0.1203 -0.1638 -0.6711
  433MPD2    C5 6457   3.890   0.497  11.172 -0.4334 -0.3658 -0.2479
  433MPD2     H 6458   3.561   0.329  11.108 -0.1309 -0.3651  1.0533
  433MPD2    H1 6459   3.816   0.562  11.355  0.4746  0.2933 -1.0255
  433MPD2    H2 6460   3.967   0.425  10.987  1.0349 -1.4325  1.7980
  433MPD2    H3 6461   3.976   0.554  11.204 -0.4731  0.2443 -1.2249
  433MPD2     N 6462   3.578   0.423  11.339  0.3611 -0.3893  0.7349
  433MPD2    H5 6463   3.500   0.360  11.326  0.9637 -1.3136  1.6296
  433MPD2    N1 6464   3.752   0.294  10.907 -0.3561  0.1587 -0.5851
  433MPD2    H7 6465   3.837   0.292  10.853 -0.9553  2.3963 -1.6091
  434TMC3    C1 6466   3.680   0.132  10.751 -0.4527 -0.2689  0.1146
  434TMC3    C2 6467   3.809   0.079  10.743  0.1578 -0.0913  0.0694
  434TMC3    C3 6468   3.829   4.684  10.674  0.7225  0.4887  0.0126
  434TMC3    C4 6469   3.578   0.082  10.687  0.1375 -0.7909 -0.4536
  434TMC3    C5 6470   3.599   4.688  10.613 -0.0032 -0.2235  0.0508
  434TMC3    C6 6471   3.720   4.624  10.614 -0.2208 -0.6511  0.0129
  434TMC3     C 6472   3.644   0.221  10.860  0.0264  0.0446  0.8607
  434TMC3     O 6473   3.529   0.235  10.901 -1.1091 -0.1214 -0.1806
  434TMC3     H 6474   3.884   0.114  10.813 -1.8279  2.2377  1.0209
  434TMC3    H1 6475   3.482   0.131  10.697  1.0285  0.8129  0.2395
  434TMC3    H2 6476   3.729   4.532  10.557 -2.3642  0.1855 -1.6652
  434TMC3    C7 6477   3.485   4.621  10.562  0.6777 -0.2038  0.1077
  434TMC3    C8 6478   3.923   4.597  10.744  0.4727  1.1596  0.2184
  434TMC3    O1 6479   3.389   4.685  10.518  0.1185 -0.5036 -0.7275
  434TMC3    O2 6480   3.892   4.489  10.791  0.4626  0.5566 -0.0075
  435MPD2     C 6481   1.035   0.268  15.886  0.3803  0.0816 -0.0924
  435MPD2    C1 6482   1.054   0.282  16.020 -0.6225 -0.5392 -0.2122
  435MPD2    C2 6483   1.171   0.243  16.079  0.2151  0.4389  0.2000
  435MPD2    C3 6484   1.272   0.185  16.009 -0.7338  0.2817  0.0926
  435MPD2    C4 6485   1.253   0.174  15.868  0.4621 -0.5096 -0.2456
  435MPD2    C5 6486   1.133   0.211  15.810  0.0703  0.3472  0.3626
  435MPD2     H 6487   1.186   0.254  16.185 -0.5317 -0.0101  0.3511
  435MPD2    H1 6488   1.327   0.127  15.805 -1.4626 -2.0603 -1.3276
  435MPD2    H2 6489   0.933   0.279  15.850  0.4069 -1.4575 -0.6297
  435MPD2    H3 6490   1.094   0.177  15.715 -0.3742 -0.4330  0.8319
  435MPD2     N 6491   1.379   0.121  16.079 -0.2571 -0.2819  0.3596
  435MPD2    H5 6492   1.368   0.133  16.179  0.7938 -0.4815  0.4969
  435MPD2    N1 6493   0.953   0.318  16.112  0.0125  0.7092  0.2726
  435MPD2    H7 6494   0.976   0.318  16.210  0.1499  0.2938  0.2405
  436TMC3    C1 6495   0.670   0.263  16.404 -0.5503  0.1022  0.1225
  436TMC3    C2 6496   0.760   0.275  16.304  1.0299  0.0604 -0.1277
  436TMC3    C3 6497   0.753   0.379  16.216  0.6426 -0.4579 -0.0537
  436TMC3    C4 6498   0.571   0.362  16.424 -0.5755 -0.5785  0.2112
  436TMC3    C5 6499   0.561   0.460  16.332 -0.1712 -0.1458 -0.3491
  436TMC3    C6 6500   0.646   0.463  16.223  0.0365  1.2132 -0.2876
  436TMC3     C 6501   0.638   0.125  16.452 -0.2061 -0.3691 -0.1513
  436TMC3     O 6502   0.683   0.032  16.386 -0.3716  0.1757  0.2527
  436TMC3     H 6503   0.820   0.188  16.280  0.1597 -0.9188  1.2557
  436TMC3    H1 6504   0.487   0.349  16.492 -1.3949  0.5415 -0.5932
  436TMC3    H2 6505   0.640   0.540  16.147  1.0504 -0.5640 -2.1575
  436TMC3    C7 6506   0.496   0.577  16.377  0.5086 -0.0695  0.1602
  436TMC3    C8 6507   0.824   0.361  16.087  1.1581 -0.8007  0.5629
  436TMC3    O1 6508   0.473   0.654  16.277  0.5857 -0.2359 -0.2773
  436TMC3    O2 6509   0.768   0.388  15.982  0.5951  0.0674  0.1281
  437TMC3    C1 6510   4.087   2.822  12.310  0.1558 -0.6085 -0.6302
  437TMC3    C2 6511   4.204   2.861  12.247 -0.1002 -0.0003 -0.0927
  437TMC3    C3 6512   4.325   2.812  12.302  0.6309 -0.3527  0.0557
  437TMC3    C4 6513   4.092   2.773  12.438 -0.3429  0.3842  0.4473
  437TMC3    C5 6514   4.215   2.738  12.491 -0.1549 -0.1942  0.3181
  437TMC3    C6 6515   4.329   2.737  12.420 -0.0140  0.4354 -0.1051
  437TMC3     C 6516   3.976   2.790  12.215 -0.4015  0.0864 -0.5267
  437TMC3     O 6517   3.992   2.823  12.095  0.5243 -0.0800  0.1683
  437TMC3     H 6518   4.216   2.907  12.150 -0.8186 -0.7459 -0.5370
  437TMC3    H1 6519   4.003   2.744  12.491  0.5797  0.0232  1.7981
  437TMC3    H2 6520   4.427   2.704  12.452 -0.4267 -2.5254 -1.8442
  437TMC3    C7 6521   4.221   2.693  12.628 -0.0781 -0.1034 -0.0109
  437TMC3    C8 6522   4.438   2.804  12.216  0.5866  0.5141  0.0261
  437TMC3    O1 6523   4.119   2.630  12.662 -0.2016  0.3538  0.1407
  437TMC3    O2 6524   4.496   2.696  12.217  0.3464 -0.1486  0.1249
  438MPD2     C 6525   2.245   2.471  16.488  0.0764  0.4980 -0.1178
  438MPD2    C1 6526   2.333   2.506  16.593  0.2926 -0.2591 -0.7432
  438MPD2    C2 6527   2.281   2.586  16.692  0.7783  0.3603  0.0777
  438MPD2    C3 6528   2.157   2.645  16.673 -0.6720  1.2585 -0.1445
  438MPD2    C4 6529   2.076   2.612  16.568  0.3541 -0.3777 -0.1029
  438MPD2    C5 6530   2.114   2.516  16.478  0.5876 -0.0867 -0.1608
  438MPD2     H 6531   2.336   2.607  16.784 -0.3351 -2.6856  1.4044
  438MPD2    H1 6532   1.987   2.672  16.550 -0.1588  0.1531  4.2521
  438MPD2    H2 6533   2.267   2.394  16.415  0.4521 -0.5168  1.0412
  438MPD2    H3 6534   2.048   2.492  16.396  1.6725 -1.3081 -0.6790
  438MPD2     N 6535   2.092   2.728  16.766 -0.1675 -0.7364 -0.0947
  438MPD2    H5 6536   1.999   2.757  16.738 -0.2321  0.0841  0.9690
  438MPD2    N1 6537   2.470   2.463  16.601  0.0210 -0.2083  0.0986
  438MPD2    H7 6538   2.523   2.489  16.683 -1.9376  2.6920  0.4364
  439TMC3    C1 6539   2.667   2.365  16.527 -0.3698  0.4077 -0.2048
  439TMC3    C2 6540   2.727   2.267  16.456 -0.5185 -0.0486 -0.1045
  439TMC3    C3 6541   2.832   2.200  16.513  0.0011 -0.5218  0.6872
  439TMC3    C4 6542   2.722   2.422  16.635  0.1295  0.5604  0.4617
  439TMC3    C5 6543   2.830   2.361  16.690 -0.1809  0.0102 -0.0683
  439TMC3    C6 6544   2.875   2.241  16.640  0.5933  0.0049 -0.1589
  439TMC3     C 6545   2.528   2.394  16.496 -0.6523 -1.3525  0.3037
  439TMC3     O 6546   2.481   2.354  16.392 -0.2730 -0.2177 -0.1603
  439TMC3     H 6547   2.675   2.221  16.373 -0.7877  2.0187 -1.0759
  439TMC3    H1 6548   2.690   2.517  16.676  0.2920  1.0290 -0.5121
  439TMC3    H2 6549   2.965   2.208  16.690 -0.8281 -1.7629  1.2640
  439TMC3    C7 6550   2.916   2.417  16.798 -0.2411 -0.7638 -0.4310
  439TMC3    C8 6551   2.925   2.115  16.434 -0.2796 -0.2204 -0.9117
  439TMC3    O1 6552   2.979   2.332  16.862  0.2573  0.5751  0.0002
  439TMC3    O2 6553   3.004   2.050  16.504  0.6399  0.2412 -0.6256
  440MPD2     C 6554   1.284   3.114  15.052  0.3031  0.3901 -0.4122
  440MPD2    C1 6555   1.294   3.217  15.149 -0.6911 -0.9339 -0.1927
  440MPD2    C2 6556   1.423   3.245  15.190 -0.5382 -0.1554 -0.0429
  440MPD2    C3 6557   1.534   3.168  15.161 -0.3199 -0.2228  0.9151
  440MPD2    C4 6558   1.511   3.060  15.084  0.0235 -0.0988 -0.1765
  440MPD2    C5 6559   1.398   3.046  15.006  0.2301 -0.1781  0.0757
  440MPD2     H 6560   1.442   3.326  15.260  1.9437 -1.4015  0.7425
  440MPD2    H1 6561   1.585   2.982  15.069  0.4782  0.4806 -0.8926
  440MPD2    H2 6562   1.191   3.096  15.000  0.0347  1.4165 -0.2967
  440MPD2    H3 6563   1.374   2.960  14.944  2.9157 -1.1936  0.4878
  440MPD2     N 6564   1.663   3.176  15.218  0.1835  0.4845  0.3330
  440MPD2    H5 6565   1.720   3.092  15.213 -1.7580 -0.7058 -1.8459
  440MPD2    N1 6566   1.190   3.294  15.195 -0.4292 -0.1841  0.4206
  440MPD2    H7 6567   1.218   3.365  15.262  0.6744  1.4514 -1.7805
  441TMC3    C1 6568   1.847   3.258  15.344 -0.3598 -0.1017  0.1415
  441TMC3    C2 6569   1.902   3.382  15.386 -0.2170 -0.0561  0.1191
  441TMC3    C3 6570   1.970   3.383  15.502 -0.2819  0.5071  0.4891
  441TMC3    C4 6571   1.863   3.138  15.404  0.7240  0.0722 -0.0752
  441TMC3    C5 6572   1.933   3.148  15.525  0.2658  0.8679 -0.2889
  441TMC3    C6 6573   1.987   3.266  15.576  0.0709 -0.0860 -0.0626
  441TMC3     C 6574   1.711   3.278  15.295  0.0295  0.4382  0.3175
  441TMC3     O 6575   1.661   3.382  15.333  0.3265 -0.0873 -0.2388
  441TMC3     H 6576   1.881   3.472  15.329  3.0875  1.2284  0.9479
  441TMC3    H1 6577   1.814   3.046  15.372 -0.1516 -0.0442  1.5857
  441TMC3    H2 6578   2.014   3.278  15.680 -3.3234  2.4878  0.4982
  441TMC3    C7 6579   1.930   3.044  15.629 -0.6976 -0.1475 -0.7124
  441TMC3    C8 6580   1.935   3.494  15.579  0.2147  0.5513 -0.2449
  441TMC3    O1 6581   2.028   3.032  15.704 -0.2119 -0.5982  0.4023
  441TMC3    O2 6582   2.005   3.525  15.674 -0.2948 -0.1502 -0.2766
  442MPD2     C 6583   4.224   3.891  17.008  0.5973  0.5784 -0.0266
  442MPD2    C1 6584   4.095   3.842  17.028 -0.5577  0.3977  0.6033
  442MPD2    C2 6585   4.049   3.753  16.936  0.0908 -0.2952 -0.2433
  442MPD2    C3 6586   4.125   3.719  16.828 -0.2666  0.9280  0.0875
  442MPD2    C4 6587   4.243   3.785  16.808  0.2693 -0.2882  0.2570
  442MPD2    C5 6588   4.295   3.869  16.892 -1.2086 -0.0308 -0.3357
  442MPD2     H 6589   3.945   3.724  16.941 -0.0257  0.3160  0.8052
  442MPD2    H1 6590   4.301   3.776  16.717  0.7953 -2.5053  0.8071
  442MPD2    H2 6591   4.273   3.951  17.084 -0.8315  1.7917 -0.0600
  442MPD2    H3 6592   4.396   3.902  16.871 -0.8805 -0.6470  0.2693
  442MPD2     N 6593   4.087   3.611  16.747  0.1785  0.0562 -1.1424
  442MPD2    H5 6594   4.139   3.602  16.660  1.2265 -1.5355 -0.3687
  442MPD2    N1 6595   4.005   3.884  17.132  0.2099  0.5128 -0.4447
  442MPD2    H7 6596   3.920   3.830  17.148  0.8301 -0.5386 -0.7112
  443TMC3    C1 6597   3.907   4.008  17.291 -0.0685 -0.4818  0.5239
  443TMC3    C2 6598   3.830   4.113  17.250  0.0546  0.7896  0.9398
  443TMC3    C3 6599   3.694   4.111  17.285 -0.0962  0.4576  0.0314
  443TMC3    C4 6600   3.869   3.919  17.385  0.0768 -0.2034 -0.3941
  443TMC3    C5 6601   3.734   3.921  17.423 -0.0293  0.8314 -0.5148
  443TMC3    C6 6602   3.647   4.018  17.370 -0.7596 -0.5799 -1.0256
  443TMC3     C 6603   4.031   3.991  17.218  1.0274  0.6036  0.4643
  443TMC3     O 6604   4.093   4.092  17.192 -0.3818 -0.2386 -1.0416
  443TMC3     H 6605   3.868   4.170  17.165  0.1026  1.9943  1.7645
  443TMC3    H1 6606   3.942   3.848  17.422 -0.7131 -0.8214 -0.0142
  443TMC3    H2 6607   3.541   4.015  17.390 -0.8864 -1.3226 -1.7937
  443TMC3    C7 6608   3.668   3.808  17.478 -0.5313 -0.2454 -0.3610
  443TMC3    C8 6609   3.603   4.127  17.173 -0.0342 -0.7763 -0.0805
  443TMC3    O1 6610   3.546   3.809  17.472 -0.0685 -0.5648 -0.2970
  443TMC3    O2 6611   3.531   4.028  17.150 -0.0056  0.2028 -0.5330
  444MPD2     C 6612   4.398   3.424   0.003 -0.5607  0.5863 -0.3563
  444MPD2    C1 6613   4.308   3.340  17.636  0.0050  0.4396 -0.1854
  444MPD2    C2 6614   4.355   3.266  17.526  0.0069 -0.0041  0.1767
  444MPD2    C3 6615   4.481   3.281  17.470  0.1737  0.3893 -0.2044
  444MPD2    C4 6616   4.570   3.355  17.537  0.5447  0.8668 -0.0292
  444MPD2    C5 6617   4.526   3.428  17.649  0.2181  0.5137  0.1187
  444MPD2     H 6618   4.293   3.195  17.473 -2.1671  0.4955  2.0395
  444MPD2    H1 6619   4.669   3.379  17.498  0.6514  1.5681  0.6864
  444MPD2    H2 6620   4.371   3.482   0.091  1.7637 -1.3518  1.6082
  444MPD2    H3 6621   4.604   3.479   0.011 -0.2313 -0.1619  1.3893
  444MPD2     N 6622   4.517   3.216  17.350  0.1446 -0.4473 -0.6437
  444MPD2    H5 6623   4.454   3.156  17.299  0.7737 -0.8526 -0.9473
  444MPD2    N1 6624   4.171   3.327  17.673 -0.3573  0.3507 -0.6826
  444MPD2    H7 6625   4.120   3.248  17.635 -1.2207  1.6640 -2.2445
  445TMC3    C1 6626   4.596   3.210  17.132 -0.0417 -0.1302  0.7537
  445TMC3    C2 6627   4.471   3.165  17.098 -0.0914 -0.2978 -0.0435
  445TMC3    C3 6628   4.459   3.108  16.976 -0.1130 -0.3043 -0.0290
  445TMC3    C4 6629   4.709   3.175  17.063 -0.6017  0.4717 -0.1446
  445TMC3    C5 6630   4.687   3.127  16.939 -0.3919  0.1408  1.1449
  445TMC3    C6 6631   4.560   3.098  16.889 -0.0420  0.4485  0.1024
  445TMC3     C 6632   4.618   3.258  17.264 -0.0668  0.0443 -0.0595
  445TMC3     O 6633   0.010   3.309  17.286  0.2280  0.2795  0.0386
  445TMC3     H 6634   4.378   3.196  17.145  0.8213 -0.0547  1.5860
  445TMC3    H1 6635   0.084   3.174  17.109 -0.7778 -2.6503  0.1479
  445TMC3    H2 6636   4.551   3.060  16.788  2.1044 -0.9599  0.4254
  445TMC3    C7 6637   0.082   3.089  16.859 -0.3984  0.1061  0.3072
  445TMC3    C8 6638   4.335   3.046  16.938 -0.5768  0.2154 -0.0374
  445TMC3    O1 6639   0.050   3.035  16.750 -0.2396 -0.3125 -0.0526
  445TMC3    O2 6640   4.233   3.079  17.002  0.2904 -0.1857  0.4352
  446MPD2     C 6641   3.436   4.657  11.135  0.0385 -0.0541  1.1827
  446MPD2    C1 6642   3.512   4.585  11.044 -0.4593 -0.1493 -0.3398
  446MPD2    C2 6643   3.654   4.577  11.056 -0.5981 -0.2594  0.3682
  446MPD2    C3 6644   3.710   4.655  11.155  0.5893  0.3294  0.6483
  446MPD2    C4 6645   3.629   0.011  11.238 -0.0339  0.2007 -0.0098
  446MPD2    C5 6646   3.495   0.011  11.235  0.3962 -0.6614 -0.6480
  446MPD2     H 6647   3.727   4.528  10.992 -0.3332  0.3286  0.2184
  446MPD2    H1 6648   3.667   0.069  11.322  0.8041 -0.3235 -0.0364
  446MPD2    H2 6649   3.328   4.668  11.138 -0.0701 -0.7476 -0.3862
  446MPD2    H3 6650   3.438   0.069  11.307  1.3295 -1.3126  0.6216
  446MPD2     N 6651   3.851   4.671  11.155  0.2884 -0.3978 -0.4160
  446MPD2    H5 6652   3.918   4.631  11.090 -2.7814 -2.6736 -2.2271
  446MPD2    N1 6653   3.451   4.520  10.932 -0.4683 -0.0333  0.4857
  446MPD2    H7 6654   3.517   4.468  10.874 -0.4774 -0.7888  1.1546
  447TMC3    C1 6655   4.046   0.064  11.223 -0.2813  0.1406  0.2969
  447TMC3    C2 6656   4.069   0.103  11.095 -0.1859  0.5530  0.0639
  447TMC3    C3 6657   4.198   0.140  11.068 -0.4108 -0.0281 -0.0239
  447TMC3    C4 6658   4.145   0.062  11.315 -0.2994 -0.6741 -0.1490
  447TMC3    C5 6659   4.272   0.094  11.283  0.2541  0.1016 -0.0325
  447TMC3    C6 6660   4.299   0.137  11.155  0.5444  0.0005  0.1424
  447TMC3     C 6661   3.924   4.720  11.263  0.4695 -0.2037 -0.5233
  447TMC3     O 6662   3.886   0.004  11.379 -0.1833  0.6288  0.6581
  447TMC3     H 6663   3.994   0.102  11.017  0.6392  1.3009 -0.7481
  447TMC3    H1 6664   4.115   0.025  11.413  4.3129 -0.0703  1.5064
  447TMC3    H2 6665   4.400   0.149  11.116 -0.7314  1.8575 -2.6151
  447TMC3    C7 6666   4.385   0.052  11.362 -0.6702  0.3320 -0.3706
  447TMC3    C8 6667   4.210   0.216  10.949 -0.4681 -1.4455 -0.1006
  447TMC3    O1 6668   4.492   0.095  11.321  0.0474 -0.6007 -0.2016
  447TMC3    O2 6669   4.105   0.247  10.891  0.2833  0.0413  0.2052
  448TMC3    C1 6670   3.221   4.638  17.568  0.1139 -0.3365  0.5135
  448TMC3    C2 6671   3.146   4.583  17.472 -0.3480  1.0073  0.3059
  448TMC3    C3 6672   3.095   4.461  17.499 -0.0113  0.5613  0.2601
  448TMC3    C4 6673   3.236   4.583  17.693 -0.9943  0.1831  0.0464
  448TMC3    C5 6674   3.173   4.466   0.024  0.4933 -0.6420  0.0164
  448TMC3    C6 6675   3.110   4.396  17.622  0.2084 -0.5417 -0.1109
  448TMC3     C 6676   3.296   0.033  17.538 -0.0102 -0.1042  0.7750
  448TMC3     O 6677   3.397   0.051  17.608 -0.8714 -0.1149 -0.1028
  448TMC3     H 6678   3.145   4.622  17.370 -1.1513  1.5652  0.5213
  448TMC3    H1 6679   3.285   4.637   0.080  0.6827 -1.3592  0.0756
  448TMC3    H2 6680   3.079   4.292  17.622  1.9077 -1.0512  0.4816
  448TMC3    C7 6681   3.193   4.402   0.151  0.0567  0.2389  0.7104
  448TMC3    C8 6682   3.028   4.383  17.398  0.2090 -0.7648  0.2403
  448TMC3    O1 6683   3.296   4.416   0.209 -0.4253  0.0036 -0.1626
  448TMC3    O2 6684   3.025   4.260  17.410  0.1741 -0.1906 -0.1304
  449MPD2     C 6685   2.609   3.057  13.792 -0.1057  0.2996  0.0346
  449MPD2    C1 6686   2.628   2.990  13.671 -0.9360  0.1466  0.1457
  449MPD2    C2 6687   2.632   2.847  13.679  0.2141  0.6967 -0.4813
  449MPD2    C3 6688   2.601   2.789  13.801 -0.8796  0.2467  0.8571
  449MPD2    C4 6689   2.575   2.863  13.907  0.9264  0.1289 -0.1770
  449MPD2    C5 6690   2.572   2.996  13.905 -0.3124 -0.1187 -0.5682
  449MPD2     H 6691   2.675   2.787  13.599  0.3764 -0.8504  0.7770
  449MPD2    H1 6692   2.549   2.818  14.003  0.2075  0.4416 -0.2196
  449MPD2    H2 6693   2.614   3.165  13.801 -0.1612  0.3090 -0.0479
  449MPD2    H3 6694   2.564   3.053  13.997  2.0840  0.2008 -0.5444
  449MPD2     N 6695   2.605   2.650  13.803  0.7416  0.0361 -0.1675
  449MPD2    H5 6696   2.629   2.609  13.714  2.1566 -2.7650  1.5169
  449MPD2    N1 6697   2.680   3.045  13.547  0.2757  0.1189 -0.2759
  449MPD2    H7 6698   2.697   2.978  13.473 -1.4742 -0.1240 -0.4662
  450TMC3    C1 6699   2.781   3.197  13.399  0.0724  0.2204  0.0629
  450TMC3    C2 6700   2.902   3.237  13.443 -0.8266 -0.2528 -0.2411
  450TMC3    C3 6701   3.003   3.156  13.409  0.1590 -0.3008  0.5873
  450TMC3    C4 6702   2.765   3.102  13.306 -0.7922 -0.0020 -1.0250
  450TMC3    C5 6703   2.866   3.012  13.277 -1.2678  0.1088 -0.6678
  450TMC3    C6 6704   2.990   3.037  13.333  0.0705 -0.1193 -0.2363
  450TMC3     C 6705   2.704   3.181  13.522  0.7427 -0.1869  0.4697
  450TMC3     O 6706   2.695   3.275  13.598 -0.2526 -0.4540 -0.1652
  450TMC3     H 6707   2.916   3.315  13.518  4.3089 -2.9829  1.6468
  450TMC3    H1 6708   2.666   3.079  13.267 -0.8606 -0.8515 -0.3431
  450TMC3    H2 6709   3.052   2.955  13.366  0.1045 -0.2146 -0.5343
  450TMC3    C7 6710   2.822   2.878  13.284 -0.0489  0.0753 -0.4875
  450TMC3    C8 6711   3.101   3.150  13.526  0.3712 -0.4651 -0.7510
  450TMC3    O1 6712   2.721   2.867  13.348 -0.5878 -0.2039 -0.3829
  450TMC3    O2 6713   3.062   3.173  13.638 -0.1116  0.5589 -0.2183
  451MPD2     C 6714   4.593   1.058   1.895  0.2136  0.3139  0.2797
  451MPD2    C1 6715   4.667   1.164   1.842  0.1685  0.2248 -0.2248
  451MPD2    C2 6716   0.084   1.165   1.859 -0.3385  0.3012 -0.9977
  451MPD2    C3 6717   0.147   1.056   1.911  0.6851  0.1561 -0.7946
  451MPD2    C4 6718   0.068   0.958   1.966  0.4761 -0.0929  0.0632
  451MPD2    C5 6719   4.658   0.958   1.958  0.9036 -0.2198  0.3210
  451MPD2     H 6720   0.142   1.243   1.811  0.7784  0.6565  0.9340
  451MPD2    H1 6721   0.116   0.865   1.994 -1.4857 -1.5750 -1.3833
  451MPD2    H2 6722   4.485   1.047   1.886  0.5171 -3.7423  1.6438
  451MPD2    H3 6723   4.614   0.866   1.995  1.5328 -1.9172 -3.1155
  451MPD2     N 6724   0.288   1.022   1.916  0.0713 -0.6013 -0.7172
  451MPD2    H5 6725   0.320   0.935   1.959 -0.7381 -1.3785 -1.6793
  451MPD2    N1 6726   4.593   1.262   1.775  0.0189  0.1741  0.5814
  451MPD2    H7 6727   4.493   1.248   1.776 -0.0625  0.7865  0.7019
  452TMC3    C1 6728   0.519   1.032   1.844 -0.2026  0.4752  0.2923
  452TMC3    C2 6729   0.566   0.937   1.937 -0.4179 -0.0171  0.7309
  452TMC3    C3 6730   0.691   0.891   1.917 -0.4717 -0.7186 -0.3263
  452TMC3    C4 6731   0.594   1.067   1.730  0.2862  0.7949 -0.2948
  452TMC3    C5 6732   0.717   1.008   1.713 -0.0754  0.0211  0.3784
  452TMC3    C6 6733   0.767   0.919   1.807  0.6398 -0.1242  0.4425
  452TMC3     C 6734   0.378   1.087   1.839 -0.4274  0.2336  0.4441
  452TMC3     O 6735   0.357   1.169   1.751  0.5601 -0.0119 -0.2379
  452TMC3     H 6736   0.515   0.918   2.031 -0.3315 -0.7769  0.6278
  452TMC3    H1 6737   0.552   1.136   1.658 -2.0961 -1.9964 -1.6228
  452TMC3    H2 6738   0.856   0.860   1.790 -1.1474 -1.9934 -2.3825
  452TMC3    C7 6739   0.793   1.055   1.595 -0.1612 -0.3312  0.5713
  452TMC3    C8 6740   0.740   0.780   1.989  0.1231  0.3621 -0.2871
  452TMC3    O1 6741   0.729   1.115   1.507  0.2310 -0.3020  0.0584
  452TMC3    O2 6742   0.863   0.775   1.996 -0.1337 -0.5944  0.4539
  453TMC3    C1 6743   1.125   3.968  11.975  0.3098  0.4324 -0.2561
  453TMC3    C2 6744   1.039   3.859  11.969  0.3084  0.6319 -0.1571
  453TMC3    C3 6745   1.010   3.807  11.848  0.6734  0.3000  0.2280
  453TMC3    C4 6746   1.188   4.012  11.865 -0.6477 -0.0196 -0.8898
  453TMC3    C5 6747   1.155   3.958  11.749 -0.3643 -0.0149  0.5874
  453TMC3    C6 6748   1.060   3.860  11.735 -0.4130 -0.6243  0.1131
  453TMC3     C 6749   1.199   3.998  12.097 -0.2198 -0.2882  0.5847
  453TMC3     O 6750   1.315   4.033  12.075  0.3598  0.1292 -0.1671
  453TMC3     H 6751   0.998   3.819  12.061  2.1003  3.0051  1.6657
  453TMC3    H1 6752   1.258   4.094  11.882  0.4352 -0.9169 -1.0178
  453TMC3    H2 6753   1.051   3.810  11.639  1.2303  1.5340 -1.1724
  453TMC3    C7 6754   1.254   3.961  11.646  0.0086 -0.0827 -0.0517
  453TMC3    C8 6755   0.899   3.708  11.844  0.6693 -0.1186  0.1402
  453TMC3    O1 6756   1.255   3.875  11.562  0.0319  0.4361 -0.2428
  453TMC3    O2 6757   0.851   3.685  11.733 -0.3806 -0.0518  0.2546
  454MPD2     C 6758   0.368   3.269  16.475  0.2716 -0.6875  0.5115
  454MPD2    C1 6759   0.283   3.336  16.391  0.1455 -0.1605  0.2806
  454MPD2    C2 6760   0.212   3.446  16.440 -0.1081 -0.2968  0.4267
  454MPD2    C3 6761   0.209   3.478  16.574  0.1207 -0.0358 -0.3088
  454MPD2    C4 6762   0.306   3.413  16.659  0.1198 -0.2738 -0.2288
  454MPD2    C5 6763   0.386   3.315  16.601 -0.5631  0.3681  0.0982
  454MPD2     H 6764   0.143   3.493  16.371 -0.4017 -1.8367 -0.3293
  454MPD2    H1 6765   0.316   3.431  16.766 -1.1057  1.9429 -0.4721
  454MPD2    H2 6766   0.413   3.177  16.439 -0.6292 -0.4857 -1.1108
  454MPD2    H3 6767   0.464   3.262  16.655  1.6137  0.5920 -2.8341
  454MPD2     N 6768   0.110   3.557  16.634 -0.2588  0.0487 -0.2391
  454MPD2    H5 6769   0.103   3.547  16.735  1.2385  0.3052 -0.1161
  454MPD2    N1 6770   0.263   3.307  16.252  0.0101  0.6980  0.4659
  454MPD2    H7 6771   0.227   3.378  16.189 -0.6205  0.9018  1.0565
  455TMC3    C1 6772   4.609   3.612  16.614  0.1593 -0.0324  0.4002
  455TMC3    C2 6773   4.589   3.618  16.748 -0.8273 -0.0191  0.7414
  455TMC3    C3 6774   4.498   3.529  16.796  0.0064 -0.4856 -0.3569
  455TMC3    C4 6775   4.541   3.524  16.536  0.4777 -0.1278  0.0185
  455TMC3    C5 6776   4.450   3.442  16.591 -0.0519  0.4095 -0.5122
  455TMC3    C6 6777   4.423   3.448  16.722 -0.0499 -0.2006  0.9192
  455TMC3     C 6778   0.022   3.632  16.563 -0.6082 -0.3612 -0.1256
  455TMC3     O 6779   0.047   3.688  16.455 -0.9334 -0.3468  0.1076
  455TMC3     H 6780   4.646   3.687  16.810 -1.7328  0.5211  0.9810
  455TMC3    H1 6781   4.557   3.522  16.429 -2.6735 -2.1118 -0.3970
  455TMC3    H2 6782   4.366   3.369  16.768 -2.0597  0.7871  0.1130
  455TMC3    C7 6783   4.453   3.309  16.549  0.6448  0.7334  0.4420
  455TMC3    C8 6784   4.478   3.549  16.936 -0.3057 -0.7344 -0.3137
  455TMC3    O1 6785   4.353   3.239  16.555  0.4679  0.2723 -0.6944
  455TMC3    O2 6786   4.586   3.561  16.995 -0.4172  0.5256  0.5263
  456MPD2     C 6787   2.420   3.315  16.594  0.4542 -0.1155 -0.8628
  456MPD2    C1 6788   2.538   3.291  16.652 -0.3577  0.1214  0.0904
  456MPD2    C2 6789   2.565   3.349  16.774 -0.0465  0.3784  0.3051
  456MPD2    C3 6790   2.487   3.457  16.820  0.2350  0.4403 -0.1773
  456MPD2    C4 6791   2.379   3.497  16.744 -0.4418  0.5720  0.9129
  456MPD2    C5 6792   2.342   3.424  16.634 -0.5695 -0.1340 -0.3632
  456MPD2     H 6793   2.656   3.324  16.828  0.0858  1.8590  0.7728
  456MPD2    H1 6794   2.316   3.579  16.779 -0.7756 -0.4740  2.7657
  456MPD2    H2 6795   2.387   3.270  16.501 -0.0953  0.5400 -0.9938
  456MPD2    H3 6796   2.253   3.448  16.578 -0.5016  0.1342 -0.3596
  456MPD2     N 6797   2.536   3.527  16.930  0.4153  0.2076  0.2400
  456MPD2    H5 6798   2.600   3.473  16.988  0.6635  1.6433  1.3012
  456MPD2    N1 6799   2.625   3.198  16.591  0.2108 -0.2237 -0.0666
  456MPD2    H7 6800   2.604   3.170  16.496 -0.6836  0.2154  0.0075
  457TMC3    C1 6801   2.558   3.707  17.090  0.1742  0.1417 -0.2040
  457TMC3    C2 6802   2.583   3.842  17.102  0.8419 -0.4838  0.2298
  457TMC3    C3 6803   2.639   3.889  17.225 -0.2661 -0.4168  0.3768
  457TMC3    C4 6804   2.594   3.610  17.181 -0.4401  0.1217  0.1279
  457TMC3    C5 6805   2.661   3.661  17.291 -0.1400  0.4771  0.4982
  457TMC3    C6 6806   2.675   3.798  17.314 -0.6770 -0.9320 -0.0966
  457TMC3     C 6807   2.510   3.661  16.958  0.4651  0.6522  0.2755
  457TMC3     O 6808   2.461   3.744  16.882 -0.0037 -0.2252  0.2836
  457TMC3     H 6809   2.562   3.906  17.017  1.9459  0.2552  0.5200
  457TMC3    H1 6810   2.569   3.505  17.166  3.1423 -0.3826 -2.4715
  457TMC3    H2 6811   2.714   3.839  17.407  1.0813 -0.5177 -1.0157
  457TMC3    C7 6812   2.718   3.562  17.382 -0.4254 -0.2498  0.6208
  457TMC3    C8 6813   2.664   4.027  17.250 -0.3051 -0.0593 -0.2664
  457TMC3    O1 6814   2.671   3.450  17.406 -0.1254 -0.0796 -0.0390
  457TMC3    O2 6815   2.723   4.052  17.357  0.3252  0.5207  0.5953
  458MPD2     C 6816   4.467   2.524  13.047 -0.0258 -0.2496  0.0158
  458MPD2    C1 6817   4.553   2.612  12.981 -0.0416  0.1235  1.3735
  458MPD2    C2 6818   4.513   2.667  12.860 -0.1493 -0.4317 -0.0372
  458MPD2    C3 6819   4.389   2.640  12.808  0.3424  0.2441  0.3919
  458MPD2    C4 6820   4.304   2.553  12.876 -0.1114 -0.2286 -0.3149
  458MPD2    C5 6821   4.345   2.507  12.993  0.5694  0.4943 -0.0643
  458MPD2     H 6822   4.570   2.740  12.803 -0.3174  0.4991  1.0020
  458MPD2    H1 6823   4.200   2.533  12.853 -0.8294  1.2132  1.6521
  458MPD2    H2 6824   4.502   2.463  13.129  0.6751  1.0506  0.6924
  458MPD2    H3 6825   4.283   2.435  13.045  1.7699 -0.7718 -0.4095
  458MPD2     N 6826   4.349   2.705  12.688 -0.0407  0.2262  0.0624
  458MPD2    H5 6827   4.415   2.772  12.650  1.8414 -2.1063 -0.7578
  458MPD2    N1 6828   4.687   2.618  13.022 -0.6910  0.4098 -0.1699
  458MPD2    H7 6829   4.712   2.553  13.096 -2.1928  1.0311  0.8812
  459TMC3    C1 6830   0.191   2.695  13.029 -0.3069 -0.8493  0.3635
  459TMC3    C2 6831   0.281   2.781  12.969 -0.4596 -0.2856 -0.8748
  459TMC3    C3 6832   0.406   2.779  13.021 -0.4177 -0.0775 -0.4620
  459TMC3    C4 6833   0.212   2.617  13.135 -0.6822 -0.3408 -0.6405
  459TMC3    C5 6834   0.342   2.606  13.174 -0.0844  0.2283  0.3966
  459TMC3    C6 6835   0.439   2.685  13.117 -0.3954  0.0218  0.1593
  459TMC3     C 6836   0.053   2.711  12.977 -0.6888 -0.1967 -0.0663
  459TMC3     O 6837   0.041   2.802  12.896 -0.1342  0.1751 -0.2746
  459TMC3     H 6838   0.268   2.839  12.879 -1.2413  1.5257  0.4011
  459TMC3    H1 6839   0.149   2.541  13.181 -2.2535  1.5515  0.3361
  459TMC3    H2 6840   0.537   2.703  13.162 -0.5988 -1.2299  1.0925
  459TMC3    C7 6841   0.371   2.554  13.307  0.0075 -0.2507 -0.2323
  459TMC3    C8 6842   0.506   2.875  12.972 -0.2210  0.0297  0.6443
  459TMC3    O1 6843   0.282   2.479  13.348  0.8254  0.1462  0.1608
  459TMC3    O2 6844   0.619   2.838  12.982 -0.7449 -0.3655  0.5106
  460MPD2     C 6845   4.496   0.344  10.756 -0.4844  0.4105  0.3579
  460MPD2    C1 6846   4.371   0.348  10.811  0.3980 -0.3360 -0.2297
  460MPD2    C2 6847   4.275   0.436  10.764  0.3345  0.7263 -0.0655
  460MPD2    C3 6848   4.311   0.516  10.657 -0.3018  0.2072 -0.5331
  460MPD2    C4 6849   4.438   0.521  10.615 -0.1016  0.0136  0.3105
  460MPD2    C5 6850   4.525   0.429  10.658 -0.4386 -0.3470  0.2860
  460MPD2     H 6851   4.175   0.458  10.799 -0.5334  0.3639 -2.3499
  460MPD2    H1 6852   4.473   0.581  10.532 -1.4830  1.8826  1.0671
  460MPD2    H2 6853   4.568   0.269  10.787 -1.2751 -0.7897 -0.6840
  460MPD2    H3 6854   4.623   0.435  10.613  0.0290 -0.5120  1.2770
  460MPD2     N 6855   4.212   0.614  10.616  0.3959  0.1750  0.2859
  460MPD2    H5 6856   4.117   0.598  10.649  0.2927 -1.4234 -0.7577
  460MPD2    N1 6857   4.340   0.255  10.909 -0.2442  0.2780 -0.3008
  460MPD2    H7 6858   4.420   0.213  10.954 -1.1112 -1.3183 -0.2175
  461TMC3    C1 6859   4.121   0.767  10.462  0.1686 -0.4797  0.5637
  461TMC3    C2 6860   4.025   0.675  10.418 -0.5941 -0.1191 -0.1595
  461TMC3    C3 6861   3.942   0.716  10.312  0.6118 -0.6743  0.5823
  461TMC3    C4 6862   4.130   0.891  10.413 -0.4231  0.5361  0.1963
  461TMC3    C5 6863   4.043   0.930  10.310 -0.7338  1.2470  0.0359
  461TMC3    C6 6864   3.959   0.838  10.253  0.4410  0.0625 -0.4428
  461TMC3     C 6865   4.235   0.710  10.523 -0.1956 -0.6317 -1.1540
  461TMC3     O 6866   4.341   0.759  10.494 -0.1412 -0.3395  0.5549
  461TMC3     H 6867   4.035   0.568  10.431 -1.3955 -0.1114  0.4473
  461TMC3    H1 6868   4.204   0.958  10.455  1.6518 -1.3019 -0.5436
  461TMC3    H2 6869   3.911   0.857  10.157 -1.3974  4.1420  1.2897
  461TMC3    C7 6870   4.028   1.069  10.268  0.7108  0.0145  0.3289
  461TMC3    C8 6871   3.889   0.619  10.217 -0.0755  0.3451 -0.6147
  461TMC3    O1 6872   3.935   1.077  10.187  0.5781  0.3608  0.4487
  461TMC3    O2 6873   3.927   0.623  10.099 -0.0621  0.3114  0.1745
  462TMC3    C1 6874   4.310   1.720   0.521  0.3538  0.1206 -0.6395
  462TMC3    C2 6875   4.323   1.733   0.384  0.6650  0.3433  0.5400
  462TMC3    C3 6876   4.211   1.690   0.316 -0.2205 -0.5482  0.9100
  462TMC3    C4 6877   4.196   1.681   0.586 -0.2246  0.1692 -0.3243
  462TMC3    C5 6878   4.085   1.655   0.513  0.6761  0.6158  0.3140
  462TMC3    C6 6879   4.092   1.658   0.373  0.4042 -0.2722 -0.0590
  462TMC3     C 6880   4.429   1.723   0.602 -0.1888 -0.2361 -0.4126
  462TMC3     O 6881   4.536   1.733   0.543 -0.5319 -0.3424 -0.4045
  462TMC3     H 6882   4.404   1.781   0.331  0.8241  1.0750  1.4505
  462TMC3    H1 6883   4.168   1.679   0.690  0.7857  0.8041 -0.0441
  462TMC3    H2 6884   4.018   1.608   0.314 -0.4391 -0.4984  1.1832
  462TMC3    C7 6885   3.974   1.581   0.574 -0.0940  0.1645  0.3499
  462TMC3    C8 6886   4.241   1.625   0.198  0.4929 -0.4179  0.1170
  462TMC3    O1 6887   3.996   1.520   0.676  0.1256 -0.7122 -0.5174
  462TMC3    O2 6888   4.317   1.684   0.125 -0.4970  0.0345 -0.9067
  463MPD2     C 6889   1.204   3.907   2.181 -0.1120 -0.3113 -0.4120
  463MPD2    C1 6890   1.107   4.001   2.205  0.1901 -0.3764  0.3779
  463MPD2    C2 6891   1.126   4.134   2.187  1.2032 -0.1406 -0.2673
  463MPD2    C3 6892   1.250   4.172   2.132 -1.0323  0.2183 -0.2863
  463MPD2    C4 6893   1.345   4.079   2.111 -0.4988  0.3969  0.0217
  463MPD2    C5 6894   1.326   3.946   2.136 -0.1309  0.0213 -0.2117
  463MPD2     H 6895   1.047   4.199   2.224  1.1180  0.8940 -2.2361
  463MPD2    H1 6896   1.437   4.112   2.064 -0.4273  1.5322  0.9566
  463MPD2    H2 6897   1.197   3.799   2.191  3.9361 -0.3191  2.1930
  463MPD2    H3 6898   1.401   3.873   2.106 -1.0218 -0.5906 -0.9559
  463MPD2     N 6899   1.282   4.311   2.124 -0.1024 -0.1939  0.7744
  463MPD2    H5 6900   1.377   4.345   2.128 -0.9483  2.3608 -0.6664
  463MPD2    N1 6901   0.974   3.959   2.240  0.5669  0.3531 -0.1509
  463MPD2    H7 6902   0.901   4.029   2.250 -0.8316 -0.9865 -0.8475
  464TMC3    C1 6903   0.796   3.813   2.287 -0.0126 -0.1266  0.0629
  464TMC3    C2 6904   0.704   3.910   2.239 -0.1370 -0.0722 -0.5652
  464TMC3    C3 6905   0.569   3.887   2.256  0.3204 -0.2487 -0.0217
  464TMC3    C4 6906   0.760   3.715   2.370  0.8964  0.1096 -0.0780
  464TMC3    C5 6907   0.627   3.703   2.402 -0.0902  0.0117 -0.8259
  464TMC3    C6 6908   0.533   3.790   2.345 -0.2910  0.4727 -0.2212
  464TMC3     C 6909   0.938   3.832   2.269 -0.0093 -0.3847  0.7651
  464TMC3     O 6910   1.010   3.737   2.296  0.6271 -0.2445  0.8866
  464TMC3     H 6911   0.737   3.978   2.162  3.5318  0.3052  1.3190
  464TMC3    H1 6912   0.841   3.659   2.417  0.2805  0.7287  1.7110
  464TMC3    H2 6913   0.428   3.783   2.370 -0.5231  2.8693 -0.4715
  464TMC3    C7 6914   0.577   3.588   2.478 -0.4648 -0.0302  0.2550
  464TMC3    C8 6915   0.483   3.973   2.183 -0.6008 -0.0805 -0.0350
  464TMC3    O1 6916   0.656   3.532   2.551  0.3109  0.5854  0.4232
  464TMC3    O2 6917   0.526   4.073   2.132 -0.2208 -0.0769  0.3609
  465MPD2     C 6918   1.930   2.811  16.302  0.2935 -0.1384 -0.0714
  465MPD2    C1 6919   1.961   2.929  16.363  0.9895  0.0237 -0.0093
  465MPD2    C2 6920   1.863   3.018  16.385  0.0966  0.4426 -0.1638
  465MPD2    C3 6921   1.732   2.997  16.354 -0.6189  0.1325  0.2678
  465MPD2    C4 6922   1.701   2.879  16.299  0.3729  0.9416 -0.1710
  465MPD2    C5 6923   1.797   2.787  16.274  0.1162  1.1215  0.2140
  465MPD2     H 6924   1.883   3.115  16.428 -3.4655  1.1995 -0.2234
  465MPD2    H1 6925   1.605   2.862  16.251 -0.9545  1.7314  2.2317
  465MPD2    H2 6926   1.990   2.726  16.272 -0.6504 -1.0005  0.4736
  465MPD2    H3 6927   1.789   2.695  16.218  1.1246  1.1400  0.0341
  465MPD2     N 6928   1.630   3.093  16.390  0.1015 -0.3327  0.6712
  465MPD2    H5 6929   1.665   3.175  16.438 -2.7793  1.0202  0.4425
  465MPD2    N1 6930   2.089   2.963  16.406  0.2392 -0.4402 -0.7594
  465MPD2    H7 6931   2.095   3.035  16.477  0.3349 -0.5790 -0.6269
  466TMC3    C1 6932   1.257   3.238  16.591  0.1550  0.2485  0.0061
  466TMC3    C2 6933   1.296   3.372  16.585 -0.6350 -0.1612 -0.6802
  466TMC3    C3 6934   1.387   3.409  16.488  0.2578 -0.4635 -0.1319
  466TMC3    C4 6935   1.319   3.141  16.515  0.0162 -0.3876  0.3115
  466TMC3    C5 6936   1.421   3.184  16.432 -0.2351 -0.4436 -0.8819
  466TMC3    C6 6937   1.453   3.314  16.412 -0.1003  0.3764 -0.3257
  466TMC3     C 6938   1.175   3.194  16.706 -0.8408  0.6313  0.0627
  466TMC3     O 6939   1.208   3.082  16.742 -0.7829 -0.0578 -0.7701
  466TMC3     H 6940   1.248   3.440  16.654 -1.5000 -1.3267 -0.1442
  466TMC3    H1 6941   1.292   3.037  16.530  0.3613 -0.3775  0.9892
  466TMC3    H2 6942   1.519   3.353  16.336  1.5369 -0.5570  0.6204
  466TMC3    C7 6943   1.494   3.083  16.362 -0.5111  0.7174  0.0660
  466TMC3    C8 6944   1.412   3.551  16.475 -0.2973  1.0902  0.3139
  466TMC3    O1 6945   1.429   2.984  16.330  0.0340 -0.3580  0.4735
  466TMC3    O2 6946   1.423   3.592  16.360 -0.6406  0.5247 -0.5075
  467TMC3    C1 6947   2.137   1.790  13.989  0.2108  0.1192 -0.4800
  467TMC3    C2 6948   2.060   1.875  13.915  0.1379  0.0016  0.2492
  467TMC3    C3 6949   1.924   1.856  13.917  0.5148 -0.5361 -0.2070
  467TMC3    C4 6950   2.084   1.699  14.076  0.7576  0.3939  0.1333
  467TMC3    C5 6951   1.949   1.694  14.081 -0.2960  0.0966 -0.2875
  467TMC3    C6 6952   1.867   1.769  14.001  0.0477  0.0131  0.5565
  467TMC3     C 6953   2.283   1.798  13.978 -0.2295  0.0433  0.4429
  467TMC3     O 6954   2.344   1.795  14.084 -0.2776 -0.3384 -0.0800
  467TMC3     H 6955   2.107   1.944  13.846 -0.4052 -0.5326 -0.6578
  467TMC3    H1 6956   2.135   1.623  14.134 -0.2385  1.6771  2.6955
  467TMC3    H2 6957   1.761   1.745  14.000  0.3118 -1.0915 -1.7762
  467TMC3    C7 6958   1.897   1.586  14.170 -0.7229  0.2330  0.2752
  467TMC3    C8 6959   1.846   1.945  13.830  0.3904 -0.1778 -0.0145
  467TMC3    O1 6960   1.957   1.481  14.151  0.2530 -0.0674  0.0314
  467TMC3    O2 6961   1.919   1.985  13.742  0.6335 -0.0575  0.2922
  468MPD2     C 6962   1.260   0.155  11.480 -0.0483  0.7467 -0.8556
  468MPD2    C1 6963   1.370   0.086  11.432  0.6394  0.0889 -0.1717
  468MPD2    C2 6964   1.355   4.677  11.402  0.2653 -0.5408 -0.5286
  468MPD2    C3 6965   1.234   4.614  11.421 -0.5317  0.9956  0.2585
  468MPD2    C4 6966   1.121   4.686  11.458  0.1645  0.1835 -0.2329
  468MPD2    C5 6967   1.136   0.092  11.500 -0.1910  0.6050 -0.4323
  468MPD2     H 6968   1.438   4.616  11.369  0.1928  0.8281 -3.2505
  468MPD2    H1 6969   1.024   4.638  11.464  0.3867 -0.0032  1.7599
  468MPD2    H2 6970   1.258   0.260  11.506 -2.2007  0.5278 -0.1041
  468MPD2    H3 6971   1.049   0.150  11.529 -1.5409 -2.0927  0.9226
  468MPD2     N 6972   1.216   4.482  11.383 -0.3771  0.0565  0.2297
  468MPD2    H5 6973   1.127   4.443  11.413  1.2248 -2.9832  1.0254
  468MPD2    N1 6974   1.490   0.146  11.395 -0.1693 -0.3439 -0.3417
  468MPD2    H7 6975   1.564   0.086  11.361  0.2976 -0.2786  0.5694
  469TMC3    C1 6976   1.621   0.297  11.294  0.3225  0.3373  0.5338
  469TMC3    C2 6977   1.727   0.204  11.296  0.0849 -0.2804  0.3651
  469TMC3    C3 6978   1.846   0.225  11.223  0.4039  0.6696  0.6010
  469TMC3    C4 6979   1.638   0.415  11.229  0.6452 -0.2772  0.1692
  469TMC3    C5 6980   1.757   0.437  11.156 -0.2555 -0.2085  0.5791
  469TMC3    C6 6981   1.858   0.347  11.146  0.2139 -0.3261  0.4613
  469TMC3     C 6982   1.501   0.279  11.373 -0.5688  0.1798 -0.2536
  469TMC3     O 6983   1.437   0.371  11.417 -0.0505 -0.0197  1.1996
  469TMC3     H 6984   1.724   0.112  11.355  0.0277 -0.5624 -0.0791
  469TMC3    H1 6985   1.553   0.482  11.231  0.7889 -0.1383  1.6274
  469TMC3    H2 6986   1.953   0.388  11.113  0.4274 -0.6780  0.6335
  469TMC3    C7 6987   1.775   0.571  11.098  0.6703  0.3652  0.3547
  469TMC3    C8 6988   1.972   0.170  11.269 -0.3124 -0.2295  0.6073
  469TMC3    O1 6989   1.874   0.582  11.032  0.5417  0.4142  0.9835
  469TMC3    O2 6990   2.071   0.182  11.201 -0.4724  0.2556 -0.2102
  470TMC3    C1 6991   3.389   1.044   0.770 -0.3528 -0.3882 -0.5261
  470TMC3    C2 6992   3.398   1.183   0.761 -0.8433 -0.6864  0.0607
  470TMC3    C3 6993   3.455   1.251   0.869 -0.7123  0.1220  0.3971
  470TMC3    C4 6994   3.452   0.979   0.872  0.3230 -0.2821 -0.2520
  470TMC3    C5 6995   3.516   1.046   0.974  0.0012  0.2944  0.2678
  470TMC3    C6 6996   3.511   1.183   0.979  0.9192 -0.1511 -0.5290
  470TMC3     C 6997   3.354   0.974   0.648 -0.1286  0.6625  0.2440
  470TMC3     O 6998   3.299   1.037   0.562 -0.0770  0.6569 -0.3506
  470TMC3     H 6999   3.360   1.236   0.674  1.0892  0.3986 -0.1152
  470TMC3    H1 7000   3.465   0.871   0.862  0.7203 -0.1843 -0.7931
  470TMC3    H2 7001   3.569   1.229   1.058  1.7549  0.2374 -1.3665
  470TMC3    C7 7002   3.598   0.976   1.060 -0.7332  0.4411  0.9809
  470TMC3    C8 7003   3.443   1.394   0.868  0.2390 -0.2510 -0.7080
  470TMC3    O1 7004   3.636   0.863   1.024  0.1401 -0.5636 -0.3192
  470TMC3    O2 7005   3.415   1.439   0.754  0.4709 -0.0922 -0.0471
  471MPD2     C 7006   3.728   1.768  16.160 -0.5316  0.1070  0.1167
  471MPD2    C1 7007   3.696   1.641  16.180  0.0866  0.2277  0.3429
  471MPD2    C2 7008   3.767   1.564  16.270 -1.0371  0.3412  0.1388
  471MPD2    C3 7009   3.866   1.623  16.350  0.5420 -0.2466  0.2536
  471MPD2    C4 7010   3.891   1.760  16.328  0.3334  0.8063  0.4606
  471MPD2    C5 7011   3.828   1.828  16.231 -0.3585  0.5606 -0.0911
  471MPD2     H 7012   3.735   1.464  16.298  2.1054 -0.9780 -0.8848
  471MPD2    H1 7013   3.964   1.811  16.390 -0.8728 -0.7213  3.1306
  471MPD2    H2 7014   3.680   1.826  16.082  0.0173 -0.2268 -0.4719
  471MPD2    H3 7015   3.843   1.935  16.220 -2.7419  0.8765 -0.1524
  471MPD2     N 7016   3.928   1.556  16.465  0.4507  0.4300  0.1144
  471MPD2    H5 7017   3.997   1.605  16.521  0.6844 -1.8515  1.8471
  471MPD2    N1 7018   3.580   1.580  16.130  0.2995 -0.8887  0.7077
  471MPD2    H7 7019   3.557   1.486  16.161  0.3725 -1.6732 -1.6271
  472TMC3    C1 7020   3.404   1.537  15.991 -0.3012 -0.4160  0.3174
  472TMC3    C2 7021   3.273   1.558  16.020  0.9398  0.2437 -0.4731
  472TMC3    C3 7022   3.202   1.440  16.037 -0.4747  0.7026 -0.5255
  472TMC3    C4 7023   3.455   1.408  15.982 -0.0870 -0.5539  0.4722
  472TMC3    C5 7024   3.382   1.296  16.005 -0.7586 -0.0996 -0.0986
  472TMC3    C6 7025   3.250   1.315  16.031  0.2083 -0.3042  0.1098
  472TMC3     C 7026   3.493   1.640  16.041 -0.2721 -0.0594 -0.2003
  472TMC3     O 7027   3.494   1.755  16.001  0.1950 -0.0614  0.1921
  472TMC3     H 7028   3.232   1.655  16.044  0.5197  0.2607 -1.2842
  472TMC3    H1 7029   3.562   1.403  15.964 -0.6613  1.2278 -3.2823
  472TMC3    H2 7030   3.197   1.224  16.053  0.5983 -0.3843  0.7052
  472TMC3    C7 7031   3.440   1.197  16.084  0.0283 -0.2841  0.5443
  472TMC3    C8 7032   3.058   1.456  16.058  0.2791  0.2764  0.1562
  472TMC3    O1 7033   3.366   1.125  16.147 -0.2223 -0.0943 -0.2389
  472TMC3    O2 7034   3.022   1.573  16.035  0.4517 -0.4169  0.2571
  473MPD2     C 7035   3.482   4.160  14.247 -0.5805 -0.1880 -0.3565
  473MPD2    C1 7036   3.580   4.238  14.201 -0.1548 -0.2817 -1.0687
  473MPD2    C2 7037   3.696   4.245  14.278 -0.0144 -0.0102  0.4974
  473MPD2    C3 7038   3.698   4.185  14.406  0.1296 -0.6035 -1.2576
  473MPD2    C4 7039   3.590   4.108  14.449 -0.2893 -0.6201  0.0582
  473MPD2    C5 7040   3.485   4.086  14.365 -0.1693  0.0222 -0.4666
  473MPD2     H 7041   3.783   4.304  14.252 -0.5587  0.7085  0.3037
  473MPD2    H1 7042   3.586   4.069  14.551 -0.0626 -2.8307 -0.7721
  473MPD2    H2 7043   3.390   4.169  14.190 -0.4895 -0.6433 -0.5768
  473MPD2    H3 7044   3.393   4.048  14.407 -0.8689  0.1116 -1.9209
  473MPD2     N 7045   3.807   4.210  14.492  0.1276 -0.0955 -0.1820
  473MPD2    H5 7046   3.784   4.183  14.587  0.0483  2.3206  0.4930
  473MPD2    N1 7047   3.576   4.316  14.086  0.3311  0.3442  0.4674
  473MPD2    H7 7048   3.643   4.390  14.075  1.1428 -0.4996 -0.2312
  474TMC3    C1 7049   3.989   4.328  14.580 -0.3394 -0.0940  0.3913
  474TMC3    C2 7050   3.911   4.403  14.666  0.2848 -0.2989  0.4436
  474TMC3    C3 7051   3.979   4.505  14.734  0.0586  0.2735  0.3819
  474TMC3    C4 7052   4.127   4.334  14.567  0.3678  0.3315  0.0685
  474TMC3    C5 7053   4.184   4.434  14.644  0.3515  0.1405 -0.0332
  474TMC3    C6 7054   4.118   4.514  14.733  0.0016  0.2831  0.0012
  474TMC3     C 7055   3.924   4.279  14.464 -1.1465 -0.5201  0.2735
  474TMC3     O 7056   3.983   4.310  14.359  0.1143  0.1924  0.2516
  474TMC3     H 7057   3.803   4.408  14.661  0.2703 -2.3586 -1.9610
  474TMC3    H1 7058   4.182   4.272  14.497  0.6248  2.4145 -1.5880
  474TMC3    H2 7059   4.161   4.597  14.788  0.2994 -0.7239  1.2758
  474TMC3    C7 7060   4.329   4.450  14.649 -0.7100  0.0560  0.8525
  474TMC3    C8 7061   3.894   4.609  14.781 -0.1264 -0.0396 -0.2795
  474TMC3    O1 7062   4.392   4.422  14.548  0.2293  0.3863 -0.5817
  474TMC3    O2 7063   3.777   4.585  14.815  0.2536 -0.2420 -0.3537
  475MPD2     C 7064   2.452   2.856  10.786  0.1880  0.1563 -0.1587
  475MPD2    C1 7065   2.364   2.872  10.683 -0.1445  0.0257  0.5127
  475MPD2    C2 7066   2.242   2.938  10.713  0.3153 -0.1670  0.3701
  475MPD2    C3 7067   2.202   2.966  10.845  0.1488 -0.7990  0.4168
  475MPD2    C4 7068   2.301   2.951  10.938  0.0293 -0.3223  0.1259
  475MPD2    C5 7069   2.423   2.896  10.914  0.5294  0.1209 -0.2846
  475MPD2     H 7070   2.167   2.941  10.635  1.9154  2.6507 -1.0618
  475MPD2    H1 7071   2.290   2.988  11.039  0.2422 -0.3646  0.1646
  475MPD2    H2 7072   2.545   2.803  10.768  0.8517  0.6911  1.7789
  475MPD2    H3 7073   2.500   2.888  10.990  3.0691  0.1089 -2.8829
  475MPD2     N 7074   2.075   3.028  10.867  0.4407  0.1854  0.1127
  475MPD2    H5 7075   2.023   3.061  10.787 -0.4251 -1.7301 -0.1096
  475MPD2    N1 7076   2.406   2.824  10.561  0.0071 -0.3165  0.1088
  475MPD2    H7 7077   2.488   2.764  10.565  0.1488 -0.1874 -0.7441
  476TMC3    C1 7078   2.402   2.767  10.334  0.5132 -0.0197 -0.6048
  476TMC3    C2 7079   2.315   2.744  10.225 -0.7058 -0.0194 -0.2454
  476TMC3    C3 7080   2.379   2.733  10.106 -0.3135  0.3404 -0.1828
  476TMC3    C4 7081   2.534   2.791  10.320  0.0707 -0.2385 -0.4135
  476TMC3    C5 7082   2.597   2.758  10.195 -0.7968 -0.8098  0.0611
  476TMC3    C6 7083   2.512   2.731  10.087 -0.1884  0.0100  0.0603
  476TMC3     C 7084   2.342   2.839  10.444 -0.1578  0.4456 -0.3599
  476TMC3     O 7085   2.260   2.921  10.416 -0.1798 -0.7172  0.5775
  476TMC3     H 7086   2.209   2.733  10.243 -0.7498  3.4717  1.4745
  476TMC3    H1 7087   2.601   2.822  10.400  0.8825  0.8824 -1.5295
  476TMC3    H2 7088   2.551   2.702   9.990  1.1203  1.5403  0.1165
  476TMC3    C7 7089   2.730   2.789  10.162  0.0797 -0.0446 -0.2013
  476TMC3    C8 7090   2.291   2.727   9.993  0.1406 -1.0793  0.3126
  476TMC3    O1 7091   2.780   2.716  10.074 -0.2793  0.5267  0.2449
  476TMC3    O2 7092   2.333   2.642   9.917 -0.1815  0.3535  0.0340
  477MPD2     C 7093   4.622   4.218  11.804  0.0444 -0.5253 -0.5400
  477MPD2    C1 7094   4.490   4.169  11.789 -0.0109  0.2830 -0.2005
  477MPD2    C2 7095   4.429   4.104  11.894 -0.0746 -0.7876 -0.2709
  477MPD2    C3 7096   4.499   4.086  12.006 -0.3155  0.3145 -0.2666
  477MPD2    C4 7097   4.624   4.144  12.025 -0.2254  0.2595 -0.2181
  477MPD2    C5 7098   4.686   4.203  11.923 -0.3436  0.2790 -0.5729
  477MPD2     H 7099   4.330   4.062  11.881 -1.1923  2.1394 -1.3333
  477MPD2    H1 7100   4.674   4.122  12.119 -0.7823  1.4538  0.3558
  477MPD2    H2 7101   4.674   4.271  11.726 -0.8474  0.5267 -0.4140
  477MPD2    H3 7102   0.062   4.243  11.945 -0.7535  0.7734  0.3894
  477MPD2     N 7103   4.435   4.000  12.092  0.2834  0.4894  0.0832
  477MPD2    H5 7104   4.366   3.944  12.044 -0.6710  1.3267  0.4616
  477MPD2    N1 7105   4.424   4.191  11.663  0.1897  0.9744 -0.5493
  477MPD2    H7 7106   4.481   4.249  11.604  1.2138  0.8696  0.3365
  478TMC3    C1 7107   4.234   4.191  11.515  0.7449 -0.1798 -0.2243
  478TMC3    C2 7108   4.093   4.172  11.512  0.4012  0.0959 -0.2905
  478TMC3    C3 7109   4.029   4.275  11.446  0.1567  0.1569  0.8302
  478TMC3    C4 7110   4.294   4.291  11.437  0.2637 -0.9424 -0.9940
  478TMC3    C5 7111   4.220   4.382  11.374  0.3733  0.6007  0.0342
  478TMC3    C6 7112   4.084   4.380  11.382  0.1222 -0.6363 -0.5794
  478TMC3     C 7113   4.301   4.140  11.631  0.8805 -0.0802 -0.4267
  478TMC3     O 7114   4.224   4.065  11.691  0.1972 -0.3569  0.1331
  478TMC3     H 7115   4.032   4.107  11.574  0.0310  1.6461  0.9754
  478TMC3    H1 7116   4.402   4.302  11.430 -0.1073  3.5495 -0.1857
  478TMC3    H2 7117   4.024   4.437  11.312 -0.0258 -0.2947 -0.1734
  478TMC3    C7 7118   4.291   4.431  11.259 -0.1960  0.2673  0.1362
  478TMC3    C8 7119   3.888   4.286  11.480  0.1441 -0.1303 -0.1999
  478TMC3    O1 7120   4.412   4.447  11.261 -0.4313  0.3190 -0.2660
  478TMC3    O2 7121   3.832   4.183  11.512 -0.3999  0.0641 -0.6333
  479MPD2     C 7122   3.732   1.459  15.076  0.7465 -0.8223  0.4734
  479MPD2    C1 7123   3.658   1.390  15.172  0.6026 -0.3693  0.4716
  479MPD2    C2 7124   3.660   1.435  15.305  0.5021 -0.2927 -0.1828
  479MPD2    C3 7125   3.724   1.559  15.341  0.5002  0.4474  0.0354
  479MPD2    C4 7126   3.782   1.628  15.237 -0.6304 -0.7798 -0.0864
  479MPD2    C5 7127   3.787   1.582  15.109  0.8106 -0.2067  0.1241
  479MPD2     H 7128   3.611   1.369  15.375 -1.6442  0.0585 -1.3664
  479MPD2    H1 7129   3.832   1.721  15.257 -0.3697 -0.8658 -0.3434
  479MPD2    H2 7130   3.730   1.426  14.973  1.3304 -0.6934  0.4219
  479MPD2    H3 7131   3.837   1.641  15.033  1.4878  0.5469  1.1534
  479MPD2     N 7132   3.715   1.628  15.470 -0.4217  0.1562  0.7530
  479MPD2    H5 7133   3.774   1.710  15.482  0.7602 -0.6147  0.2472
  479MPD2    N1 7134   3.579   1.281  15.132 -0.0637  0.1474  0.1404
  479MPD2    H7 7135   3.554   1.284  15.034 -0.9719 -1.7750  0.3165
  480TMC3    C1 7136   3.351   1.378  15.614  0.4571 -0.3229  0.4699
  480TMC3    C2 7137   3.280   1.397  15.497  0.1815 -0.1692 -1.2577
  480TMC3    C3 7138   3.313   1.500  15.411 -0.4998  0.1592  0.1732
  480TMC3    C4 7139   3.473   1.440  15.633  0.2620  0.0211  0.0236
  480TMC3    C5 7140   3.503   1.533  15.545  0.7231 -0.0278 -0.2332
  480TMC3    C6 7141   3.427   1.571  15.438  0.0710  0.2089 -0.0969
  480TMC3     C 7142   3.332   1.249  15.674  0.2703 -0.6776 -0.4053
  480TMC3     O 7143   3.432   1.195  15.714  0.2988 -0.1965  0.5141
  480TMC3     H 7144   3.193   1.335  15.479  1.2971 -1.9978 -0.3449
  480TMC3    H1 7145   3.539   1.400  15.708  1.5904  0.2284 -1.0310
  480TMC3    H2 7146   3.454   1.658  15.379  0.9247 -0.1010 -0.1742
  480TMC3    C7 7147   3.622   1.604  15.570  0.7827 -0.1884  0.9845
  480TMC3    C8 7148   3.263   1.491  15.275  0.5538 -0.1032 -0.2429
  480TMC3    O1 7149   3.624   1.653  15.682  0.1192  0.2487 -0.0819
  480TMC3    O2 7150   3.168   1.416  15.253  0.4018  0.0152  0.6242
  481MPD2     C 7151   0.919   1.434  14.882  0.0407  0.1034  0.5885
  481MPD2    C1 7152   0.785   1.418  14.867 -0.1676  0.1925  0.7396
  481MPD2    C2 7153   0.707   1.396  14.982 -0.1353 -0.7815 -0.0924
  481MPD2    C3 7154   0.778   1.384  15.107 -0.3692  0.5487 -0.4905
  481MPD2    C4 7155   0.918   1.403  15.116 -0.3019  0.2135 -0.4003
  481MPD2    C5 7156   0.986   1.430  15.001 -0.0440 -0.7988  0.8799
  481MPD2     H 7157   0.599   1.392  14.981 -0.1026 -2.1173  0.3686
  481MPD2    H1 7158   0.978   1.382  15.203 -0.7972  0.3908 -0.0213
  481MPD2    H2 7159   0.969   1.432  14.786 -0.5040  0.7102  0.2915
  481MPD2    H3 7160   1.094   1.444  15.008 -0.0218 -0.4284 -0.3144
  481MPD2     N 7161   0.710   1.354  15.226  0.4033 -0.1186 -0.3312
  481MPD2    H5 7162   0.753   1.373  15.316  2.8752 -1.0048 -1.3358
  481MPD2    N1 7163   0.724   1.404  14.744  0.1398 -0.1779  0.1270
  481MPD2    H7 7164   0.786   1.393  14.664 -0.9538 -0.3354 -0.6980
  482TMC3    C1 7165   0.560   1.332  14.585  0.3314 -0.8490  0.0861
  482TMC3    C2 7166   0.465   1.236  14.585 -0.5400  0.2146  0.5235
  482TMC3    C3 7167   0.434   1.178  14.468  0.3540  0.3644 -0.2605
  482TMC3    C4 7168   0.614   1.378  14.470  0.3550 -0.4739  0.0180
  482TMC3    C5 7169   0.577   1.323  14.352  0.1053 -0.1449 -0.3052
  482TMC3    C6 7170   0.481   1.223  14.344 -0.4031  0.2662 -1.0245
  482TMC3     C 7171   0.591   1.384  14.717 -0.3285  0.7711 -0.2542
  482TMC3     O 7172   0.495   1.377  14.786 -0.1057  0.4140  0.2815
  482TMC3     H 7173   0.443   1.188  14.680 -2.9898 -0.6845 -0.4811
  482TMC3    H1 7174   0.685   1.459  14.476 -1.5209  1.3206 -1.9827
  482TMC3    H2 7175   0.455   1.173  14.251  1.0903  1.0533 -1.8578
  482TMC3    C7 7176   0.623   1.396  14.233  0.0482  0.3701 -0.3156
  482TMC3    C8 7177   0.348   1.064  14.478  0.0878 -0.0511 -0.1986
  482TMC3    O1 7178   0.684   1.501  14.257  0.0266  0.7317  0.3428
  482TMC3    O2 7179   0.306   1.039  14.589  0.1360  0.3580 -0.0450
  483TMC3    C1 7180   3.699   4.693   1.403 -0.7565 -0.1692 -0.2090
  483TMC3    C2 7181   3.759   0.092   1.379 -0.6965 -0.2279 -0.5120
  483TMC3    C3 7182   3.867   0.128   1.448 -0.0654 -0.5901  0.8146
  483TMC3    C4 7183   3.741   4.609   1.505  0.2057  0.0424 -0.7009
  483TMC3    C5 7184   3.847   4.649   1.578 -0.6553 -0.2843  0.3231
  483TMC3    C6 7185   3.915   0.040   1.545  0.1466 -0.6625 -0.6334
  483TMC3     C 7186   3.623   4.640   1.289 -0.2405 -0.1834 -0.3204
  483TMC3     O 7187   3.601   4.710   1.191 -0.4957 -0.1607  0.1356
  483TMC3     H 7188   3.716   0.158   1.305 -0.5675 -0.4344 -0.7712
  483TMC3    H1 7189   3.694   4.515   1.533  1.3183 -0.4208 -0.3741
  483TMC3    H2 7190   4.007   0.061   1.598 -1.1020 -0.7982  1.6316
  483TMC3    C7 7191   3.911   4.553   1.678 -0.2109  0.4892 -0.1470
  483TMC3    C8 7192   3.960   0.233   1.414 -0.1937  0.5665  0.4892
  483TMC3    O1 7193   4.028   4.533   1.678  0.1362 -0.5851 -0.0900
  483TMC3    O2 7194   4.055   0.247   1.487  0.4069  0.2455  0.1447
  484MPD2     C 7195   0.455   3.201  12.797  0.5432  0.0795  1.4466
  484MPD2    C1 7196   0.522   3.091  12.851 -0.2714 -0.3494  0.1023
  484MPD2    C2 7197   0.663   3.097  12.854  0.0896 -0.3929 -0.8516
  484MPD2    C3 7198   0.738   3.192  12.795  0.0132 -0.1517  0.1039
  484MPD2    C4 7199   0.665   3.303  12.751 -0.3805 -0.2492  0.7610
  484MPD2    C5 7200   0.528   3.311  12.757  0.1265 -0.9231 -0.4003
  484MPD2     H 7201   0.717   3.017  12.901  0.4272  0.7289  0.6787
  484MPD2    H1 7202   0.716   3.390  12.710  0.1867 -0.6689  0.5657
  484MPD2    H2 7203   0.348   3.197  12.815  0.5925 -1.3728  1.4056
  484MPD2    H3 7204   0.482   3.403  12.723 -1.0379 -1.8133 -1.2374
  484MPD2     N 7205   0.879   3.195  12.792  0.3530  0.0684 -0.2254
  484MPD2    H5 7206   0.926   3.279  12.760  1.1895  0.6992  2.6142
  484MPD2    N1 7207   0.447   2.984  12.907 -0.5283  0.2149 -0.3758
  484MPD2    H7 7208   0.347   3.001  12.904 -0.7538 -0.4885  3.3109
  485TMC3    C1 7209   1.106   3.112  12.829  0.2249  0.2939  0.9774
  485TMC3    C2 7210   1.183   3.007  12.866 -0.2122  0.5667  0.8414
  485TMC3    C3 7211   1.300   3.032  12.926 -0.3855  0.5344  0.7843
  485TMC3    C4 7212   1.157   3.241  12.825 -0.2736 -0.0601  0.5175
  485TMC3    C5 7213   1.286   3.265  12.871  1.0292 -0.2912 -0.4773
  485TMC3    C6 7214   1.353   3.159  12.931 -0.4015  0.3981  1.0855
  485TMC3     C 7215   0.961   3.090  12.834  0.0441 -0.2630  0.8388
  485TMC3     O 7216   0.930   2.982  12.871  0.4132 -0.1498  0.3144
  485TMC3     H 7217   1.136   2.911  12.845 -1.7271  1.7658 -1.3345
  485TMC3    H1 7218   1.097   3.318  12.778 -0.6392 -1.4175 -1.2627
  485TMC3    H2 7219   1.448   3.185  12.975  0.5997 -0.3257 -0.6421
  485TMC3    C7 7220   1.364   3.341  12.771  0.0549  0.3587 -0.3402
  485TMC3    C8 7221   1.407   2.944  12.893 -0.2095  0.1408  0.4598
  485TMC3    O1 7222   1.314   3.437  12.706 -0.7843 -0.0312 -0.1253
  485TMC3    O2 7223   1.515   3.005  12.875 -0.0669 -0.1528 -0.2109
  486MPD2     C 7224   2.772   1.660  12.945 -1.0072  0.1350  0.0580
  486MPD2    C1 7225   2.870   1.729  12.874 -0.6445 -0.0218  0.3304
  486MPD2    C2 7226   2.838   1.850  12.815  0.1370 -0.1146  0.0336
  486MPD2    C3 7227   2.712   1.903  12.835 -0.3746 -0.1834  0.4791
  486MPD2    C4 7228   2.627   1.834  12.912  0.6754  0.3888  0.4445
  486MPD2    C5 7229   2.655   1.715  12.967 -0.2683 -0.6426  0.0012
  486MPD2     H 7230   2.915   1.904  12.761 -0.0502  0.3324  0.2133
  486MPD2    H1 7231   2.523   1.859  12.930  1.0212  1.0282  1.5892
  486MPD2    H2 7232   2.788   1.563  12.991 -0.6789 -0.0124 -0.3616
  486MPD2    H3 7233   2.583   1.658  13.025  0.8209 -0.6885  1.3171
  486MPD2     N 7234   2.683   2.025  12.781  0.2787  0.1766 -0.4773
  486MPD2    H5 7235   2.744   2.068  12.712  2.0697 -1.9022 -0.2079
  486MPD2    N1 7236   2.993   1.658  12.855  0.4736  0.1866  0.4387
  486MPD2    H7 7237   2.989   1.559  12.878 -1.8645 -0.3635 -2.2479
  487TMC3    C1 7238   3.213   1.625  12.773 -0.5726 -0.0282 -1.1561
  487TMC3    C2 7239   3.203   1.511  12.693  0.3155  0.0376 -0.5728
  487TMC3    C3 7240   3.312   1.430  12.668 -0.6008  0.5334  0.4543
  487TMC3    C4 7241   3.332   1.657  12.830  0.6249 -0.3775  0.0297
  487TMC3    C5 7242   3.436   1.577  12.817  0.2630  0.2203 -0.4218
  487TMC3    C6 7243   3.434   1.476  12.720 -0.9450  0.1239 -0.8560
  487TMC3     C 7244   3.104   1.718  12.800  0.6276  0.1938 -0.2786
  487TMC3     O 7245   3.133   1.834  12.786 -0.1608 -0.5454 -0.2903
  487TMC3     H 7246   3.107   1.473  12.659  0.1090  0.1161 -0.0967
  487TMC3    H1 7247   3.341   1.742  12.897 -1.8375  1.6961 -2.2654
  487TMC3    H2 7248   3.519   1.410  12.706 -0.8468 -0.2799  1.6709
  487TMC3    C7 7249   3.462   1.514  12.946  0.6131  0.0090  0.5193
  487TMC3    C8 7250   3.295   1.283  12.654 -0.3003  0.3804 -0.8673
  487TMC3    O1 7251   3.465   1.389  12.956 -0.3976 -0.5693  0.3772
  487TMC3    O2 7252   3.388   1.225  12.600  0.9549 -0.1062 -0.5804
  488MPD2     C 7253   3.222   3.331  16.664 -1.3532  0.4113 -0.8526
  488MPD2    C1 7254   3.326   3.349  16.751  0.2668 -0.3253 -0.6253
  488MPD2    C2 7255   3.310   3.311  16.881  0.3668  0.0805 -1.2534
  488MPD2    C3 7256   3.185   3.266  16.930  0.1888  0.2518  0.7311
  488MPD2    C4 7257   3.081   3.266  16.843 -0.6670 -0.1799 -0.0591
  488MPD2    C5 7258   3.093   3.293  16.712 -0.1386 -1.0811  0.3111
  488MPD2     H 7259   3.395   3.320  16.948 -2.5278  0.2096  2.4017
  488MPD2    H1 7260   2.982   3.232  16.870 -0.9335 -1.7560 -3.0924
  488MPD2    H2 7261   3.226   3.369  16.563 -0.7932  0.0757 -0.9601
  488MPD2    H3 7262   3.004   3.290  16.651  1.3023 -2.0364 -1.7424
  488MPD2     N 7263   3.174   3.246  17.069 -0.4361  0.7679  0.4057
  488MPD2    H5 7264   3.256   3.247  17.130 -0.3799 -2.3038  0.3791
  488MPD2    N1 7265   3.451   3.405  16.708 -0.1837  0.3646  0.3026
  488MPD2    H7 7266   3.514   3.429  16.784  1.0604 -1.3666 -0.1971
  489TMC3    C1 7267   3.083   3.217  17.281 -0.4473  0.5379  0.4690
  489TMC3    C2 7268   3.164   3.316  17.324  0.0895  0.4609 -0.0968
  489TMC3    C3 7269   3.226   3.305  17.449 -0.5032 -0.1329  0.2361
  489TMC3    C4 7270   3.064   3.105  17.349 -0.4417  0.3122  0.8406
  489TMC3    C5 7271   3.110   3.094  17.477 -0.1034  0.1803  0.1405
  489TMC3    C6 7272   3.193   3.193  17.523 -0.4567 -0.2209  0.5534
  489TMC3     C 7273   3.057   3.208  17.137 -0.2077  0.3717 -0.2322
  489TMC3     O 7274   2.953   3.166  17.090 -0.6848 -0.2353  0.1632
  489TMC3     H 7275   3.207   3.398  17.268  2.5178  0.8445  2.3338
  489TMC3    H1 7276   3.001   3.033  17.297  2.6526  2.1325 -5.4873
  489TMC3    H2 7277   3.239   3.189  17.621 -2.0035 -0.9840  1.2457
  489TMC3    C7 7278   3.128   2.962  17.537  0.1173 -0.5347  0.0579
  489TMC3    C8 7279   3.341   3.391  17.475 -0.8665 -0.0377 -0.3308
  489TMC3    O1 7280   3.180   2.952  17.646  0.8765  0.3978  0.1997
  489TMC3    O2 7281   3.336   3.501  17.420 -0.1069  0.3840  0.0023
  490MPD2     C 7282   4.410   3.106   0.267 -0.2273  0.3009  0.9558
  490MPD2    C1 7283   4.386   2.978   0.319 -0.7731 -0.6593  0.6007
  490MPD2    C2 7284   4.481   2.922   0.407 -0.3974 -0.0190  0.1888
  490MPD2    C3 7285   4.592   3.001   0.438  0.3241  1.1599  0.2532
  490MPD2    C4 7286   4.611   3.125   0.391  0.4122 -0.2796  0.8398
  490MPD2    C5 7287   4.520   3.180   0.306 -0.2451  0.0114  0.1990
  490MPD2     H 7288   4.455   2.830   0.459 -1.4578 -0.3471 -0.8983
  490MPD2    H1 7289   4.699   3.186   0.405  2.6431 -3.3272  0.2381
  490MPD2    H2 7290   4.331   3.145   0.204  0.8090 -0.7169 -0.9849
  490MPD2    H3 7291   4.527   3.282   0.272 -0.0520 -0.7300 -1.9669
  490MPD2     N 7292   4.684   2.952   0.538  0.0223 -0.5502  0.3044
  490MPD2    H5 7293   0.021   3.018   0.586 -0.2875 -1.2091  1.5867
  490MPD2    N1 7294   4.258   2.913   0.313  0.2100  1.0597 -0.1844
  490MPD2    H7 7295   4.240   2.837   0.377 -0.0771  3.0349  2.0517
  491TMC3    C1 7296   4.043   2.864   0.259 -0.4160  0.6957 -0.3589
  491TMC3    C2 7297   4.005   2.865   0.390  0.1131 -0.0261 -0.2491
  491TMC3    C3 7298   3.915   2.768   0.422  0.0517  0.0356 -0.0582
  491TMC3    C4 7299   3.997   2.772   0.163  0.1463  0.1517 -0.5723
  491TMC3    C5 7300   3.910   2.679   0.206 -0.0956 -0.0562  0.0497
  491TMC3    C6 7301   3.860   2.685   0.332  0.4878  0.2258 -0.1516
  491TMC3     C 7302   4.157   2.937   0.228 -0.0801 -0.1091 -0.1025
  491TMC3     O 7303   4.168   2.970   0.109  0.4378  0.0743  0.2481
  491TMC3     H 7304   4.036   2.941   0.460 -1.7027  0.2961  0.2032
  491TMC3    H1 7305   4.048   2.765   0.068  1.8771 -0.5405  0.4060
  491TMC3    H2 7306   3.790   2.608   0.366  0.9332  0.1853  0.6696
  491TMC3    C7 7307   3.872   2.564   0.131 -0.6389  0.3963  0.1682
  491TMC3    C8 7308   3.846   2.783   0.547  0.7332 -0.5055 -0.2985
  491TMC3    O1 7309   3.852   2.456   0.188 -0.6120 -0.0737 -0.4294
  491TMC3    O2 7310   3.802   2.682   0.605  0.3471  0.4954  0.3770
  492MPD2     C 7311   4.560   3.051  11.209 -0.1374  1.1550 -0.1923
  492MPD2    C1 7312   4.626   2.926  11.222  0.5545  0.4155 -0.4415
  492MPD2    C2 7313   4.610   2.851  11.334 -0.5092 -0.2211 -0.9312
  492MPD2    C3 7314   4.511   2.883  11.431  0.1899  0.2875  0.8571
  492MPD2    C4 7315   4.442   2.998  11.414  0.1024 -0.0995 -0.0180
  492MPD2    C5 7316   4.468   3.079  11.312  0.1234 -0.2808 -0.8367
  492MPD2     H 7317   4.670   2.761  11.337 -0.6639 -0.3537 -1.7708
  492MPD2    H1 7318   4.379   3.036  11.494  0.3403 -0.0654  0.1557
  492MPD2    H2 7319   4.565   3.118  11.123  0.4535  0.2139 -0.8865
  492MPD2    H3 7320   4.421   3.176  11.315 -1.6415 -1.1888  1.3317
  492MPD2     N 7321   4.496   2.819  11.554 -0.4821  0.8050 -1.0322
  492MPD2    H5 7322   4.419   2.838  11.617  1.5037 -0.4246  1.7637
  492MPD2    N1 7323   4.696   2.887  11.105  0.0478  0.4242 -0.4881
  492MPD2    H7 7324   0.002   2.959  11.039 -1.7102  1.4071 -0.1898
  493TMC3    C1 7325   0.056   2.749  10.941  0.2501  0.2154 -0.6704
  493TMC3    C2 7326   0.056   2.864  10.861  0.1063 -0.0918  0.0010
  493TMC3    C3 7327   0.008   2.845  10.731 -0.1152  0.0770 -0.2720
  493TMC3    C4 7328   0.025   2.624  10.895 -0.5127  0.1960 -0.0654
  493TMC3    C5 7329   4.710   2.612  10.763 -0.0349 -0.0002  0.0034
  493TMC3    C6 7330   4.703   2.717  10.678  0.2858 -0.0942  0.1077
  493TMC3     C 7331   0.016   2.763  11.079  0.2089  0.0849  0.6004
  493TMC3     O 7332   4.705   2.656  11.132 -0.2493  0.4180  0.1703
  493TMC3     H 7333   0.091   2.960  10.896 -1.3147  1.1081 -1.8646
  493TMC3    H1 7334   0.027   2.536  10.959  0.9078  0.3688  0.1340
  493TMC3    H2 7335   4.652   2.698  10.585 -0.3444 -0.9848  0.6328
  493TMC3    C7 7336   4.629   2.495  10.730 -0.3633  0.4166  0.0304
  493TMC3    C8 7337   4.652   2.951  10.681 -0.8911 -0.3717 -0.3128
  493TMC3    O1 7338   4.547   2.513  10.637  0.1945 -0.2744  0.1311
  493TMC3    O2 7339   4.535   2.919  10.661  0.8371  0.2289  0.5508
  494TMC3    C1 7340   0.804   4.383   1.161 -0.0544  0.7739  1.0831
  494TMC3    C2 7341   0.854   4.263   1.190  0.5492  0.2677  0.2635
  494TMC3    C3 7342   0.891   4.186   1.086 -0.0224 -0.6498  0.0879
  494TMC3    C4 7343   0.816   4.438   1.037  0.3604 -0.0924 -0.2092
  494TMC3    C5 7344   0.880   4.365   0.942  0.3271 -0.1163  0.2911
  494TMC3    C6 7345   0.929   4.237   0.973  0.3604  0.0603 -0.4151
  494TMC3     C 7346   0.720   4.449   1.256  0.1086  0.0131 -0.2925
  494TMC3     O 7347   0.671   4.381   1.343 -0.2857  0.8024 -0.4510
  494TMC3     H 7348   0.839   4.227   1.291 -1.2484  1.2902  0.3635
  494TMC3    H1 7349   0.773   4.535   1.012  0.1802  0.5460  2.6713
  494TMC3    H2 7350   0.959   4.172   0.893 -0.0251  0.3645 -0.8088
  494TMC3    C7 7351   0.892   4.419   0.809  0.6699  0.3126 -0.8206
  494TMC3    C8 7352   0.939   4.053   1.105  0.0963 -0.3536 -0.2070
  494TMC3    O1 7353   0.888   4.348   0.705  0.4168  0.5254 -0.3154
  494TMC3    O2 7354   1.037   4.015   1.038 -0.1437 -0.7095  1.0142
  495TMC3    C1 7355   3.844   1.581  14.596  0.0409  0.1854  0.4871
  495TMC3    C2 7356   3.781   1.606  14.480  0.8342  0.6287 -0.5660
  495TMC3    C3 7357   3.689   1.702  14.463 -0.4986  0.2477 -0.7127
  495TMC3    C4 7358   3.826   1.665  14.705  0.1505  0.0310  0.4706
  495TMC3    C5 7359   3.726   1.761  14.686 -0.0373 -0.4940  0.6894
  495TMC3    C6 7360   3.666   1.781  14.565  0.2100 -0.0066 -0.0804
  495TMC3     C 7361   3.896   1.451  14.630  0.4619  0.3748 -0.2238
  495TMC3     O 7362   3.982   1.448  14.716  0.2006  0.0951 -0.1858
  495TMC3     H 7363   3.809   1.549  14.391  1.5509  0.4059 -0.1983
  495TMC3    H1 7364   3.877   1.654  14.799  1.7201  1.1255 -0.2572
  495TMC3    H2 7365   3.581   1.849  14.565  0.3962  0.2287 -0.1214
  495TMC3    C7 7366   3.631   1.771  14.796  0.1489 -0.0541  1.0000
  495TMC3    C8 7367   3.580   1.666  14.383 -0.2854 -0.1462  1.0701
  495TMC3    O1 7368   3.678   1.778  14.907 -0.0837  0.7024  0.3521
  495TMC3    O2 7369   3.464   1.689  14.416 -0.2983  0.5297 -0.3228
  496MPD2     C 7370   0.381   1.683  15.977  0.3439  0.0609  0.1374
  496MPD2    C1 7371   0.513   1.706  16.001  0.1155 -0.6861  0.8614
  496MPD2    C2 7372   0.541   1.818  16.074 -0.3963 -0.4702 -0.6102
  496MPD2    C3 7373   0.440   1.896  16.139  0.0316  0.5904 -0.3574
  496MPD2    C4 7374   0.310   1.859  16.125  0.3946 -0.3488  0.6787
  496MPD2    C5 7375   0.281   1.755  16.037 -0.2198 -0.0093  0.7388
  496MPD2     H 7376   0.645   1.836  16.098 -1.3116  3.2332  0.5788
  496MPD2    H1 7377   0.233   1.917  16.174  0.2964 -0.8521  1.1175
  496MPD2    H2 7378   0.352   1.600  15.913  1.2166  0.2271 -0.4693
  496MPD2    H3 7379   0.179   1.730  16.014  0.2818 -0.5678 -0.8116
  496MPD2     N 7380   0.482   1.999  16.221 -0.7770  0.4520  0.6322
  496MPD2    H5 7381   0.580   2.025  16.212 -1.4468  2.9456  0.6234
  496MPD2    N1 7382   0.620   1.623  15.953 -0.0836 -0.2631  0.8804
  496MPD2    H7 7383   0.712   1.660  15.974  0.3207 -0.1080 -1.2149
  497TMC3    C1 7384   0.481   2.161  16.377 -0.2659  0.2463 -0.4213
  497TMC3    C2 7385   0.608   2.176  16.325 -0.2617 -0.6656  0.1421
  497TMC3    C3 7386   0.718   2.175  16.414 -0.3444  0.1322 -0.2566
  497TMC3    C4 7387   0.454   2.149  16.506  0.6261  0.7424  0.4935
  497TMC3    C5 7388   0.561   2.149  16.591 -0.7301  0.0356  0.3760
  497TMC3    C6 7389   0.699   2.160  16.551  1.4478 -0.0360  0.4918
  497TMC3     C 7390   0.401   2.065  16.309  0.0351  0.1687 -0.2669
  497TMC3     O 7391   0.293   2.032  16.350 -0.6287  0.6566 -0.2213
  497TMC3     H 7392   0.633   2.194  16.221 -1.0147 -1.5617 -0.1914
  497TMC3    H1 7393   0.356   2.123  16.543  0.7161 -1.5518 -0.9207
  497TMC3    H2 7394   0.786   2.160  16.615  1.9417  3.0124 -0.1967
  497TMC3    C7 7395   0.539   2.107  16.735 -0.3058  0.9913 -0.8351
  497TMC3    C8 7396   0.836   2.107  16.351  0.1172 -0.1597 -0.9661
  497TMC3    O1 7397   0.432   2.138  16.785  0.2330  0.1316  0.5783
  497TMC3    O2 7398   0.810   2.058  16.241  0.0005 -0.1566 -0.4189
  498MPD2     C 7399   0.751   2.683   9.377  0.7979 -0.2628  0.2960
  498MPD2    C1 7400   0.835   2.751   9.466 -0.2271 -0.0654  0.1317
  498MPD2    C2 7401   0.846   2.699   9.594 -0.0557  0.7004  0.7199
  498MPD2    C3 7402   0.764   2.596   9.647 -0.3966  0.2197 -1.0393
  498MPD2    C4 7403   0.689   2.529   9.554  0.5826 -0.2511 -0.3153
  498MPD2    C5 7404   0.682   2.573   9.425 -0.0061 -0.3635  0.2998
  498MPD2     H 7405   0.918   2.743   9.662  1.0333  0.8970 -0.5587
  498MPD2    H1 7406   0.621   2.450   9.585  0.6534  0.3765  1.4109
  498MPD2    H2 7407   0.733   2.709   9.274 -1.4382  0.1540  0.7966
  498MPD2    H3 7408   0.621   2.520   9.353  0.4636 -2.6258  1.5887
  498MPD2     N 7409   0.770   2.549   9.777  0.3450 -0.2238 -0.0852
  498MPD2    H5 7410   0.714   2.469   9.807  0.0697 -0.6964 -1.8665
  498MPD2    N1 7411   0.913   2.867   9.426 -0.4425 -0.6151 -0.1883
  498MPD2    H7 7412   0.943   2.923   9.505  0.9848 -0.2928 -0.9752
  499TMC3    C1 7413   0.972   3.026   9.275 -0.1730  0.7235 -0.4060
  499TMC3    C2 7414   0.926   3.086   9.153  0.1721  0.5186 -0.2549
  499TMC3    C3 7415   0.956   3.220   9.133 -0.0027 -0.0818 -0.6801
  499TMC3    C4 7416   1.048   3.092   9.366  0.3881  0.7167  0.2235
  499TMC3    C5 7417   1.091   3.220   9.329  0.1572  1.6144 -0.6107
  499TMC3    C6 7418   1.041   3.288   9.216 -0.3030 -0.0150 -0.1069
  499TMC3     C 7419   0.924   2.894   9.299 -0.3553 -0.4920 -0.2063
  499TMC3     O 7420   0.905   2.832   9.197  0.1784 -0.8232 -0.6384
  499TMC3     H 7421   0.857   3.032   9.090  0.9587 -1.5197  0.6515
  499TMC3    H1 7422   1.087   3.041   9.453 -0.7761  1.1475  1.0079
  499TMC3    H2 7423   1.086   3.381   9.182  0.0248  0.8017  2.5748
  499TMC3    C7 7424   1.185   3.285   9.418 -0.5599 -0.5464  0.0481
  499TMC3    C8 7425   0.966   3.258   8.993 -0.1604  0.3056 -0.5466
  499TMC3    O1 7426   1.173   3.404   9.416 -0.0536 -0.7182  0.4925
  499TMC3    O2 7427   1.001   3.373   8.977 -0.1625 -0.3467 -0.3019
  500MPD2     C 7428   3.283   3.366  10.290 -0.2138 -0.3068  1.2216
  500MPD2    C1 7429   3.269   3.502  10.326  0.0608 -0.5072 -0.0569
  500MPD2    C2 7430   3.154   3.569  10.289  0.2563 -0.4454 -0.1425
  500MPD2    C3 7431   3.051   3.497  10.229 -0.0528 -0.3682 -0.2569
  500MPD2    C4 7432   3.063   3.362  10.218 -0.3385 -0.3221 -0.0730
  500MPD2    C5 7433   3.182   3.298  10.234 -0.2126  0.5146 -0.3322
  500MPD2     H 7434   3.152   3.677  10.296 -0.9153 -0.4975  0.2052
  500MPD2    H1 7435   2.975   3.308  10.184 -1.2818 -0.0411  1.9226
  500MPD2    H2 7436   3.373   3.314  10.319 -0.5333 -1.1313  0.7261
  500MPD2    H3 7437   3.202   3.193  10.216  3.0468  1.4543 -2.1198
  500MPD2     N 7438   2.920   3.549  10.211 -0.1914  0.4717 -0.1612
  500MPD2    H5 7439   2.841   3.487  10.200 -0.5003  0.6852  0.8320
  500MPD2    N1 7440   3.369   3.579  10.392  0.1840 -0.2852  0.3621
  500MPD2    H7 7441   3.347   3.678  10.391 -0.3381 -0.4054 -0.0132
  501TMC3    C1 7442   3.588   3.625  10.475 -0.2619 -0.1746  0.0561
  501TMC3    C2 7443   3.554   3.758  10.468  0.2838  0.4759 -0.6167
  501TMC3    C3 7444   3.640   3.856  10.509  0.6006 -0.0132  0.5049
  501TMC3    C4 7445   3.705   3.587  10.526 -0.4153  0.0034  0.1466
  501TMC3    C5 7446   3.782   3.685  10.578  0.0715  0.2091 -0.5586
  501TMC3    C6 7447   3.755   3.819  10.572  0.2947 -0.6418  0.7101
  501TMC3     C 7448   3.486   3.527  10.434  0.3962  0.4663 -0.0655
  501TMC3     O 7449   3.531   3.413  10.450  0.0636  0.5914  0.1144
  501TMC3     H 7450   3.452   3.785  10.443 -0.2529 -1.1368 -0.1867
  501TMC3    H1 7451   3.734   3.482  10.523 -2.5718 -0.6183  0.9283
  501TMC3    H2 7452   3.817   3.898  10.612  0.4429 -1.3781  1.9418
  501TMC3    C7 7453   3.901   3.648  10.646  0.8636 -0.4284 -1.2259
  501TMC3    C8 7454   3.584   3.988  10.539 -0.5602 -0.6864  0.1342
  501TMC3    O1 7455   3.926   3.529  10.654  0.3808 -0.5265 -0.0109
  501TMC3    O2 7456   3.639   4.046  10.628  0.0264 -0.3283  0.2183
  502TMC3    C1 7457   3.160   2.754  15.978  0.3682 -0.7433 -0.8325
  502TMC3    C2 7458   3.069   2.851  15.946 -0.2459  0.3196 -0.2269
  502TMC3    C3 7459   2.988   2.833  15.840 -0.5593 -0.6278  0.1202
  502TMC3    C4 7460   3.139   2.630  15.923  0.1632  0.1147 -0.3899
  502TMC3    C5 7461   3.046   2.612  15.823  0.3910 -0.2945  0.9357
  502TMC3    C6 7462   2.976   2.720  15.773  0.2573  0.3519 -0.2885
  502TMC3     C 7463   3.237   2.751  16.105  0.5347  0.2336  0.0153
  502TMC3     O 7464   3.232   2.853  16.169 -0.3869 -0.1500  0.1125
  502TMC3     H 7465   3.087   2.951  15.981 -1.1574 -0.0214  1.2084
  502TMC3    H1 7466   3.187   2.538  15.954  1.1664  0.2070 -1.7150
  502TMC3    H2 7467   2.903   2.717  15.693  1.5345  1.2355 -1.4891
  502TMC3    C7 7468   3.014   2.479  15.778 -0.9460  0.6147 -0.4013
  502TMC3    C8 7469   2.906   2.945  15.789  0.2982  0.3537  0.5107
  502TMC3    O1 7470   3.088   2.389  15.822  0.2414  0.1539 -0.5889
  502TMC3    O2 7471   2.866   2.941  15.674  0.0651  0.0745  0.6069
  503MPD2     C 7472   0.517   3.211   0.045  0.5129 -0.0882  0.4445
  503MPD2    C1 7473   0.634   3.227   0.105 -0.5270 -0.4536 -0.0272
  503MPD2    C2 7474   0.704   3.113   0.139  0.0129 -0.1282 -0.5879
  503MPD2    C3 7475   0.656   2.984   0.115  0.2200  0.0096 -0.6198
  503MPD2    C4 7476   0.531   2.973   0.056 -0.1428 -0.1116  0.4486
  503MPD2    C5 7477   0.465   3.082   0.013 -0.3481 -0.1226 -0.2063
  503MPD2     H 7478   0.802   3.130   0.182 -0.7332  2.3764  0.0922
  503MPD2    H1 7479   0.476   2.881   0.037 -1.9520  0.6969  1.9133
  503MPD2    H2 7480   0.459   3.298   0.017  0.6623 -0.1879 -0.1729
  503MPD2    H3 7481   0.363   3.080  17.668 -0.0680  1.9458 -1.0624
  503MPD2     N 7482   0.738   2.881   0.151  0.7113 -0.4165  0.1018
  503MPD2    H5 7483   0.817   2.901   0.211 -0.0595 -1.1443  1.3458
  503MPD2    N1 7484   0.686   3.354   0.132 -0.0152 -0.1741 -0.3293
  503MPD2    H7 7485   0.768   3.371   0.189  0.1470  4.8867 -2.1361
  504TMC3    C1 7486   0.825   2.661   0.141  0.4184 -0.4533  0.0839
  504TMC3    C2 7487   0.913   2.694   0.244 -0.0954 -0.0099  0.6708
  504TMC3    C3 7488   1.024   2.616   0.250 -0.1994 -0.5150 -0.1598
  504TMC3    C4 7489   0.855   2.562   0.048  0.5780  0.0372 -0.9163
  504TMC3    C5 7490   0.973   2.487   0.061 -0.0154  0.0253 -0.4732
  504TMC3    C6 7491   1.057   2.521   0.159 -0.2712  0.2997  0.5184
  504TMC3     C 7492   0.725   2.759   0.101  0.2851 -1.0568  0.1020
  504TMC3     O 7493   0.651   2.722   0.008  0.0024 -0.4037  0.0364
  504TMC3     H 7494   0.889   2.771   0.316 -1.0670  0.3209 -0.0142
  504TMC3    H1 7495   0.792   2.541  17.656 -1.0008  3.6908 -0.5958
  504TMC3    H2 7496   1.158   2.482   0.154 -0.1714  0.6033  0.2256
  504TMC3    C7 7497   1.024   2.425  17.634  0.6907 -0.0111  0.0674
  504TMC3    C8 7498   1.131   2.661   0.336 -0.4216  0.1738 -0.3275
  504TMC3    O1 7499   1.145   2.438  17.622  0.8434 -0.1185 -0.2674
  504TMC3    O2 7500   1.161   2.778   0.324  0.0893  0.5416 -0.0600
  505MPD2     C 7501   0.992   1.726  10.964 -0.2535 -0.9360 -0.7983
  505MPD2    C1 7502   1.110   1.786  10.943  0.0029 -0.7953  0.5781
  505MPD2    C2 7503   1.139   1.908  11.001  0.2485  0.0211 -0.6592
  505MPD2    C3 7504   1.043   1.985  11.060 -0.2288  0.0388  0.2200
  505MPD2    C4 7505   0.925   1.924  11.086 -1.3489  0.4743 -0.9750
  505MPD2    C5 7506   0.906   1.791  11.049  0.1311 -0.5096 -0.6456
  505MPD2     H 7507   1.237   1.954  10.990  1.1431 -1.7192  0.1608
  505MPD2    H1 7508   0.850   1.977  11.144 -0.5450 -1.6204  1.9702
  505MPD2    H2 7509   0.970   1.626  10.928 -1.3301  0.5339 -4.2197
  505MPD2    H3 7510   0.812   1.745  11.076 -0.6752  2.5534  1.7083
  505MPD2     N 7511   1.063   2.117  11.109 -0.1065 -0.3921  0.3023
  505MPD2    H5 7512   0.983   2.171  11.140 -0.1743 -0.4520  0.2293
  505MPD2    N1 7513   1.217   1.735  10.872  0.3748 -0.7221 -0.5271
  505MPD2    H7 7514   1.301   1.790  10.883  0.1308 -0.2323 -1.0869
  506TMC3    C1 7515   1.334   1.630  10.696 -0.0399 -0.2637 -0.1889
  506TMC3    C2 7516   1.318   1.561  10.581 -0.6189 -0.0998 -0.1517
  506TMC3    C3 7517   1.381   1.593  10.460  0.4151  0.3860 -0.4456
  506TMC3    C4 7518   1.423   1.733  10.695 -1.0420  0.2596  0.8044
  506TMC3    C5 7519   1.496   1.752  10.582  0.0055 -0.2710 -0.6273
  506TMC3    C6 7520   1.479   1.687  10.461 -0.1818  0.2159 -0.2809
  506TMC3     C 7521   1.220   1.623  10.788 -0.2668  0.2842  0.0474
  506TMC3     O 7522   1.127   1.544  10.772  0.5196 -0.2830  0.2851
  506TMC3     H 7523   1.245   1.481  10.575 -0.0041 -0.3920 -4.1752
  506TMC3    H1 7524   1.445   1.794  10.782 -1.6055  1.4545  0.1098
  506TMC3    H2 7525   1.531   1.721  10.372  2.5281 -1.2804  0.7244
  506TMC3    C7 7526   1.587   1.866  10.579 -0.6787 -0.3744 -0.2777
  506TMC3    C8 7527   1.292   1.596  10.349 -0.0732  0.0350  0.1961
  506TMC3    O1 7528   1.709   1.852  10.577 -0.0391 -0.2776 -0.9293
  506TMC3    O2 7529   1.284   1.491  10.282 -0.2884  0.0325  0.5887
  507TMC3    C1 7530   1.661   2.647  15.047  0.7288 -0.3455 -0.0002
  507TMC3    C2 7531   1.542   2.589  15.022 -0.1070 -0.1416  0.6208
  507TMC3    C3 7532   1.505   2.575  14.893  0.0705  0.0458  0.0378
  507TMC3    C4 7533   1.734   2.704  14.949  0.3213  0.0220  0.7383
  507TMC3    C5 7534   1.693   2.685  14.817  0.9952  0.2751 -0.1259
  507TMC3    C6 7535   1.582   2.611  14.785 -0.7143  0.4721  0.6818
  507TMC3     C 7536   1.711   2.648  15.184 -0.4645  0.3241  0.3346
  507TMC3     O 7537   1.801   2.729  15.211  0.1667 -0.4200  0.6930
  507TMC3     H 7538   1.471   2.580  15.103 -0.6645  0.4471  0.1994
  507TMC3    H1 7539   1.829   2.747  14.978  0.0274  2.1915 -1.5646
  507TMC3    H2 7540   1.556   2.581  14.684 -1.4564 -0.9542  1.2881
  507TMC3    C7 7541   1.672   2.816  14.744 -0.1047 -0.1107 -0.9327
  507TMC3    C8 7542   1.364   2.607  14.875 -0.0303 -0.0231  0.1046
  507TMC3    O1 7543   1.588   2.814  14.656 -0.1218 -0.0282 -0.5937
  507TMC3    O2 7544   1.284   2.578  14.964  0.7860  0.1542 -0.1287
  508MPD2     C 7545   1.984   0.412  16.555 -0.0167 -0.5852 -0.3595
  508MPD2    C1 7546   2.100   0.405  16.480  0.7963  0.9178  0.3364
  508MPD2    C2 7547   2.108   0.451  16.350 -0.0172 -0.3041  0.2072
  508MPD2    C3 7548   1.991   0.486  16.287  0.3375  0.0330  0.3537
  508MPD2    C4 7549   1.871   0.486  16.358  0.4316 -0.0872 -0.7035
  508MPD2    C5 7550   1.869   0.448  16.489  0.8815  0.0803 -0.3379
  508MPD2     H 7551   2.199   0.458  16.291 -1.2811  0.5550 -1.6425
  508MPD2    H1 7552   1.774   0.520  16.323  1.1505  0.4889 -2.1312
  508MPD2    H2 7553   1.985   0.392  16.662 -2.2804  1.1893 -0.0042
  508MPD2    H3 7554   1.779   0.462  16.547  1.9574 -0.8796  1.5501
  508MPD2     N 7555   2.003   0.506  16.143 -0.6954 -0.0236 -0.5404
  508MPD2    H5 7556   2.096   0.511  16.103 -1.5774  0.6761 -2.5383
  508MPD2    N1 7557   2.216   0.364  16.550  0.1815  0.6032 -0.4539
  508MPD2    H7 7558   2.200   0.320  16.639 -2.3984 -1.2372 -1.8484
  509TMC3    C1 7559   1.889   0.620  15.713 -0.1651  0.1409  0.5771
  509TMC3    C2 7560   2.017   0.589  15.668 -0.3276 -0.0695 -0.9399
  509TMC3    C3 7561   2.092   0.508  15.753 -0.6749 -0.1513  0.3241
  509TMC3    C4 7562   1.852   0.602  15.843  0.5451 -0.2412  1.0450
  509TMC3    C5 7563   1.927   0.525  15.923 -0.5934  0.1624  0.3706
  509TMC3    C6 7564   2.044   0.471  15.874 -0.3812 -0.5594  0.3285
  509TMC3     C 7565   1.793   0.684  15.620 -0.3539  0.6889  0.5300
  509TMC3     O 7566   1.676   0.687  15.654  0.0683  0.3319  0.4789
  509TMC3     H 7567   2.046   0.608  15.566  2.0454  0.6706 -0.1157
  509TMC3    H1 7568   1.760   0.647  15.877 -1.1882 -1.2474 -2.2335
  509TMC3    H2 7569   2.100   0.402  15.937  1.9367  1.0288  0.0347
  509TMC3    C7 7570   1.898   0.536  16.063 -0.0675 -0.4781  0.8024
  509TMC3    C8 7571   2.232   0.487  15.724  0.2018  0.7281 -0.1499
  509TMC3    O1 7572   1.783   0.570  16.094  0.2810  0.4800  0.5719
  509TMC3    O2 7573   2.296   0.389  15.765 -0.3977  0.2189 -0.0995
  510MPD2     C 7574   0.210   1.990  14.767  0.5355 -0.1691  0.1019
  510MPD2    C1 7575   0.287   2.036  14.874 -0.7847 -0.2018 -0.6114
  510MPD2    C2 7576   0.418   2.070  14.851  0.5731 -0.4275 -0.2531
  510MPD2    C3 7577   0.468   2.071  14.719  0.0154 -0.4510  0.7407
  510MPD2    C4 7578   0.385   2.029  14.614  0.2526 -0.0716 -0.3409
  510MPD2    C5 7579   0.251   2.000  14.640 -0.2634  0.3084 -0.2932
  510MPD2     H 7580   0.491   2.089  14.928  0.2394 -0.8724  0.1670
  510MPD2    H1 7581   0.415   2.035  14.510 -1.5208  0.9359 -0.8019
  510MPD2    H2 7582   0.111   1.951  14.786  0.0794 -0.1549 -2.2375
  510MPD2    H3 7583   0.184   1.972  14.559  0.4445 -2.0805 -0.0435
  510MPD2     N 7584   0.603   2.096  14.702 -0.1366 -0.0848 -0.5843
  510MPD2    H5 7585   0.656   2.079  14.786 -1.4701  1.1093  0.4853
  510MPD2    N1 7586   0.234   2.017  15.008 -0.2036  0.0684  0.4169
  510MPD2    H7 7587   0.151   1.958  15.012  0.9076 -1.7299 -2.4273
  511TMC3    C1 7588   0.224   1.999  15.236  0.2575  0.0715  0.0214
  511TMC3    C2 7589   0.156   2.066  15.335  0.6667  0.5145  0.2709
  511TMC3    C3 7590   0.054   2.001  15.393  0.0932 -0.2356 -0.6435
  511TMC3    C4 7591   0.204   1.869  15.203 -0.5302 -0.7556  0.1159
  511TMC3    C5 7592   0.087   1.814  15.248  0.3445 -0.2402 -0.6962
  511TMC3    C6 7593   0.016   1.879  15.348 -0.3830 -0.0456  0.0664
  511TMC3     C 7594   0.294   2.064  15.125 -0.3284 -0.6827  0.3102
  511TMC3     O 7595   0.375   2.150  15.139  0.4706  0.2470  0.2372
  511TMC3     H 7596   0.186   2.167  15.356 -1.1219  1.2230 -0.5479
  511TMC3    H1 7597   0.265   1.818  15.130 -0.3204 -0.9631  0.4351
  511TMC3    H2 7598   4.644   1.833  15.371  0.7072 -1.3078  2.0544
  511TMC3    C7 7599   0.009   1.763  15.129  0.4433  0.4797 -0.0943
  511TMC3    C8 7600   4.704   2.076  15.497 -0.2984 -0.1290  0.1688
  511TMC3    O1 7601   0.053   1.791  15.019  0.1455 -0.3088 -0.0808
  511TMC3    O2 7602   4.690   2.198  15.484  0.6256  0.6724  0.2832
  512TMC3    C1 7603   3.702   1.051  13.504  0.8889 -0.3379  0.2460
  512TMC3    C2 7604   3.826   1.073  13.551 -0.4229  0.4148  0.3590
  512TMC3    C3 7605   3.932   1.031  13.471 -0.2367  0.0134  0.5263
  512TMC3    C4 7606   3.679   0.973  13.397 -0.6090  0.7212  0.0480
  512TMC3    C5 7607   3.780   0.902  13.342  0.1706  0.2146  0.0438
  512TMC3    C6 7608   3.911   0.940  13.370  1.0293 -0.0744  0.1494
  512TMC3     C 7609   3.596   1.075  13.595  0.4662  0.2114 -0.8187
  512TMC3     O 7610   3.499   1.138  13.555 -0.2258 -0.2966 -0.0611
  512TMC3     H 7611   3.846   1.142  13.632  1.0843  1.6953 -1.0877
  512TMC3    H1 7612   3.578   0.969  13.360 -0.3544  2.5812 -0.8325
  512TMC3    H2 7613   3.991   0.900  13.310  2.2268  2.4474  0.0617
  512TMC3    C7 7614   3.757   0.765  13.315  0.1260  0.7838 -1.0686
  512TMC3    C8 7615   4.060   1.069  13.518 -0.4990 -0.4259 -0.0096
  512TMC3    O1 7616   3.644   0.751  13.264  0.2116 -0.2944 -0.4807
  512TMC3    O2 7617   4.141   0.979  13.517 -0.0888 -0.9173 -0.4413
  513MPD2     C 7618   0.797   1.131  13.628  0.3413 -0.1346  0.0028
  513MPD2    C1 7619   0.801   1.196  13.502  0.0193  0.0505  0.3501
  513MPD2    C2 7620   0.853   1.321  13.498  0.0929 -0.4548 -0.5789
  513MPD2    C3 7621   0.907   1.382  13.613  0.3725 -0.4147  0.5191
  513MPD2    C4 7622   0.898   1.322  13.734 -0.3460 -0.3717 -0.7653
  513MPD2    C5 7623   0.845   1.197  13.742  0.8768 -0.1475  0.3024
  513MPD2     H 7624   0.868   1.370  13.403  1.3967 -0.3343 -0.3140
  513MPD2    H1 7625   0.942   1.359  13.826  2.1003  0.5668 -2.3123
  513MPD2    H2 7626   0.752   1.035  13.647  0.1595  0.3428  1.9920
  513MPD2    H3 7627   0.839   1.144  13.836  2.6143 -0.6251  0.1370
  513MPD2     N 7628   0.988   1.497  13.589 -0.2482  0.4575 -0.2115
  513MPD2    H5 7629   0.993   1.521  13.490  2.2318 -0.1250 -0.2198
  513MPD2    N1 7630   0.747   1.131  13.386 -0.3094 -0.2312 -0.2750
  513MPD2    H7 7631   0.715   1.035  13.394  0.1476 -0.3148  0.5915
  514TMC3    C1 7632   0.720   1.077  13.158  0.3095 -0.1578  0.0665
  514TMC3    C2 7633   0.604   1.061  13.086  0.6711  0.4854 -0.3950
  514TMC3    C3 7634   0.604   1.009  12.958 -0.1236 -0.1654  0.2749
  514TMC3    C4 7635   0.839   1.044  13.101  0.2892  0.7182 -0.9242
  514TMC3    C5 7636   0.846   1.009  12.972  0.2046  0.7095 -0.2951
  514TMC3    C6 7637   0.727   0.984  12.903  1.2753 -0.4630  0.6930
  514TMC3     C 7638   0.740   1.178  13.260  0.1138  0.0474  0.0416
  514TMC3     O 7639   0.771   1.289  13.210 -0.1942 -0.1860 -0.0306
  514TMC3     H 7640   0.508   1.078  13.134  0.7498  1.3291 -0.5386
  514TMC3    H1 7641   0.922   1.049  13.170  0.1610 -2.6087 -0.5469
  514TMC3    H2 7642   0.743   0.953  12.800  1.4201  0.2655  0.5016
  514TMC3    C7 7643   0.936   1.093  12.901  0.3571  0.5884 -0.4943
  514TMC3    C8 7644   0.483   0.964  12.897  0.2657  0.1969 -0.0158
  514TMC3    O1 7645   0.962   1.077  12.781 -0.3177 -0.4447 -0.1747
  514TMC3    O2 7646   0.375   0.997  12.953  0.0201  0.0135 -0.4320
  515MPD2     C 7647   3.290   3.326  15.138 -0.2664  0.0070  0.4822
  515MPD2    C1 7648   3.357   3.229  15.056 -0.2605  0.1183 -0.7272
  515MPD2    C2 7649   3.480   3.178  15.100 -0.0446  0.1650  0.9710
  515MPD2    C3 7650   3.536   3.235  15.212 -0.7259  0.3314 -0.0067
  515MPD2    C4 7651   3.470   3.336  15.283  0.1781  0.7658  0.2561
  515MPD2    C5 7652   3.347   3.377  15.248 -0.2692 -0.4071 -0.1312
  515MPD2     H 7653   3.531   3.109  15.033  3.8004  4.1592 -0.2359
  515MPD2    H1 7654   3.524   3.377  15.368 -0.3520  1.2429  0.3701
  515MPD2    H2 7655   3.192   3.362  15.109  0.1759  0.1507 -0.8069
  515MPD2    H3 7656   3.293   3.460  15.292  0.2178 -0.5637  0.7638
  515MPD2     N 7657   3.658   3.197  15.269  0.1695 -0.0949  0.2856
  515MPD2    H5 7658   3.690   3.246  15.352 -1.1229 -0.0174  0.7541
  515MPD2    N1 7659   3.305   3.186  14.933 -0.3390  0.1055  0.1587
  515MPD2    H7 7660   3.348   3.113  14.878 -0.1704  0.2143  0.1422
  516TMC3    C1 7661   3.146   3.154  14.762  0.3939 -0.2356  0.7733
  516TMC3    C2 7662   3.045   3.213  14.684  0.0942  0.6176 -0.0611
  516TMC3    C3 7663   2.951   3.126  14.629  0.3338  0.1549  0.0659
  516TMC3    C4 7664   3.154   3.021  14.775 -0.1109  0.5885  0.0014
  516TMC3    C5 7665   3.062   2.939  14.721  0.0628 -0.2571 -0.0757
  516TMC3    C6 7666   2.959   2.992  14.646 -0.6276 -0.4398  0.2560
  516TMC3     C 7667   3.196   3.240  14.868  0.3423 -0.4085  0.0517
  516TMC3     O 7668   3.136   3.344  14.892  0.1874  0.0991 -0.0427
  516TMC3     H 7669   3.016   3.317  14.695  1.3959  1.0474 -0.7504
  516TMC3    H1 7670   3.236   2.974  14.827 -2.8994 -2.4614  1.6565
  516TMC3    H2 7671   2.879   2.933  14.603 -0.3005  0.3318 -1.4003
  516TMC3    C7 7672   3.038   2.820  14.806 -0.2338  0.1272 -0.0828
  516TMC3    C8 7673   2.875   3.172  14.509  0.6590  1.1035 -0.1236
  516TMC3    O1 7674   3.123   2.792  14.883  0.3958 -0.5283 -0.1137
  516TMC3    O2 7675   2.802   3.095  14.456  0.8232 -0.0188 -0.2728
  517MPD2     C 7676   3.562   0.159   0.211 -0.1539  0.1123 -0.5998
  517MPD2    C1 7677   3.653   0.148   0.316  0.5683 -0.0781  0.1575
  517MPD2    C2 7678   3.684   0.269   0.383  0.3160 -0.2658  0.1916
  517MPD2    C3 7679   3.621   0.388   0.357 -0.0248  0.4197 -0.3892
  517MPD2    C4 7680   3.521   0.393   0.267 -0.6495  0.4833 -0.3618
  517MPD2    C5 7681   3.495   0.275   0.196  0.8859 -0.5519  0.0158
  517MPD2     H 7682   3.762   0.273   0.458 -1.0910  0.4418  1.6164
  517MPD2    H1 7683   3.470   0.486   0.245 -0.3330  0.7828  0.1912
  517MPD2    H2 7684   3.541   0.076   0.144 -0.4017 -0.0859 -0.2754
  517MPD2    H3 7685   3.424   0.288   0.115 -3.3558  1.2652  4.0949
  517MPD2     N 7686   3.652   0.509   0.426 -0.4111  0.6324  0.6963
  517MPD2    H5 7687   3.622   0.593   0.378 -2.3022 -1.5766 -2.0303
  517MPD2    N1 7688   3.728   0.036   0.350 -0.1074  0.2328  0.5263
  517MPD2    H7 7689   3.800   0.039   0.421 -0.0759 -2.2200  0.6011
  518TMC3    C1 7690   3.797   4.523   0.318 -0.0195  0.1273  0.3864
  518TMC3    C2 7691   3.739   4.399   0.324 -0.1715 -0.1030 -0.3614
  518TMC3    C3 7692   3.816   4.294   0.369 -0.3521 -0.4792 -0.2259
  518TMC3    C4 7693   3.918   4.543   0.371  0.1106  0.5444  0.5258
  518TMC3    C5 7694   3.994   4.438   0.397 -0.1204  0.3577 -0.2340
  518TMC3    C6 7695   3.949   4.310   0.392  0.0846  0.2650 -0.4567
  518TMC3     C 7696   3.706   4.640   0.281  0.7220 -0.2050 -0.2296
  518TMC3     O 7697   3.616   4.598   0.206 -0.2871  0.4077 -0.3643
  518TMC3     H 7698   3.633   4.393   0.304 -0.5407 -1.2723  1.9614
  518TMC3    H1 7699   3.962   4.641   0.381 -2.8407  1.8099  1.0834
  518TMC3    H2 7700   4.009   4.227   0.429  0.5402  1.4974  1.5663
  518TMC3    C7 7701   4.136   4.452   0.401  0.2251  0.0915 -0.0907
  518TMC3    C8 7702   3.777   4.151   0.341  0.0174  0.1479  0.4887
  518TMC3    O1 7703   4.185   4.562   0.416 -0.4224 -0.3277  0.2514
  518TMC3    O2 7704   3.865   4.072   0.361  0.5750 -0.0406 -0.2807
  519MPD2     C 7705   0.459   2.791  14.790 -0.1317 -0.0021  0.4585
  519MPD2    C1 7706   0.437   2.825  14.656  0.2479 -0.4069  0.0357
  519MPD2    C2 7707   0.545   2.841  14.569 -0.2576 -0.0545  0.7001
  519MPD2    C3 7708   0.674   2.815  14.603  0.1275  0.5175  0.1591
  519MPD2    C4 7709   0.696   2.775  14.732 -0.5917 -0.1278  0.3707
  519MPD2    C5 7710   0.593   2.772  14.823 -0.3049 -0.4924  0.3595
  519MPD2     H 7711   0.522   2.870  14.467 -0.6243 -0.8297  0.5620
  519MPD2    H1 7712   0.798   2.761  14.766 -0.9842 -0.2760  1.5105
  519MPD2    H2 7713   0.381   2.771  14.863 -1.6682  3.8508 -0.1439
  519MPD2    H3 7714   0.609   2.736  14.924  1.1124 -0.3795  0.1824
  519MPD2     N 7715   0.785   2.816  14.512  0.0290 -0.3121  0.1235
  519MPD2    H5 7716   0.876   2.797  14.553 -0.3651 -0.9561  0.6805
  519MPD2    N1 7717   0.301   2.833  14.615 -0.4678 -0.0907 -0.3482
  519MPD2    H7 7718   0.230   2.814  14.685 -1.5810 -0.9540 -1.7087
  520TMC3    C1 7719   0.914   2.853  14.315 -0.2022  0.3935  0.4052
  520TMC3    C2 7720   0.925   2.919  14.195 -0.8755 -0.5129 -0.0171
  520TMC3    C3 7721   1.040   2.898  14.116 -0.0789  0.3389 -0.4523
  520TMC3    C4 7722   1.001   2.755  14.344 -0.0155  0.1577  0.0374
  520TMC3    C5 7723   1.106   2.735  14.258  0.5975 -0.5904 -0.0748
  520TMC3    C6 7724   1.126   2.802  14.142 -0.4590 -0.7442 -0.1192
  520TMC3     C 7725   0.779   2.847  14.375 -0.4564  0.2715 -0.8982
  520TMC3     O 7726   0.690   2.874  14.299  0.4161  0.0660 -0.2399
  520TMC3     H 7727   0.850   2.981  14.147 -1.6413 -1.2999  0.1745
  520TMC3    H1 7728   0.990   2.696  14.434 -0.3510 -1.3041 -0.9563
  520TMC3    H2 7729   1.206   2.781  14.073 -0.0392  2.8343 -0.7528
  520TMC3    C7 7730   1.187   2.624  14.283 -0.4003 -0.1440 -0.4196
  520TMC3    C8 7731   1.023   2.907  13.973 -0.0879 -0.1717 -0.7668
  520TMC3    O1 7732   1.224   2.604  14.396 -0.3471 -0.1186 -0.8055
  520TMC3    O2 7733   1.101   2.972  13.913 -0.3738 -0.0245 -0.5072
  521MPD2     C 7734   1.336   1.157   0.040  0.0764  0.6980  0.3280
  521MPD2    C1 7735   1.292   1.032  17.683 -0.1638 -0.1180 -0.3912
  521MPD2    C2 7736   1.386   0.940  17.643  0.1789  0.2205 -0.3430
  521MPD2    C3 7737   1.517   0.975  17.637  0.5624  0.5214  0.0029
  521MPD2    C4 7738   1.559   1.097  17.692 -0.3771 -0.4711  0.5482
  521MPD2    C5 7739   1.470   1.188   0.047  0.0343 -0.0971  0.1433
  521MPD2     H 7740   1.346   0.848  17.601 -1.6073  1.4653 -1.3756
  521MPD2    H1 7741   1.664   1.125   0.001 -0.5515  0.3270 -0.9199
  521MPD2    H2 7742   1.258   1.222   0.079 -1.7092 -1.6210  0.6392
  521MPD2    H3 7743   1.508   1.282   0.085  3.0756 -0.5012 -1.8761
  521MPD2     N 7744   1.607   0.884  17.580 -0.9628  0.2121  0.1642
  521MPD2    H5 7745   1.568   0.800  17.536  1.1931 -0.9376  0.4560
  521MPD2    N1 7746   1.155   1.005   0.001 -0.0922  0.4024 -0.3103
  521MPD2    H7 7747   1.095   1.082   0.027 -0.3783  0.0205  0.1728
  522TMC3    C1 7748   1.804   0.807  17.490 -0.4577  0.0514 -0.0999
  522TMC3    C2 7749   1.924   0.760  17.537  0.0205  0.0272  0.0567
  522TMC3    C3 7750   1.995   0.693  17.439 -0.1703  0.3936 -1.1447
  522TMC3    C4 7751   1.744   0.772  17.369  0.3452  0.2903  0.3497
  522TMC3    C5 7752   1.816   0.688  17.287  0.0660 -0.0290 -0.1175
  522TMC3    C6 7753   1.946   0.654  17.313  0.0360 -0.0724 -0.1009
  522TMC3     C 7754   1.741   0.901  17.580  0.4028  0.8879  0.4727
  522TMC3     O 7755   1.809   0.962  17.659 -0.3536  0.0169  0.4385
  522TMC3     H 7756   1.974   0.799  17.625  0.3816 -2.4533  0.9494
  522TMC3    H1 7757   1.660   0.831  17.335  0.1703 -0.2286 -0.1106
  522TMC3    H2 7758   1.997   0.583  17.249 -0.5421 -0.2354 -0.3802
  522TMC3    C7 7759   1.781   0.677  17.147  0.1790 -0.1411 -1.0868
  522TMC3    C8 7760   2.134   0.697  17.461  0.7063  0.6291 -0.0706
  522TMC3    O1 7761   1.869   0.650  17.067  0.0150 -0.4290  0.5821
  522TMC3    O2 7762   2.178   0.735  17.567  0.4907  0.1431 -0.3151
  523MPD2     C 7763   4.256   1.361  10.257  0.2378  0.4104  0.2856
  523MPD2    C1 7764   4.137   1.289  10.249  0.0519  0.3826 -0.7053
  523MPD2    C2 7765   4.031   1.348  10.187 -0.2204  0.3634 -0.5119
  523MPD2    C3 7766   4.038   1.477  10.141 -0.3014  0.6418 -0.7114
  523MPD2    C4 7767   4.157   1.546  10.153 -0.6427  0.0403  0.1541
  523MPD2    C5 7768   4.259   1.482  10.213 -0.0405  0.3106 -0.7895
  523MPD2     H 7769   3.936   1.296  10.185 -0.2767  0.3719  2.4659
  523MPD2    H1 7770   4.161   1.649  10.122 -1.6734  0.3555  1.1076
  523MPD2    H2 7771   4.344   1.319  10.305 -0.0824  1.0875  1.4508
  523MPD2    H3 7772   4.354   1.532  10.229  0.0545  0.0673 -0.5931
  523MPD2     N 7773   3.927   1.547  10.091  0.2094 -0.2027  0.5634
  523MPD2    H5 7774   3.934   1.644  10.063 -1.5603 -0.0438  0.6507
  523MPD2    N1 7775   4.127   1.158  10.302 -0.2840 -0.2751  0.3314
  523MPD2    H7 7776   4.202   1.127  10.362 -1.0644 -2.5408  0.1296
  524TMC3    C1 7777   3.694   1.592  10.065 -0.1583  0.0802 -0.0333
  524TMC3    C2 7778   3.568   1.546  10.105 -0.6194  0.6011 -0.3942
  524TMC3    C3 7779   3.472   1.644  10.131  0.2406  0.2587 -0.5396
  524TMC3    C4 7780   3.719   1.728  10.039  0.3281 -0.2761 -0.2275
  524TMC3    C5 7781   3.614   1.815  10.047 -0.4286 -0.6498 -0.6012
  524TMC3    C6 7782   3.493   1.777  10.097 -0.4360  0.0588  1.3331
  524TMC3     C 7783   3.803   1.490  10.073 -0.9200 -0.0348  0.0158
  524TMC3     O 7784   3.769   1.374  10.051  0.1215 -0.3310 -0.0552
  524TMC3     H 7785   3.569   1.448  10.152  2.2227  1.2308  0.8485
  524TMC3    H1 7786   3.817   1.759  10.006  0.3674 -0.0725  0.0728
  524TMC3    H2 7787   3.407   1.842  10.082 -0.3843 -0.1288  0.1971
  524TMC3    C7 7788   3.632   1.959  10.015  0.3389 -0.2165  0.2970
  524TMC3    C8 7789   3.338   1.603  10.157  0.0439 -0.2403 -0.1598
  524TMC3    O1 7790   3.736   2.003  10.057 -0.3895  0.5795 -0.2267
  524TMC3    O2 7791   3.270   1.696  10.197  0.7801  0.4372 -0.5614
  525MPD2     C 7792   2.491   2.138  14.560 -0.0462 -0.0201 -0.0630
  525MPD2    C1 7793   2.389   2.163  14.650 -0.7357  0.5157 -0.4674
  525MPD2    C2 7794   2.351   2.291  14.677 -0.2282  0.4513  0.2518
  525MPD2    C3 7795   2.433   2.393  14.627 -0.5721  0.0980 -0.0346
  525MPD2    C4 7796   2.547   2.368  14.548 -0.3994 -0.0633  0.2285
  525MPD2    C5 7797   2.562   2.236  14.505 -0.0970  0.4395  0.1728
  525MPD2     H 7798   2.270   2.311  14.747 -1.0772 -0.0648 -0.5805
  525MPD2    H1 7799   2.608   2.446  14.504  0.6097 -1.1663 -0.3604
  525MPD2    H2 7800   2.508   2.038  14.523 -2.9090  0.2655 -2.1029
  525MPD2    H3 7801   2.643   2.209  14.438 -0.2882  1.2498 -0.3777
  525MPD2     N 7802   2.406   2.526  14.660 -0.3608 -0.7844 -0.3714
  525MPD2    H5 7803   2.463   2.597  14.616  1.0742 -0.2979  2.2375
  525MPD2    N1 7804   2.332   2.052  14.707  0.0890  0.3516  0.3712
  525MPD2    H7 7805   2.387   1.968  14.692  2.5729  2.1871 -0.8972
  526TMC3    C1 7806   2.208   1.928  14.868 -0.1794 -0.7460  0.7201
  526TMC3    C2 7807   2.140   1.938  14.988  0.1226 -0.0225 -0.6741
  526TMC3    C3 7808   2.099   1.820  15.045 -0.0225  0.3258  0.5859
  526TMC3    C4 7809   2.258   1.810  14.827 -0.2124 -0.3648 -0.1715
  526TMC3    C5 7810   2.219   1.692  14.893  0.5456  0.1347 -1.4648
  526TMC3    C6 7811   2.136   1.695  15.001 -0.1414 -0.0641  0.4580
  526TMC3     C 7812   2.245   2.055  14.814  0.1911  0.3901 -0.0862
  526TMC3     O 7813   2.177   2.148  14.862 -0.4346 -0.3571  0.0905
  526TMC3     H 7814   2.128   2.038  15.030  2.3225 -0.9959  2.2468
  526TMC3    H1 7815   2.301   1.801  14.728 -2.2112 -0.4220 -1.0394
  526TMC3    H2 7816   2.107   1.605  15.055  1.3690 -1.2724 -0.7270
  526TMC3    C7 7817   2.311   1.579  14.893  0.1992 -0.0598 -1.0921
  526TMC3    C8 7818   2.069   1.830  15.184 -0.3765 -0.4448  0.5374
  526TMC3    O1 7819   2.328   1.523  15.003  0.1171  0.7059 -0.9729
  526TMC3    O2 7820   2.118   1.922  15.248  0.3653  0.5825 -0.2352
  527MPD2     C 7821   0.379   0.029   2.083 -0.1351 -0.4569 -0.1104
  527MPD2    C1 7822   0.442   4.639   2.032  0.3169 -0.1399  0.0924
  527MPD2    C2 7823   0.538   4.661   1.933 -0.3966 -0.2012  0.0318
  527MPD2    C3 7824   0.561   0.066   1.886  0.4719 -0.4190 -0.0824
  527MPD2    C4 7825   0.487   0.175   1.934 -0.7166  0.1556  0.5899
  527MPD2    C5 7826   0.404   0.157   2.037  0.2506 -0.2170  0.6414
  527MPD2     H 7827   0.598   4.580   1.893 -0.0586  1.6892 -3.3470
  527MPD2    H1 7828   0.507   0.276   1.900  0.0088 -0.0193  0.4972
  527MPD2    H2 7829   0.308   0.016   2.164  0.6347  0.1940  0.6697
  527MPD2    H3 7830   0.358   0.242   2.085 -1.4112 -0.2999 -0.8489
  527MPD2     N 7831   0.659   0.080   1.784  0.3870 -0.1410 -0.3414
  527MPD2    H5 7832   0.717   4.720   1.773 -0.1612 -0.2306 -2.6060
  527MPD2    N1 7833   0.425   4.508   2.087 -0.2229  0.2463 -0.2807
  527MPD2    H7 7834   0.483   4.431   2.056  0.9049  2.3656 -3.3576
  528TMC3    C1 7835   0.370   4.344   2.251  0.1941 -0.1643 -0.6380
  528TMC3    C2 7836   0.502   4.334   2.288 -0.0247  0.3606 -0.0886
  528TMC3    C3 7837   0.532   4.262   2.400  0.0612 -1.1819  0.3109
  528TMC3    C4 7838   0.274   4.278   2.321 -0.2564 -0.5690  0.1584
  528TMC3    C5 7839   0.308   4.204   2.429 -0.2691 -0.1882  0.1361
  528TMC3    C6 7840   0.445   4.192   2.477  0.5495 -0.4839  0.9420
  528TMC3     C 7841   0.328   4.464   2.173  0.7175 -0.9351  0.5597
  528TMC3     O 7842   0.221   4.520   2.191  0.3277 -0.2611  0.0113
  528TMC3     H 7843   0.579   4.392   2.239  1.9191 -0.3163  2.1470
  528TMC3    H1 7844   0.175   4.278   2.277  0.5262 -0.6607 -1.6002
  528TMC3    H2 7845   0.477   4.142   2.568 -0.4878 -1.5672  0.7129
  528TMC3    C7 7846   0.208   4.114   2.479  1.0045  0.5427 -0.4033
  528TMC3    C8 7847   0.676   4.251   2.423 -0.1253 -0.2090  0.2842
  528TMC3    O1 7848   0.253   4.035   2.558  0.0653 -0.4830 -0.1956
  528TMC3    O2 7849   0.713   4.147   2.471 -0.4363 -0.2685  0.5433
  529MPD2     C 7850   2.358   2.947   0.403  0.0984  0.0915 -0.0670
  529MPD2    C1 7851   2.463   2.992   0.479  0.6661 -0.0961  0.3455
  529MPD2    C2 7852   2.554   3.082   0.429 -0.0544  0.2441  0.0842
  529MPD2    C3 7853   2.541   3.122   0.294 -0.3419  0.5206 -0.3888
  529MPD2    C4 7854   2.431   3.073   0.214 -0.1982  1.0172 -0.1688
  529MPD2    C5 7855   2.344   2.994   0.276  0.4660 -0.2982  0.1038
  529MPD2     H 7856   2.640   3.110   0.487 -0.3115  1.7582 -0.2739
  529MPD2    H1 7857   2.416   3.099   0.110  1.5819 -2.9395 -1.3905
  529MPD2    H2 7858   2.280   2.883   0.444 -0.3522  1.4615  1.2058
  529MPD2    H3 7859   2.265   2.952   0.214 -0.2036 -0.4494  1.0687
  529MPD2     N 7860   2.616   3.228   0.243  0.0146 -0.1209  0.2149
  529MPD2    H5 7861   2.589   3.258   0.150  1.5310 -0.4626 -0.3363
  529MPD2    N1 7862   2.490   2.940   0.609  0.4732  0.5425  0.0564
  529MPD2    H7 7863   2.581   2.961   0.649  1.2862 -1.8289 -0.5678
  530TMC3    C1 7864   2.475   2.805   0.805 -0.0090  0.1260  0.1629
  530TMC3    C2 7865   2.556   2.890   0.868 -0.3298  0.0054 -0.3651
  530TMC3    C3 7866   2.612   2.861   0.991 -0.6100 -0.1093 -0.0691
  530TMC3    C4 7867   2.447   2.687   0.864  0.4122 -0.1969 -0.3140
  530TMC3    C5 7868   2.508   2.656   0.977 -0.0603 -0.1024  0.0433
  530TMC3    C6 7869   2.588   2.743   1.051  0.7181 -0.1486  0.3891
  530TMC3     C 7870   2.417   2.850   0.681  0.5435 -0.9342  0.1495
  530TMC3     O 7871   2.318   2.792   0.640 -0.2528  0.5259 -0.3818
  530TMC3     H 7872   2.554   2.992   0.832 -0.1075 -0.2783 -1.1977
  530TMC3    H1 7873   2.393   2.615   0.802  0.5937  0.8224 -1.6548
  530TMC3    H2 7874   2.629   2.706   1.145 -0.1785 -0.2617  0.7376
  530TMC3    C7 7875   2.466   2.527   1.043  0.2807  0.2405  0.4079
  530TMC3    C8 7876   2.720   2.956   1.043  0.4537  0.4910  0.6506
  530TMC3    O1 7877   2.443   2.432   0.973 -0.1286 -0.1959  0.1354
  530TMC3    O2 7878   2.743   3.052   0.969 -0.2583  0.3660 -0.2621
  531MPD2     C 7879   1.222   1.526  12.933  0.7093 -0.3644 -0.1828
  531MPD2    C1 7880   1.151   1.509  13.048 -0.0415  0.5162  0.3758
  531MPD2    C2 7881   1.073   1.397  13.056  0.6595  1.0643  0.1380
  531MPD2    C3 7882   1.058   1.306  12.954 -0.2500 -0.5011  0.2685
  531MPD2    C4 7883   1.124   1.329  12.840  0.7701  0.5264  0.7718
  531MPD2    C5 7884   1.211   1.440  12.826 -0.5332  0.4918 -0.1960
  531MPD2     H 7885   1.015   1.384  13.147  0.5757  0.5226  0.0068
  531MPD2    H1 7886   1.119   1.258  12.759 -2.0139  0.4008  1.0827
  531MPD2    H2 7887   1.283   1.615  12.920  1.6579 -0.4910  3.2858
  531MPD2    H3 7888   1.267   1.445  12.734 -2.1667 -0.9421 -1.2747
  531MPD2     N 7889   0.977   1.196  12.984  0.5392  0.2827 -0.1083
  531MPD2    H5 7890   0.932   1.198  13.075  1.5365  1.8664  0.3600
  531MPD2    N1 7891   1.181   1.588  13.159 -0.1896  0.1305 -1.1112
  531MPD2    H7 7892   1.245   1.666  13.151 -0.9317  0.8435 -0.0889
  532TMC3    C1 7893   1.173   1.664  13.381 -0.2670  0.3002 -0.1689
  532TMC3    C2 7894   1.086   1.679  13.482 -0.1375 -0.1633 -0.2850
  532TMC3    C3 7895   1.136   1.669  13.612  0.7179  0.6769 -0.6645
  532TMC3    C4 7896   1.306   1.640  13.410  0.0299 -0.3842 -0.2413
  532TMC3    C5 7897   1.353   1.656  13.537  0.3426 -0.0193  0.0435
  532TMC3    C6 7898   1.267   1.670  13.640 -0.6043 -0.6882 -0.6234
  532TMC3     C 7899   1.111   1.587  13.275  0.3683 -0.0382  0.6831
  532TMC3     O 7900   1.009   1.528  13.310  0.0554  0.2119  0.1350
  532TMC3     H 7901   0.982   1.702  13.466 -0.5413 -1.8188 -0.0592
  532TMC3    H1 7902   1.370   1.594  13.336  0.5561  0.3687 -0.2527
  532TMC3    H2 7903   1.294   1.682  13.744 -1.6111  0.2161 -0.4652
  532TMC3    C7 7904   1.492   1.651  13.568 -0.5420 -0.3228 -1.0366
  532TMC3    C8 7905   1.055   1.570  13.679  0.3168 -0.5760  0.1350
  532TMC3    O1 7906   1.529   1.732  13.652  0.2516 -0.5603 -0.2429
  532TMC3    O2 7907   1.085   1.540  13.792  0.3505  1.0129 -0.0449
  533TMC3    C1 7908   2.304   2.722  14.742 -0.4973 -0.0663  0.3399
  533TMC3    C2 7909   2.429   2.779  14.740  0.3693 -0.3073 -0.2023
  533TMC3    C3 7910   2.443   2.904  14.794  0.2118 -0.3024  0.8812
  533TMC3    C4 7911   2.189   2.797  14.769 -0.4672 -0.8399  0.0258
  533TMC3    C5 7912   2.212   2.927  14.812 -0.1747 -0.1854  0.2206
  533TMC3    C6 7913   2.335   2.979  14.835  0.6255  0.2995 -0.1480
  533TMC3     C 7914   2.302   2.579  14.730 -0.2808 -0.2289 -0.2889
  533TMC3     O 7915   2.207   2.526  14.783  0.3673  0.5878 -0.4651
  533TMC3     H 7916   2.520   2.721  14.725 -2.0261 -3.7788 -1.3456
  533TMC3    H1 7917   2.087   2.761  14.763 -0.1230 -1.6697 -0.7475
  533TMC3    H2 7918   2.345   3.082  14.867 -0.9829  0.2878  0.4283
  533TMC3    C7 7919   2.105   2.968  14.901  0.7817 -0.1030  0.2685
  533TMC3    C8 7920   2.577   2.956  14.815 -0.2603 -0.0148 -0.3206
  533TMC3    O1 7921   1.996   2.912  14.909  0.0910  0.6566 -0.1553
  533TMC3    O2 7922   2.669   2.897  14.759  0.3355  0.7335 -0.2230
  534MPD2     C 7923   0.440   3.365   2.625 -0.2833 -0.6514 -0.1333
  534MPD2    C1 7924   0.388   3.447   2.522 -0.9762 -0.9007 -0.0479
  534MPD2    C2 7925   0.253   3.430   2.491 -0.3283  0.7306 -0.3916
  534MPD2    C3 7926   0.180   3.320   2.530 -0.0386 -0.4868  1.2767
  534MPD2    C4 7927   0.230   3.236   2.625 -0.2961  0.0975 -0.1080
  534MPD2    C5 7928   0.355   3.270   2.677 -0.8174  0.3060  0.0122
  534MPD2     H 7929   0.208   3.500   2.422  0.2220  2.2650  0.8187
  534MPD2    H1 7930   0.183   3.143   2.654 -1.1083  1.1263  1.8193
  534MPD2    H2 7931   0.543   3.367   2.658 -0.7697  2.3078  1.2273
  534MPD2    H3 7932   0.396   3.215   2.761 -2.7360 -0.5499  0.4081
  534MPD2     N 7933   0.049   3.305   2.483  0.0013  0.1390 -0.3980
  534MPD2    H5 7934   0.011   3.378   2.424 -1.4393  0.3954  0.8417
  534MPD2    N1 7935   0.452   3.546   2.454  0.0613  0.3350  0.2303
  534MPD2    H7 7936   0.398   3.602   2.389  0.6195  0.2190 -0.3308
  535TMC3    C1 7937   4.595   3.194   2.390 -0.1734 -0.1743 -0.0806
  535TMC3    C2 7938   4.464   3.202   2.426  0.3837 -0.0811 -0.1938
  535TMC3    C3 7939   4.377   3.265   2.336  0.0402 -0.2687  0.3745
  535TMC3    C4 7940   4.634   3.261   2.283  0.2531  0.3022  0.2436
  535TMC3    C5 7941   4.543   3.323   2.196 -0.6917 -0.2094  0.2410
  535TMC3    C6 7942   4.415   3.336   2.219 -0.7692 -0.0612  0.0248
  535TMC3     C 7943   4.691   3.196   2.500 -0.0799 -1.1810 -0.7373
  535TMC3     O 7944   4.695   3.100   2.578  0.0142 -0.4881  0.4621
  535TMC3     H 7945   4.432   3.156   2.518  0.8393  1.0694  0.5357
  535TMC3    H1 7946   0.013   3.249   2.248 -0.2562  1.6270 -1.7250
  535TMC3    H2 7947   4.342   3.384   2.155 -0.3868 -0.5972 -0.8213
  535TMC3    C7 7948   4.608   3.402   2.087 -0.0227  0.3797  0.2404
  535TMC3    C8 7949   4.236   3.241   2.350  0.4486 -0.7421  0.0397
  535TMC3    O1 7950   4.715   3.361   2.047  0.3110 -0.4872  0.3840
  535TMC3    O2 7951   4.165   3.249   2.249 -0.1177  0.0197  0.2116
  536MPD2     C 7952   3.705   1.453  17.019 -0.0514 -0.5717 -0.2045
  536MPD2    C1 7953   3.705   1.589  17.043 -0.7108 -0.1901 -0.6036
  536MPD2    C2 7954   3.687   1.673  16.928  0.2283  0.1943  0.1824
  536MPD2    C3 7955   3.672   1.626  16.794 -0.0587  0.5527  0.0935
  536MPD2    C4 7956   3.684   1.493  16.780  0.6592  0.4488 -0.5556
  536MPD2    C5 7957   3.706   1.414  16.887  0.4024  0.2706 -0.7493
  536MPD2     H 7958   3.680   1.780  16.947  1.0711  0.8134 -2.8653
  536MPD2    H1 7959   3.674   1.447  16.682 -1.9599  2.1055 -1.0728
  536MPD2    H2 7960   3.708   1.382  17.101 -1.3890 -2.0318 -1.4195
  536MPD2    H3 7961   3.727   1.309  16.874 -0.8230 -0.3259  2.0772
  536MPD2     N 7962   3.660   1.709  16.679 -0.1763  0.6861 -0.1145
  536MPD2    H5 7963   3.631   1.654  16.599 -0.9350 -0.1628  0.7370
  536MPD2    N1 7964   3.693   1.629  17.183 -0.3033  0.0293 -0.2021
  536MPD2    H7 7965   3.665   1.556  17.247 -1.2143 -1.4673 -2.3281
  537TMC3    C1 7966   3.717   1.768  17.376  0.5475 -0.0902 -0.6929
  537TMC3    C2 7967   3.751   1.897  17.412 -0.3465 -0.1861  0.2756
  537TMC3    C3 7968   3.719   1.939  17.539  0.0053  0.2242  0.4351
  537TMC3    C4 7969   3.650   1.677  17.460  0.8110  1.0474  0.3911
  537TMC3    C5 7970   3.612   1.727  17.581  0.3874 -0.2513 -0.0354
  537TMC3    C6 7971   3.644   1.854  17.618 -0.3277  0.9185 -0.1240
  537TMC3     C 7972   3.721   1.756  17.230 -0.3222  0.2664 -0.1228
  537TMC3     O 7973   3.735   1.856  17.158 -0.8791  0.2322  0.3665
  537TMC3     H 7974   3.815   1.959  17.350  0.0306 -0.4324  0.4196
  537TMC3    H1 7975   3.658   1.572  17.435 -0.6739  1.3426 -1.2686
  537TMC3    H2 7976   3.620   1.883   0.026 -1.4925  0.3118 -0.2308
  537TMC3    C7 7977   3.556   1.633  17.681 -0.1021 -0.3154  0.0083
  537TMC3    C8 7978   3.720   2.076  17.585  0.5761  0.7600 -0.3872
  537TMC3    O1 7979   3.577   1.659   0.108  0.3956 -0.8656 -0.0926
  537TMC3    O2 7980   3.726   2.103   0.011 -0.2969  0.0907 -0.3532
  538TMC3    C1 7981   4.504   0.420  11.252 -0.1542  0.5383  0.4485
  538TMC3    C2 7982   4.617   0.408  11.175 -0.4771  0.2685 -0.2398
  538TMC3    C3 7983   4.632   0.479  11.062  0.3827  0.4357  0.1217
  538TMC3    C4 7984   4.401   0.499  11.208 -0.5181  0.0688 -0.3316
  538TMC3    C5 7985   4.422   0.575  11.094  0.2924 -0.0865  0.1293
  538TMC3    C6 7986   4.535   0.568  11.020 -0.4986  0.3560 -0.2201
  538TMC3     C 7987   4.505   0.383  11.385 -0.3742 -0.0586  0.4537
  538TMC3     O 7988   4.398   0.397  11.446 -0.3775  0.1043  0.2713
  538TMC3     H 7989   4.695   0.340  11.207 -0.8826 -0.1495 -0.1377
  538TMC3    H1 7990   4.303   0.505  11.253 -0.8248 -0.7338 -0.9009
  538TMC3    H2 7991   4.542   0.610  10.920 -1.6008 -0.0084 -0.4616
  538TMC3    C7 7992   4.307   0.619  11.024  0.2670  0.1834  0.2614
  538TMC3    C8 7993   0.028   0.463  10.984  0.0262  0.0712 -0.0260
  538TMC3    O1 7994   4.196   0.577  11.059  0.2557 -0.6560 -0.7620
  538TMC3    O2 7995   0.055   0.557  10.908 -0.2662 -0.2073  0.2467
  539MPD2     C 7996   3.626   4.375  11.589  0.2219  0.5269  0.1235
  539MPD2    C1 7997   3.732   4.460  11.560  0.5030  0.1128 -0.3896
  539MPD2    C2 7998   3.713   4.598  11.595  0.3696  0.1258  0.7895
  539MPD2    C3 7999   3.602   4.649  11.655  0.1215 -0.5363 -0.0952
  539MPD2    C4 8000   3.498   4.557  11.689  0.2278  0.1269 -0.7484
  539MPD2    C5 8001   3.512   4.429  11.645  0.3964 -0.2831 -0.1419
  539MPD2     H 8002   3.789   4.672  11.575 -0.9350  1.1007 -0.5551
  539MPD2    H1 8003   3.403   4.593  11.724 -0.8566 -2.1683 -1.3342
  539MPD2    H2 8004   3.622   4.271  11.561 -3.2973  0.7895 -0.2945
  539MPD2    H3 8005   3.424   4.368  11.660  0.0786  0.1535 -0.2189
  539MPD2     N 8006   3.592   0.062  11.674  0.6871 -0.5200 -0.8912
  539MPD2    H5 8007   3.667   0.116  11.634 -0.1513  0.4850 -1.0992
  539MPD2    N1 8008   3.855   4.418  11.516  0.1239 -0.5071  0.1835
  539MPD2    H7 8009   3.923   4.494  11.511 -1.0624  0.5711  0.2301
  540TMC3    C1 8010   3.473   0.268  11.704  0.1780  0.6300 -0.2944
  540TMC3    C2 8011   3.510   0.315  11.577  0.5932  0.0060 -0.6460
  540TMC3    C3 8012   3.481   0.440  11.545  0.7975  0.5074 -0.4552
  540TMC3    C4 8013   3.404   0.353  11.793  0.0482  0.6597  0.0472
  540TMC3    C5 8014   3.384   0.480  11.754  0.2048  1.0409  0.1092
  540TMC3    C6 8015   3.430   0.528  11.631  1.5190 -0.1629  0.5038
  540TMC3     C 8016   3.491   0.125  11.734  0.1051  0.4887  0.3534
  540TMC3     O 8017   3.414   0.082  11.820 -0.3525  0.1872 -0.6038
  540TMC3     H 8018   3.554   0.242  11.510  0.8305  0.4043 -0.9201
  540TMC3    H1 8019   3.370   0.323  11.891 -2.2686  0.8753 -0.6923
  540TMC3    H2 8020   3.413   0.630  11.598 -0.4381 -0.5218  0.3769
  540TMC3    C7 8021   3.301   0.563  11.842 -0.2984  0.2843  0.3193
  540TMC3    C8 8022   3.576   0.492  11.460 -0.0180 -0.6612  0.0699
  540TMC3    O1 8023   3.213   0.624  11.782  0.0276  0.0820  0.2296
  540TMC3    O2 8024   3.624   0.600  11.491 -0.0622 -0.5762 -0.8076
  541MPD2     C 8025   2.082   1.352  13.166 -0.1767 -0.0437  0.4190
  541MPD2    C1 8026   2.185   1.334  13.074  0.2220  0.5736 -0.3660
  541MPD2    C2 8027   2.224   1.432  12.990 -0.3665 -0.1660  0.6015
  541MPD2    C3 8028   2.165   1.553  12.991 -0.4987 -0.6761 -0.0109
  541MPD2    C4 8029   2.063   1.571  13.081 -0.2543  0.8505 -0.1757
  541MPD2    C5 8030   2.027   1.477  13.176 -0.4030  0.5195  0.1245
  541MPD2     H 8031   2.286   1.402  12.907 -1.2259 -1.2359  0.3539
  541MPD2    H1 8032   2.014   1.668  13.082 -2.9022 -0.4518 -2.3506
  541MPD2    H2 8033   2.048   1.274  13.233 -1.1055  0.2538  0.2937
  541MPD2    H3 8034   1.948   1.492  13.248  0.0748 -1.7540  1.1114
  541MPD2     N 8035   2.205   1.656  12.898 -0.2970  0.4801  0.9019
  541MPD2    H5 8036   2.147   1.739  12.904  0.8222  1.3107  0.1020
  541MPD2    N1 8037   2.256   1.208  13.082 -0.0581  0.2102 -0.4228
  541MPD2    H7 8038   2.229   1.160  13.167 -1.6514 -0.4533 -1.3074
  542TMC3    C1 8039   2.347   1.776  12.734 -0.0522  0.1851  0.7042
  542TMC3    C2 8040   2.447   1.757  12.638 -0.6093  0.3178 -0.4844
  542TMC3    C3 8041   2.455   1.852  12.537 -0.1489  0.4781  0.4813
  542TMC3    C4 8042   2.261   1.882  12.729 -0.5280 -0.0924 -0.1722
  542TMC3    C5 8043   2.271   1.971  12.621  0.2402  0.2832  0.2115
  542TMC3    C6 8044   2.378   1.966  12.532  0.5054 -0.9303 -0.8153
  542TMC3     C 8045   2.328   1.664  12.831 -0.0321  0.4234 -0.5271
  542TMC3     O 8046   2.420   1.584  12.833  0.2684 -0.3437  0.3273
  542TMC3     H 8047   2.513   1.671  12.644  0.7756  1.5456  1.6488
  542TMC3    H1 8048   2.181   1.888  12.801 -1.3671 -1.0580 -1.0399
  542TMC3    H2 8049   2.403   2.049  12.466  2.7970  0.8926  2.3920
  542TMC3    C7 8050   2.200   2.103  12.621  0.4223  0.3915 -0.0914
  542TMC3    C8 8051   2.553   1.837  12.426  0.5031  0.8437 -0.3413
  542TMC3    O1 8052   2.209   2.169  12.517  0.2131 -0.7687  0.2241
  542TMC3    O2 8053   2.544   1.905  12.326  0.5495  0.3083 -0.0349
  543TMC3    C1 8054   2.032   2.762  16.986 -0.7503 -0.2241 -0.2391
  543TMC3    C2 8055   1.904   2.713  16.973 -0.0977  1.4976  0.4448
  543TMC3    C3 8056   1.818   2.713  17.077  0.2825 -0.1963 -0.0575
  543TMC3    C4 8057   2.067   2.823  17.102 -0.4990  0.2927 -0.0197
  543TMC3    C5 8058   1.979   2.843  17.203 -0.1368 -0.1416  0.5616
  543TMC3    C6 8059   1.854   2.785  17.196  0.2047 -0.0035  0.7917
  543TMC3     C 8060   2.135   2.747  16.892  0.1939  0.0242 -0.7934
  543TMC3     O 8061   2.246   2.736  16.942  0.1370 -0.0943 -0.2437
  543TMC3     H 8062   1.878   2.653  16.887  0.4762  3.5288 -1.1542
  543TMC3    H1 8063   2.170   2.854  17.114 -0.9368  1.9740 -0.6655
  543TMC3    H2 8064   1.778   2.787  17.273  0.5150  0.9804  1.0669
  543TMC3    C7 8065   2.016   2.939  17.299  0.2298 -0.2690  0.0320
  543TMC3    C8 8066   1.749   2.587  17.091  0.5274  1.0335  0.5676
  543TMC3    O1 8067   2.131   2.966  17.300 -0.2050  0.5394 -0.3051
  543TMC3    O2 8068   1.760   2.499  17.004  0.2061 -0.1362 -0.1463
  544MPD2     C 8069   1.472   2.248  17.354  0.0345  1.3285  0.3297
  544MPD2    C1 8070   1.577   2.227  17.273  0.5645 -0.3932 -0.0575
  544MPD2    C2 8071   1.643   2.338  17.210  0.7570 -0.4762  0.7612
  544MPD2    C3 8072   1.597   2.468  17.235  0.5807  0.4381  0.2895
  544MPD2    C4 8073   1.481   2.486  17.307 -0.2338 -0.4142  0.7363
  544MPD2    C5 8074   1.427   2.374  17.371 -0.3148  0.1182  0.0673
  544MPD2     H 8075   1.732   2.318  17.151  0.2641 -2.3558  0.6549
  544MPD2    H1 8076   1.460   2.589  17.332 -0.3544 -0.7322  1.9542
  544MPD2    H2 8077   1.413   2.185  17.419 -0.2436  1.0032 -0.2318
  544MPD2    H3 8078   1.359   2.406  17.450 -0.1775  0.3711  0.0813
  544MPD2     N 8079   1.668   2.579  17.196 -0.1551 -0.2409 -0.4997
  544MPD2    H5 8080   1.641   2.663  17.247 -2.1768 -1.8358  1.0931
  544MPD2    N1 8081   1.629   2.099  17.271  0.3446  0.0705 -0.9663
  544MPD2    H7 8082   1.570   2.035  17.323 -0.3449  1.2134 -0.3314
  545TMC3    C1 8083   1.806   1.928  17.271  0.3449 -0.5561  0.2041
  545TMC3    C2 8084   1.894   1.856  17.182  0.4204 -0.3235 -0.0206
  545TMC3    C3 8085   1.958   1.747  17.232 -0.4315 -0.5521  0.5088
  545TMC3    C4 8086   1.777   1.875  17.397  0.5167  0.8296 -0.4615
  545TMC3    C5 8087   1.848   1.771  17.440 -0.5848  0.2158  0.0069
  545TMC3    C6 8088   1.946   1.711  17.364  0.5557  0.2728 -0.2670
  545TMC3     C 8089   1.755   2.051  17.218  0.0843  0.4474 -0.2505
  545TMC3     O 8090   1.829   2.102  17.136  0.6590 -0.2892 -0.1171
  545TMC3     H 8091   1.920   1.892  17.084  0.4703 -0.9477 -0.2390
  545TMC3    H1 8092   1.705   1.925  17.460 -0.1181  0.7425 -1.1239
  545TMC3    H2 8093   1.985   1.616  17.399  0.8057  0.9407  1.2658
  545TMC3    C7 8094   1.801   1.716  17.565 -0.2426 -0.1283 -0.9484
  545TMC3    C8 8095   2.087   1.709  17.175  0.0062  0.3360  0.9272
  545TMC3    O1 8096   1.736   1.787  17.636 -0.1674  0.2147  0.2203
  545TMC3    O2 8097   2.155   1.646  17.253 -0.6035 -0.0530  0.3745
  546MPD2     C 8098   3.448   2.701   0.258  0.0256 -0.1110  0.7553
  546MPD2    C1 8099   3.510   2.726   0.137  1.0845  0.2255 -0.1022
  546MPD2    C2 8100   3.591   2.845   0.120  0.4625  0.1813  0.7322
  546MPD2    C3 8101   3.612   2.931   0.221  0.3967 -0.4007  0.8834
  546MPD2    C4 8102   3.555   2.899   0.342 -0.1581  0.5902 -0.1736
  546MPD2    C5 8103   3.477   2.786   0.362  0.1982 -0.4599  0.4926
  546MPD2     H 8104   3.630   2.871   0.023  0.2489 -0.4525  0.4771
  546MPD2    H1 8105   3.564   2.972   0.422 -4.6305 -0.6518  1.4495
  546MPD2    H2 8106   3.396   2.608   0.279 -1.7454  0.6861 -0.1175
  546MPD2    H3 8107   3.448   2.769   0.465  0.1394  1.7815  0.8493
  546MPD2     N 8108   3.681   3.055   0.209  0.0944  0.1450 -0.4198
  546MPD2    H5 8109   3.678   3.124   0.283  1.6167  1.1457 -1.2960
  546MPD2    N1 8110   3.467   2.640   0.032  0.6176  0.2932 -0.4692
  546MPD2    H7 8111   3.406   2.563   0.054  1.1754 -0.4614 -1.5613
  547TMC3    C1 8112   3.452   2.550  17.508 -0.2293 -0.5775  0.3508
  547TMC3    C2 8113   3.422   2.562  17.381  0.1098 -0.1415 -1.1501
  547TMC3    C3 8114   3.365   2.455  17.306 -0.6498 -0.3441  0.1662
  547TMC3    C4 8115   3.463   2.427  17.566  0.0439 -0.5661  0.3209
  547TMC3    C5 8116   3.429   2.318  17.481  0.0606 -0.1832  0.7012
  547TMC3    C6 8117   3.372   2.327  17.354  0.5391 -0.3424  0.5029
  547TMC3     C 8118   3.483   2.667  17.593  0.1060  0.0447  0.5711
  547TMC3     O 8119   3.526   2.766  17.535  0.0848 -0.1529  0.2668
  547TMC3     H 8120   3.423   2.662  17.338 -0.6670 -0.2840 -1.4974
  547TMC3    H1 8121   3.491   2.407  17.669 -1.1910 -3.0513  0.2010
  547TMC3    H2 8122   3.340   2.238  17.301  0.3287  0.0834 -0.0815
  547TMC3    C7 8123   3.415   2.192  17.553 -0.6284  0.4161  0.5111
  547TMC3    C8 8124   3.269   2.480  17.206 -0.5682  0.4165 -0.7206
  547TMC3    O1 8125   3.417   2.202  17.677 -0.5331 -0.2097 -0.8762
  547TMC3    O2 8126   3.227   2.383  17.151  0.1272 -0.2467 -0.3865
  548MPD2     C 8127   2.822   3.588  12.513 -0.4363 -0.1610  0.4872
  548MPD2    C1 8128   2.794   3.457  12.553 -0.0968  0.3096  0.6675
  548MPD2    C2 8129   2.894   3.359  12.544 -0.7890 -0.2323 -0.1714
  548MPD2    C3 8130   3.016   3.390  12.486  0.3818 -0.2000  0.4161
  548MPD2    C4 8131   3.037   3.526  12.450 -0.3102  0.5025 -0.1147
  548MPD2    C5 8132   2.941   3.628  12.455 -0.1464  0.4616  0.4571
  548MPD2     H 8133   2.866   3.258  12.573  1.9391 -1.0782 -0.5372
  548MPD2    H1 8134   3.127   3.564  12.402  0.0821 -1.5875 -1.0352
  548MPD2    H2 8135   2.747   3.665  12.523  0.7010  0.8109  1.4658
  548MPD2    H3 8136   2.959   3.726  12.414  3.2231  0.3948  1.8096
  548MPD2     N 8137   3.122   3.295  12.477  0.0701  0.2517  0.6788
  548MPD2    H5 8138   3.214   3.331  12.455  0.6692 -0.3030  2.3192
  548MPD2    N1 8139   2.667   3.436  12.614  0.3125 -0.1299 -0.5332
  548MPD2    H7 8140   2.606   3.517  12.606  1.0377  0.4031 -0.6682
  549TMC3    C1 8141   2.508   3.346  12.757 -0.0591 -0.2395  0.4572
  549TMC3    C2 8142   2.476   3.472  12.798 -0.9064  0.5788 -0.2743
  549TMC3    C3 8143   2.352   3.491  12.855  0.0056  0.1607 -0.4333
  549TMC3    C4 8144   2.437   3.232  12.787  0.0989  0.0959  0.3881
  549TMC3    C5 8145   2.314   3.254  12.839  0.0088  0.5220 -0.7327
  549TMC3    C6 8146   2.264   3.386  12.860  0.2245 -0.6336  0.0979
  549TMC3     C 8147   2.622   3.318  12.674 -0.4691 -0.2607 -1.5251
  549TMC3     O 8148   2.669   3.206  12.680 -0.8032 -0.3390 -0.0483
  549TMC3     H 8149   2.552   3.549  12.795  1.1779 -1.5386 -1.7461
  549TMC3    H1 8150   2.481   3.134  12.772 -0.1014  0.0630  0.0088
  549TMC3    H2 8151   2.159   3.403  12.882  0.3792 -0.4849  0.7378
  549TMC3    C7 8152   2.245   3.142  12.897  0.7821 -0.6027  0.1539
  549TMC3    C8 8153   2.282   3.620  12.831 -0.1168 -0.0481  0.7451
  549TMC3    O1 8154   2.153   3.175  12.968  0.6326  0.4762  0.3352
  549TMC3    O2 8155   2.156   3.612  12.807 -0.1893  0.5621 -0.4507
  550TMC3    C1 8156   1.055   1.532  12.136 -0.4587 -0.6683  0.1511
  550TMC3    C2 8157   1.014   1.576  12.259  0.4828 -0.4161  0.2171
  550TMC3    C3 8158   0.930   1.499  12.331  0.8492 -0.2184 -0.2370
  550TMC3    C4 8159   1.023   1.407  12.089 -0.0906  0.0633  0.0291
  550TMC3    C5 8160   0.928   1.335  12.157  0.3252  0.5143 -0.4975
  550TMC3    C6 8161   0.884   1.383  12.278 -0.2557 -0.5250  0.4581
  550TMC3     C 8162   1.130   1.626  12.057  0.4680  0.5471 -0.3317
  550TMC3     O 8163   1.124   1.740  12.105  0.2555 -0.3212 -0.0197
  550TMC3     H 8164   1.051   1.664  12.310 -1.4944  1.0476 -0.8485
  550TMC3    H1 8165   1.054   1.374  11.990  3.4924  2.7732  0.2526
  550TMC3    H2 8166   0.805   1.330  12.331 -0.5403  1.7693  2.3121
  550TMC3    C7 8167   0.863   1.215  12.113  0.7639 -0.1885 -0.1189
  550TMC3    C8 8168   0.887   1.544  12.461 -0.5574  0.2284 -0.6140
  550TMC3    O1 8169   0.803   1.144  12.189 -0.3588  0.5160 -0.9561
  550TMC3    O2 8170   0.913   1.663  12.491 -0.8332 -0.4920 -0.7412
  551TMC3    C1 8171   3.969   3.951  13.476  0.3697 -0.0771 -0.6718
  551TMC3    C2 8172   4.106   3.949  13.480  0.2673  0.8264  0.4705
  551TMC3    C3 8173   4.158   3.943  13.607 -0.1509  0.1792 -0.0084
  551TMC3    C4 8174   3.895   3.943  13.586  0.2599 -0.6461 -0.4682
  551TMC3    C5 8175   3.957   3.934  13.707  0.0926 -0.4780 -1.0982
  551TMC3    C6 8176   4.092   3.929  13.718  0.0747 -0.0736  0.2627
  551TMC3     C 8177   3.890   3.926  13.349 -0.9893  0.1870 -0.1497
  551TMC3     O 8178   3.776   3.882  13.350 -0.3578  0.4890 -0.0907
  551TMC3     H 8179   4.173   3.961  13.395 -0.6230  0.3691 -0.2818
  551TMC3    H1 8180   3.786   3.940  13.581  0.2604  0.0882 -0.9034
  551TMC3    H2 8181   4.155   3.921  13.806 -0.7833 -0.8013  0.8059
  551TMC3    C7 8182   3.880   3.906  13.826 -0.2005  0.1221 -0.0080
  551TMC3    C8 8183   4.292   3.979  13.619  0.5217  0.3150  0.0769
  551TMC3    O1 8184   3.759   3.918  13.817 -0.0458  0.2082  0.2067
  551TMC3    O2 8185   4.346   3.951  13.724 -0.5603 -0.1304 -0.3323
  552MPD2     C 8186   1.442   1.405  13.836  0.1936  0.3079  0.4723
  552MPD2    C1 8187   1.430   1.273  13.879  0.0306  0.1493  0.3223
  552MPD2    C2 8188   1.509   1.228  13.987 -0.0642  0.8236  0.2189
  552MPD2    C3 8189   1.613   1.312  14.028 -0.1135  0.3321 -0.0886
  552MPD2    C4 8190   1.628   1.435  13.970  0.4549  0.0644 -0.3024
  552MPD2    C5 8191   1.540   1.481  13.881  0.2362  0.8440 -0.0713
  552MPD2     H 8192   1.502   1.121  14.004 -3.0289  0.9931 -0.0894
  552MPD2    H1 8193   1.708   1.499  14.004  0.5200 -0.7443  1.0895
  552MPD2    H2 8194   1.370   1.454  13.771  0.9724  1.5930  0.5825
  552MPD2    H3 8195   1.569   1.580  13.845 -0.0086  1.2253  0.7722
  552MPD2     N 8196   1.714   1.277  14.118  0.2652 -0.4763 -0.5509
  552MPD2    H5 8197   1.777   1.355  14.137 -2.6277  1.4864  0.9201
  552MPD2    N1 8198   1.329   1.183  13.834  0.4180  0.3304 -0.0268
  552MPD2    H7 8199   1.321   1.093  13.881 -1.0485  1.0960  1.1918
  553TMC3    C1 8200   1.167   1.116  13.676  0.0736  0.1887 -0.0032
  553TMC3    C2 8201   1.142   1.136  13.541 -0.8466 -0.5833 -1.1779
  553TMC3    C3 8202   1.130   1.026  13.457  0.8062  0.2828  0.4348
  553TMC3    C4 8203   1.193   0.995  13.730 -0.1408  0.2021  0.0166
  553TMC3    C5 8204   1.195   0.893  13.647 -0.2867 -0.2287 -0.6860
  553TMC3    C6 8205   1.165   0.905  13.510 -0.4101 -0.6130  0.4124
  553TMC3     C 8206   1.261   1.213  13.720  0.3606  0.4145  0.3037
  553TMC3     O 8207   1.285   1.296  13.631 -0.3861  0.7688 -0.2099
  553TMC3     H 8208   1.121   1.235  13.503 -0.5947  0.2617  0.9256
  553TMC3    H1 8209   1.206   0.975  13.836  1.6964  3.6765  0.4589
  553TMC3    H2 8210   1.145   0.816  13.451 -3.6825  0.3563  0.0890
  553TMC3    C7 8211   1.333   0.834  13.649  0.5051  0.7077  0.0051
  553TMC3    C8 8212   1.170   1.044  13.320 -0.3343 -0.7828 -0.1764
  553TMC3    O1 8213   1.373   0.838  13.533 -0.0070 -0.0323 -0.0010
  553TMC3    O2 8214   1.134   1.149  13.272 -0.1560  0.1250  0.3063
  554TMC3    C1 8215   2.770   0.336  11.637  0.3668 -0.0153 -0.2273
  554TMC3    C2 8216   2.685   0.261  11.560 -0.0569 -0.0801 -0.1221
  554TMC3    C3 8217   2.695   0.262  11.423  0.4556 -0.6489 -0.2925
  554TMC3    C4 8218   2.867   0.417  11.575 -0.3401 -0.5724 -0.0339
  554TMC3    C5 8219   2.856   0.435  11.442 -0.0177  0.1347  0.5369
  554TMC3    C6 8220   2.774   0.359  11.367 -0.6452 -0.4151  0.6858
  554TMC3     C 8221   2.777   0.328  11.779 -0.9475  0.2027  0.3097
  554TMC3     O 8222   2.824   0.426  11.838  0.2720 -0.3073 -0.3168
  554TMC3     H 8223   2.619   0.185  11.600 -0.2694  0.8369  1.2787
  554TMC3    H1 8224   2.935   0.476  11.636  0.2498 -1.4714  0.1840
  554TMC3    H2 8225   2.773   0.386  11.262  0.2277  1.8651  1.2445
  554TMC3    C7 8226   2.966   0.501  11.369  0.4922 -0.1802  0.2601
  554TMC3    C8 8227   2.645   0.145  11.346  0.2740  0.6306 -0.1467
  554TMC3    O1 8228   2.959   0.485  11.245  0.0255  0.4355  0.5639
  554TMC3    O2 8229   2.621   0.046  11.415  0.2382  0.0920 -0.2545
  555TMC3    C1 8230   2.497   4.260  15.215 -0.2707  0.1304  0.1105
  555TMC3    C2 8231   2.530   4.349  15.309  0.3234 -0.0297 -0.4856
  555TMC3    C3 8232   2.541   4.310  15.436  0.4553  0.2669 -0.4480
  555TMC3    C4 8233   2.489   4.132  15.248 -0.8426 -0.8535 -0.7015
  555TMC3    C5 8234   2.485   4.094  15.378  0.6945 -0.7090 -0.5195
  555TMC3    C6 8235   2.521   4.183  15.479 -0.8664  0.0714 -0.2269
  555TMC3     C 8236   2.484   4.295  15.078  0.6242  0.1188 -0.5250
  555TMC3     O 8237   2.534   4.223  14.989 -0.0642 -0.6798  0.5741
  555TMC3     H 8238   2.550   4.453  15.286  1.1066  0.2234  1.3659
  555TMC3    H1 8239   2.466   4.070  15.161 -1.4899  0.7572 -1.6717
  555TMC3    H2 8240   2.517   4.147  15.582 -0.5226  0.7173  0.0130
  555TMC3    C7 8241   2.450   3.962  15.412 -0.0900  0.2213 -0.1140
  555TMC3    C8 8242   2.548   4.403  15.538 -0.1740 -0.3678  0.5390
  555TMC3    O1 8243   2.438   3.932  15.531  0.6646 -0.0293  0.5615
  555TMC3    O2 8244   2.499   4.513  15.521 -0.2058 -1.0217  0.4440
  556MPD2     C 8245   0.676   1.306  10.723 -0.7489  0.0160  0.0473
  556MPD2    C1 8246   0.646   1.208  10.811 -0.2968 -0.0078  0.1126
  556MPD2    C2 8247   0.603   1.089  10.747 -0.2571  0.1146 -0.1103
  556MPD2    C3 8248   0.582   1.079  10.609  0.2717 -0.3750 -0.6173
  556MPD2    C4 8249   0.613   1.188  10.530 -0.5848 -0.5428 -0.1606
  556MPD2    C5 8250   0.652   1.304  10.585  0.2826 -1.2155  0.5892
  556MPD2     H 8251   0.573   0.999  10.800  1.2201  0.5543  1.4541
  556MPD2    H1 8252   0.597   1.190  10.422 -0.4588  0.7825 -0.1536
  556MPD2    H2 8253   0.712   1.403  10.757  1.6338 -0.4563 -1.1054
  556MPD2    H3 8254   0.662   1.398  10.532 -2.6327 -1.4752 -0.3771
  556MPD2     N 8255   0.547   0.954  10.553 -0.7252  0.1185 -0.4624
  556MPD2    H5 8256   0.536   0.879  10.621  1.3520 -0.5403 -0.8423
  556MPD2    N1 8257   0.655   1.214  10.952 -0.3518 -0.2645  0.4360
  556MPD2    H7 8258   0.617   1.134  11.002 -0.5759 -1.0832 -1.0152
  557TMC3    C1 8259   0.516   0.765  10.405 -0.0607  0.4935 -0.1031
  557TMC3    C2 8260   0.550   0.712  10.279 -0.6984  0.3041  0.2059
  557TMC3    C3 8261   0.541   0.573  10.268  0.5706 -0.5057  0.4518
  557TMC3    C4 8262   0.491   0.694  10.519  0.2611 -0.0256  0.5285
  557TMC3    C5 8263   0.491   0.556  10.501  0.2533 -0.9619 -0.5122
  557TMC3    C6 8264   0.517   0.497  10.380 -0.5409  0.1208  0.4996
  557TMC3     C 8265   0.533   0.915  10.421  0.1133 -0.0910 -0.4437
  557TMC3     O 8266   0.559   0.986  10.322 -0.6653 -0.8116  0.3501
  557TMC3     H 8267   0.577   0.780  10.199  0.0548  0.2289  0.3928
  557TMC3    H1 8268   0.446   0.737  10.607  0.0360 -0.5301  0.6608
  557TMC3    H2 8269   0.512   0.389  10.367 -1.1840  0.3178 -0.8429
  557TMC3    C7 8270   0.384   0.499  10.583  0.6277  0.0459 -0.2436
  557TMC3    C8 8271   0.636   0.524  10.164 -0.4433  0.0118  0.6835
  557TMC3    O1 8272   0.281   0.566  10.607 -0.3444  0.3721 -0.2887
  557TMC3    O2 8273   0.698   0.616  10.108  0.4263 -0.4587  0.1491
  558TMC3    C1 8274   2.729   3.696  10.214  0.3723  0.3393  0.4633
  558TMC3    C2 8275   2.658   3.598  10.275  0.7777  0.3666  0.1018
  558TMC3    C3 8276   2.532   3.640  10.315  0.0571  0.1748 -0.4489
  558TMC3    C4 8277   2.682   3.825  10.194 -0.1530 -0.5953  0.3031
  558TMC3    C5 8278   2.551   3.849  10.217  0.3304 -0.5247  0.4129
  558TMC3    C6 8279   2.475   3.761  10.278  1.0115  0.6233 -0.7031
  558TMC3     C 8280   2.883   3.684  10.215 -0.6138 -0.3006  0.4441
  558TMC3     O 8281   2.953   3.784  10.213 -0.6924  0.0658 -0.2983
  558TMC3     H 8282   2.692   3.496  10.281  1.9272  0.7600  0.2830
  558TMC3    H1 8283   2.752   3.883  10.134 -1.0308 -0.1118 -0.2490
  558TMC3    H2 8284   2.382   3.795  10.324  0.4912 -1.2940 -0.3575
  558TMC3    C7 8285   2.494   3.952  10.135 -0.0410 -0.0784 -0.0673
  558TMC3    C8 8286   2.480   3.555  10.421 -0.1320  0.3421  0.3730
  558TMC3    O1 8287   2.572   4.041  10.108 -0.5275 -0.1286  0.0992
  558TMC3    O2 8288   2.359   3.532  10.427 -0.2196  0.0555  0.6096
  559MPD2     C 8289   2.582   4.258  10.341 -0.1571 -0.0891 -0.9320
  559MPD2    C1 8290   2.572   4.181  10.452  0.1080 -0.1273 -0.9576
  559MPD2    C2 8291   2.687   4.159  10.527  0.4556 -0.0221 -0.5567
  559MPD2    C3 8292   2.803   4.235  10.507  0.1962 -0.1918 -0.3934
  559MPD2    C4 8293   2.812   4.310  10.399  0.6637  0.6543  0.2384
  559MPD2    C5 8294   2.699   4.323  10.314 -0.3270 -0.8771 -0.3291
  559MPD2     H 8295   2.681   4.098  10.617  0.8845  1.7461  0.6599
  559MPD2    H1 8296   2.907   4.350  10.365  1.0018  1.5451  2.1768
  559MPD2    H2 8297   2.499   4.281  10.275 -0.0758  0.2964 -0.8987
  559MPD2    H3 8298   2.705   4.383  10.224  0.6869  0.9257  0.9407
  559MPD2     N 8299   2.909   4.226  10.599 -0.6390  0.1816 -0.1278
  559MPD2    H5 8300   2.931   4.143  10.654 -0.4758  0.4922  0.2812
  559MPD2    N1 8301   2.440   4.147  10.501 -0.2385  0.2653 -0.6655
  559MPD2    H7 8302   2.360   4.193  10.460  0.2516  0.7842 -1.0489
  560TMC3    C1 8303   3.098   4.301  10.716  0.1142  0.6700  0.7498
  560TMC3    C2 8304   3.146   4.172  10.728  0.3091 -0.4534  0.1071
  560TMC3    C3 8305   3.274   4.159  10.772  0.7187 -0.1129  0.0833
  560TMC3    C4 8306   3.159   4.414  10.767  0.8530  0.7986  0.4184
  560TMC3    C5 8307   3.282   4.390  10.820  0.6031  0.3068  0.0196
  560TMC3    C6 8308   3.342   4.271  10.823 -0.0600 -0.0347  0.4252
  560TMC3     C 8309   2.993   4.331  10.622  0.1001 -0.1866 -0.1415
  560TMC3     O 8310   2.997   4.442  10.571  0.1392 -0.1276 -0.1680
  560TMC3     H 8311   3.102   4.087  10.677  0.2370  0.9170 -2.1128
  560TMC3    H1 8312   3.123   4.514  10.750 -3.4882 -1.2827 -2.5449
  560TMC3    H2 8313   3.438   4.265  10.874  0.8717 -2.0681 -1.5998
  560TMC3    C7 8314   3.319   4.513  10.900  0.6931 -0.6312 -0.1780
  560TMC3    C8 8315   3.323   4.018  10.782 -0.2727 -0.1328 -0.0797
  560TMC3    O1 8316   3.227   4.589  10.932 -0.5281 -0.0821  0.1793
  560TMC3    O2 8317   3.259   3.939  10.712  0.1825 -0.2329  0.5458
  561TMC3    C1 8318   0.564   3.367  11.595 -0.4791  0.3809  0.0351
  561TMC3    C2 8319   0.438   3.310  11.603  0.2311  0.0249  0.3183
  561TMC3    C3 8320   0.330   3.381  11.639  0.2021 -0.1172 -0.3967
  561TMC3    C4 8321   0.587   3.503  11.610 -0.1243 -0.1476  0.0794
  561TMC3    C5 8322   0.473   3.568  11.651  0.0507  0.0575 -0.5676
  561TMC3    C6 8323   0.350   3.510  11.666  0.8299  1.0867  0.1216
  561TMC3     C 8324   0.672   3.292  11.543  0.0136 -0.3918 -0.9407
  561TMC3     O 8325   0.651   3.202  11.467  0.7348  0.3598  0.5824
  561TMC3     H 8326   0.433   3.204  11.584 -0.4943  0.2605 -0.8608
  561TMC3    H1 8327   0.687   3.545  11.618 -0.2645  0.0094  0.9844
  561TMC3    H2 8328   0.263   3.569  11.689  0.6403  1.1078 -0.6380
  561TMC3    C7 8329   0.467   3.719  11.657 -0.2343 -0.8325 -0.0883
  561TMC3    C8 8330   0.275   3.317  11.751 -0.0976 -0.0095  0.1517
  561TMC3    O1 8331   0.361   3.772  11.689  0.2722 -0.0261  0.2042
  561TMC3    O2 8332   0.339   3.230  11.804  0.0209  0.3805 -0.9420
  562TMC3    C1 8333   2.192   0.057  16.185  0.0162 -0.4485  0.2612
  562TMC3    C2 8334   2.071   0.113  16.136 -0.6231  0.3922 -0.5671
  562TMC3    C3 8335   2.030   0.085  16.007 -0.1293  0.2373 -0.0351
  562TMC3    C4 8336   2.244   4.671  16.113 -0.8326  0.6861 -1.0346
  562TMC3    C5 8337   2.185   4.631  15.999 -0.0719  0.1677 -0.5108
  562TMC3    C6 8338   2.079   4.696  15.940  0.6011  0.2696 -0.2648
  562TMC3     C 8339   2.202   0.053  16.330  0.2482  0.0340  0.1703
  562TMC3     O 8340   2.101   0.063  16.398  0.6891  0.6585 -0.0902
  562TMC3     H 8341   2.020   0.191  16.191  2.3797  2.1617 -0.3020
  562TMC3    H1 8342   2.319   4.610  16.162 -1.5787 -0.1299 -0.9260
  562TMC3    H2 8343   2.028   4.665  15.850 -0.3129 -0.7182  0.5976
  562TMC3    C7 8344   2.228   4.499  15.943 -0.3297  0.2028 -0.1638
  562TMC3    C8 8345   1.908   0.159  15.967  0.1954 -0.4049 -0.5158
  562TMC3    O1 8346   2.178   4.481  15.831 -0.5922 -0.4977 -0.1414
  562TMC3    O2 8347   1.832   0.178  16.056 -0.0614 -0.3669  0.3413
  563MPD2     C 8348   4.483   0.790  16.184 -1.1210 -0.2239 -0.1188
  563MPD2    C1 8349   4.532   0.763  16.309 -0.3127 -0.0204  0.4196
  563MPD2    C2 8350   4.595   0.861  16.380  0.4836  0.0950 -0.0222
  563MPD2    C3 8351   4.579   0.995  16.341 -0.3716 -0.1614 -0.2072
  563MPD2    C4 8352   4.521   1.030  16.220 -0.0460  0.3052  0.1832
  563MPD2    C5 8353   4.482   0.925  16.137  0.2605 -0.8491 -0.2663
  563MPD2     H 8354   4.648   0.843  16.472 -0.8913  2.8576  1.3339
  563MPD2    H1 8355   4.518   1.131  16.181  1.7408  0.1986 -0.2331
  563MPD2    H2 8356   4.427   0.712  16.133 -2.6103  0.1766  0.9080
  563MPD2    H3 8357   4.456   0.949  16.035 -0.3262  1.3858  0.4121
  563MPD2     N 8358   4.627   1.089  16.437 -0.2635 -0.3661  0.0986
  563MPD2    H5 8359   4.659   1.051  16.525 -3.8131  1.5403  2.2028
  563MPD2    N1 8360   4.518   0.631  16.374 -0.1296 -0.3597 -0.0254
  563MPD2    H7 8361   4.479   0.555  16.318  2.2587 -0.3167 -1.7570
  564TMC3    C1 8362   4.493   0.479  16.552  0.2145  0.7188 -0.4460
  564TMC3    C2 8363   4.543   0.377  16.482 -0.0510  0.4038  0.3355
  564TMC3    C3 8364   4.540   0.252  16.542 -0.1210 -0.3680  0.5392
  564TMC3    C4 8365   4.437   0.467  16.673 -0.1008 -0.7340  0.2680
  564TMC3    C5 8366   4.462   0.344  16.738  0.7580 -0.4576  0.3196
  564TMC3    C6 8367   4.507   0.239  16.675  0.6220  0.6100  0.4697
  564TMC3     C 8368   4.519   0.616  16.512 -0.1458 -0.6369 -0.3811
  564TMC3     O 8369   4.515   0.701  16.602 -0.6280 -0.1817  0.6397
  564TMC3     H 8370   4.570   0.389  16.378 -2.5848  0.3734 -0.3292
  564TMC3    H1 8371   4.381   0.546  16.720  2.7930  1.1625  0.5285
  564TMC3    H2 8372   4.511   0.143  16.724  4.3991  0.6423  0.2926
  564TMC3    C7 8373   4.428   0.334  16.880 -0.4610 -0.2707  0.5783
  564TMC3    C8 8374   4.577   0.131  16.481  0.1356  0.1670 -0.3187
  564TMC3    O1 8375   4.337   0.411  16.913  0.0478  0.1165  0.2619
  564TMC3    O2 8376   4.540   0.028  16.543 -0.0615  0.1711 -0.0096
  565TMC3    C1 8377   0.360   3.495  10.200 -0.0483  0.4168 -0.0417
  565TMC3    C2 8378   0.359   3.371  10.263 -0.7059  0.2156 -0.0302
  565TMC3    C3 8379   0.242   3.316  10.290 -0.2069  0.2633  0.0493
  565TMC3    C4 8380   0.246   3.555  10.153  0.9278  0.3182  0.6374
  565TMC3    C5 8381   0.131   3.490  10.173 -0.0391 -0.7466  0.2808
  565TMC3    C6 8382   0.126   3.372  10.245  0.3437  0.2417  0.1182
  565TMC3     C 8383   0.474   3.589  10.220  0.4413  0.1494 -0.4143
  565TMC3     O 8384   0.470   3.689  10.149  0.5435  0.4670  0.6139
  565TMC3     H 8385   0.447   3.327  10.310 -0.3957  0.1945 -0.6280
  565TMC3    H1 8386   0.245   3.661  10.128 -0.0649  0.4352  1.2034
  565TMC3    H2 8387   0.029   3.352  10.289 -0.7952  0.2551 -2.3911
  565TMC3    C7 8388   0.005   3.549  10.120  0.6987 -0.5804  0.1009
  565TMC3    C8 8389   0.249   3.187  10.352 -0.0682  0.8150  0.1960
  565TMC3    O1 8390   4.707   3.663  10.161 -0.3676  0.5530 -0.4738
  565TMC3    O2 8391   0.335   3.169  10.443  0.0691 -0.2292 -0.4120
  566MPD2     C 8392   1.407   4.388  14.883  0.2869  0.6576 -0.8132
  566MPD2    C1 8393   1.496   4.367  14.783  0.8673  0.1119  0.1289
  566MPD2    C2 8394   1.459   4.295  14.677 -0.6746  0.0575  0.2548
  566MPD2    C3 8395   1.326   4.265  14.655  0.3954  0.6772 -0.2414
  566MPD2    C4 8396   1.233   4.284  14.754  0.5671 -0.0666 -0.3657
  566MPD2    C5 8397   1.277   4.342  14.869 -0.3206  0.3159 -0.2325
  566MPD2     H 8398   1.532   4.266  14.603 -1.0559  0.6364 -0.3408
  566MPD2    H1 8399   1.126   4.267  14.754  0.9704 -2.5153 -0.3618
  566MPD2    H2 8400   1.426   4.460  14.962  0.3658  0.4829 -0.6727
  566MPD2    H3 8401   1.206   4.364  14.948 -0.9477  0.5611 -0.8703
  566MPD2     N 8402   1.265   4.204  14.543 -0.5655 -0.2035  0.5430
  566MPD2    H5 8403   1.166   4.189  14.527 -0.2819 -1.0501 -0.3673
  566MPD2    N1 8404   1.621   4.431  14.792  0.6444 -0.1674 -1.1246
  566MPD2    H7 8405   1.640   4.490  14.873  1.4412 -1.3925 -0.4275
  567TMC3    C1 8406   1.827   4.513  14.730 -0.8552  0.4118  0.5270
  567TMC3    C2 8407   1.852   4.591  14.624  0.0149 -0.2307  0.3743
  567TMC3    C3 8408   1.965   4.570  14.554  0.6773  0.2330 -0.1269
  567TMC3    C4 8409   1.929   4.434  14.781  0.6379 -0.6779 -0.2938
  567TMC3    C5 8410   2.047   4.425  14.714  0.0297 -0.1453 -0.2058
  567TMC3    C6 8411   2.062   4.487  14.593  0.8608 -0.5285  0.1205
  567TMC3     C 8412   1.720   4.425  14.696  0.0053 -0.4564  0.0064
  567TMC3     O 8413   1.724   4.379  14.582 -0.8518 -0.4555  0.1714
  567TMC3     H 8414   1.761   4.646  14.603  0.6684  0.8844  0.4222
  567TMC3    H1 8415   1.903   4.375  14.867 -0.6096  3.2219  2.0342
  567TMC3    H2 8416   2.154   4.472  14.538 -0.4224 -1.3013 -1.8389
  567TMC3    C7 8417   2.143   4.322  14.760 -0.1021  0.3994 -0.3683
  567TMC3    C8 8418   1.950   4.585  14.410  0.0979  0.1949 -0.3208
  567TMC3    O1 8419   2.215   4.273  14.674  0.2720 -0.4331 -0.1764
  567TMC3    O2 8420   1.843   4.623  14.374 -0.0732 -0.4414  0.1027
  568MPD2     C 8421   0.146   3.827  17.058 -0.1111  0.5542  0.1746
  568MPD2    C1 8422   0.035   3.910  17.059  0.7664 -0.0205  0.1887
  568MPD2    C2 8423   4.698   3.944  16.937  0.2355 -0.9272  0.2443
  568MPD2    C3 8424   0.045   3.922  16.821  0.1159 -0.1245  0.6500
  568MPD2    C4 8425   0.159   3.844  16.818 -0.7561  0.1680 -0.0987
  568MPD2    C5 8426   0.206   3.787  16.939  0.1022  0.1284  0.1668
  568MPD2     H 8427   4.607   4.004  16.935 -0.0277 -1.3033  1.0329
  568MPD2    H1 8428   0.211   3.813  16.728 -0.9683 -1.1561  0.2253
  568MPD2    H2 8429   0.191   3.797  17.152  1.8758 -0.7596 -1.1912
  568MPD2    H3 8430   0.286   3.713  16.934  0.4270  0.4988 -0.1548
  568MPD2     N 8431   4.712   3.974  16.708 -0.0682  0.4954  0.1835
  568MPD2    H5 8432   4.628   4.030  16.720  0.1612  0.7931  0.4167
  568MPD2    N1 8433   4.709   3.955  17.178  0.3744 -0.1772 -0.1625
  568MPD2    H7 8434   0.060   3.942  17.247  0.4249 -2.5796 -0.6829
  569TMC3    C1 8435   4.679   4.013  16.475 -0.2353  0.1519  0.0936
  569TMC3    C2 8436   4.541   4.006  16.497 -0.7483  0.2534  0.2554
  569TMC3    C3 8437   4.462   4.099  16.431 -0.3365  0.2425  0.4190
  569TMC3    C4 8438   0.008   4.106  16.392  0.4655  0.0647  0.3153
  569TMC3    C5 8439   4.640   4.181  16.315  0.4133  0.5546  0.1750
  569TMC3    C6 8440   4.509   4.188  16.342  0.0501  0.6015 -0.3183
  569TMC3     C 8441   0.045   3.978  16.584  0.7073  0.1657  0.9122
  569TMC3     O 8442   0.165   3.958  16.553  0.1452  0.0006  0.3774
  569TMC3     H 8443   4.493   3.928  16.554 -0.2562  0.1990  0.5980
  569TMC3    H1 8444   0.110   4.138  16.374  0.4194 -0.2820 -0.5387
  569TMC3    H2 8445   4.441   4.252  16.289 -0.3879  1.4384  1.2511
  569TMC3    C7 8446   4.702   4.279  16.231  1.0362 -0.3860 -0.1841
  569TMC3    C8 8447   4.327   4.104  16.473 -0.0372 -0.2647  0.5622
  569TMC3    O1 8448   0.034   4.246  16.126  0.0412 -0.1445  0.3289
  569TMC3    O2 8449   4.280   3.999  16.512 -0.7204 -0.4601 -0.0639
  570TMC3    C1 8450   3.580   3.543  16.572 -0.4847  0.2694  0.2500
  570TMC3    C2 8451   3.630   3.564  16.444 -0.0492  0.2765 -0.1582
  570TMC3    C3 8452   3.678   3.684  16.404 -0.0580 -0.1391  0.1169
  570TMC3    C4 8453   3.578   3.650  16.659 -0.0117 -0.1808  0.7227
  570TMC3    C5 8454   3.620   3.769  16.618  0.6076 -0.1095  0.0634
  570TMC3    C6 8455   3.668   3.792  16.492 -0.4319  0.5623  0.0896
  570TMC3     C 8456   3.478   3.437  16.583  0.0841  0.7898  0.8384
  570TMC3     O 8457   3.450   3.384  16.474 -0.7478 -0.0931  0.0769
  570TMC3     H 8458   3.640   3.481  16.374 -0.7919  0.1210 -0.0869
  570TMC3    H1 8459   3.557   3.637  16.764 -1.1037 -1.3149  0.3710
  570TMC3    H2 8460   3.701   3.887  16.453  0.9247 -0.0627 -0.2963
  570TMC3    C7 8461   3.631   3.871  16.716 -0.0870  0.5071  0.1551
  570TMC3    C8 8462   3.794   3.701  16.326  0.3556 -0.0457 -0.5220
  570TMC3    O1 8463   3.631   3.832  16.833  0.0089  0.1907  0.0751
  570TMC3    O2 8464   3.881   3.775  16.369 -0.0350  0.0463  0.4247
  571MPD2     C 8465   1.544   1.096   0.414 -0.4624 -0.2102  0.0338
  571MPD2    C1 8466   1.450   1.004   0.369 -0.1153 -0.0830  0.5218
  571MPD2    C2 8467   1.317   1.043   0.359  0.0580  0.0644 -0.5641
  571MPD2    C3 8468   1.278   1.173   0.392  0.6632  0.1861  0.0732
  571MPD2    C4 8469   1.378   1.268   0.426  0.6959 -0.0493  0.8403
  571MPD2    C5 8470   1.507   1.223   0.445 -0.2174 -0.0768  0.5495
  571MPD2     H 8471   1.245   0.971   0.321 -1.8948  1.0134  1.3309
  571MPD2    H1 8472   1.355   1.371   0.449  1.0165  0.2865 -0.3584
  571MPD2    H2 8473   1.648   1.077   0.434 -1.0391 -1.1734  2.0911
  571MPD2    H3 8474   1.582   1.297   0.472  1.2781 -1.5293  0.3854
  571MPD2     N 8475   1.143   1.215   0.403 -0.1025  0.0181 -0.4779
  571MPD2    H5 8476   1.133   1.316   0.408 -0.1742 -0.0497  0.7723
  571MPD2    N1 8477   1.506   0.876   0.350 -0.0477 -0.5223  0.7187
  571MPD2    H7 8478   1.604   0.872   0.373  0.2235  1.1572 -0.2271
  572TMC3    C1 8479   0.908   1.207   0.413 -0.2542 -0.1011 -0.4164
  572TMC3    C2 8480   0.821   1.150   0.500 -0.2469  0.2918  0.7197
  572TMC3    C3 8481   0.712   1.224   0.533  0.2294  0.1743 -0.3050
  572TMC3    C4 8482   0.900   1.338   0.374  0.1666  0.2607  0.4287
  572TMC3    C5 8483   0.797   1.415   0.418 -0.0849 -0.7900  0.3616
  572TMC3    C6 8484   0.693   1.356   0.486 -0.0219 -0.5578 -0.5573
  572TMC3     C 8485   1.030   1.130   0.398  1.0804 -1.4888  0.3952
  572TMC3     O 8486   1.022   1.009   0.396 -0.3152 -0.3046 -0.0347
  572TMC3     H 8487   0.815   1.043   0.513  0.6148  0.2356  0.6744
  572TMC3    H1 8488   0.976   1.382   0.311  0.6629  0.8885  1.4571
  572TMC3    H2 8489   0.615   1.420   0.525  1.3823 -1.5163  3.8437
  572TMC3    C7 8490   0.784   1.557   0.393 -0.1396 -0.5408  0.0529
  572TMC3    C8 8491   0.639   1.184   0.656  0.6270 -0.0273  0.1110
  572TMC3    O1 8492   0.671   1.608   0.413 -0.0845  0.1790  0.2356
  572TMC3    O2 8493   0.534   1.250   0.674 -0.3649  0.0874  0.2136
  573MPD2     C 8494   2.595   0.708   0.853 -0.0602 -0.7682 -0.1343
  573MPD2    C1 8495   2.604   0.834   0.797  0.1261  0.1630  0.0434
  573MPD2    C2 8496   2.541   0.864   0.674 -0.3109 -0.0402 -0.3308
  573MPD2    C3 8497   2.463   0.762   0.618  0.6356  0.5599  0.2717
  573MPD2    C4 8498   2.473   0.634   0.666 -0.0321  0.4994  0.1958
  573MPD2    C5 8499   2.527   0.611   0.785  0.1876 -0.3054 -0.2953
  573MPD2     H 8500   2.536   0.963   0.630 -1.6546  1.5014  3.2919
  573MPD2    H1 8501   2.417   0.551   0.625  0.8048  0.3107 -0.5985
  573MPD2    H2 8502   2.640   0.678   0.947  0.0853  0.3569  0.1486
  573MPD2    H3 8503   2.514   0.514   0.831 -0.9906 -0.9153 -1.9463
  573MPD2     N 8504   2.383   0.780   0.505  0.4038  0.1905 -0.6343
  573MPD2    H5 8505   2.362   0.698   0.449  3.3827 -0.0332 -1.4505
  573MPD2    N1 8506   2.666   0.938   0.877  0.0645  0.1995  0.2008
  573MPD2    H7 8507   2.703   0.911   0.967 -0.1466 -0.5320  0.0644
  574TMC3    C1 8508   2.248   0.886   0.348 -0.3013 -0.2127  0.0637
  574TMC3    C2 8509   2.135   0.959   0.343  0.1221  0.2168 -0.8400
  574TMC3    C3 8510   2.110   1.022   0.222  0.0053 -0.5123  0.0318
  574TMC3    C4 8511   2.325   0.857   0.228 -0.8283 -0.2020  0.0393
  574TMC3    C5 8512   2.293   0.927   0.109  0.8708  0.1611  0.6396
  574TMC3    C6 8513   2.184   1.009   0.106  0.7174 -0.3514  0.4572
  574TMC3     C 8514   2.333   0.901   0.469 -0.1925 -0.1651 -0.1167
  574TMC3     O 8515   2.334   1.009   0.524  0.5725  0.1418 -0.2139
  574TMC3     H 8516   2.079   0.971   0.435  1.5585 -1.1356  0.1981
  574TMC3    H1 8517   2.424   0.814   0.239 -1.7176 -1.6932  2.0493
  574TMC3    H2 8518   2.139   1.031   0.009 -0.1393 -1.6899  0.5533
  574TMC3    C7 8519   2.393   0.941   0.002 -0.2316  0.5422  0.2982
  574TMC3    C8 8520   1.993   1.100   0.225  0.7433  0.9831 -0.4584
  574TMC3    O1 8521   2.475   0.849   0.003 -0.0617  0.0613 -0.0164
  574TMC3    O2 8522   1.930   1.099   0.334 -0.3090 -0.6476 -0.0241
  575TMC3    C1 8523   0.640   2.538  10.759  1.1485  0.0440 -0.6163
  575TMC3    C2 8524   0.634   2.401  10.722  0.4798 -0.8349  0.0401
  575TMC3    C3 8525   0.581   2.382  10.592 -0.4251  0.0699 -0.2946
  575TMC3    C4 8526   0.587   2.643  10.689 -0.5126  0.6749  0.1802
  575TMC3    C5 8527   0.531   2.614  10.563  0.4124  0.3941  0.0022
  575TMC3    C6 8528   0.521   2.480  10.523 -0.1156  0.7097 -0.0181
  575TMC3     C 8529   0.688   2.557  10.899 -0.1833  0.3058 -0.2741
  575TMC3     O 8530   0.690   2.458  10.973  0.0762  0.0581 -0.0577
  575TMC3     H 8531   0.670   2.321  10.784 -0.4405  0.2919  2.0184
  575TMC3    H1 8532   0.588   2.747  10.721  0.5981  0.5230  0.6624
  575TMC3    H2 8533   0.463   2.449  10.436  2.1045 -1.4111 -0.7240
  575TMC3    C7 8534   0.455   2.726  10.503  0.4103  0.0202 -0.3557
  575TMC3    C8 8535   0.608   2.259  10.519 -0.0606 -0.6541  0.7363
  575TMC3    O1 8536   0.507   2.831  10.522  0.7383  0.5551 -0.0096
  575TMC3    O2 8537   0.539   2.235  10.417 -0.3097 -0.0905 -0.1531
  576MPD2     C 8538   4.158   3.700  12.861  0.4093  0.1190 -0.1760
  576MPD2    C1 8539   4.260   3.774  12.815 -0.6983  0.3207  0.1468
  576MPD2    C2 8540   4.352   3.832  12.903 -0.5582 -0.5775  0.3355
  576MPD2    C3 8541   4.328   3.819  13.041 -0.1329  0.0132 -0.3607
  576MPD2    C4 8542   4.228   3.729  13.088 -0.3396 -0.1128 -0.1267
  576MPD2    C5 8543   4.139   3.683  12.997 -0.4032  0.3329  0.1197
  576MPD2     H 8544   4.432   3.895  12.866 -0.4656  0.2110  1.8730
  576MPD2    H1 8545   4.199   3.701  13.189 -2.3173  0.0390 -0.6542
  576MPD2    H2 8546   4.076   3.667  12.798 -0.3385 -0.2435  0.9882
  576MPD2    H3 8547   4.057   3.615  13.020  1.6180 -2.6788 -1.6335
  576MPD2     N 8548   4.420   3.880  13.122  0.3634 -0.2273 -0.2626
  576MPD2    H5 8549   4.498   3.927  13.077  0.9915 -0.0254  1.0510
  576MPD2    N1 8550   4.289   3.784  12.676 -0.1304 -0.4838  0.7988
  576MPD2    H7 8551   4.365   3.846  12.649 -0.1971 -1.0109 -0.6146
  577TMC3    C1 8552   4.295   3.728  12.446  1.0859  0.7022 -0.5088
  577TMC3    C2 8553   4.334   3.617  12.380 -0.0675 -0.3100  0.0653
  577TMC3    C3 8554   4.408   3.623  12.265 -0.5065 -0.2725 -0.2643
  577TMC3    C4 8555   4.333   3.854  12.401 -0.0528  0.1520 -0.1073
  577TMC3    C5 8556   4.390   3.855  12.269  0.2006 -0.8039  0.4314
  577TMC3    C6 8557   4.429   3.742  12.208 -0.2685 -0.5000 -0.5297
  577TMC3     C 8558   4.241   3.698  12.573  0.5986  0.0753  1.3359
  577TMC3     O 8559   4.160   3.607  12.583 -0.2419 -0.4325 -0.3295
  577TMC3     H 8560   4.317   3.519  12.423 -1.8669 -1.4603 -3.2233
  577TMC3    H1 8561   4.309   3.943  12.458  0.3703 -0.7686  1.5140
  577TMC3    H2 8562   4.499   3.749  12.125  0.5870  0.0526  0.2418
  577TMC3    C7 8563   4.453   3.980  12.227 -0.6400 -0.1785 -0.3882
  577TMC3    C8 8564   4.487   3.505  12.230  0.4853  0.1773 -0.2972
  577TMC3    O1 8565   4.501   4.046  12.314 -0.2017  0.4402 -0.0785
  577TMC3    O2 8566   4.470   3.413  12.305  0.6927  0.7870  0.3333
  578MPD2     C 8567   3.249   3.737   1.606 -0.4440 -1.1858 -0.2022
  578MPD2    C1 8568   3.352   3.654   1.566 -0.1899 -0.6355 -0.9796
  578MPD2    C2 8569   3.403   3.569   1.658 -0.1163 -0.2379  0.2835
  578MPD2    C3 8570   3.354   3.554   1.785  0.3326  0.4027 -0.2867
  578MPD2    C4 8571   3.248   3.636   1.822 -0.3068 -0.1511 -0.2019
  578MPD2    C5 8572   3.198   3.729   1.732 -0.2475  0.0273 -0.5821
  578MPD2     H 8573   3.495   3.513   1.647 -1.2011 -1.9918  0.1746
  578MPD2    H1 8574   3.191   3.624   1.913  0.3833 -0.8370  0.1374
  578MPD2    H2 8575   3.218   3.815   1.537 -0.0611 -0.7941  0.0680
  578MPD2    H3 8576   3.106   3.784   1.751 -1.9244 -3.2853  0.8502
  578MPD2     N 8577   3.408   3.450   1.868  0.1920 -0.4783 -0.4892
  578MPD2    H5 8578   3.485   3.398   1.828  0.9099  0.2079 -0.0076
  578MPD2    N1 8579   3.411   3.676   1.446  0.2673  0.6586 -0.0485
  578MPD2    H7 8580   3.360   3.723   1.372  0.0926  0.1588 -0.2451
  579TMC3    C1 8581   3.416   3.305   2.062  0.0818  0.0559  0.3121
  579TMC3    C2 8582   3.451   3.317   2.195  0.4278 -0.0231  0.0289
  579TMC3    C3 8583   3.522   3.222   2.255 -0.3386  0.1983  0.3969
  579TMC3    C4 8584   3.462   3.200   1.985 -0.1492  0.5991  0.4799
  579TMC3    C5 8585   3.531   3.107   2.051  0.1791  0.1919 -0.1373
  579TMC3    C6 8586   3.552   3.111   2.186  0.2481 -0.2176  0.0502
  579TMC3     C 8587   3.374   3.427   1.999 -0.2103 -0.6085  0.4748
  579TMC3     O 8588   3.300   3.492   2.070  0.2883  0.2463  0.5469
  579TMC3     H 8589   3.425   3.403   2.256 -1.2385 -0.8909  0.5525
  579TMC3    H1 8590   3.441   3.204   1.879 -0.6438 -0.2369  0.5454
  579TMC3    H2 8591   3.618   3.035   2.227  0.8604  0.1941 -0.1745
  579TMC3    C7 8592   3.580   2.990   1.978 -0.4594  0.1817 -0.3646
  579TMC3    C8 8593   3.597   3.249   2.378 -0.0277 -0.3209 -0.3561
  579TMC3    O1 8594   3.658   2.914   2.030 -0.4140 -0.5358  0.0476
  579TMC3    O2 8595   3.537   3.290   2.478 -1.2098  0.0688  0.6898
  580TMC3    C1 8596   2.561   3.323  12.231 -0.2802 -0.4625 -0.6763
  580TMC3    C2 8597   2.669   3.402  12.216  0.5340 -0.5253  0.2335
  580TMC3    C3 8598   2.792   3.337  12.212 -0.6186  0.5684 -0.5067
  580TMC3    C4 8599   2.575   3.194  12.265  0.2232 -0.7865 -0.4555
  580TMC3    C5 8600   2.700   3.137  12.277 -0.5138  0.2658 -0.2373
  580TMC3    C6 8601   2.815   3.204  12.255  0.3635  0.9538  0.7750
  580TMC3     C 8602   2.451   3.354  12.141  0.3601 -0.4839 -0.2896
  580TMC3     O 8603   2.348   3.292  12.158 -0.0740 -0.6558  0.1275
  580TMC3     H 8604   2.659   3.509  12.203  1.7049 -0.3891  0.4098
  580TMC3    H1 8605   2.481   3.141  12.279 -1.5538  1.8817 -2.2681
  580TMC3    H2 8606   2.914   3.163  12.271 -0.4616 -1.6184 -0.7550
  580TMC3    C7 8607   2.697   2.991  12.311 -0.1123  0.4921 -0.1267
  580TMC3    C8 8608   2.907   3.421  12.178 -0.3647 -0.2135  1.0798
  580TMC3    O1 8609   2.596   2.945  12.361  0.0711 -0.3603  0.2158
  580TMC3    O2 8610   2.899   3.543  12.175  0.1119 -0.1988 -0.0816
  581MPD2     C 8611   0.994   2.419  14.986  0.0649  0.2729 -0.3834
  581MPD2    C1 8612   0.880   2.369  15.053  1.5521 -0.6161  0.8207
  581MPD2    C2 8613   0.755   2.370  14.984  0.0400 -0.4070  0.6128
  581MPD2    C3 8614   0.747   2.415  14.857 -0.3920  0.5045  0.5982
  581MPD2    C4 8615   0.864   2.455  14.793  0.1198  0.3093 -0.6091
  581MPD2    C5 8616   0.982   2.447  14.857  0.4224 -0.2063 -0.2758
  581MPD2     H 8617   0.666   2.339  15.038  1.5883 -2.4348  2.0239
  581MPD2    H1 8618   0.862   2.494  14.692  0.0699  1.5010 -0.1454
  581MPD2    H2 8619   1.093   2.417  15.029 -0.2150  0.7186  0.2716
  581MPD2    H3 8620   1.066   2.493  14.805  0.4038  2.0454  1.6625
  581MPD2     N 8621   0.625   2.405  14.790 -0.8757 -0.2056 -0.2206
  581MPD2    H5 8622   0.544   2.375  14.844 -1.6859  0.8460 -0.8671
  581MPD2    N1 8623   0.895   2.311  15.181 -0.0768  0.1656  0.2916
  581MPD2    H7 8624   0.975   2.341  15.236  1.3079 -1.1288 -1.0149
  582TMC3    C1 8625   0.827   2.167  15.369 -0.2789 -0.3031  0.2843
  582TMC3    C2 8626   0.907   2.236  15.455 -0.4584  0.7481 -0.5694
  582TMC3    C3 8627   0.938   2.174  15.573  0.6991 -0.1250 -0.0435
  582TMC3    C4 8628   0.762   2.053  15.400  0.8769 -0.2586 -0.5446
  582TMC3    C5 8629   0.795   1.990  15.522  0.7504  0.4762  0.3696
  582TMC3    C6 8630   0.885   2.049  15.604  0.5746 -0.1005 -0.5832
  582TMC3     C 8631   0.812   2.208  15.222 -0.4645 -0.0133  0.1528
  582TMC3     O 8632   0.734   2.134  15.165  0.1288 -0.8820  0.3327
  582TMC3     H 8633   0.925   2.342  15.449 -0.9272  0.9379  1.2249
  582TMC3    H1 8634   0.701   2.000  15.328 -0.6825  3.0438 -1.6716
  582TMC3    H2 8635   0.896   2.017  15.707 -0.2902  1.1590 -0.0851
  582TMC3    C7 8636   0.674   1.933  15.583  0.7671 -0.0982  0.8384
  582TMC3    C8 8637   0.929   2.263  15.689 -0.4743  0.1440  0.2542
  582TMC3    O1 8638   0.693   1.864  15.681  0.2699  0.3748  0.0198
  582TMC3    O2 8639   0.860   2.363  15.682  0.4510 -0.5197 -0.8793
  583MPD2     C 8640   1.034   3.968  17.323 -0.3961  0.0822 -0.4862
  583MPD2    C1 8641   0.948   4.064  17.263 -0.1452 -0.1428  0.7240
  583MPD2    C2 8642   0.869   4.138  17.341  0.2019 -0.5438 -0.1335
  583MPD2    C3 8643   0.883   4.132  17.479  0.5022  0.4772 -0.0943
  583MPD2    C4 8644   0.960   4.033  17.530 -0.1006  0.1062  0.6200
  583MPD2    C5 8645   1.033   3.948  17.452 -0.1913 -0.0332  0.6450
  583MPD2     H 8646   0.811   4.212  17.286  0.2965  0.4394  1.0785
  583MPD2    H1 8647   0.976   4.012  17.635 -0.2292 -1.2590  0.3707
  583MPD2    H2 8648   1.091   3.898  17.262  0.9987  1.8949 -1.2559
  583MPD2    H3 8649   1.089   3.872  17.505 -0.5824 -0.8099 -0.0471
  583MPD2     N 8650   0.823   4.222  17.564  0.4187 -0.3120 -0.1459
  583MPD2    H5 8651   0.855   4.225  17.660 -0.3189 -2.3091  0.1734
  583MPD2    N1 8652   0.969   4.101  17.122 -0.9087 -0.3305  0.6987
  583MPD2    H7 8653   0.933   4.192  17.092 -2.3282 -0.6759  1.3507
  584TMC3    C1 8654   0.696   4.409  17.646 -0.1169  0.3861 -0.6898
  584TMC3    C2 8655   0.578   4.488  17.636 -0.9530  0.5754 -0.2393
  584TMC3    C3 8656   0.565   4.592   0.031 -0.9216  0.3174  0.2577
  584TMC3    C4 8657   0.793   4.438   0.047 -0.0798  0.4962 -0.3099
  584TMC3    C5 8658   0.773   4.538   0.138  0.1397 -0.0554 -0.3520
  584TMC3    C6 8659   0.663   4.619   0.120  0.4224 -0.8936  0.8107
  584TMC3     C 8660   0.735   4.325  17.529 -0.1488 -0.0609  0.3167
  584TMC3     O 8661   0.677   4.348  17.425 -0.1390  0.0218 -0.9726
  584TMC3     H 8662   0.499   4.469  17.564 -1.8197 -2.0970  1.4491
  584TMC3    H1 8663   0.882   4.381   0.066  0.3455  1.6197  1.1152
  584TMC3    H2 8664   0.656   4.704   0.186  1.6241 -0.5006  0.4230
  584TMC3    C7 8665   0.839   4.530   0.266  0.1023  1.0536 -0.8723
  584TMC3    C8 8666   0.474   4.697  17.693  0.1361 -0.0177 -1.0293
  584TMC3    O1 8667   0.890   4.429   0.312  0.7192 -0.6236 -0.6340
  584TMC3    O2 8668   0.365   4.675  17.647 -0.1616 -0.2135  0.5095
  585MPD2     C 8669   0.030   3.054   1.499 -0.1131 -0.2722  0.3214
  585MPD2    C1 8670   0.097   3.119   1.400  0.5683 -0.3567 -0.1616
  585MPD2    C2 8671   0.127   3.056   1.281  0.6214 -0.0558  0.3313
  585MPD2    C3 8672   0.082   2.930   1.258  0.7520  0.1579  0.4295
  585MPD2    C4 8673   0.006   2.865   1.360  0.2894 -0.1138 -0.0351
  585MPD2    C5 8674   4.699   2.927   1.476 -0.0381  0.5414 -0.4121
  585MPD2     H 8675   0.195   3.103   1.210  0.4878  1.1090  0.9744
  585MPD2    H1 8676   4.694   2.763   1.358  0.9035 -0.3362  0.7609
  585MPD2    H2 8677   0.015   3.095   1.598 -1.8409 -0.2406  0.0457
  585MPD2    H3 8678   4.632   2.884   1.550  0.7417 -0.3492 -0.2296
  585MPD2     N 8679   0.096   2.859   1.134 -0.3906 -0.3518  0.3917
  585MPD2    H5 8680   0.073   2.760   1.128  0.6137 -0.4549 -1.7304
  585MPD2    N1 8681   0.145   3.247   1.431  0.1388  0.0371  0.4609
  585MPD2    H7 8682   0.128   3.270   1.529  0.4125  1.8445  0.0829
  586TMC3    C1 8683   0.115   2.820   0.909 -0.3013 -0.5155  0.2418
  586TMC3    C2 8684   0.167   2.694   0.917  1.1735  0.5092  0.2522
  586TMC3    C3 8685   0.165   2.623   0.799 -0.0357  0.1981  0.3887
  586TMC3    C4 8686   0.059   2.873   0.790  1.1305  0.5779  0.0822
  586TMC3    C5 8687   0.069   2.801   0.676 -0.5308  0.3874  0.3048
  586TMC3    C6 8688   0.115   2.672   0.683 -0.1091  0.3379  0.6565
  586TMC3     C 8689   0.144   2.913   1.013 -0.6261 -0.0283 -0.4428
  586TMC3     O 8690   0.176   3.031   0.989 -0.3164 -0.4807  0.3234
  586TMC3     H 8691   0.200   2.660   1.014 -0.2116  0.2030  0.6121
  586TMC3    H1 8692   0.026   2.976   0.783  0.3202  0.4648  2.2124
  586TMC3    H2 8693   0.126   2.622   0.587  1.4202  1.3370  0.3031
  586TMC3    C7 8694   4.698   2.819   0.575  0.0755  0.0898 -0.1718
  586TMC3    C8 8695   0.241   2.495   0.798 -0.3867  0.1291  0.3448
  586TMC3    O1 8696   4.659   2.722   0.512 -0.7665 -0.5915  0.0236
  586TMC3    O2 8697   0.324   2.480   0.890 -0.0407 -0.1476  0.0851
  587TMC3    C1 8698   2.148   1.408  16.863  0.3517 -0.1820 -1.2193
  587TMC3    C2 8699   2.091   1.506  16.778 -0.0004 -0.4252  0.1996
  587TMC3    C3 8700   2.155   1.528  16.657  0.1105  0.8040 -0.4326
  587TMC3    C4 8701   2.249   1.335  16.819  0.5029 -0.1251  0.3122
  587TMC3    C5 8702   2.307   1.352  16.698 -0.4635 -0.7045 -0.3229
  587TMC3    C6 8703   2.263   1.452  16.620  0.4282 -0.2773 -0.7139
  587TMC3     C 8704   2.085   1.379  16.996 -0.0274  0.2864  0.2486
  587TMC3     O 8705   2.143   1.311  17.079  0.0629 -0.4755 -0.2167
  587TMC3     H 8706   2.031   1.582  16.825  0.3168  1.6139 -2.7152
  587TMC3    H1 8707   2.287   1.248  16.870 -0.4697 -0.2904  0.7462
  587TMC3    H2 8708   2.307   1.470  16.522  0.4346  0.6936 -0.5347
  587TMC3    C7 8709   2.450   1.317  16.690 -0.4119 -0.1245  0.7939
  587TMC3    C8 8710   2.141   1.663  16.596 -0.4976 -0.9708 -0.1995
  587TMC3    O1 8711   2.495   1.321  16.574  0.1602  0.0771  0.2534
  587TMC3    O2 8712   2.245   1.702  16.540 -0.0297 -0.8483 -0.4699
  588TMC3    C1 8713   4.463   0.119  10.106 -0.0246 -0.6942  0.3084
  588TMC3    C2 8714   4.419   4.713  10.128 -0.1010  0.4930  0.1469
  588TMC3    C3 8715   4.514   4.614  10.126  0.9594  0.3322  0.7300
  588TMC3    C4 8716   4.588   0.150  10.048  0.3786  0.7494 -0.2275
  588TMC3    C5 8717   4.676   0.046  10.037  0.6082 -0.9708 -0.3360
  588TMC3    C6 8718   4.637   4.637  10.073 -0.1785 -0.0340 -0.6028
  588TMC3     C 8719   4.385   0.229  10.143 -0.0728 -0.3530  0.2983
  588TMC3     O 8720   4.265   0.222  10.141 -0.0640 -0.2478  0.0735
  588TMC3     H 8721   4.325   4.695  10.179 -0.4515  2.2990  0.1236
  588TMC3    H1 8722   4.608   0.245   9.999  0.4573  0.7229 -0.2474
  588TMC3    H2 8723   4.707   4.555  10.069  0.6148  0.6439 -0.5489
  588TMC3    C7 8724   0.088   0.080   9.999 -1.3173  0.1790 -0.3977
  588TMC3    C8 8725   4.466   4.486  10.133  0.2114 -0.9849  0.1072
  588TMC3    O1 8726   0.152   0.001   9.931 -0.5157  0.2915 -0.8377
  588TMC3    O2 8727   4.343   4.475  10.122  0.1470  0.4539  0.1695
  589TMC3    C1 8728   3.269   1.952   1.689 -0.0833 -0.0539  0.2766
  589TMC3    C2 8729   3.360   1.935   1.791 -0.6557  0.8752 -0.2472
  589TMC3    C3 8730   3.461   1.846   1.778  0.6051  0.2338 -0.5421
  589TMC3    C4 8731   3.279   1.873   1.579  0.2469  0.1268 -0.2419
  589TMC3    C5 8732   3.385   1.792   1.565  0.1551 -0.0070 -0.5283
  589TMC3    C6 8733   3.477   1.772   1.666 -0.0798 -0.3331 -0.3728
  589TMC3     C 8734   3.180   2.066   1.685  0.1867  0.0465  0.5163
  589TMC3     O 8735   3.156   2.101   1.569 -0.7239  0.1390  0.9437
  589TMC3     H 8736   3.357   1.996   1.881  1.2270  1.4749 -0.5910
  589TMC3    H1 8737   3.215   1.892   1.494 -1.3570  2.0853  1.4147
  589TMC3    H2 8738   3.559   1.702   1.657  1.8140  1.7292  0.8314
  589TMC3    C7 8739   3.407   1.724   1.443 -0.4400 -0.2334  0.0221
  589TMC3    C8 8740   3.558   1.832   1.885  0.7580 -0.8892 -0.2878
  589TMC3    O1 8741   3.458   1.613   1.449 -0.1166 -0.0225  0.5190
  589TMC3    O2 8742   3.521   1.862   1.996 -0.1045  0.1702  0.2752
  590MPD2     C 8743   3.106   0.327  16.846 -0.4947 -0.3983  0.4977
  590MPD2    C1 8744   3.032   0.362  16.732  0.0084 -0.1086 -0.6409
  590MPD2    C2 8745   3.099   0.415  16.622 -0.1311 -0.4056  0.1923
  590MPD2    C3 8746   3.231   0.411  16.612 -0.4567  0.1031 -0.0561
  590MPD2    C4 8747   3.302   0.378  16.724  0.0599 -0.2067  0.1689
  590MPD2    C5 8748   3.241   0.345  16.840 -0.7148 -0.3753  0.4792
  590MPD2     H 8749   3.043   0.439  16.533  0.7072  0.7271 -0.0306
  590MPD2    H1 8750   3.410   0.374  16.732  0.3501  0.1645 -3.4700
  590MPD2    H2 8751   3.053   0.305  16.937  1.8343  0.3896  2.0304
  590MPD2    H3 8752   3.299   0.326  16.929  0.7282 -1.2025 -0.6395
  590MPD2     N 8753   3.284   0.470  16.490 -0.0362  0.1173 -0.1099
  590MPD2    H5 8754   3.215   0.496  16.420 -0.2651  0.0913  0.1087
  590MPD2    N1 8755   2.892   0.363  16.750 -0.1179  0.5971 -0.2903
  590MPD2    H7 8756   2.855   0.343  16.842 -1.9447 -0.2379 -1.2234
  591TMC3    C1 8757   3.426   0.568  16.328 -0.2785 -0.9663 -1.4594
  591TMC3    C2 8758   3.554   0.587  16.283  0.8525 -0.0013 -0.1602
  591TMC3    C3 8759   3.577   0.658  16.166  0.0165  0.3611  0.7120
  591TMC3    C4 8760   3.316   0.612  16.258 -0.4381  0.5302  0.3747
  591TMC3    C5 8761   3.343   0.688  16.146 -0.3368  0.4586  0.1508
  591TMC3    C6 8762   3.467   0.700  16.098  0.5420 -0.2668 -0.1034
  591TMC3     C 8763   3.413   0.505  16.458 -0.1618 -0.0964 -0.1803
  591TMC3     O 8764   3.515   0.463  16.512  0.2730  0.0473 -0.2126
  591TMC3     H 8765   3.641   0.546  16.333  0.1693  0.2274  1.2036
  591TMC3    H1 8766   3.215   0.594  16.291  0.1998 -0.5306  1.7756
  591TMC3    H2 8767   3.485   0.764  16.012 -2.5247  0.3204 -0.3162
  591TMC3    C7 8768   3.225   0.739  16.084  0.2327  0.4705  0.2020
  591TMC3    C8 8769   3.697   0.616  16.085  0.5655 -0.0710  0.0948
  591TMC3    O1 8770   3.111   0.725  16.131 -0.0350  0.1333 -0.4423
  591TMC3    O2 8771   3.767   0.520  16.113  0.3037  0.0191  0.4099
  592MPD2     C 8772   3.713   2.167  11.919 -0.0259  0.2988 -0.3651
  592MPD2    C1 8773   3.586   2.199  11.868  0.3933 -0.1556  0.0900
  592MPD2    C2 8774   3.471   2.143  11.922  0.0547  0.6781  1.3443
  592MPD2    C3 8775   3.479   2.074  12.042 -0.1942 -0.0038  0.2905
  592MPD2    C4 8776   3.607   2.043  12.093 -0.7812  0.6592 -0.1898
  592MPD2    C5 8777   3.725   2.086  12.031 -0.1565  0.6259  0.3858
  592MPD2     H 8778   3.372   2.174  11.892  0.1667  1.1749  1.4870
  592MPD2    H1 8779   3.629   1.977  12.175 -0.5490  0.0722 -0.7216
  592MPD2    H2 8780   3.800   2.219  11.880 -2.0690  5.3911  1.7570
  592MPD2    H3 8781   3.820   2.068  12.079 -0.0329  0.9389  0.2599
  592MPD2     N 8782   3.357   2.038  12.104 -1.4027  0.1981 -0.4239
  592MPD2    H5 8783   3.270   2.061  12.059 -1.9591 -3.7333 -1.3368
  592MPD2    N1 8784   3.577   2.309  11.770  0.2121 -0.0077  0.3672
  592MPD2    H7 8785   3.664   2.359  11.754 -1.9910  2.8118 -2.5474
  593TMC3    C1 8786   3.462   2.463  11.624 -0.6661  0.0077 -0.2772
  593TMC3    C2 8787   3.379   2.550  11.687  0.1231 -0.2820 -0.1040
  593TMC3    C3 8788   3.433   2.677  11.714 -0.7841  0.0223 -0.4739
  593TMC3    C4 8789   3.578   2.508  11.573 -0.2143 -0.3002 -0.0853
  593TMC3    C5 8790   3.617   2.640  11.577  0.4916 -0.6125  0.0737
  593TMC3    C6 8791   3.551   2.732  11.658  0.0317 -0.2061 -0.0129
  593TMC3     C 8792   3.467   2.330  11.690  0.5287 -0.0315  0.4708
  593TMC3     O 8793   3.357   2.277  11.696 -0.1058 -0.5055  0.5568
  593TMC3     H 8794   3.296   2.520  11.750  1.3055  1.0337  2.1261
  593TMC3    H1 8795   3.642   2.428  11.539  1.8883  1.0344  0.7044
  593TMC3    H2 8796   3.588   2.834  11.666 -1.8471  0.4183  0.7504
  593TMC3    C7 8797   3.734   2.692  11.505 -0.1710 -0.1541 -0.6096
  593TMC3    C8 8798   3.370   2.755  11.814  0.4877 -0.3384  0.4507
  593TMC3    O1 8799   3.756   2.811  11.529  0.4308 -0.6691  0.1653
  593TMC3    O2 8800   3.247   2.759  11.825 -0.0379 -0.2111 -0.6360
  594MPD2     C 8801   2.250   1.327  13.831  0.6044  0.1099 -0.1390
  594MPD2    C1 8802   2.286   1.303  13.961 -0.2472  0.4828 -0.5903
  594MPD2    C2 8803   2.403   1.354  14.009  0.1805 -0.2122 -0.2251
  594MPD2    C3 8804   2.496   1.413  13.928  0.3070  0.3255 -0.1172
  594MPD2    C4 8805   2.472   1.423  13.788 -0.4414 -0.7353 -0.0342
  594MPD2    C5 8806   2.344   1.391  13.752 -0.0557 -0.4911  0.0888
  594MPD2     H 8807   2.439   1.343  14.111 -1.0800  2.5182  0.5188
  594MPD2    H1 8808   2.544   1.450  13.711 -0.3274  0.9724  0.6628
  594MPD2    H2 8809   2.159   1.288  13.787  0.9589 -0.4733 -0.3437
  594MPD2    H3 8810   2.325   1.383  13.645  2.0573  0.4151 -0.3501
  594MPD2     N 8811   2.610   1.460  13.988 -0.0411  0.3385  0.9399
  594MPD2    H5 8812   2.609   1.469  14.090 -1.1045 -0.5335  1.0008
  594MPD2    N1 8813   2.191   1.239  14.044 -0.4421 -0.1849  0.1536
  594MPD2    H7 8814   2.101   1.219  14.000 -0.3687  0.2356 -0.1939
  595TMC3    C1 8815   3.003   1.459  14.144  1.0958  0.7639  0.3489
  595TMC3    C2 8816   2.947   1.480  14.017  0.5734  0.0769  0.0752
  595TMC3    C3 8817   2.821   1.538  14.023  0.1387  0.5137  0.6915
  595TMC3    C4 8818   2.946   1.498  14.267 -0.4344  0.0400  0.7092
  595TMC3    C5 8819   2.827   1.565  14.260 -0.1034  0.2544  0.3947
  595TMC3    C6 8820   2.761   1.582  14.136 -0.1490 -1.1569  0.2041
  595TMC3     C 8821   3.149   1.435  14.150 -0.6701  0.3959  0.1389
  595TMC3     O 8822   3.193   1.382  14.252  0.0101 -0.3139 -0.3744
  595TMC3     H 8823   2.988   1.454  13.920 -0.1236  0.0280 -0.2019
  595TMC3    H1 8824   2.999   1.466  14.356  0.7835 -0.4766 -0.2158
  595TMC3    H2 8825   2.667   1.636  14.129  0.0507 -0.9781 -1.0305
  595TMC3    C7 8826   2.736   1.580  14.382 -0.1363  0.5929 -0.1149
  595TMC3    C8 8827   2.717   1.509  13.921 -0.4926  0.5518  0.0515
  595TMC3    O1 8828   2.617   1.582  14.355  0.1005 -1.0219  0.4119
  595TMC3    O2 8829   2.763   1.480  13.811 -0.3763 -0.0922 -0.3689
  596MPD2     C 8830   1.761   3.923  17.031 -0.1338  0.6087 -0.2033
  596MPD2    C1 8831   1.753   4.046  16.988  0.1845  0.2497 -0.7069
  596MPD2    C2 8832   1.759   4.069  16.852  0.2273  0.1808  0.8233
  596MPD2    C3 8833   1.772   3.967  16.762 -0.2674  0.0325 -0.3685
  596MPD2    C4 8834   1.780   3.837  16.812  0.0541 -0.5099 -0.7498
  596MPD2    C5 8835   1.783   3.821  16.948  0.3907  0.3489  0.0254
  596MPD2     H 8836   1.754   4.175  16.830  2.2094  0.0360 -0.2679
  596MPD2    H1 8837   1.799   3.752  16.747 -1.7712 -1.2391 -0.3251
  596MPD2    H2 8838   1.751   3.894  17.135 -0.4560 -1.4045 -0.7946
  596MPD2    H3 8839   1.783   3.722  16.991 -2.5071  0.2997 -0.1293
  596MPD2     N 8840   1.791   3.984  16.619  0.4206 -0.4267 -0.1083
  596MPD2    H5 8841   1.772   3.907  16.555  2.2539  0.1912 -1.3812
  596MPD2    N1 8842   1.713   4.158  17.065 -0.1741 -0.1026 -0.1080
  596MPD2    H7 8843   1.705   4.244  17.013 -1.2775  0.5971  1.2235
  597TMC3    C1 8844   1.693   4.304  17.251  0.1786 -0.4646  0.2314
  597TMC3    C2 8845   1.723   4.408  17.164  0.4299 -0.4825  0.0832
  597TMC3    C3 8846   1.696   4.531  17.211 -1.0523 -0.4897  0.3118
  597TMC3    C4 8847   1.639   4.323  17.376  0.1042 -0.1286  0.4628
  597TMC3    C5 8848   1.615   4.445  17.419 -0.3650  0.4626 -0.0424
  597TMC3    C6 8849   1.631   4.549  17.330 -0.0600  0.3989  0.5315
  597TMC3     C 8850   1.700   4.165  17.198  0.3670 -0.8366 -0.4533
  597TMC3     O 8851   1.705   4.085  17.289  0.0164  0.2658  0.2800
  597TMC3     H 8852   1.779   4.391  17.073 -0.2433 -0.2785 -0.3726
  597TMC3    H1 8853   1.651   4.247  17.451  0.9596  1.2067  1.6714
  597TMC3    H2 8854   1.607   4.649  17.365 -0.8099  0.1237  0.8059
  597TMC3    C7 8855   1.520   4.464  17.524  0.2668  0.0681  0.4993
  597TMC3    C8 8856   1.694   4.638  17.115 -0.0098  0.4360 -0.2700
  597TMC3    O1 8857   1.524   4.396  17.625  0.0424  0.3890 -0.0966
  597TMC3    O2 8858   1.615   0.002  17.147  0.4645 -0.1150  0.0330
  598TMC3    C1 8859   4.317   0.969  15.386  0.2645  0.0667 -0.0514
  598TMC3    C2 8860   4.249   0.855  15.350 -0.5383  0.4176 -0.3549
  598TMC3    C3 8861   4.197   0.859  15.228  0.6041 -0.1762  0.3862
  598TMC3    C4 8862   4.335   1.071  15.300 -0.4105  0.3102  0.0249
  598TMC3    C5 8863   4.300   1.055  15.172 -0.0359 -0.7810  0.8028
  598TMC3    C6 8864   4.227   0.947  15.131  0.1420 -0.3139  0.4552
  598TMC3     C 8865   4.311   0.987  15.537  0.4200  0.0903 -0.3517
  598TMC3     O 8866   4.273   0.893  15.602  0.3524 -0.7031 -0.2188
  598TMC3     H 8867   4.237   0.775  15.423 -2.5206  0.8681 -0.1899
  598TMC3    H1 8868   4.383   1.158  15.343 -1.1982  1.7032 -1.8921
  598TMC3    H2 8869   4.185   0.951  15.032 -2.7167 -0.1443  1.6732
  598TMC3    C7 8870   4.323   1.161  15.077 -0.3427  1.4241 -0.2882
  598TMC3    C8 8871   4.099   0.761  15.189  0.2906 -0.6210 -0.6320
  598TMC3    O1 8872   4.308   1.132  14.961  0.2379 -1.1330 -0.2711
  598TMC3    O2 8873   4.072   0.763  15.069 -0.8078 -0.0725  0.2075
  599MPD2     C 8874   4.542   3.630  16.134  0.1133 -1.0869 -0.1668
  599MPD2    C1 8875   4.497   3.497  16.136 -0.2029  0.4973 -0.7072
  599MPD2    C2 8876   4.369   3.457  16.187 -0.0501  0.1186  0.0668
  599MPD2    C3 8877   4.287   3.549  16.241 -0.3430 -0.0566 -0.4795
  599MPD2    C4 8878   4.324   3.683  16.242 -0.4626  0.0860 -0.6272
  599MPD2    C5 8879   4.448   3.719  16.187  0.3732  0.2274 -0.2686
  599MPD2     H 8880   4.341   3.352  16.178  2.3216 -0.4036 -1.2811
  599MPD2    H1 8881   4.265   3.759  16.291  0.1629  0.5134 -0.5374
  599MPD2    H2 8882   4.637   3.669  16.100  0.9320 -3.0445 -0.1435
  599MPD2    H3 8883   4.484   3.821  16.174  2.3699 -1.0562 -4.8886
  599MPD2     N 8884   4.170   3.515  16.308  0.1484  0.3296 -0.2754
  599MPD2    H5 8885   4.127   3.593  16.356 -0.2764 -0.8387  1.2174
  599MPD2    N1 8886   4.593   3.405  16.076  0.0017  0.2266 -0.2726
  599MPD2    H7 8887   4.677   3.444  16.035  0.1762  0.3721  0.2194
  600TMC3    C1 8888   4.005   3.400  16.419  0.1512  0.0094 -0.3475
  600TMC3    C2 8889   3.898   3.304  16.414 -0.2232 -0.2170 -0.4770
  600TMC3    C3 8890   3.835   3.285  16.531  0.4338 -0.5132  0.4961
  600TMC3    C4 8891   4.050   3.453  16.538  0.5412  0.2100  0.4904
  600TMC3    C5 8892   3.964   3.442  16.644 -0.3763  0.2483 -0.5939
  600TMC3    C6 8893   3.855   3.363  16.644 -0.7959 -0.5008  0.4087
  600TMC3     C 8894   4.098   3.398  16.306  0.7586 -0.6649  0.1317
  600TMC3     O 8895   4.099   3.313  16.221  0.0747  0.1635 -0.2996
  600TMC3     H 8896   3.868   3.238  16.333 -1.6155 -0.3401  0.1476
  600TMC3    H1 8897   4.138   3.517  16.541  0.6370  0.0725  0.5918
  600TMC3    H2 8898   3.788   3.355  16.729 -0.3022 -0.6904  0.7833
  600TMC3    C7 8899   3.983   3.521  16.762 -0.1861  0.5372 -0.0584
  600TMC3    C8 8900   3.741   3.171  16.544 -0.5568  0.2097  0.1787
  600TMC3    O1 8901   3.906   3.511  16.855  0.2778 -0.0617  0.7450
  600TMC3    O2 8902   3.699   3.119  16.445 -0.1478 -0.6968  0.0488
  601MPD2     C 8903   0.970   1.991   0.183 -1.5849 -0.3558  0.2041
  601MPD2    C1 8904   0.849   1.964   0.236  0.7616 -0.2736  0.1338
  601MPD2    C2 8905   0.817   1.838   0.288 -0.0117  0.3281 -1.1049
  601MPD2    C3 8906   0.918   1.745   0.285  0.3330 -0.0496 -0.0521
  601MPD2    C4 8907   1.044   1.779   0.241 -0.0418  0.2387 -0.1148
  601MPD2    C5 8908   1.071   1.905   0.188  0.4002 -0.1468  0.9776
  601MPD2     H 8909   0.717   1.820   0.324 -0.0360 -1.3254 -1.9670
  601MPD2    H1 8910   1.123   1.706   0.249  0.6553  1.4441  3.6202
  601MPD2    H2 8911   1.001   2.092   0.155 -1.0140 -0.5929 -0.0292
  601MPD2    H3 8912   1.167   1.934   0.147 -0.8867 -0.0213 -1.9433
  601MPD2     N 8913   0.896   1.611   0.336  0.1306  0.9019  0.5239
  601MPD2    H5 8914   0.982   1.559   0.324 -0.7576 -0.0001 -1.9387
  601MPD2    N1 8915   0.751   2.062   0.254 -0.5978 -0.0960 -0.2428
  601MPD2    H7 8916   0.661   2.026   0.283 -0.1538  0.6618  2.0431
  602TMC3    C1 8917   0.648   2.269   0.260 -0.0667 -0.9275  0.4341
  602TMC3    C2 8918   0.649   2.392   0.318 -0.2705 -0.3389  0.0425
  602TMC3    C3 8919   0.534   2.462   0.347 -0.7000  0.0045  0.4896
  602TMC3    C4 8920   0.533   2.218   0.214  0.2282  0.4739 -0.0885
  602TMC3    C5 8921   0.426   2.292   0.231 -0.3002  0.2533  0.0160
  602TMC3    C6 8922   0.419   2.403   0.306 -0.6295 -0.6986 -0.1791
  602TMC3     C 8923   0.770   2.198   0.251 -0.0541  0.1794  0.5740
  602TMC3     O 8924   0.878   2.260   0.257  0.4669 -0.0313  0.4258
  602TMC3     H 8925   0.745   2.438   0.336  0.0620 -0.5568 -1.1689
  602TMC3    H1 8926   0.535   2.130   0.150  1.4144 -0.7690  1.6823
  602TMC3    H2 8927   0.325   2.456   0.316  1.0464  1.5233  3.7879
  602TMC3    C7 8928   0.311   2.266   0.138 -0.3348  0.2340 -0.1661
  602TMC3    C8 8929   0.537   2.604   0.380 -0.7510 -0.7891  0.1835
  602TMC3    O1 8930   0.318   2.158   0.083  0.2722  1.0772  0.1499
  602TMC3    O2 8931   0.649   2.656   0.383 -0.3473 -0.4757 -1.0819
  603TMC3    C1 8932   0.499   1.682  11.109  0.1807 -0.1683  0.7206
  603TMC3    C2 8933   0.529   1.668  11.241  0.8631 -0.1379 -0.0097
  603TMC3    C3 8934   0.570   1.779  11.312  0.7401  0.3348 -0.0736
  603TMC3    C4 8935   0.509   1.801  11.046 -0.0422  0.1471  0.5780
  603TMC3    C5 8936   0.549   1.913  11.115 -0.5051 -1.7429  0.6993
  603TMC3    C6 8937   0.581   1.901  11.250  0.9491  0.3563 -0.6291
  603TMC3     C 8938   0.424   1.575  11.042 -0.4137 -0.1144 -0.1651
  603TMC3     O 8939   0.386   1.592  10.927  0.1330  0.3471 -0.8916
  603TMC3     H 8940   0.535   1.576  11.298 -1.5704 -0.0564  0.3852
  603TMC3    H1 8941   0.497   1.809  10.939 -0.6362 -3.8867  0.3670
  603TMC3    H2 8942   0.600   1.990  11.308  2.3054 -1.5750  1.8804
  603TMC3    C7 8943   0.507   2.043  11.079  0.0199 -0.0288 -1.0679
  603TMC3    C8 8944   0.545   1.771  11.457  0.7411  0.1602 -0.2472
  603TMC3    O1 8945   0.548   2.136  11.149  0.2143  0.2414 -0.2038
  603TMC3    O2 8946   0.455   1.701  11.500 -0.6811  0.4798  0.2635
  604MPD2     C 8947   0.473   4.498  16.786 -0.1783  0.8181  0.2430
  604MPD2    C1 8948   0.509   4.609  16.854  0.0044  0.4818  0.1264
  604MPD2    C2 8949   0.553   0.004  16.786  0.5297  0.4035  0.5457
  604MPD2    C3 8950   0.555   4.717  16.649 -0.7028 -0.6118 -0.2356
  604MPD2    C4 8951   0.539   4.593  16.581  0.2227  0.4696 -0.3621
  604MPD2    C5 8952   0.495   4.485  16.655  0.1203  0.0276 -0.2623
  604MPD2     H 8953   0.576   0.099  16.833  0.0866 -0.1028  1.8012
  604MPD2    H1 8954   0.550   4.572  16.475 -2.6876 -1.2729 -0.3088
  604MPD2    H2 8955   0.462   4.404  16.839 -0.5058  0.1332 -1.0349
  604MPD2    H3 8956   0.479   4.387  16.612 -0.4762  0.1698 -0.3691
  604MPD2     N 8957   0.590   0.117  16.581 -0.0127  0.0909  0.3316
  604MPD2    H5 8958   0.584   0.202  16.635 -0.1368 -0.1047  0.6266
  604MPD2    N1 8959   0.498   4.604  16.995 -0.7057  0.3597  0.2680
  604MPD2    H7 8960   0.448   4.527  17.037 -0.9572 -0.4830 -1.5490
  605TMC3    C1 8961   0.495   4.683  17.214  0.2614  0.5540 -0.4155
  605TMC3    C2 8962   0.540   0.053  17.295 -0.6548 -0.2278  0.3515
  605TMC3    C3 8963   0.454   0.132  17.367  0.2923  0.9607  0.0208
  605TMC3    C4 8964   0.360   4.650  17.215 -0.4535 -0.5847 -0.1734
  605TMC3    C5 8965   0.272   4.721  17.285  0.2192 -0.2428  0.2250
  605TMC3    C6 8966   0.319   0.105  17.361  0.1310 -0.7600  0.7132
  605TMC3     C 8967   0.554   4.695  17.082 -0.4944 -0.3167 -0.0840
  605TMC3     O 8968   0.633   0.063  17.068 -0.0607  0.6586 -0.4718
  605TMC3     H 8969   0.646   0.070  17.301 -0.3432 -1.8886 -0.3473
  605TMC3    H1 8970   0.316   4.589  17.137 -3.2882  0.0678  0.8891
  605TMC3    H2 8971   0.248   0.159  17.422 -0.1190  1.5447 -1.6089
  605TMC3    C7 8972   0.164   0.030  17.194 -0.5689 -0.9002  0.3246
  605TMC3    C8 8973   0.494   0.268  17.373  0.4109  0.0556  0.6283
  605TMC3    O1 8974   0.197   0.089  17.098  0.3905 -0.5389  0.1021
  605TMC3    O2 8975   0.610   0.299  17.388 -0.5888  0.0098 -0.6021
  606TMC3    C1 8976   2.159   3.778  16.959  0.0249 -0.3323  0.3548
  606TMC3    C2 8977   2.175   3.817  17.086  0.0123 -0.7106 -0.6926
  606TMC3    C3 8978   2.144   3.729  17.185  0.0923 -1.0368 -0.5620
  606TMC3    C4 8979   2.118   3.650  16.925  0.1405  0.6471 -0.1004
  606TMC3    C5 8980   2.088   3.569  17.029 -0.7259  0.5826  1.5013
  606TMC3    C6 8981   2.103   3.603  17.164  0.1023 -0.1116  0.7973
  606TMC3     C 8982   2.172   3.885  16.869  0.0363  0.3232 -0.3166
  606TMC3     O 8983   2.206   3.998  16.913 -0.0066 -0.1834 -0.1796
  606TMC3     H 8984   2.223   3.913  17.101 -1.9914  0.2297 -0.2888
  606TMC3    H1 8985   2.101   3.611  16.825 -2.6722  1.2489  0.1494
  606TMC3    H2 8986   2.077   3.534  17.243  0.0880 -1.5763 -0.4889
  606TMC3    C7 8987   2.022   3.444  17.002  0.3608 -0.1242 -0.0409
  606TMC3    C8 8988   2.198   3.752  17.318 -0.0955  0.2980  0.0604
  606TMC3    O1 8989   2.037   3.404  16.887 -0.7863 -0.1646 -0.1798
  606TMC3    O2 8990   2.227   3.652  17.382 -0.0783  0.4355  0.0573
  607MPD2     C 8991   4.018   2.446  12.082  0.7556 -0.4857 -0.9820
  607MPD2    C1 8992   4.150   2.481  12.126  0.3218 -0.1560 -0.6861
  607MPD2    C2 8993   4.179   2.448  12.255  0.1810 -0.1299  0.0778
  607MPD2    C3 8994   4.091   2.372  12.329  1.1515  0.4581  0.2038
  607MPD2    C4 8995   3.964   2.336  12.288  0.6509  0.6798 -0.2345
  607MPD2    C5 8996   3.928   2.379  12.164 -0.2343 -0.5316 -0.2981
  607MPD2     H 8997   4.270   2.483  12.302 -1.1855  0.9626  1.9130
  607MPD2    H1 8998   3.895   2.280  12.350  1.6729 -0.8730 -0.4932
  607MPD2    H2 8999   3.981   2.471  11.983  0.5309  3.4137  0.1096
  607MPD2    H3 9000   3.828   2.353  12.131 -1.2721  2.0972  0.7517
  607MPD2     N 9001   4.135   2.326  12.455  0.3705  0.5001  0.3232
  607MPD2    H5 9002   4.224   2.364  12.484  0.8542 -1.4847  1.4646
  607MPD2    N1 9003   4.249   2.544  12.051  0.0702 -0.0314 -0.7077
  607MPD2    H7 9004   4.333   2.576  12.098  0.9198 -1.2629 -1.4048
  608TMC3    C1 9005   4.389   2.594  11.882  0.4127  0.0501  0.2778
  608TMC3    C2 9006   4.496   2.544  11.961  0.4545  0.1659 -0.1542
  608TMC3    C3 9007   4.617   2.583  11.936 -0.3054  0.3448  0.8835
  608TMC3    C4 9008   4.415   2.650  11.760  0.0278 -0.9338  0.4339
  608TMC3    C5 9009   4.545   2.682  11.735 -0.3119 -0.2203  0.0112
  608TMC3    C6 9010   4.645   2.651  11.822 -0.1964 -0.3122 -0.2966
  608TMC3     C 9011   4.253   2.555  11.914  0.6556 -0.0202 -0.4139
  608TMC3     O 9012   4.161   2.570  11.832 -0.1862 -0.3548 -0.6654
  608TMC3     H 9013   4.475   2.491  12.053  0.8994 -2.0211 -1.3093
  608TMC3    H1 9014   4.338   2.673  11.688 -0.5938 -1.7513  0.8470
  608TMC3    H2 9015   0.026   2.675  11.804 -0.1090  0.6422  1.5103
  608TMC3    C7 9016   4.586   2.726  11.605 -0.5794  0.7324 -0.0728
  608TMC3    C8 9017   0.009   2.533  12.016  0.3729 -0.0329 -0.1531
  608TMC3    O1 9018   4.703   2.714  11.573  0.2144  0.1803 -0.6751
  608TMC3    O2 9019   0.107   2.483  11.960  0.1659 -0.3134  0.3663
  609TMC3    C1 9020   2.014   1.296   9.711  0.3029  0.0419 -0.2395
  609TMC3    C2 9021   1.943   1.403   9.666  0.4165  0.0476  0.2127
  609TMC3    C3 9022   2.007   1.526   9.664 -0.9713 -0.1138  0.1158
  609TMC3    C4 9023   2.140   1.309   9.765 -0.3095 -0.2451 -0.9603
  609TMC3    C5 9024   2.197   1.434   9.756  0.3765 -1.1902  0.2537
  609TMC3    C6 9025   2.133   1.540   9.705  0.0225 -0.3091 -0.1424
  609TMC3     C 9026   1.926   1.185   9.759  0.4510  0.0073 -0.4202
  609TMC3     O 9027   1.807   1.209   9.741 -0.1206 -0.6420  0.2953
  609TMC3     H 9028   1.840   1.395   9.634  1.4218  2.3172 -3.6153
  609TMC3    H1 9029   2.185   1.234   9.830 -1.1005  1.4206  1.4747
  609TMC3    H2 9030   2.190   1.630   9.684  0.9643 -0.1735  3.1390
  609TMC3    C7 9031   2.339   1.446   9.771  0.3594  0.2809 -0.2050
  609TMC3    C8 9032   1.915   1.635   9.677  0.0054  0.0180  0.2067
  609TMC3    O1 9033   2.381   1.556   9.808  0.1284  0.2304  0.0491
  609TMC3    O2 9034   1.803   1.606   9.661  0.1847 -0.0325 -0.4339
  610TMC3    C1 9035   4.050   1.773  13.348 -0.3533  0.2975 -0.7114
  610TMC3    C2 9036   3.956   1.676  13.324 -0.3811  0.5112 -0.4914
  610TMC3    C3 9037   4.005   1.545  13.310  0.0075  0.3974  0.0903
  610TMC3    C4 9038   4.185   1.759  13.335  0.3100  0.3378 -0.0919
  610TMC3    C5 9039   4.229   1.637  13.296  0.3146  0.4165  1.2002
  610TMC3    C6 9040   4.138   1.533  13.276  0.0428  0.7918 -0.0800
  610TMC3     C 9041   4.013   1.908  13.382  0.3238 -0.1734  0.1360
  610TMC3     O 9042   4.092   1.959  13.458  0.4114 -0.0524 -0.0899
  610TMC3     H 9043   3.859   1.690  13.369 -0.8332 -0.5762 -1.1275
  610TMC3    H1 9044   4.253   1.842  13.351 -1.3477  1.5921  0.3465
  610TMC3    H2 9045   4.179   1.436  13.251  0.9163  0.9245  0.8176
  610TMC3    C7 9046   4.372   1.610  13.300 -0.0573 -0.3054  0.6271
  610TMC3    C8 9047   3.911   1.456  13.235  0.3632 -0.1023 -0.7187
  610TMC3    O1 9048   4.408   1.493  13.290  0.2007  0.1541  0.8204
  610TMC3    O2 9049   3.812   1.513  13.191 -0.4296 -0.0896  0.1875
  611MPD2     C 9050   4.324   1.649  10.521 -0.4000  0.4856 -0.1948
  611MPD2    C1 9051   4.271   1.752  10.455 -0.1261  0.3261  0.1295
  611MPD2    C2 9052   4.359   1.852  10.411 -0.0535 -0.6226 -0.2025
  611MPD2    C3 9053   4.498   1.852  10.440  0.3050 -0.5255 -0.2795
  611MPD2    C4 9054   4.539   1.754  10.517  0.1757 -0.7101 -0.1028
  611MPD2    C5 9055   4.457   1.653  10.556  0.3595 -0.6175 -0.6300
  611MPD2     H 9056   4.319   1.943  10.369  0.2746 -0.1719  0.4599
  611MPD2    H1 9057   4.645   1.742  10.534 -0.0795 -1.3376  1.0679
  611MPD2    H2 9058   4.263   1.569  10.560  0.0790 -0.8006 -2.0722
  611MPD2    H3 9059   4.493   1.565  10.606  0.3266  0.1022  0.6642
  611MPD2     N 9060   4.588   1.950  10.395 -0.4738 -0.2964 -0.1631
  611MPD2    H5 9061   4.686   1.946  10.421 -1.2750  2.6219  3.3107
  611MPD2    N1 9062   4.133   1.756  10.441 -1.0699 -0.5411  0.3042
  611MPD2    H7 9063   4.079   1.682  10.485  0.3402 -1.2959  0.7577
  612TMC3    C1 9064   4.656   2.144  10.290  1.2420 -1.6054  0.7132
  612TMC3    C2 9065   0.012   2.174  10.397  0.8259  0.1126 -0.8182
  612TMC3    C3 9066   0.094   2.281  10.390  0.2886  0.3372  0.5320
  612TMC3    C4 9067   4.650   2.224  10.179 -0.5301  0.1822  0.5396
  612TMC3    C5 9068   0.019   2.327  10.159  0.0697 -0.1843  0.1461
  612TMC3    C6 9069   0.102   2.358  10.269 -0.4409 -0.2184  0.9740
  612TMC3     C 9070   4.561   2.038  10.296  0.1787 -0.3312 -0.3277
  612TMC3     O 9071   4.471   2.035  10.214 -0.0441  1.0177  0.2495
  612TMC3     H 9072   4.715   2.129  10.494  1.1370 -0.9399 -1.2483
  612TMC3    H1 9073   4.586   2.193  10.097  2.2185 -2.8522 -0.4391
  612TMC3    H2 9074   0.168   2.444  10.258  0.8958 -1.4921 -1.0188
  612TMC3    C7 9075   0.017   2.413  10.052 -0.1616  0.7127 -0.1188
  612TMC3    C8 9076   0.157   2.336  10.513 -0.0458 -0.2000 -0.2419
  612TMC3    O1 9077   0.061   2.526  10.062 -0.3120 -0.1493  0.3783
  612TMC3    O2 9078   0.176   2.457  10.517 -0.3178 -0.8248  0.4209
  613MPD2     C 9079   2.962   4.077  16.949  0.1541  0.3754 -0.2442
  613MPD2    C1 9080   2.892   4.140  16.846  0.6082  0.8948  0.2247
  613MPD2    C2 9081   2.805   4.057  16.778  0.5560  0.5929  0.3261
  613MPD2    C3 9082   2.788   3.922  16.801 -0.0282 -0.0989 -0.6347
  613MPD2    C4 9083   2.868   3.862  16.893 -0.4078  0.4270 -0.3904
  613MPD2    C5 9084   2.949   3.941  16.968  0.4746  0.3136  0.5648
  613MPD2     H 9085   2.756   4.107  16.695  0.2396 -1.1542 -0.5515
  613MPD2    H1 9086   2.879   3.758  16.919 -0.4801  0.3513 -0.6599
  613MPD2    H2 9087   3.028   4.135  17.013  1.9597 -1.7338 -0.1882
  613MPD2    H3 9088   3.005   3.883  17.041  1.1967  0.7392  0.3410
  613MPD2     N 9089   2.697   3.843  16.726 -0.8381 -0.1790 -0.3660
  613MPD2    H5 9090   2.672   3.753  16.765 -0.6797  0.0429  0.2514
  613MPD2    N1 9091   2.919   4.278  16.812 -0.2822  0.1270  0.1872
  613MPD2    H7 9092   2.986   4.328  16.869 -0.7248 -0.5108  1.2609
  614TMC3    C1 9093   2.856   4.291  16.573  0.1318 -0.5220 -0.1760
  614TMC3    C2 9094   2.941   4.188  16.537  0.5160  0.1092  0.1683
  614TMC3    C3 9095   2.925   4.143  16.408 -0.2909 -0.2628 -0.4132
  614TMC3    C4 9096   2.780   4.355  16.489 -0.1044 -0.3367 -0.5391
  614TMC3    C5 9097   2.778   4.314  16.358 -0.2733  0.8082  0.3708
  614TMC3    C6 9098   2.861   4.218  16.311 -0.7613  0.0477  0.2535
  614TMC3     C 9099   2.863   4.350  16.708 -0.2158 -0.3216  1.2907
  614TMC3     O 9100   2.852   4.471  16.712  0.3579 -0.3475 -0.2288
  614TMC3     H 9101   2.999   4.136  16.612  0.4741  3.3433  2.4210
  614TMC3    H1 9102   2.717   4.437  16.520  1.9468  1.5252 -1.2927
  614TMC3    H2 9103   2.866   4.186  16.208  0.0994  0.9598  0.0232
  614TMC3    C7 9104   2.704   4.397  16.264  0.8983  0.1843  0.4084
  614TMC3    C8 9105   2.956   4.003  16.389 -0.2154 -0.2737  0.0563
  614TMC3    O1 9106   2.663   4.506  16.302 -0.5128 -0.2549  0.2822
  614TMC3    O2 9107   2.977   3.930  16.482  0.7101  0.5218 -0.1990
  615MPD2     C 9108   1.808   1.083  16.418  0.0286 -0.2932  0.5739
  615MPD2    C1 9109   1.703   1.028  16.496  0.9942 -1.1229  0.1287
  615MPD2    C2 9110   1.633   0.923  16.448  0.1642  0.2158  0.2246
  615MPD2    C3 9111   1.666   0.874  16.324 -0.4936 -0.4817  0.0875
  615MPD2    C4 9112   1.774   0.919  16.252  0.5468 -0.4680  0.8123
  615MPD2    C5 9113   1.844   1.028  16.299 -0.4001  0.0166  0.1672
  615MPD2     H 9114   1.546   0.891  16.505  0.1415 -0.1684 -0.0296
  615MPD2    H1 9115   1.798   0.883  16.153 -2.5057 -0.1611 -0.0260
  615MPD2    H2 9116   1.871   1.168  16.440 -0.5509 -0.0959  1.4645
  615MPD2    H3 9117   1.933   1.068  16.252  0.0736 -0.5464  0.5803
  615MPD2     N 9118   1.586   0.771  16.260  0.3056 -0.0262  0.2823
  615MPD2    H5 9119   1.607   0.763  16.161 -0.7595 -0.6525  0.1039
  615MPD2    N1 9120   1.658   1.090  16.617 -0.5309 -0.4346 -0.7370
  615MPD2    H7 9121   1.573   1.055  16.659 -0.0965 -0.7625 -0.1442
  616TMC3    C1 9122   1.673   1.202  16.822 -0.4670 -0.5633 -0.0323
  616TMC3    C2 9123   1.770   1.176  16.913 -0.0625 -0.5088 -0.0136
  616TMC3    C3 9124   1.746   1.103  17.024 -0.2024 -0.3484 -0.1742
  616TMC3    C4 9125   1.545   1.191  16.855 -0.5305  0.0449 -0.4588
  616TMC3    C5 9126   1.519   1.123  16.969  0.6492 -0.1519 -0.6692
  616TMC3    C6 9127   1.616   1.074  17.051 -1.3203 -0.4386 -0.0553
  616TMC3     C 9128   1.728   1.185  16.687 -0.2012  0.7593 -0.6532
  616TMC3     O 9129   1.829   1.246  16.663  0.0887  0.1716 -0.2933
  616TMC3     H 9130   1.872   1.205  16.893 -0.8139  1.1259 -1.4635
  616TMC3    H1 9131   1.470   1.213  16.780  0.5399 -0.2115 -1.6267
  616TMC3    H2 9132   1.605   1.014  17.141  1.2118 -0.9236 -0.0561
  616TMC3    C7 9133   1.389   1.148  17.030  0.6506  0.0333  0.2154
  616TMC3    C8 9134   1.855   1.062  17.109 -0.1593  0.2799  0.0228
  616TMC3    O1 9135   1.308   1.192  16.949  0.4330 -0.1082 -0.1266
  616TMC3    O2 9136   1.838   1.060  17.232  0.4740  0.3479 -0.4993
  617MPD2     C 9137   4.525   3.529  14.135  0.3542  0.7522 -0.3599
  617MPD2    C1 9138   4.536   3.471  14.260 -0.1278  0.2467  0.4492
  617MPD2    C2 9139   4.480   3.343  14.274  0.0081  0.0097 -0.0473
  617MPD2    C3 9140   4.399   3.290  14.172  0.0589 -0.1188 -0.2577
  617MPD2    C4 9141   4.393   3.353  14.055 -0.3770 -0.9706 -0.0106
  617MPD2    C5 9142   4.458   3.467  14.035 -0.4636 -0.2223 -0.5175
  617MPD2     H 9143   4.503   3.294  14.368 -0.1853 -0.6182 -0.3267
  617MPD2    H1 9144   4.345   3.300  13.974 -1.4446 -0.6295  0.4015
  617MPD2    H2 9145   4.578   3.620  14.108  1.3372  0.1613 -0.3892
  617MPD2    H3 9146   4.453   3.505  13.934  1.0185 -1.7562 -1.1795
  617MPD2     N 9147   4.322   3.177  14.183  0.4031 -0.5299  0.0929
  617MPD2    H5 9148   4.262   3.151  14.106  1.1790 -2.8121  0.2605
  617MPD2    N1 9149   4.616   3.530  14.367 -0.2283 -0.4025 -0.2857
  617MPD2    H7 9150   4.649   3.470  14.442  3.0150 -0.4253 -1.7748
  618TMC3    C1 9151   0.046   3.679  14.473  0.0835 -0.1402  0.2656
  618TMC3    C2 9152   0.133   3.581  14.511  0.7736  0.2617  0.2576
  618TMC3    C3 9153   0.258   3.609  14.558 -1.1219  0.8591 -0.1324
  618TMC3    C4 9154   0.094   3.804  14.474 -0.0755 -0.7681  0.1318
  618TMC3    C5 9155   0.219   3.828  14.518 -0.2663  0.2580  0.5587
  618TMC3    C6 9156   0.304   3.735  14.566  0.5192  0.7461 -0.3273
  618TMC3     C 9157   4.668   3.653  14.363  0.1071  0.4687 -0.0287
  618TMC3     O 9158   4.647   3.751  14.291  0.4724 -0.0575 -0.7798
  618TMC3     H 9159   0.122   3.477  14.482  2.2712 -0.0225  0.7348
  618TMC3    H1 9160   0.036   3.886  14.430  0.4038 -0.7397 -0.4453
  618TMC3    H2 9161   0.406   3.763  14.589 -0.4845  1.5215  3.2054
  618TMC3    C7 9162   0.243   3.966  14.535  0.1842  0.0303 -0.7453
  618TMC3    C8 9163   0.346   3.505  14.522  0.1620 -0.1936  0.0803
  618TMC3    O1 9164   0.156   4.031  14.584 -0.0427  0.4391  0.0265
  618TMC3    O2 9165   0.319   3.391  14.556  0.4522  0.4503  0.0369
  619MPD2     C 9166   2.040   0.531  13.887 -0.7381  0.4455  0.2988
  619MPD2    C1 9167   1.929   0.569  13.809 -0.4218 -0.0011  0.2734
  619MPD2    C2 9168   1.808   0.529  13.847  0.0108 -0.7093 -0.1648
  619MPD2    C3 9169   1.783   0.452  13.959 -0.1431 -0.1408  0.7497
  619MPD2    C4 9170   1.899   0.399  14.016 -0.6233 -0.0543  0.2764
  619MPD2    C5 9171   2.024   0.438  13.978  0.5717 -0.9218 -0.0899
  619MPD2     H 9172   1.728   0.568  13.785 -0.2357  1.2471  1.3905
  619MPD2    H1 9173   1.904   0.327  14.097 -0.7482 -0.1779  0.1748
  619MPD2    H2 9174   2.136   0.570  13.857 -1.4711  2.1677  0.1884
  619MPD2    H3 9175   2.110   0.405  14.035 -0.0540 -1.5624  0.4871
  619MPD2     N 9176   1.661   0.423  14.009 -0.2843 -0.3389  0.1791
  619MPD2    H5 9177   1.660   0.373  14.097  1.2344 -0.3893  0.1633
  619MPD2    N1 9178   1.938   0.654  13.698  0.1008  0.2098 -0.7910
  619MPD2    H7 9179   1.858   0.680  13.641 -0.4956 -1.9021 -0.8896
  620TMC3    C1 9180   2.010   0.827  13.551  0.1127 -0.2151 -0.0590
  620TMC3    C2 9181   1.943   0.773  13.443  0.0814 -0.4130 -0.2211
  620TMC3    C3 9182   1.918   0.858  13.333 -0.2648 -0.7486 -0.3387
  620TMC3    C4 9183   2.063   0.951  13.556  0.2675  0.3577 -0.2901
  620TMC3    C5 9184   2.035   1.027  13.449  0.9613  0.7234 -0.3020
  620TMC3    C6 9185   1.971   0.985  13.335 -0.0250  0.1445 -0.1404
  620TMC3     C 9186   2.043   0.743  13.668  0.1135 -0.0106  0.5447
  620TMC3     O 9187   2.141   0.768  13.734 -0.0831 -0.5530  0.5069
  620TMC3     H 9188   1.904   0.671  13.443  2.2021 -1.2209 -2.2690
  620TMC3    H1 9189   2.116   0.974  13.647  0.3390  0.2363 -0.3001
  620TMC3    H2 9190   1.946   1.062  13.263  0.6058  1.4959  1.0858
  620TMC3    C7 9191   2.037   1.163  13.478 -1.1867  0.4065 -0.1488
  620TMC3    C8 9192   1.778   0.850  13.302  0.5902 -0.4445 -0.0775
  620TMC3    O1 9193   2.137   1.200  13.537 -0.0556 -0.2090 -0.0969
  620TMC3    O2 9194   1.706   0.806  13.391 -1.1091  0.9493  0.4997
  621MPD2     C 9195   1.680   0.834  10.607 -0.0365  0.6578 -0.1976
  621MPD2    C1 9196   1.735   0.786  10.487 -0.4676  0.0999  0.0395
  621MPD2    C2 9197   1.717   0.859  10.367  0.5328 -0.1108  1.0139
  621MPD2    C3 9198   1.655   0.986  10.371 -0.2585 -0.5812  0.1302
  621MPD2    C4 9199   1.608   1.029  10.497  0.2335  0.0702  0.5204
  621MPD2    C5 9200   1.613   0.952  10.608 -0.0323 -0.6285  0.1879
  621MPD2     H 9201   1.780   0.829  10.284 -0.2264  1.4672 -0.1208
  621MPD2    H1 9202   1.562   1.126  10.512  1.1710  0.2719  2.0660
  621MPD2    H2 9203   1.681   0.778  10.700 -1.5227 -1.8676 -1.7060
  621MPD2    H3 9204   1.567   0.984  10.701  0.6075 -0.6696  0.5223
  621MPD2     N 9205   1.647   1.063  10.253 -0.2277  0.0775 -0.2399
  621MPD2    H5 9206   1.710   1.034  10.179  0.3795  0.4321  0.1394
  621MPD2    N1 9207   1.805   0.660  10.486 -0.4470 -0.2570  0.1490
  621MPD2    H7 9208   1.816   0.612  10.397  2.4306  0.5147  0.0990
  622TMC3    C1 9209   1.915   0.473  10.578 -0.3196 -0.3549 -0.8214
  622TMC3    C2 9210   1.884   0.385  10.677  0.0244  0.0754 -0.2899
  622TMC3    C3 9211   1.870   0.254  10.651 -0.0228 -0.6634  1.0397
  622TMC3    C4 9212   1.941   0.426  10.451 -0.1372 -0.3727 -0.6765
  622TMC3    C5 9213   1.950   0.291  10.433 -0.1150  0.1724 -0.3567
  622TMC3    C6 9214   1.912   0.200  10.529  0.8124  0.5489 -0.0576
  622TMC3     C 9215   1.853   0.603  10.596  0.3626  0.2536 -0.1195
  622TMC3     O 9216   1.871   0.661  10.704 -0.0301 -0.3514  0.0986
  622TMC3     H 9217   1.857   0.417  10.777  0.2783  0.8299 -0.4633
  622TMC3    H1 9218   1.990   0.496  10.384  2.5172 -1.4451  0.1460
  622TMC3    H2 9219   1.906   0.096  10.501  0.0265  0.4075  0.6161
  622TMC3    C7 9220   2.044   0.251  10.331 -0.4938 -1.0347  0.8009
  622TMC3    C8 9221   1.786   0.162  10.730  0.5726 -0.4785 -0.1317
  622TMC3    O1 9222   2.142   0.184  10.359 -0.2583 -0.0871 -0.1868
  622TMC3    O2 9223   1.788   0.044  10.699 -0.0480  0.1130  0.1940
  623MPD2     C 9224   0.487   1.501  16.928  0.3967  0.9119 -0.6740
  623MPD2    C1 9225   0.433   1.391  16.867 -0.2885 -0.2539  0.1505
  623MPD2    C2 9226   0.505   1.275  16.877 -0.7685  0.1771 -0.2709
  623MPD2    C3 9227   0.642   1.275  16.926 -0.3941  0.1003 -0.1395
  623MPD2    C4 9228   0.693   1.396  16.974  0.7684 -0.2212  0.0628
  623MPD2    C5 9229   0.615   1.507  16.975 -0.4250  0.4303  0.2467
  623MPD2     H 9230   0.470   1.179  16.839 -1.4159  1.6562 -3.4174
  623MPD2    H1 9231   0.789   1.405  17.024 -0.8348  0.5447  2.9916
  623MPD2    H2 9232   0.439   1.598  16.934 -0.7830  0.2694  0.1559
  623MPD2    H3 9233   0.648   1.594  17.030 -2.1760  0.9157  0.5298
  623MPD2     N 9234   0.711   1.149  16.931  0.4781 -0.0268  0.3811
  623MPD2    H5 9235   0.652   1.069  16.911  0.2799  0.6465 -1.7351
  623MPD2    N1 9236   0.308   1.403  16.807  0.3231  0.4635 -0.1958
  623MPD2    H7 9237   0.268   1.496  16.812  1.8573  1.1409 -0.4818
  624TMC3    C1 9238   1.018   0.812  16.981 -1.0261 -0.2979  0.3516
  624TMC3    C2 9239   0.919   0.729  17.018  0.1890  0.2059  0.1120
  624TMC3    C3 9240   0.795   0.776  17.039  0.4581 -0.4058 -0.1977
  624TMC3    C4 9241   0.991   0.941  16.962  0.3995  0.0397 -0.2815
  624TMC3    C5 9242   0.866   0.987  16.986 -0.0551 -0.0394  0.9323
  624TMC3    C6 9243   0.770   0.905  17.026 -0.4057 -0.6307 -0.2329
  624TMC3     C 9244   1.152   0.759  16.984  0.2561 -0.5416  0.3562
  624TMC3     O 9245   1.176   0.658  17.045 -0.1218 -0.0240 -0.2002
  624TMC3     H 9246   0.944   0.624  17.023  1.9993  0.7523  2.4068
  624TMC3    H1 9247   1.081   0.999  16.943  1.0007 -0.5749  0.7121
  624TMC3    H2 9248   0.685   0.956  17.070 -0.4180 -1.3125  0.5287
  624TMC3    C7 9249   0.840   1.132  16.973 -0.4894 -0.0923  0.2531
  624TMC3    C8 9250   0.703   0.676  17.090  0.4365  0.2670 -0.4442
  624TMC3    O1 9251   0.931   1.216  16.982 -0.1174  0.1300 -0.2419
  624TMC3    O2 9252   0.741   0.558  17.091 -0.5488 -0.1161  0.4779
  625MPD2     C 9253   1.917   1.666   0.868 -1.0200  0.6448 -0.0004
  625MPD2    C1 9254   1.880   1.777   0.792 -0.1260 -0.8877 -0.0025
  625MPD2    C2 9255   1.978   1.818   0.697 -0.0627 -0.2620 -0.8967
  625MPD2    C3 9256   2.108   1.769   0.693 -0.1454  0.2894  0.9454
  625MPD2    C4 9257   2.141   1.661   0.768 -0.4344  0.3019  0.0935
  625MPD2    C5 9258   2.046   1.609   0.855 -0.1923 -1.0241 -0.1389
  625MPD2     H 9259   1.948   1.890   0.622 -2.4330  0.8290  1.0692
  625MPD2    H1 9260   2.241   1.620   0.776 -0.2424  0.5412 -0.9781
  625MPD2    H2 9261   1.847   1.627   0.941 -0.8148  2.0514  0.9418
  625MPD2    H3 9262   2.078   1.539   0.931 -0.0478 -0.2605  0.5035
  625MPD2     N 9263   2.191   1.818   0.596  0.3323  0.2967 -0.7999
  625MPD2    H5 9264   2.164   1.905   0.551  0.1409 -0.1228 -1.4990
  625MPD2    N1 9265   1.765   1.853   0.808  0.1803  0.7941  0.0396
  625MPD2    H7 9266   1.752   1.931   0.745 -2.8468 -0.7523 -1.2765
  626TMC3    C1 9267   1.573   1.957   0.914 -0.1485 -0.0423  0.0601
  626TMC3    C2 9268   1.557   2.037   0.803  0.3051  0.2012  0.6456
  626TMC3    C3 9269   1.476   2.142   0.829  0.2576  0.0565  0.2026
  626TMC3    C4 9270   1.524   1.985   1.039 -0.7398 -0.5749  0.6480
  626TMC3    C5 9271   1.450   2.100   1.055 -0.2587 -0.4457  1.2063
  626TMC3    C6 9272   1.422   2.180   0.948  0.3170  0.4942 -0.5125
  626TMC3     C 9273   1.667   1.843   0.908 -0.1834 -0.4990 -0.2004
  626TMC3     O 9274   1.642   1.754   0.988 -0.2627  0.0461  0.1172
  626TMC3     H 9275   1.596   2.017   0.704  0.2446  1.8365  0.2839
  626TMC3    H1 9276   1.542   1.921   1.125  1.2390  0.2364  0.8422
  626TMC3    H2 9277   1.370   2.275   0.957 -1.3067 -0.4736  0.3895
  626TMC3    C7 9278   1.399   2.135   1.186  0.0435 -0.2250 -0.2679
  626TMC3    C8 9279   1.456   2.225   0.717 -0.3469  0.1296 -0.2140
  626TMC3    O1 9280   1.423   2.057   1.281 -0.1125 -0.0378  0.3012
  626TMC3    O2 9281   1.428   2.182   0.607  0.1692 -0.4446  0.5340
  627MPD2     C 9282   0.169   2.067  14.153  0.0551  0.3416 -0.1305
  627MPD2    C1 9283   0.102   2.118  14.260  0.3660 -0.0808 -0.2616
  627MPD2    C2 9284   4.692   2.091  14.270 -0.6712 -0.4578 -0.3451
  627MPD2    C3 9285   4.617   2.007  14.194  0.1410  0.2957  0.3786
  627MPD2    C4 9286   4.688   1.942  14.094  0.8442  0.5917  0.7033
  627MPD2    C5 9287   0.098   1.976  14.082  0.0223 -0.0131  0.0751
  627MPD2     H 9288   4.638   2.140  14.351  0.3889 -0.8697  0.6074
  627MPD2    H1 9289   4.641   1.877  14.021  2.6839  0.8645 -0.7338
  627MPD2    H2 9290   0.268   2.096  14.120  1.7404 -2.9268  1.9707
  627MPD2    H3 9291   0.147   1.938  13.993  0.1616 -1.0741  0.6162
  627MPD2     N 9292   4.484   1.984  14.226 -0.6082 -0.4694 -0.4759
  627MPD2    H5 9293   4.447   2.052  14.292 -0.7579  0.0078 -1.0588
  627MPD2    N1 9294   0.144   2.214  14.355  0.0913 -0.4676  0.6967
  627MPD2    H7 9295   0.088   2.245  14.434 -0.2754  0.1037  0.2104
  628TMC3    C1 9296   0.290   2.343  14.475 -0.4568  0.7553  0.9692
  628TMC3    C2 9297   0.419   2.368  14.501 -0.0620 -1.0986  0.0080
  628TMC3    C3 9298   0.457   2.402  14.632 -0.2965 -0.3186  0.3024
  628TMC3    C4 9299   0.192   2.365  14.565 -0.7706 -0.2899  1.1925
  628TMC3    C5 9300   0.226   2.408  14.694  0.2617 -0.3289  0.1781
  628TMC3    C6 9301   0.357   2.423  14.725 -0.1496  0.0703  0.2084
  628TMC3     C 9302   0.271   2.259  14.359 -0.2858 -0.2271  0.5865
  628TMC3     O 9303   0.360   2.247  14.270  0.1182  0.1605 -0.1624
  628TMC3     H 9304   0.493   2.353  14.423 -1.3883 -2.8350 -0.9147
  628TMC3    H1 9305   0.093   2.377  14.523 -0.2235 -0.6376 -0.2072
  628TMC3    H2 9306   0.378   2.480  14.815 -0.0995 -1.0353  0.9059
  628TMC3    C7 9307   0.130   2.487  14.779 -0.2602 -0.9177  0.6817
  628TMC3    C8 9308   0.599   2.425  14.655  0.3651 -0.0299  0.6853
  628TMC3    O1 9309   0.173   2.531  14.886  0.1176  0.4846  0.5198
  628TMC3    O2 9310   0.673   2.440  14.558 -0.4013 -0.3429  0.1674
  629MPD2     C 9311   2.357   0.968  17.134 -0.4031 -0.3048 -0.9007
  629MPD2    C1 9312   2.313   0.957  17.000  0.3712 -0.1241  0.1028
  629MPD2    C2 9313   2.177   0.975  16.968 -0.2686  0.0259  0.7156
  629MPD2    C3 9314   2.091   0.992  17.069  0.1803  0.4779 -0.2006
  629MPD2    C4 9315   2.129   1.006  17.201  0.3601 -0.3367  0.4134
  629MPD2    C5 9316   2.269   0.998  17.229  0.0882 -0.0175 -0.0213
  629MPD2     H 9317   2.141   0.973  16.866  0.8055  1.2384  0.3206
  629MPD2    H1 9318   2.063   1.036  17.282  0.3158 -0.9913  0.6225
  629MPD2    H2 9319   2.460   0.961  17.167 -0.3659 -0.8586 -1.1495
  629MPD2    H3 9320   2.307   1.033  17.324 -1.0473  1.1196  0.0153
  629MPD2     N 9321   1.958   1.021  17.030  0.1399  0.7511  0.1821
  629MPD2    H5 9322   1.935   1.009  16.932  2.3152 -0.3545 -0.1982
  629MPD2    N1 9323   2.406   0.932  16.893  0.7611  0.0390 -0.5841
  629MPD2    H7 9324   2.495   0.901  16.931  0.3375  1.2073  1.3672
  630TMC3    C1 9325   2.504   0.907  16.668  0.2309 -0.2974  0.0631
  630TMC3    C2 9326   2.526   0.956  16.542  0.4261 -0.1461 -0.1936
  630TMC3    C3 9327   2.638   0.910  16.481 -0.6775  0.2636 -0.2952
  630TMC3    C4 9328   2.589   0.817  16.732 -0.7210  1.0822 -0.4126
  630TMC3    C5 9329   2.688   0.766  16.652  0.6819 -0.4909  0.2299
  630TMC3    C6 9330   2.727   0.818  16.533 -0.1559  0.8822 -0.1580
  630TMC3     C 9331   2.394   0.959  16.761 -0.1820  0.1509 -0.1078
  630TMC3     O 9332   2.304   1.016  16.699  0.0220  0.1960  0.1010
  630TMC3     H 9333   2.457   1.031  16.505  0.1126  0.2929  1.2966
  630TMC3    H1 9334   2.575   0.770  16.828 -1.1254  1.7932 -0.1241
  630TMC3    H2 9335   2.813   0.793  16.472 -1.2171 -1.8307 -0.5526
  630TMC3    C7 9336   2.799   0.712  16.728  0.1942 -0.0636  0.8867
  630TMC3    C8 9337   2.698   0.994  16.373 -0.2122  0.3231 -0.0663
  630TMC3    O1 9338   2.771   0.653  16.832 -0.1367 -0.2931 -0.4930
  630TMC3    O2 9339   2.794   0.952  16.310  0.1820  0.0611  0.4502
  631MPD2     C 9340   0.762   0.978  16.213 -0.1537  0.1422  0.1213
  631MPD2    C1 9341   0.854   0.994  16.109  0.4877 -0.8950  1.0199
  631MPD2    C2 9342   0.955   0.894  16.079  0.4132 -0.1105 -0.0162
  631MPD2    C3 9343   0.958   0.787  16.161  0.6924  0.2795  0.5515
  631MPD2    C4 9344   0.859   0.762  16.252 -0.6342 -0.4868  0.4246
  631MPD2    C5 9345   0.766   0.856  16.278 -0.0486  0.4923  0.1099
  631MPD2     H 9346   1.029   0.906  16.001  0.6215 -1.9399 -0.1189
  631MPD2    H1 9347   0.855   0.668  16.306 -1.1988  0.0186  1.2629
  631MPD2    H2 9348   0.675   1.037  16.238  0.2157  0.7096  0.0588
  631MPD2    H3 9349   0.685   0.841  16.349 -0.3504  0.4098 -0.2578
  631MPD2     N 9350   1.065   0.700  16.152 -0.2658 -0.9084  0.0480
  631MPD2    H5 9351   1.142   0.740  16.100 -0.5563  1.1157  1.1698
  631MPD2    N1 9352   0.844   1.116  16.033 -0.0844 -0.3105 -0.1411
  631MPD2    H7 9353   0.767   1.173  16.067  0.2305 -1.3157  2.2451
  632TMC3    C1 9354   0.898   1.286  15.878  0.1446 -0.4754  0.6607
  632TMC3    C2 9355   0.790   1.358  15.921 -0.4669 -0.9747 -0.4989
  632TMC3    C3 9356   0.740   1.457  15.841 -0.5145 -0.4645 -0.0736
  632TMC3    C4 9357   0.967   1.319  15.766 -0.5519 -0.7272 -0.4253
  632TMC3    C5 9358   0.915   1.426  15.691  0.3389  0.9029  0.0170
  632TMC3    C6 9359   0.806   1.498  15.727 -0.1539  0.2567  0.0765
  632TMC3     C 9360   0.924   1.156  15.927  0.4109 -0.2150  0.4063
  632TMC3     O 9361   1.024   1.098  15.886  0.1932 -0.7474 -0.1665
  632TMC3     H 9362   0.731   1.330  16.008 -0.8641 -1.0508 -0.7933
  632TMC3    H1 9363   1.042   1.254  15.721  1.5573  2.2871 -1.2488
  632TMC3    H2 9364   0.770   1.580  15.666  2.0540  0.4052 -1.0109
  632TMC3    C7 9365   0.985   1.462  15.567  0.3366  0.1009 -0.1559
  632TMC3    C8 9366   0.608   1.502  15.885 -0.9254 -0.7772  0.3217
  632TMC3    O1 9367   0.923   1.469  15.461  0.1602  0.3400 -0.0588
  632TMC3    O2 9368   0.511   1.448  15.837  0.0657 -0.3108 -0.1500
  633MPD2     C 9369   1.490   3.744  17.693  0.6335 -0.6063 -0.0805
  633MPD2    C1 9370   1.430   3.714  17.576 -0.5109 -0.4567  0.4285
  633MPD2    C2 9371   1.384   3.582  17.562  0.4548 -0.2054 -0.4324
  633MPD2    C3 9372   1.397   3.489  17.660 -0.1856  0.1875 -0.7190
  633MPD2    C4 9373   1.473   3.515   0.082 -0.2842  0.2911  0.7434
  633MPD2    C5 9374   1.511   3.644   0.100  0.2509 -0.3463  0.1981
  633MPD2     H 9375   1.337   3.553  17.468  0.2274  1.4669 -0.8484
  633MPD2    H1 9376   1.487   3.450   0.167 -0.2054 -1.3040 -0.4785
  633MPD2    H2 9377   1.523   3.843   0.030  0.2975 -0.8517  1.0820
  633MPD2    H3 9378   1.563   3.667   0.192 -0.1960  2.0208 -0.1566
  633MPD2     N 9379   1.360   3.356  17.640 -0.3131  0.2164 -0.4129
  633MPD2    H5 9380   1.366   3.293   0.026  2.6951  0.8997 -0.0992
  633MPD2    N1 9381   1.407   3.812  17.477  0.0832  0.2871  0.6312
  633MPD2    H7 9382   1.372   3.791  17.384 -1.0761  1.3294  0.8211
  634TMC3    C1 9383   1.384   4.019  17.367  0.4802  0.0090 -0.0292
  634TMC3    C2 9384   1.421   3.956  17.248  0.5842  1.3362  0.0280
  634TMC3    C3 9385   1.404   4.015  17.127  0.2091  0.5748 -0.4768
  634TMC3    C4 9386   1.318   4.141  17.367 -0.6006  0.3346 -0.4196
  634TMC3    C5 9387   1.287   4.185  17.239  0.2073  0.4407  0.5734
  634TMC3    C6 9388   1.334   4.132  17.121  0.7744 -0.7037 -0.1727
  634TMC3     C 9389   1.401   3.951  17.497 -0.7096 -0.4791 -0.2333
  634TMC3     O 9390   1.404   4.020  17.598 -0.6160 -0.3604  0.8903
  634TMC3     H 9391   1.471   3.860  17.246 -2.4222 -0.1983 -1.3447
  634TMC3    H1 9392   1.299   4.200  17.456 -1.4675  0.5535 -0.7533
  634TMC3    H2 9393   1.313   4.179  17.026 -0.8276 -0.5949  0.2309
  634TMC3    C7 9394   1.238   4.318  17.219  0.3509 -0.0390 -0.1899
  634TMC3    C8 9395   1.377   3.932  17.011 -0.3079 -0.6979 -0.5150
  634TMC3    O1 9396   1.272   4.375  17.115  0.4828  0.2882  0.0649
  634TMC3    O2 9397   1.341   3.813  17.029 -0.4451  0.2099  0.6730
  635TMC3    C1 9398   1.549   0.667   0.263 -0.2745 -0.2787 -0.1795
  635TMC3    C2 9399   1.546   0.609   0.143 -0.1663  0.2468 -0.5062
  635TMC3    C3 9400   1.620   0.497   0.124  0.0021 -0.0878 -0.1389
  635TMC3    C4 9401   1.624   0.623   0.367 -0.4299 -0.4904  0.1315
  635TMC3    C5 9402   1.700   0.511   0.347  0.2194  0.2939  0.2852
  635TMC3    C6 9403   1.704   0.455   0.224 -0.5935 -0.0816 -0.0441
  635TMC3     C 9404   1.447   0.766   0.290 -0.1001  0.4745 -0.0888
  635TMC3     O 9405   1.336   0.748   0.243  0.1691  0.1732 -0.0198
  635TMC3     H 9406   1.496   0.655   0.058  0.6287  0.9858 -0.5748
  635TMC3    H1 9407   1.632   0.675   0.462  0.5077  1.3538 -0.9658
  635TMC3    H2 9408   1.760   0.362   0.217  0.0316  0.3185 -0.3665
  635TMC3    C7 9409   1.790   0.459   0.448  0.4090 -0.2269  0.3221
  635TMC3    C8 9410   1.658   0.467  17.680  0.5784 -0.1680 -0.5524
  635TMC3    O1 9411   1.895   0.398   0.409 -0.9525  0.4368 -0.4260
  635TMC3    O2 9412   1.575   0.473  17.590  0.0619 -0.3674  0.1694
  636MPD2     C 9413   2.322   4.236  15.885  0.2406  0.3883  0.5485
  636MPD2    C1 9414   2.322   4.286  16.012  0.2475  0.3010  0.3998
  636MPD2    C2 9415   2.360   4.203  16.118  0.2407 -0.3526  0.1150
  636MPD2    C3 9416   2.383   4.073  16.098 -0.0784 -0.3723  0.1627
  636MPD2    C4 9417   2.380   4.022  15.967 -1.0891  0.0189  0.4789
  636MPD2    C5 9418   2.358   4.107  15.864  0.2393 -0.3999  0.3196
  636MPD2     H 9419   2.356   4.249  16.216  1.6302  0.0915 -0.0432
  636MPD2    H1 9420   2.413   3.921  15.942 -2.5414 -0.0883 -0.9946
  636MPD2    H2 9421   2.307   4.300  15.799 -0.4092 -2.1767 -1.2703
  636MPD2    H3 9422   2.372   4.067  15.764 -1.9684 -0.7533  0.1515
  636MPD2     N 9423   2.422   3.992  16.210 -0.2538 -0.3564 -0.3389
  636MPD2    H5 9424   2.432   4.041  16.299  0.8946  1.3597 -1.4293
  636MPD2    N1 9425   2.272   4.414  16.040 -0.1430 -0.2054 -0.4740
  636MPD2    H7 9426   2.289   4.449  16.134  0.9725  1.8468 -1.4240
  637TMC3    C1 9427   2.476   3.788  16.332  0.3776 -0.6088  0.3921
  637TMC3    C2 9428   2.452   3.842  16.457 -0.0072  0.3551  0.0529
  637TMC3    C3 9429   2.530   3.789  16.564 -0.9879  0.3410 -0.8054
  637TMC3    C4 9430   2.567   3.687  16.309  0.4447  0.0587 -0.3168
  637TMC3    C5 9431   2.633   3.638  16.420  0.5870  0.1366  0.0712
  637TMC3    C6 9432   2.603   3.675  16.545  0.0783 -0.4439 -0.7544
  637TMC3     C 9433   2.442   3.857  16.201  0.1425  0.3787  0.2762
  637TMC3     O 9434   2.451   3.782  16.104 -0.4350  0.1817 -0.2392
  637TMC3     H 9435   2.386   3.927  16.466  1.1234  1.1387  0.8045
  637TMC3    H1 9436   2.600   3.661  16.210 -1.3876 -1.0001 -0.6544
  637TMC3    H2 9437   2.651   3.624  16.627 -0.0153 -0.9964 -1.0405
  637TMC3    C7 9438   2.742   3.534  16.412  0.2484  0.5561 -0.9139
  637TMC3    C8 9439   2.597   3.897  16.639 -0.7392  0.4113 -0.1207
  637TMC3    O1 9440   2.756   3.459  16.509  0.9930  0.1436  0.3730
  637TMC3    O2 9441   2.571   4.011  16.611  0.5526  0.1748 -0.4069
  638MPD2     C 9442   2.203   3.119  15.221 -0.6545  0.0458  0.0313
  638MPD2    C1 9443   2.166   3.024  15.129 -0.1550  1.1475 -0.0120
  638MPD2    C2 9444   2.147   2.892  15.172  0.2213 -0.6168 -0.2995
  638MPD2    C3 9445   2.164   2.854  15.303 -0.7914  0.0785  0.3240
  638MPD2    C4 9446   2.194   2.950  15.399  0.5031 -0.4260  0.1712
  638MPD2    C5 9447   2.218   3.081  15.358 -0.0302 -0.1099  0.2835
  638MPD2     H 9448   2.115   2.813  15.105 -1.1561  0.5146 -0.9624
  638MPD2    H1 9449   2.202   2.929  15.505  0.0513  1.1183  0.5106
  638MPD2    H2 9450   2.217   3.223  15.194 -0.7923  0.4689  1.5914
  638MPD2    H3 9451   2.225   3.151  15.441 -0.6748 -0.2154  0.4254
  638MPD2     N 9452   2.141   2.720  15.339  0.2475  0.3754 -0.2082
  638MPD2    H5 9453   2.094   2.664  15.268 -0.1801 -1.7711  1.7726
  638MPD2    N1 9454   2.151   3.061  14.995 -0.4134  0.3552 -0.1135
  638MPD2    H7 9455   2.178   3.154  14.967  2.0602 -1.5046 -3.8448
  639TMC3    C1 9456   2.162   2.517  15.462  0.3338  0.5713  0.0589
  639TMC3    C2 9457   2.079   2.467  15.362 -0.1276 -0.4742  0.6696
  639TMC3    C3 9458   2.093   2.335  15.337 -0.3429 -0.3862  0.5778
  639TMC3    C4 9459   2.270   2.449  15.504  0.2127 -0.0284 -0.5086
  639TMC3    C5 9460   2.282   2.320  15.465  0.3240 -0.8235 -0.1991
  639TMC3    C6 9461   2.192   2.254  15.385  0.0135 -0.4255  0.1702
  639TMC3     C 9462   2.196   2.659  15.447  0.0415  0.7200 -0.1111
  639TMC3     O 9463   2.285   2.698  15.519 -0.6893  0.1633 -0.0882
  639TMC3     H 9464   1.990   2.515  15.322  1.8634  0.6899 -2.3222
  639TMC3    H1 9465   2.327   2.485  15.589 -0.8409  2.6535 -0.9456
  639TMC3    H2 9466   2.191   2.150  15.354 -1.3633  0.2978 -2.2136
  639TMC3    C7 9467   2.396   2.243  15.503 -0.1504 -0.3425  0.1031
  639TMC3    C8 9468   2.005   2.289  15.234  0.2590 -0.3607  0.4453
  639TMC3    O1 9469   2.388   2.122  15.500  0.2564 -0.3705  0.1411
  639TMC3    O2 9470   2.018   2.336  15.121  0.2467  0.6985 -0.3572
  640MPD2     C 9471   1.974   2.523  10.236  0.0467 -0.4392 -0.2613
  640MPD2    C1 9472   1.897   2.498  10.130  0.0221 -0.2481  0.2046
  640MPD2    C2 9473   1.768   2.552  10.124 -0.4582 -0.0635 -0.4164
  640MPD2    C3 9474   1.734   2.639  10.229 -0.8013  0.4545  0.2431
  640MPD2    C4 9475   1.829   2.691  10.313 -0.1544 -0.2297  0.1433
  640MPD2    C5 9476   1.946   2.624  10.324  0.3878 -0.2426 -0.4834
  640MPD2     H 9477   1.697   2.528  10.046 -0.7521 -0.3377 -0.0689
  640MPD2    H1 9478   1.805   2.774  10.379  2.3950  1.5967 -1.2287
  640MPD2    H2 9479   2.074   2.482  10.237  0.2790  0.1273  0.3155
  640MPD2    H3 9480   2.021   2.654  10.397 -0.2963 -1.9183  0.9061
  640MPD2     N 9481   1.607   2.704  10.234 -0.0053 -0.4819  0.4456
  640MPD2    H5 9482   1.592   2.790  10.287  1.8877  0.9460 -1.3315
  640MPD2    N1 9483   1.957   2.419  10.022  0.1607 -0.0741 -0.0443
  640MPD2    H7 9484   2.055   2.398  10.037  0.3766 -0.4596 -1.9673
  641TMC3    C1 9485   1.985   2.352   9.784 -0.2400 -0.3102  0.4413
  641TMC3    C2 9486   2.120   2.352   9.804  0.8428 -0.5215  0.3147
  641TMC3    C3 9487   2.193   2.257   9.738 -0.2864 -0.1380  0.0345
  641TMC3    C4 9488   1.920   2.269   9.695 -0.5675 -0.1563  0.3748
  641TMC3    C5 9489   2.002   2.182   9.623  0.2973 -0.0291 -0.0694
  641TMC3    C6 9490   2.138   2.177   9.642  0.4346 -0.1036 -0.3400
  641TMC3     C 9491   1.897   2.385   9.902 -0.0458 -0.3180 -0.2739
  641TMC3     O 9492   1.776   2.378   9.882 -0.5108  0.0387 -0.0577
  641TMC3     H 9493   2.150   2.415   9.887  1.5491  2.1266 -1.9381
  641TMC3    H1 9494   1.813   2.254   9.704 -0.5236 -2.0194 -2.1218
  641TMC3    H2 9495   2.196   2.100   9.592  0.0851 -0.8390  0.3963
  641TMC3    C7 9496   1.954   2.102   9.509 -0.3886 -0.3159  0.0175
  641TMC3    C8 9497   2.320   2.207   9.795  0.3528  0.7728  0.7502
  641TMC3    O1 9498   2.039   2.084   9.421  0.5081  0.5244 -0.4198
  641TMC3    O2 9499   2.351   2.088   9.788  0.4401 -0.0632  0.1035
  642TMC3    C1 9500   3.215   3.073  12.509  0.1018  0.2704  0.6080
  642TMC3    C2 9501   3.336   3.125  12.534  0.2504  0.2443  0.3057
  642TMC3    C3 9502   3.436   3.037  12.565  0.4769  0.7836  1.1804
  642TMC3    C4 9503   3.183   2.943  12.514 -0.3809  0.6389 -0.3637
  642TMC3    C5 9504   3.291   2.860  12.541  0.6458 -0.7784  0.0888
  642TMC3    C6 9505   3.419   2.906  12.560  0.3816  0.7314  0.0731
  642TMC3     C 9506   3.098   3.157  12.494  0.5824  0.2354  0.2965
  642TMC3     O 9507   2.990   3.103  12.496 -0.0710 -0.2390 -0.1899
  642TMC3     H 9508   3.352   3.232  12.530  1.2969  0.0466 -0.7282
  642TMC3    H1 9509   3.086   2.906  12.483  0.4237 -0.9445 -1.0315
  642TMC3    H2 9510   3.487   2.836  12.609  0.6973  0.8972 -0.1292
  642TMC3    C7 9511   3.267   2.720  12.567 -0.0182 -0.2404 -0.4773
  642TMC3    C8 9512   3.562   3.083  12.628 -0.4029  0.4291  0.0893
  642TMC3    O1 9513   3.360   2.639  12.545  0.6983  0.1233  0.4594
  642TMC3    O2 9514   3.622   3.000  12.696  0.6145 -0.1520 -0.0634
  643TMC3    C1 9515   3.096   2.088   0.459  0.2959 -0.7971 -0.1012
  643TMC3    C2 9516   2.984   2.125   0.381  0.7236  0.0493 -0.3819
  643TMC3    C3 9517   2.945   2.042   0.281  0.4790  0.1798  0.5675
  643TMC3    C4 9518   3.169   1.975   0.431 -0.0947 -0.3751  0.3974
  643TMC3    C5 9519   3.118   1.891   0.330 -0.4633 -0.4834  0.4470
  643TMC3    C6 9520   3.014   1.927   0.253  0.8496 -0.5111  0.2560
  643TMC3     C 9521   3.132   2.179   0.567  0.4721 -0.2310 -0.5001
  643TMC3     O 9522   3.058   2.274   0.591  0.0724  0.0928  0.1264
  643TMC3     H 9523   2.925   2.206   0.421  0.8533 -1.1035  2.1648
  643TMC3    H1 9524   3.258   1.944   0.485  1.6992  0.0273 -2.3170
  643TMC3    H2 9525   2.963   1.861   0.184  1.6628 -0.3744 -0.4696
  643TMC3    C7 9526   3.241   1.860   0.251  0.4580  0.3277  1.1411
  643TMC3    C8 9527   2.883   2.099   0.162 -0.1422  0.2828  0.4064
  643TMC3    O1 9528   3.353   1.908   0.268 -0.3541  0.1924 -0.1950
  643TMC3    O2 9529   2.891   2.033   0.062 -0.2673 -0.4289 -0.7833
  644MPD2     C 9530   2.708   2.955   9.882  0.3875  0.1163  0.3185
  644MPD2    C1 9531   2.662   2.872   9.787 -0.2194  0.1940 -0.0947
  644MPD2    C2 9532   2.542   2.892   9.724 -0.4264  0.3371  0.2777
  644MPD2    C3 9533   2.460   3.003   9.762  0.0402 -0.0391 -0.2217
  644MPD2    C4 9534   2.508   3.079   9.864  0.0612  0.9077  0.1548
  644MPD2    C5 9535   2.634   3.060   9.920 -0.0135 -0.6340 -0.0402
  644MPD2     H 9536   2.516   2.829   9.640  1.0602 -0.5281  0.4761
  644MPD2    H1 9537   2.448   3.165   9.892  1.0110  1.7910 -0.5146
  644MPD2    H2 9538   2.807   2.941   9.926 -1.7731 -2.3757  4.3942
  644MPD2    H3 9539   2.670   3.141   9.984 -0.2263  0.2518 -1.0361
  644MPD2     N 9540   2.348   3.024   9.693 -0.3022 -0.0636  0.9343
  644MPD2    H5 9541   2.336   2.955   9.620  2.1977  0.1324  0.3226
  644MPD2    N1 9542   2.746   2.759   9.762  0.1294  0.0330  0.1596
  644MPD2    H7 9543   2.822   2.747   9.828 -1.9272 -0.0692  2.5346
  645TMC3    C1 9544   2.136   3.120   9.630  0.2874  0.8285 -0.5488
  645TMC3    C2 9545   2.068   3.232   9.620 -0.0020 -0.1921 -0.3435
  645TMC3    C3 9546   1.969   3.229   9.533 -0.3140  0.0214 -0.2355
  645TMC3    C4 9547   2.104   3.003   9.567  0.1728 -0.6382 -0.2245
  645TMC3    C5 9548   1.997   3.013   9.492  0.1774  0.5014 -0.2436
  645TMC3    C6 9549   1.927   3.124   9.461 -0.6743  1.0597  0.2367
  645TMC3     C 9550   2.251   3.122   9.721 -0.1555  0.2803 -0.1340
  645TMC3     O 9551   2.251   3.219   9.795 -0.2728 -0.3215  0.0548
  645TMC3     H 9552   2.098   3.319   9.677 -1.9492  0.8635 -0.9276
  645TMC3    H1 9553   2.144   2.910   9.605  0.8532 -0.0418  0.5335
  645TMC3    H2 9554   1.848   3.125   9.386  0.0021  1.8400 -0.4631
  645TMC3    C7 9555   1.946   2.892   9.430 -0.4316 -0.0859  0.7047
  645TMC3    C8 9556   1.950   3.364   9.474 -0.3603 -0.1843 -0.0765
  645TMC3    O1 9557   1.825   2.893   9.413  0.4520  1.1612  0.0056
  645TMC3    O2 9558   2.016   3.457   9.516  0.3417  0.8077 -0.2162
  646MPD2     C 9559   2.278   1.476  14.461  0.8560  0.3098  0.2045
  646MPD2    C1 9560   2.189   1.462  14.565 -0.3917  0.0698 -0.1102
  646MPD2    C2 9561   2.096   1.566  14.578 -0.0208 -0.2870 -1.2008
  646MPD2    C3 9562   2.093   1.679  14.501 -0.1394 -0.2739  0.0340
  646MPD2    C4 9563   2.183   1.685  14.396 -0.8172  0.1759 -0.7414
  646MPD2    C5 9564   2.268   1.583  14.376  0.7886 -0.6180  0.7212
  646MPD2     H 9565   2.019   1.571  14.654  1.2124 -0.6817  0.0892
  646MPD2    H1 9566   2.191   1.769  14.327  0.0286 -0.9298 -1.9899
  646MPD2    H2 9567   2.358   1.405  14.449  0.2064 -0.1897 -1.0921
  646MPD2    H3 9568   2.331   1.588  14.288  1.1528 -0.4550  0.9936
  646MPD2     N 9569   2.004   1.787  14.523 -0.1743 -0.0919 -0.0109
  646MPD2    H5 9570   1.950   1.775  14.609 -2.3852  0.3358 -1.3527
  646MPD2    N1 9571   2.200   1.350  14.652 -0.5995 -0.1788 -0.1077
  646MPD2    H7 9572   2.276   1.285  14.637 -1.8529 -1.6413 -0.1666
  647TMC3    C1 9573   2.174   1.217  14.847 -0.0171 -1.0359  0.2845
  647TMC3    C2 9574   2.089   1.141  14.922  0.2048 -0.0477  0.2166
  647TMC3    C3 9575   2.153   1.035  14.993 -0.0809  0.7708 -0.3448
  647TMC3    C4 9576   2.307   1.200  14.841 -0.1498  0.1580 -0.2821
  647TMC3    C5 9577   2.362   1.091  14.906 -0.3523  0.4846 -0.7060
  647TMC3    C6 9578   2.286   1.000  14.982  0.2676  0.0943  0.4711
  647TMC3     C 9579   2.119   1.325  14.767 -0.4565  0.5773 -0.3927
  647TMC3     O 9580   2.017   1.388  14.802  0.3887 -0.4983 -0.5985
  647TMC3     H 9581   1.983   1.155  14.938 -0.2449  0.0141 -2.9471
  647TMC3    H1 9582   2.378   1.266  14.794 -0.0498  1.5629  1.8276
  647TMC3    H2 9583   2.335   0.924  15.042 -1.1042 -1.6576 -0.6386
  647TMC3    C7 9584   2.502   1.078  14.904 -0.1540  0.4683 -0.3538
  647TMC3    C8 9585   2.082   0.976  15.105  0.4487 -0.2610  0.6739
  647TMC3    O1 9586   2.552   1.017  14.998 -0.3721  0.4136 -0.3816
  647TMC3    O2 9587   2.146   0.900  15.179  0.4235  0.1023 -0.2614
  648TMC3    C1 9588   1.746   4.100  16.421 -0.9199  0.3631  0.2466
  648TMC3    C2 9589   1.780   3.991  16.342  0.4919  0.4076  0.6943
  648TMC3    C3 9590   1.726   3.984  16.220 -0.1105  0.6165  0.4354
  648TMC3    C4 9591   1.662   4.195  16.375  0.0653 -0.0423  0.2136
  648TMC3    C5 9592   1.606   4.184  16.252  0.1462 -0.6025  0.0211
  648TMC3    C6 9593   1.632   4.073  16.177  0.1010 -0.5125  0.0616
  648TMC3     C 9594   1.790   4.105  16.561 -0.4737 -0.0495 -0.5142
  648TMC3     O 9595   1.814   4.213  16.611  0.1071  0.0945  0.3378
  648TMC3     H 9596   1.834   3.904  16.379 -0.5813  0.1282  1.6073
  648TMC3    H1 9597   1.662   4.290  16.427  0.3274  0.2704 -0.3557
  648TMC3    H2 9598   1.581   4.047  16.085  0.0913 -1.0768  0.2255
  648TMC3    C7 9599   1.512   4.280  16.197 -0.0746 -0.2405 -0.0570
  648TMC3    C8 9600   1.715   3.849  16.176 -0.3351  0.3729  0.1949
  648TMC3    O1 9601   1.485   4.265  16.082 -0.3235  0.3050  0.0334
  648TMC3    O2 9602   1.602   3.814  16.154 -0.0390  0.0275 -0.3355
  649TMC3    C1 9603   0.242   0.215  13.738  0.6131 -0.2139  0.3837
  649TMC3    C2 9604   0.335   0.315  13.716 -0.8045 -0.4371 -0.5060
  649TMC3    C3 9605   0.435   0.332  13.809 -0.0417 -0.1399  0.3411
  649TMC3    C4 9606   0.243   0.130  13.850 -0.3725  0.2426 -0.4131
  649TMC3    C5 9607   0.343   0.140  13.936 -0.3638 -0.2929  0.4043
  649TMC3    C6 9608   0.442   0.240  13.912  0.1307  0.4694 -0.1339
  649TMC3     C 9609   0.134   0.216  13.644 -0.3724  0.4600 -0.9998
  649TMC3     O 9610   0.111   0.316  13.584 -0.4124  0.2451 -0.1719
  649TMC3     H 9611   0.328   0.382  13.631  0.2823  0.1893 -0.0969
  649TMC3    H1 9612   0.157   0.069  13.875  0.2637 -0.1164  0.8618
  649TMC3    H2 9613   0.525   0.248  13.981 -0.8191 -1.3351  1.2143
  649TMC3    C7 9614   0.337   0.083  14.068 -0.8901 -0.6802 -0.0374
  649TMC3    C8 9615   0.536   0.445  13.801 -0.4373  0.2986 -1.1993
  649TMC3    O1 9616   0.392   0.147  14.152  0.5111  0.2651  0.2630
  649TMC3    O2 9617   0.617   0.451  13.895 -0.2186 -0.4758  0.1410
  650TMC3    C1 9618   2.557   2.200  12.706  0.5670  0.3442 -0.2299
  650TMC3    C2 9619   2.463   2.287  12.745  0.2084 -0.0888 -0.0505
  650TMC3    C3 9620   2.435   2.384  12.659 -0.4356  0.4819  0.2097
  650TMC3    C4 9621   2.627   2.203  12.582 -0.6768  0.0047 -0.8445
  650TMC3    C5 9622   2.586   2.301  12.497  0.1957  0.4966  0.0795
  650TMC3    C6 9623   2.496   2.394  12.539 -0.1094  0.0286  0.4833
  650TMC3     C 9624   2.560   2.086  12.791  1.1843  0.4475 -0.0867
  650TMC3     O 9625   2.470   2.069  12.872  0.1691 -0.4412 -0.0144
  650TMC3     H 9626   2.425   2.286  12.847  0.1199  4.5307 -0.0304
  650TMC3    H1 9627   2.699   2.128  12.552  3.1686  3.1021  0.5436
  650TMC3    H2 9628   2.455   2.464  12.468 -0.9366 -1.5047 -0.5444
  650TMC3    C7 9629   2.693   2.343  12.418  0.3922  0.2807  0.4097
  650TMC3    C8 9630   2.418   2.516  12.722 -0.1002  0.8395 -0.0700
  650TMC3    O1 9631   2.760   2.261  12.364  0.3374 -0.0279  0.0583
  650TMC3    O2 9632   2.461   2.609  12.652  0.2162  0.3169 -0.1528
  651MPD2     C 9633   1.507   3.805  10.919  0.2465 -0.3411 -0.8588
  651MPD2    C1 9634   1.554   3.914  10.982  0.1573  0.6920  0.3958
  651MPD2    C2 9635   1.675   3.968  10.948 -0.0645  0.3100 -0.7314
  651MPD2    C3 9636   1.757   3.904  10.861 -0.9057  0.5107  0.2432
  651MPD2    C4 9637   1.715   3.785  10.805  1.2168  0.2052  0.2054
  651MPD2    C5 9638   1.586   3.746  10.821  0.6815 -0.0608  0.1867
  651MPD2     H 9639   1.707   4.055  11.006 -2.2488  0.9451 -0.4953
  651MPD2    H1 9640   1.767   3.734  10.724  0.7873 -1.6268  1.1055
  651MPD2    H2 9641   1.403   3.775  10.920  0.0234  0.4149 -1.3024
  651MPD2    H3 9642   1.548   3.661  10.765  0.6236  0.0741  0.0205
  651MPD2     N 9643   1.880   3.965  10.828 -0.4931  0.0411  0.0069
  651MPD2    H5 9644   1.899   4.054  10.875  1.4692  0.0852 -0.8470
  651MPD2    N1 9645   1.473   3.990  11.070 -0.3086 -0.4013 -0.1148
  651MPD2    H7 9646   1.514   4.078  11.099  0.7466 -0.8834 -0.1430
  652TMC3    C1 9647   2.289   4.075  10.655  0.1613 -0.2231  0.1624
  652TMC3    C2 9648   2.190   3.978  10.666 -0.5319 -0.2957  0.2199
  652TMC3    C3 9649   2.060   4.017  10.692 -0.0385  1.1905  0.5434
  652TMC3    C4 9650   2.260   4.205  10.674  0.4926  0.2873  0.1342
  652TMC3    C5 9651   2.131   4.237  10.693 -0.0343 -0.1539  0.3243
  652TMC3    C6 9652   2.025   4.152  10.701 -0.2806 -0.3828 -0.3489
  652TMC3     C 9653   2.416   4.045  10.596  0.6798 -0.1984  0.4023
  652TMC3     O 9654   2.474   3.935  10.608 -0.1925 -0.2621  0.0507
  652TMC3     H 9655   2.206   3.873  10.643 -3.9224 -1.1535  1.7382
  652TMC3    H1 9656   2.343   4.273  10.674  0.1148  0.7520  1.1408
  652TMC3    H2 9657   1.923   4.180  10.721 -1.0945 -3.5505 -0.0595
  652TMC3    C7 9658   2.097   4.363  10.752  0.4922  0.5036 -0.7666
  652TMC3    C8 9659   1.967   3.909  10.736  0.7174  0.2349  1.0547
  652TMC3    O1 9660   1.994   4.364  10.820  0.6009  0.5249 -0.1446
  652TMC3    O2 9661   1.984   3.798  10.690 -0.1158  0.3033 -0.0509
  653MPD2     C 9662   1.106   4.055   0.714  0.5552  0.0207  0.2855
  653MPD2    C1 9663   1.075   4.121   0.595  0.7149  0.2302  0.3505
  653MPD2    C2 9664   1.011   4.060   0.489  0.3514  0.4863  0.2613
  653MPD2    C3 9665   0.960   3.933   0.510 -0.1604  0.7300 -0.5009
  653MPD2    C4 9666   0.979   3.869   0.630  0.4539  0.5697  0.3784
  653MPD2    C5 9667   1.053   3.928   0.728  0.0861  0.5975  0.1393
  653MPD2     H 9668   0.972   4.121   0.409 -1.6003 -0.5867  0.3948
  653MPD2    H1 9669   0.938   3.769   0.641  3.9235 -1.0016 -1.0437
  653MPD2    H2 9670   1.148   4.110   0.797  0.7363  0.0116  0.1990
  653MPD2    H3 9671   1.061   3.876   0.823  3.7469 -2.2235 -1.6834
  653MPD2     N 9672   0.874   3.887   0.406  0.2125  0.5471 -0.1486
  653MPD2    H5 9673   0.862   3.946   0.324  2.5536 -0.3530 -1.1280
  653MPD2    N1 9674   1.126   4.257   0.572  0.2712  0.0540  0.1757
  653MPD2    H7 9675   1.069   4.319   0.517  0.0769 -0.9020 -0.6993
  654TMC3    C1 9676   0.725   3.749   0.289  0.1034 -0.1724  0.3162
  654TMC3    C2 9677   0.694   3.860   0.210  0.2930 -0.0229 -0.5932
  654TMC3    C3 9678   0.650   3.837   0.084  0.3475 -0.5446 -0.0260
  654TMC3    C4 9679   0.721   3.614   0.241  0.1156 -0.0653  0.4565
  654TMC3    C5 9680   0.680   3.602   0.110 -0.0523 -0.5517 -0.1666
  654TMC3    C6 9681   0.652   3.711   0.032  0.1213 -0.1628  0.2362
  654TMC3     C 9682   0.797   3.772   0.413 -0.3857 -0.1593 -0.6985
  654TMC3     O 9683   0.796   3.676   0.487  0.2099  0.0858  0.1882
  654TMC3     H 9684   0.696   3.958   0.255  1.7953 -1.1372  1.7494
  654TMC3    H1 9685   0.742   3.534   0.310  1.4292 -0.5263 -0.4756
  654TMC3    H2 9686   0.635   3.697  17.619 -2.1058  0.8252  0.4704
  654TMC3    C7 9687   0.644   3.468   0.059  0.0632  0.0040 -0.0833
  654TMC3    C8 9688   0.562   3.928   0.012 -0.2631 -0.6941  0.5122
  654TMC3    O1 9689   0.583   3.474  17.649  1.1357 -0.5713  0.1578
  654TMC3    O2 9690   0.499   3.883  17.612  0.7827 -0.5001 -0.0819
  655MPD2     C 9691   1.976   4.216  16.067  0.8002  0.1286 -0.7271
  655MPD2    C1 9692   1.887   4.278  15.985 -0.2346 -0.1182  0.4954
  655MPD2    C2 9693   1.846   4.206  15.869  0.3947 -0.4401  0.0050
  655MPD2    C3 9694   1.913   4.091  15.831  0.4192 -0.3053  0.1029
  655MPD2    C4 9695   2.014   4.038  15.915 -0.0129  0.1975  0.1924
  655MPD2    C5 9696   2.040   4.099  16.032  0.5568 -0.1140 -0.5155
  655MPD2     H 9697   1.776   4.253  15.801  0.0229  1.9179  2.0265
  655MPD2    H1 9698   2.052   3.938  15.899 -0.0353 -0.0011  1.3441
  655MPD2    H2 9699   2.001   4.259  16.163  1.8221 -0.8863 -0.5369
  655MPD2    H3 9700   2.114   4.050  16.095  0.9895  1.1941 -0.0043
  655MPD2     N 9701   1.885   4.026  15.708 -0.4964  0.2024 -0.0015
  655MPD2    H5 9702   1.929   3.937  15.692 -2.2318 -0.7978  0.7893
  655MPD2    N1 9703   1.825   4.400  16.025 -0.3425 -0.2552  0.1969
  655MPD2    H7 9704   1.749   4.426  15.963 -1.2520 -0.9042  1.0361
  656TMC3    C1 9705   1.747   4.566  16.184  0.5499  0.0059 -0.3336
  656TMC3    C2 9706   1.738   4.606  16.314 -0.5147 -0.7081 -0.2361
  656TMC3    C3 9707   1.643   4.691  16.354 -0.0920  0.2744 -0.5955
  656TMC3    C4 9708   1.670   4.629  16.084 -0.4793  0.2084  0.1842
  656TMC3    C5 9709   1.571   4.706  16.132 -0.2891  0.0517  0.0235
  656TMC3    C6 9710   1.552   0.010  16.267 -0.2202 -0.1136  0.2883
  656TMC3     C 9711   1.851   4.471  16.145  0.6076 -0.2284 -0.0587
  656TMC3     O 9712   1.947   4.473  16.216 -0.1334 -0.0004  0.7462
  656TMC3     H 9713   1.804   4.555  16.383  0.8907 -1.3742 -2.0602
  656TMC3    H1 9714   1.661   4.591  15.983  0.7598  1.5927 -0.4333
  656TMC3    H2 9715   1.482   0.087  16.298  1.0898  1.5910 -1.0023
  656TMC3    C7 9716   1.481   0.042  16.030 -0.2564  0.4884  0.2798
  656TMC3    C8 9717   1.589   4.645  16.483 -0.0560  0.3352 -0.2162
  656TMC3    O1 9718   1.506   0.009  15.911 -0.1496  0.6267  0.5291
  656TMC3    O2 9719   1.604   4.525  16.506  0.0981  0.2210  0.4801
  657TMC3    C1 9720   0.970   3.360  15.252  0.1754  0.2221 -0.2040
  657TMC3    C2 9721   1.017   3.385  15.379 -0.5012 -0.0030  0.0135
  657TMC3    C3 9722   0.924   3.437  15.469 -0.2909 -0.3251 -0.5609
  657TMC3    C4 9723   0.837   3.372  15.214  0.9592  0.5106 -0.0071
  657TMC3    C5 9724   0.752   3.430  15.309  0.2355 -0.8542  0.5591
  657TMC3    C6 9725   0.794   3.466  15.434  0.5915  0.0704  0.1710
  657TMC3     C 9726   1.053   3.286  15.162 -0.5876  0.7009  0.0884
  657TMC3     O 9727   1.000   3.212  15.080 -0.1337  0.4205  0.3461
  657TMC3     H 9728   1.116   3.368  15.419 -0.4276  1.6596  0.5717
  657TMC3    H1 9729   0.799   3.334  15.120 -1.6056 -0.8638  1.6107
  657TMC3    H2 9730   0.716   3.497  15.503  0.1350 -2.6395  0.8519
  657TMC3    C7 9731   0.605   3.413  15.282 -0.9471  0.3353  0.3078
  657TMC3    C8 9732   0.973   3.471  15.606  0.1873 -0.0683  0.4643
  657TMC3    O1 9733   0.530   3.376  15.376  0.7050 -0.0106  0.5103
  657TMC3    O2 9734   1.068   3.403  15.643  0.5087 -0.6999 -0.4357
  658MPD2     C 9735   2.213   3.902  15.040 -0.8386 -0.0115 -0.0694
  658MPD2    C1 9736   2.136   3.985  15.111 -0.0940 -0.0812 -0.0959
  658MPD2    C2 9737   2.123   4.117  15.063 -0.4409 -0.0728  0.6885
  658MPD2    C3 9738   2.177   4.157  14.942  0.3525 -0.3663  0.3518
  658MPD2    C4 9739   2.249   4.063  14.868  0.1564  0.5593 -0.3166
  658MPD2    C5 9740   2.270   3.935  14.924 -0.2365  0.2348  0.3163
  658MPD2     H 9741   2.062   4.186  15.122 -0.8095 -0.9695  1.3526
  658MPD2    H1 9742   2.296   4.097  14.776  0.7294  0.6041 -0.0054
  658MPD2    H2 9743   2.234   3.800  15.071  3.4812  0.8425 -0.1993
  658MPD2    H3 9744   2.334   3.867  14.868 -1.4869  0.3268 -1.2462
  658MPD2     N 9745   2.127   4.277  14.885  0.1510  0.0500  0.3161
  658MPD2    H5 9746   2.068   4.333  14.946  0.2572 -0.3408  0.7747
  658MPD2    N1 9747   2.067   3.947  15.232  0.2506  0.0693 -0.0158
  658MPD2    H7 9748   2.022   4.021  15.285 -0.8819  0.2032 -1.1619
  659TMC3    C1 9749   1.927   3.836  15.363 -0.0353  0.7714  0.1567
  659TMC3    C2 9750   1.926   3.934  15.465 -0.6219  0.8547  0.8452
  659TMC3    C3 9751   1.803   3.992  15.498 -0.1685  0.2957 -0.1970
  659TMC3    C4 9752   1.809   3.796  15.300 -0.1623  0.1708  0.0211
  659TMC3    C5 9753   1.697   3.851  15.346 -0.0411  0.5167 -0.0569
  659TMC3    C6 9754   1.687   3.946  15.447 -0.3632  0.1368 -0.0903
  659TMC3     C 9755   2.044   3.823  15.280 -0.0026  0.7481  0.6505
  659TMC3     O 9756   2.049   3.721  15.210  0.1740  0.1652  0.2082
  659TMC3     H 9757   2.014   3.973  15.513  0.4757  3.1615 -3.0441
  659TMC3    H1 9758   1.808   3.719  15.224  0.7231  2.3349 -2.1585
  659TMC3    H2 9759   1.590   3.991  15.469 -0.9762  0.1997 -2.9986
  659TMC3    C7 9760   1.571   3.821  15.283 -0.3307  0.3791 -0.0327
  659TMC3    C8 9761   1.794   4.073  15.616 -0.0627  0.0267  0.2648
  659TMC3    O1 9762   1.469   3.880  15.311  0.3918  0.1970  0.3583
  659TMC3    O2 9763   1.704   4.154  15.624 -0.3932 -0.5200  0.3170
  660MPD2     C 9764   4.360   3.099  12.648  0.1639 -0.4764 -0.8275
  660MPD2    C1 9765   4.224   3.077  12.642 -0.1767 -0.0549  0.4346
  660MPD2    C2 9766   4.157   3.023  12.748 -0.2776  0.3348  0.7348
  660MPD2    C3 9767   4.233   2.990  12.861 -0.1224  1.1061 -0.5576
  660MPD2    C4 9768   4.367   3.012  12.869  0.5019 -0.3033 -0.5213
  660MPD2    C5 9769   4.429   3.057  12.754  0.2173 -0.3959 -0.2659
  660MPD2     H 9770   4.051   3.001  12.750 -0.8060  2.6938 -2.0286
  660MPD2    H1 9771   4.425   2.968  12.949  2.5194  1.7268 -0.8769
  660MPD2    H2 9772   4.415   3.136  12.563 -2.2589  2.4780 -1.0756
  660MPD2    H3 9773   4.532   3.088  12.763  0.8189 -2.3181 -0.6591
  660MPD2     N 9774   4.176   2.936  12.973 -0.5226  0.0712 -0.4585
  660MPD2    H5 9775   4.243   2.911  13.044 -0.9712 -2.1663 -0.8192
  660MPD2    N1 9776   4.160   3.109  12.519  0.4743 -0.1675  0.2852
  660MPD2    H7 9777   4.224   3.153  12.454 -1.1078  1.1756 -0.3518
  661TMC3    C1 9778   4.000   3.189  12.382 -0.2343  0.2742 -0.4173
  661TMC3    C2 9779   4.044   3.316  12.384 -0.6403  0.6140  0.1538
  661TMC3    C3 9780   3.969   3.425  12.344  0.0059  0.4013 -0.5753
  661TMC3    C4 9781   3.868   3.175  12.343 -0.0133 -0.2364 -0.0446
  661TMC3    C5 9782   3.791   3.277  12.306 -0.0323  0.1957  0.0626
  661TMC3    C6 9783   3.839   3.406  12.302 -0.2928  0.3611  0.3990
  661TMC3     C 9784   4.030   3.102  12.494 -0.3226 -0.1439 -0.2822
  661TMC3     O 9785   3.943   3.029  12.539  0.4372  0.3692 -0.0320
  661TMC3     H 9786   4.150   3.336  12.385 -1.1362  3.3065  1.0141
  661TMC3    H1 9787   3.821   3.078  12.356 -0.8848  0.3874  1.3869
  661TMC3    H2 9788   3.778   3.488  12.268  2.2616  2.9288  2.0283
  661TMC3    C7 9789   3.651   3.267  12.287 -0.3214 -0.2563  0.2388
  661TMC3    C8 9790   4.051   3.503  12.253 -0.2613 -0.5362  0.7629
  661TMC3    O1 9791   3.568   3.325  12.355 -0.1024 -0.3050 -0.5351
  661TMC3    O2 9792   4.136   3.444  12.188  0.4361  0.0081  0.4693
  662MPD2     C 9793   0.488   2.130   0.559 -0.3200 -0.4659  0.0823
  662MPD2    C1 9794   0.359   2.119   0.528 -0.4472 -1.0434  0.4518
  662MPD2    C2 9795   0.265   2.217   0.566 -0.5686 -0.0925  0.4947
  662MPD2    C3 9796   0.315   2.317   0.648  0.4033  0.2317  0.1099
  662MPD2    C4 9797   0.451   2.319   0.682  0.4286  0.5228 -0.0312
  662MPD2    C5 9798   0.537   2.225   0.638 -0.0341 -0.0506 -0.4642
  662MPD2     H 9799   0.158   2.220   0.550 -0.4702 -0.3182 -0.2045
  662MPD2    H1 9800   0.493   2.396   0.746 -0.2884  0.1090  0.9356
  662MPD2    H2 9801   0.554   2.049   0.529 -0.1820 -1.0724  2.0124
  662MPD2    H3 9802   0.638   2.231   0.676 -0.2896  1.7220 -0.0416
  662MPD2     N 9803   0.218   2.406   0.694  0.6061 -0.4523  0.0909
  662MPD2    H5 9804   0.129   2.412   0.646  0.0977 -0.1274  1.0564
  662MPD2    N1 9805   0.312   2.015   0.442  0.2790 -0.1816  0.9692
  662MPD2    H7 9806   0.211   2.006   0.439  0.4125 -0.7758 -1.1413
  663TMC3    C1 9807   0.299   1.866   0.256  0.1513  0.6070  0.1638
  663TMC3    C2 9808   0.168   1.905   0.241  0.4166  0.4917  0.8337
  663TMC3    C3 9809   0.106   1.859   0.129 -0.4537  0.1616  0.3643
  663TMC3    C4 9810   0.356   1.765   0.178 -0.1868  0.6197  0.2351
  663TMC3    C5 9811   0.275   1.703   0.089  0.1293  0.0233 -0.0997
  663TMC3    C6 9812   0.145   1.743   0.065 -0.0257  0.6326  0.0164
  663TMC3     C 9813   0.385   1.942   0.352  0.3124  0.3275 -0.6889
  663TMC3     O 9814   0.505   1.946   0.323  0.0057  0.5672  0.1018
  663TMC3     H 9815   0.139   2.004   0.274 -0.3449  0.8797 -0.9689
  663TMC3    H1 9816   0.458   1.730   0.194 -0.1138  1.2159  1.0415
  663TMC3    H2 9817   0.083   1.710  17.675  0.3009  0.1404 -0.0337
  663TMC3    C7 9818   0.323   1.577   0.044 -0.2643  0.1064  0.1376
  663TMC3    C8 9819   4.686   1.885   0.132 -0.1509  0.2510 -1.1513
  663TMC3    O1 9820   0.432   1.542   0.075 -0.3815  0.1248  0.2950
  663TMC3    O2 9821   4.630   1.859   0.024  0.1668 -0.1153  0.0314
  664MPD2     C 9822   2.723   0.674   0.177 -0.0370 -0.0661 -0.4516
  664MPD2    C1 9823   2.831   0.761   0.190  0.3193 -0.0357  0.2109
  664MPD2    C2 9824   2.898   0.783   0.311 -0.2652 -0.0185  0.2812
  664MPD2    C3 9825   2.849   0.718   0.425  0.8391 -1.1583 -0.6590
  664MPD2    C4 9826   2.735   0.635   0.414  0.6016 -0.9053 -0.5698
  664MPD2    C5 9827   2.678   0.612   0.291 -0.7147 -0.0721 -0.0191
  664MPD2     H 9828   2.975   0.859   0.314  0.7348 -1.0063 -0.5808
  664MPD2    H1 9829   2.701   0.588   0.505 -0.9257 -0.8748 -1.1219
  664MPD2    H2 9830   2.672   0.649   0.084 -0.3591  1.0107 -0.5666
  664MPD2    H3 9831   2.591   0.547   0.294 -0.3226 -0.6245 -0.5914
  664MPD2     N 9832   2.921   0.735   0.547 -0.0150  0.9004  0.4935
  664MPD2    H5 9833   2.981   0.816   0.543  1.7824 -0.5637 -2.2197
  664MPD2    N1 9834   2.897   0.823   0.079  0.5109 -0.1133  0.1915
  664MPD2    H7 9835   2.964   0.895   0.106  2.4351 -1.3885 -1.1365
  665TMC3    C1 9836   2.992   0.713   0.772 -0.2270 -0.0560 -0.2483
  665TMC3    C2 9837   2.946   0.658   0.894  0.5521  0.2186 -0.2802
  665TMC3    C3 9838   2.955   0.729   1.009  0.5128  0.9105 -0.3878
  665TMC3    C4 9839   3.038   0.846   0.764 -0.2949 -0.1844 -0.6285
  665TMC3    C5 9840   3.051   0.912   0.884 -0.1000 -0.6057  0.3438
  665TMC3    C6 9841   3.009   0.858   1.002  0.0339  0.5816 -0.4584
  665TMC3     C 9842   2.912   0.656   0.659  0.7178  0.4204  0.1487
  665TMC3     O 9843   2.850   0.549   0.665 -0.4242 -0.1755  0.0697
  665TMC3     H 9844   2.881   0.572   0.890 -3.4709  3.1846  1.5089
  665TMC3    H1 9845   3.075   0.890   0.672 -1.6947 -0.1185 -1.1584
  665TMC3    H2 9846   3.037   0.902   1.097  2.6923  0.3371 -1.1356
  665TMC3    C7 9847   3.058   1.056   0.883 -0.4560 -0.8605 -0.1569
  665TMC3    C8 9848   2.855   0.726   1.107  0.6513  0.0838 -0.4298
  665TMC3    O1 9849   3.011   1.107   0.775 -0.0810  0.2764  0.2805
  665TMC3    O2 9850   2.797   0.835   1.111 -0.0523  0.1826 -0.2039
  666TMC3    C1 9851   1.695   1.278  10.172  0.2042  0.1871 -1.0075
  666TMC3    C2 9852   1.826   1.244  10.153 -0.8827  0.0016 -0.0021
  666TMC3    C3 9853   1.910   1.344  10.105  0.6560  0.0742 -0.2425
  666TMC3    C4 9854   1.647   1.399  10.143 -0.5118 -0.4471  0.1457
  666TMC3    C5 9855   1.736   1.492  10.086 -1.1020 -0.4800  0.3106
  666TMC3    C6 9856   1.870   1.467  10.077 -0.0402  0.2365 -0.6819
  666TMC3     C 9857   1.605   1.191  10.247  0.0831 -0.1237  0.0025
  666TMC3     O 9858   1.519   1.253  10.303 -0.2550  0.3150 -0.9925
  666TMC3     H 9859   1.858   1.140  10.159  1.4268  0.7324  0.2353
  666TMC3    H1 9860   1.543   1.429  10.153 -0.6278 -0.2377 -1.7197
  666TMC3    H2 9861   1.943   1.541  10.045 -1.1350  1.9437  0.7542
  666TMC3    C7 9862   1.706   1.632  10.121  0.3167  0.1205  0.9188
  666TMC3    C8 9863   2.059   1.318  10.104 -0.6802 -0.0970 -0.6877
  666TMC3    O1 9864   1.773   1.671  10.213  0.0565 -0.2492  0.6220
  666TMC3    O2 9865   2.132   1.403  10.056  0.9339  0.2541 -0.7011
  667MPD2     C 9866   3.521   0.677  14.773  0.0020 -0.6340 -0.0746
  667MPD2    C1 9867   3.454   0.717  14.884 -0.4442 -0.1418 -0.7596
  667MPD2    C2 9868   3.318   0.722  14.882  0.0397  0.0425 -0.0433
  667MPD2    C3 9869   3.242   0.679  14.774 -0.0690 -0.4423  0.3165
  667MPD2    C4 9870   3.315   0.617  14.665  0.8210  0.2142  0.1428
  667MPD2    C5 9871   3.454   0.621  14.668  0.1563 -0.4312  0.3300
  667MPD2     H 9872   3.274   0.768  14.970  3.1892 -0.3927  1.7407
  667MPD2    H1 9873   3.270   0.572  14.577  1.8351  0.3737 -0.4654
  667MPD2    H2 9874   3.627   0.689  14.752 -0.0368  0.6684  0.4590
  667MPD2    H3 9875   3.511   0.589  14.581 -1.7356  1.0212 -1.4472
  667MPD2     N 9876   3.102   0.689  14.755  0.1099  0.0723 -0.6489
  667MPD2    H5 9877   3.072   0.650  14.666  1.7120  1.7776 -1.9549
  667MPD2    N1 9878   3.527   0.768  15.001 -0.4009  0.3890  0.5928
  667MPD2    H7 9879   3.476   0.797  15.084 -1.3541  0.8582 -0.1560
  668TMC3    C1 9880   3.704   0.852  15.129  0.7940 -1.7185  0.1051
  668TMC3    C2 9881   3.801   0.951  15.150 -0.5117  0.4959  0.3447
  668TMC3    C3 9882   3.835   0.991  15.280 -0.9125  0.1229 -0.5976
  668TMC3    C4 9883   3.641   0.795  15.238 -0.1820  0.4710  0.1269
  668TMC3    C5 9884   3.680   0.839  15.361  0.2530  0.8539 -0.0982
  668TMC3    C6 9885   3.780   0.930  15.389 -0.7474 -0.1487  0.0422
  668TMC3     C 9886   3.662   0.800  15.002  0.3100 -0.1038  0.3094
  668TMC3     O 9887   3.735   0.809  14.904  0.0906 -0.2547 -0.4219
  668TMC3     H 9888   3.858   0.998  15.070 -1.5169 -0.4130 -0.9190
  668TMC3    H1 9889   3.579   0.706  15.233 -0.2001  0.5318 -0.6391
  668TMC3    H2 9890   3.810   0.965  15.487 -0.4048 -3.0825  0.9674
  668TMC3    C7 9891   3.616   0.785  15.479 -0.1632  0.3088  0.0390
  668TMC3    C8 9892   3.935   1.095  15.294  0.2976 -0.4925 -0.2733
  668TMC3    O1 9893   3.652   0.831  15.586  0.0374  0.4611 -0.7250
  668TMC3    O2 9894   3.975   1.104  15.409  0.9467 -0.1665 -0.1112
  669TMC3    C1 9895   1.988   1.031  14.403 -0.8456  0.3697 -0.1434
  669TMC3    C2 9896   1.864   1.057  14.348  0.4729 -0.5745 -0.1334
  669TMC3    C3 9897   1.854   1.141  14.242  0.0816  0.0847  0.4943
  669TMC3    C4 9898   2.100   1.082  14.348 -0.3706 -0.2177  0.5392
  669TMC3    C5 9899   2.085   1.157  14.234  0.2950  0.5645 -0.3784
  669TMC3    C6 9900   1.963   1.197  14.186 -0.2267  0.7841  0.3639
  669TMC3     C 9901   1.995   0.931  14.508 -0.5101  0.0423 -0.3685
  669TMC3     O 9902   1.892   0.878  14.546 -0.3554  0.3843  0.3643
  669TMC3     H 9903   1.774   1.008  14.383 -0.5616  0.0599 -1.9148
  669TMC3    H1 9904   2.195   1.069  14.398 -0.1284 -0.3474  0.0509
  669TMC3    H2 9905   1.949   1.243  14.089 -0.1313  2.3770  1.1005
  669TMC3    C7 9906   2.208   1.219  14.175  0.1637  0.5596 -0.6067
  669TMC3    C8 9907   1.722   1.159  14.189  0.3101  0.0779 -0.0642
  669TMC3    O1 9908   2.301   1.226  14.248 -0.3204 -0.4433  0.0047
  669TMC3    O2 9909   1.634   1.070  14.205 -0.2780  0.1432 -0.3115
  670MPD2     C 9910   4.660   3.262  13.797 -0.1575 -0.4548  0.4610
  670MPD2    C1 9911   0.036   3.288  13.888  0.1170 -0.2761  0.6563
  670MPD2    C2 9912   0.051   3.212  14.002  0.4159 -0.5857  0.0275
  670MPD2    C3 9913   4.678   3.117  14.024  0.1357 -0.3090  0.2059
  670MPD2    C4 9914   4.582   3.083  13.931 -0.4844  0.6562 -0.1376
  670MPD2    C5 9915   4.577   3.159  13.815 -0.4800 -0.0630 -0.2772
  670MPD2     H 9916   0.135   3.230  14.068 -0.1810  2.7594 -0.1295
  670MPD2    H1 9917   4.503   3.010  13.943  0.4849 -0.2890  0.4406
  670MPD2    H2 9918   4.650   3.322  13.708 -0.9197 -0.4321  0.5636
  670MPD2    H3 9919   4.498   3.143  13.742 -2.0924 -0.9155  1.6509
  670MPD2     N 9920   4.689   3.062  14.153  0.1898 -0.2473  0.1270
  670MPD2    H5 9921   0.032   3.108  14.215  2.5079 -2.0949 -0.9576
  670MPD2    N1 9922   0.131   3.392  13.873 -0.0508 -0.0966  0.2754
  670MPD2    H7 9923   0.193   3.404  13.953  0.5908  1.4893 -0.4473
  671TMC3    C1 9924   4.676   2.886  14.316 -0.2554  0.3235  0.1934
  671TMC3    C2 9925   0.058   2.942  14.386 -0.8872 -0.0042 -0.3487
  671TMC3    C3 9926   0.119   2.860  14.479  0.4990  0.8637 -0.3664
  671TMC3    C4 9927   4.616   2.768  14.336 -0.0993  0.4253 -0.1376
  671TMC3    C5 9928   4.693   2.688  14.411 -0.0907  0.5161  0.1045
  671TMC3    C6 9929   0.070   2.735  14.493  0.0666  0.1517  0.2735
  671TMC3     C 9930   4.627   2.946  14.192 -0.4789 -0.2611 -0.4745
  671TMC3     O 9931   4.549   2.879  14.130  0.1597 -0.0251  0.3790
  671TMC3     H 9932   0.104   3.034  14.354  1.2156 -1.2390 -0.8457
  671TMC3    H1 9933   4.538   2.723  14.274 -0.7632 -0.4858  1.3706
  671TMC3    H2 9934   0.139   2.663  14.537  2.1392  2.0153  0.0379
  671TMC3    C7 9935   0.003   2.577  14.328 -0.2304 -0.4374  0.8982
  671TMC3    C8 9936   0.259   2.875  14.492 -0.2210  0.1580 -0.4517
  671TMC3    O1 9937   0.123   2.546  14.322  0.1473 -0.2661  0.0725
  671TMC3    O2 9938   0.314   2.917  14.388  0.2339  0.5062  0.4504
  672MPD2     C 9939   1.361   3.237   1.475 -0.0850  0.1525 -0.2570
  672MPD2    C1 9940   1.297   3.331   1.400  0.1359  0.5114  0.5906
  672MPD2    C2 9941   1.273   3.451   1.459 -0.2072  0.2025  0.2066
  672MPD2    C3 9942   1.290   3.474   1.598  0.0642 -0.6082  0.1384
  672MPD2    C4 9943   1.344   3.376   1.673 -0.4166  0.3726  0.3715
  672MPD2    C5 9944   1.387   3.261   1.606  0.2058 -1.3355  0.0584
  672MPD2     H 9945   1.215   3.522   1.400 -0.0055 -0.1377 -0.3966
  672MPD2    H1 9946   1.358   3.385   1.780  1.8823 -1.8619  0.2658
  672MPD2    H2 9947   1.386   3.144   1.426  1.3744  0.0365  0.7075
  672MPD2    H3 9948   1.421   3.175   1.663 -0.5207 -3.2691 -2.4123
  672MPD2     N 9949   1.253   3.595   1.663  0.1220  0.4459 -0.1221
  672MPD2    H5 9950   1.271   3.583   1.762  0.5591 -0.8424 -0.3536
  672MPD2    N1 9951   1.264   3.313   1.263 -0.2592 -0.3991 -0.7088
  672MPD2    H7 9952   1.217   3.392   1.221  0.0860 -0.1653 -0.6564
  673TMC3    C1 9953   1.184   3.203   1.076  0.6226 -0.2471  0.3060
  673TMC3    C2 9954   1.111   3.082   1.066  0.2871  0.4519 -0.0608
  673TMC3    C3 9955   0.974   3.089   1.038  0.0610  0.1357  0.7225
  673TMC3    C4 9956   1.128   3.322   1.056 -0.3168  0.3860  0.6417
  673TMC3    C5 9957   0.991   3.327   1.037  0.2791 -0.0955 -0.2636
  673TMC3    C6 9958   0.912   3.213   1.021 -0.0831  0.5877  0.3199
  673TMC3     C 9959   1.279   3.203   1.186 -0.4050 -0.6447 -0.4369
  673TMC3     O 9960   1.338   3.099   1.207  0.1992  0.0812 -0.1014
  673TMC3     H 9961   1.161   2.987   1.077 -0.0036  0.3534  0.4672
  673TMC3    H1 9962   1.186   3.413   1.061  0.2912  0.0654 -0.3107
  673TMC3    H2 9963   0.805   3.222   1.007 -0.0200 -0.6491 -1.0286
  673TMC3    C7 9964   0.924   3.406   1.138 -0.7531  1.0731 -0.5589
  673TMC3    C8 9965   0.900   2.989   1.122 -0.0914 -0.1571 -0.7557
  673TMC3    O1 9966   0.863   3.341   1.221  0.1690 -0.1742  0.2506
  673TMC3    O2 9967   0.973   2.926   1.200 -0.0922  0.4863  0.3067
  674MPD2     C 9968   0.706   3.796   0.813  0.3922 -0.7812 -0.3593
  674MPD2    C1 9969   0.698   3.664   0.847 -0.1144  0.6544 -0.2175
  674MPD2    C2 9970   0.637   3.622   0.966  0.1753 -0.1711  0.5968
  674MPD2    C3 9971   0.599   3.718   1.055  0.0173  0.3901  0.1522
  674MPD2    C4 9972   0.605   3.855   1.029 -0.5484 -0.1999  0.7640
  674MPD2    C5 9973   0.656   3.888   0.902  0.4237  0.3646 -0.2088
  674MPD2     H 9974   0.632   3.518   0.995 -2.6421  0.0002  0.8176
  674MPD2    H1 9975   0.576   3.923   1.108  1.6492  1.4856  0.1051
  674MPD2    H2 9976   0.745   3.826   0.717  1.2718 -1.6874 -0.2859
  674MPD2    H3 9977   0.653   3.993   0.874  1.9379  0.2840 -0.6743
  674MPD2     N 9978   0.527   3.667   1.169  0.2830  0.3317 -0.0720
  674MPD2    H5 9979   0.508   3.568   1.163 -0.6011  0.3338  2.8887
  674MPD2    N1 9980   0.752   3.573   0.750 -0.0696  0.0440 -0.0699
  674MPD2    H7 9981   0.769   3.617   0.660 -0.7043 -2.3566 -1.3776
  675TMC3    C1 9982   0.810   3.376   0.636  0.9551 -0.2048  0.4481
  675TMC3    C2 9983   0.761   3.251   0.611  0.2889  0.0515 -0.3270
  675TMC3    C3 9984   0.822   3.173   0.512 -0.0055 -0.0426 -0.1778
  675TMC3    C4 9985   0.919   3.430   0.575  0.2931 -0.2762  0.7023
  675TMC3    C5 9986   0.979   3.350   0.477 -0.1487  0.0193  0.4592
  675TMC3    C6 9987   0.925   3.231   0.440  0.1660  0.5527 -0.1099
  675TMC3     C 9988   0.752   3.438   0.753  0.0769 -0.4851 -0.4503
  675TMC3     O 9989   0.715   3.362   0.843  0.1226  0.2013 -0.5871
  675TMC3     H 9990   0.697   3.207   0.687  1.6879 -0.5022  0.5338
  675TMC3    H1 9991   0.954   3.530   0.598  0.3829 -0.3155  0.7394
  675TMC3    H2 9992   0.971   3.170   0.363 -0.5030  0.1742 -0.2145
  675TMC3    C7 9993   1.007   3.423   0.356  0.3962 -0.4959 -0.0371
  675TMC3    C8 9994   0.805   3.032   0.504  0.3678  0.4484 -0.0906
  675TMC3    O1 9995   0.959   3.374   0.252 -0.0789  0.4938 -0.4766
  675TMC3    O2 9996   0.860   2.967   0.415  0.7970 -0.2087  0.1759
  676MPD2     C 9997   3.228   1.986  11.215  0.2852  0.1320  0.5668
  676MPD2    C1 9998   3.098   1.938  11.215  0.5255 -0.1390 -0.5568
  676MPD2    C2 9999   3.088   1.802  11.186 -0.2614  0.1764 -0.6106
  676MPD2    C310000   3.193   1.717  11.143  0.7025 -0.0351  0.6835
  676MPD2    C410001   3.317   1.781  11.131 -0.7205  1.0138 -0.7397
  676MPD2    C510002   3.336   1.907  11.173  0.3171 -0.5845 -0.3216
  676MPD2     H10003   2.988   1.763  11.200 -0.2746  0.2323 -0.5501
  676MPD2    H110004   3.405   1.726  11.099 -1.5853 -1.3490  1.0157
  676MPD2    H210005   3.250   2.092  11.225  0.7840 -0.2307  3.3004
  676MPD2    H310006   3.435   1.946  11.150  0.7589 -1.3045  0.3634
  676MPD2     N10007   3.182   1.574  11.129  0.6895 -0.5803 -0.4790
  676MPD2    H510008   3.249   1.530  11.066  1.2958  1.0495 -0.9669
  676MPD2    N110009   2.988   2.020  11.254 -0.6191 -0.4316  0.1714
  676MPD2    H710010   2.914   1.961  11.292 -0.2114 -1.4511 -0.6257
  677TMC3    C110011   2.868   2.211  11.315 -0.2133 -0.1450  0.1005
  677TMC3    C210012   2.789   2.134  11.391 -0.1659  0.1379  0.6906
  677TMC3    C310013   2.682   2.192  11.459  0.2495  0.2644 -0.1512
  677TMC3    C410014   2.857   2.350  11.311 -0.4641  0.3231 -0.2928
  677TMC3    C510015   2.746   2.396  11.370 -0.2238 -0.9272 -0.5901
  677TMC3    C610016   2.662   2.323  11.446  0.1851  0.1078 -0.4629
  677TMC3     C10017   2.988   2.159  11.256 -0.2113  0.2399  0.2848
  677TMC3     O10018   3.079   2.234  11.216 -0.1850  0.0089  0.4458
  677TMC3     H10019   2.794   2.026  11.396 -0.8812  0.0823  0.2094
  677TMC3    H110020   2.912   2.409  11.239  0.0728 -3.8230 -3.2387
  677TMC3    H210021   2.571   2.365  11.486  1.7488  2.2687  0.8654
  677TMC3    C710022   2.733   2.532  11.407  0.7039  0.1955 -0.3259
  677TMC3    C810023   2.686   2.146  11.596 -0.0426 -0.2422  0.0113
  677TMC3    O110024   2.625   2.579  11.450 -0.4689 -0.0666 -0.4501
  677TMC3    O210025   2.794   2.095  11.618 -0.8137  0.2686  0.2219
  678MPD2     C10026   4.022   1.703   2.062 -0.5991 -0.0200 -0.2603
  678MPD2    C110027   4.028   1.715   1.920 -0.3515  0.0759  0.2840
  678MPD2    C210028   3.917   1.761   1.852  0.0154 -0.6702  0.4782
  678MPD2    C310029   3.801   1.795   1.918 -0.6811 -0.1420  0.1064
  678MPD2    C410030   3.803   1.786   2.056 -0.1414 -0.3971 -0.0866
  678MPD2    C510031   3.910   1.746   2.125 -0.6158  0.1993  0.4532
  678MPD2     H10032   3.905   1.758   1.745  1.2695 -2.4132  0.3913
  678MPD2    H110033   3.713   1.811   2.110  0.4290 -0.4145  0.8704
  678MPD2    H210034   4.110   1.671   2.116 -0.2052 -1.5701 -1.8147
  678MPD2    H310035   3.903   1.742   2.233 -0.1798 -0.7313  0.4392
  678MPD2     N10036   3.685   1.812   1.835  0.7377  0.0426  0.1303
  678MPD2    H510037   3.701   1.791   1.736  2.2469  2.0840 -0.0744
  678MPD2    N110038   4.149   1.689   1.852  0.6076  0.2944 -0.2737
  678MPD2    H710039   4.157   1.726   1.758 -0.4548  1.6804  0.1955
  679TMC3    C110040   4.544   1.488   1.722  0.4504  0.2897  0.0810
  679TMC3    C210041   4.445   1.496   1.815  0.4435  0.0363 -0.6165
  679TMC3    C310042   4.366   1.606   1.807  0.7072 -0.3010 -0.0566
  679TMC3    C410043   4.570   1.589   1.636  0.2488  0.1804 -0.7755
  679TMC3    C510044   4.495   1.707   1.644  0.1135 -0.5367  0.4304
  679TMC3    C610045   4.396   1.718   1.739 -0.2956  0.0053 -0.3472
  679TMC3     C10046   4.645   1.384   1.741 -0.4026 -0.0606 -0.2383
  679TMC3     O10047   0.037   1.426   1.718  0.1451 -0.0753 -1.0679
  679TMC3     H10048   4.431   1.421   1.891 -2.8883  0.3725 -0.9057
  679TMC3    H110049   4.638   1.556   1.558  1.5375 -0.2385  0.5241
  679TMC3    H210050   4.345   1.813   1.751 -0.5610 -0.6934  4.1617
  679TMC3    C710051   4.502   1.811   1.544  0.3251  0.3202 -1.0203
  679TMC3    C810052   4.252   1.610   1.898 -0.3393  0.3418 -0.9190
  679TMC3    O110053   4.394   1.862   1.524 -0.1697  0.2967  0.4394
  679TMC3    O210054   4.256   1.540   1.998  0.0611  0.1962  0.3263
  680MPD2     C10055   0.054   0.678  14.318 -0.4969  1.2253 -0.5472
  680MPD2    C110056   0.118   0.704  14.436  0.5281  0.2192 -0.6728
  680MPD2    C210057   0.217   0.803  14.443 -0.7030 -0.3307 -0.2351
  680MPD2    C310058   0.230   0.899  14.340  0.5706  0.2594  0.4492
  680MPD2    C410059   0.163   0.877  14.227 -0.2721  0.3266  0.1852
  680MPD2    C510060   0.079   0.764  14.210 -0.3554  0.4167  0.4222
  680MPD2     H10061   0.276   0.817  14.533 -0.3087  0.1973 -0.5752
  680MPD2    H110062   0.166   0.939  14.138  0.8285  1.7639  1.2249
  680MPD2    H210063   4.714   0.591  14.304  0.6485  0.5171 -1.3154
  680MPD2    H310064   0.035   0.735  14.116  1.2317  0.1278 -0.2256
  680MPD2     N10065   0.307   1.015  14.357  0.8942  0.5705 -0.2486
  680MPD2    H510066   0.328   1.065  14.271  2.7606 -1.0794 -0.7650
  680MPD2    N110067   0.109   0.616  14.548  0.4971 -0.3114 -0.1205
  680MPD2    H710068   0.177   0.623  14.624  0.3934 -0.9703  0.0373
  681TMC3    C110069   0.031   0.426  14.666 -0.4703  0.1153 -0.1378
  681TMC3    C210070   0.148   0.430  14.740  0.5463  0.5167 -0.9761
  681TMC3    C310071   0.197   0.308  14.787  0.0747  0.7765  0.4990
  681TMC3    C410072   4.683   0.315  14.633 -0.0462 -0.2647 -0.3830
  681TMC3    C510073   0.022   0.200  14.673 -0.0051 -0.0209  0.2560
  681TMC3    C610074   0.141   0.194  14.747 -0.0427 -0.6285  0.4382
  681TMC3     C10075   0.010   0.527  14.562 -0.1406 -0.7402 -0.2936
  681TMC3     O10076   4.637   0.510  14.488 -0.0357  0.0944 -0.4566
  681TMC3     H10077   0.191   0.525  14.769 -0.2645  0.4806  0.3285
  681TMC3    H110078   4.592   0.309  14.575 -0.0949 -0.5185 -0.2806
  681TMC3    H210079   0.188   0.100  14.772 -0.1843 -0.9051 -0.3191
  681TMC3    C710080   4.714   0.092  14.580 -0.2476  0.7890 -0.9231
  681TMC3    C810081   0.282   0.309  14.904 -0.1542 -0.9662  0.5803
  681TMC3    O110082   4.599   0.077  14.545  0.1019  0.0027  0.2917
  681TMC3    O210083   0.295   0.202  14.960 -0.2582 -0.0025 -0.0084
  682MPD2     C10084   1.580   2.760  10.906  0.1196 -0.0024 -0.0233
  682MPD2    C110085   1.696   2.694  10.879  0.4683 -0.0460  0.3883
  682MPD2    C210086   1.800   2.694  10.968 -0.2123 -0.2983 -0.0211
  682MPD2    C310087   1.793   2.750  11.089 -0.5315 -0.1780 -1.1975
  682MPD2    C410088   1.680   2.825  11.116  0.2717 -0.0094  0.1264
  682MPD2    C510089   1.575   2.822  11.026  0.1584  0.4489  0.2037
  682MPD2     H10090   1.897   2.658  10.935  0.1691  1.9536 -1.4007
  682MPD2    H110091   1.666   2.877  11.210 -2.7501  1.2763 -1.0340
  682MPD2    H210092   1.492   2.755  10.842  0.2306  1.3463 -0.2893
  682MPD2    H310093   1.481   2.868  11.055 -0.8210 -0.3750 -1.6539
  682MPD2     N10094   1.894   2.742  11.182 -0.4591  0.0401  0.3500
  682MPD2    H510095   1.883   2.782  11.275  0.2405  0.0874  0.4091
  682MPD2    N110096   1.715   2.606  10.768 -0.9302  0.1206  0.3615
  682MPD2    H710097   1.810   2.582  10.743 -0.2270  1.9835  1.2620
  683TMC3    C110098   1.962   2.504  11.456 -0.0585 -0.6104 -0.6936
  683TMC3    C210099   2.024   2.380  11.425 -0.1669  0.1983  0.9298
  683TMC3    C310100   2.093   2.370  11.309  0.0313  0.2452  0.5657
  683TMC3    C410101   1.976   2.615  11.379 -0.1654  0.5342 -0.0996
  683TMC3    C510102   2.052   2.603  11.266  0.2342 -0.0543  0.3848
  683TMC3    C610103   2.102   2.482  11.230 -0.3078 -0.3708  0.2730
  683TMC3     C10104   1.930   2.522  11.593 -0.0871  0.1211 -0.6059
  683TMC3     O10105   1.999   2.469  11.681  0.1680 -0.0616 -0.6492
  683TMC3     H10106   2.001   2.291  11.483  0.1687 -1.6242 -1.7241
  683TMC3    H110107   1.967   2.715  11.419 -1.3111  0.3574  0.0890
  683TMC3    H210108   2.142   2.473  11.130  2.0346 -0.3759  1.2163
  683TMC3    C710109   2.020   2.690  11.156 -1.0286  0.6837  0.0004
  683TMC3    C810110   2.112   2.247  11.237 -0.0273 -0.0915 -0.1643
  683TMC3    O110111   2.077   2.671  11.047 -0.2020 -0.5366  0.3290
  683TMC3    O210112   2.207   2.248  11.159  0.1411  0.3270  0.1383
  684MPD2     C10113   4.484   1.841  16.880  0.7313 -0.2019  0.4935
  684MPD2    C110114   4.606   1.818  16.826  0.3157 -0.2223 -0.2813
  684MPD2    C210115   4.694   1.925  16.808 -0.3622  0.6447 -0.4751
  684MPD2    C310116   4.634   2.052  16.833  0.0415  0.4267  0.1953
  684MPD2    C410117   4.520   2.067  16.912 -1.2526  0.2444 -0.3552
  684MPD2    C510118   4.442   1.960  16.924 -0.7014 -0.5444  0.2763
  684MPD2     H10119   0.065   1.911  16.756  0.8898  0.4077  1.8715
  684MPD2    H110120   4.483   2.163  16.945  0.5296  0.9876 -0.5004
  684MPD2    H210121   4.414   1.759  16.892 -1.7779  1.8204 -0.4580
  684MPD2    H310122   4.344   1.960  16.971 -0.4027 -3.4579  0.8589
  684MPD2     N10123   4.705   2.173  16.811 -0.2408  0.3439 -0.2022
  684MPD2    H510124   4.672   2.261  16.848 -0.8359 -0.1213  0.3770
  684MPD2    N110125   4.650   1.687  16.782 -0.2375 -0.3571  0.1148
  684MPD2    H710126   0.025   1.675  16.755  0.3382  1.8384  1.2772
  685TMC3    C110127   4.638   1.476  16.692  0.0164  0.2861 -0.1272
  685TMC3    C210128   4.589   1.405  16.588  0.2255  0.0876 -0.3126
  685TMC3    C310129   4.653   1.293  16.547 -0.2000 -0.0261 -0.2967
  685TMC3    C410130   0.042   1.447  16.745 -0.0646 -0.7691  0.6300
  685TMC3    C510131   0.105   1.334  16.692  0.5988  0.2290  0.1323
  685TMC3    C610132   0.052   1.253  16.597  0.9717 -0.5009 -0.1881
  685TMC3     C10133   4.565   1.584  16.758 -0.2302  0.1268 -0.8249
  685TMC3     O10134   4.446   1.575  16.758  0.3331 -0.6722  0.0888
  685TMC3     H10135   4.497   1.438  16.541 -0.6599 -0.7119  0.8510
  685TMC3    H110136   0.087   1.516  16.816  0.4374 -1.8374  1.3380
  685TMC3    H210137   0.114   1.174  16.559  0.2198 -1.6889  1.0435
  685TMC3    C710138   0.247   1.313  16.725  0.0344  0.2365  0.5056
  685TMC3    C810139   4.598   1.221  16.429 -0.4791  0.5896 -0.5659
  685TMC3    O110140   0.298   1.215  16.678 -0.0816 -0.3379 -0.0620
  685TMC3    O210141   4.515   1.288  16.366 -0.1499  0.1139  0.0007
  686MPD2     C10142   1.563   1.111  15.994 -0.2616 -0.3918  0.6287
  686MPD2    C110143   1.462   1.036  16.042  0.3412  0.0521 -0.1995
  686MPD2    C210144   1.436   0.915  15.981 -0.3670  1.0275  0.1835
  686MPD2    C310145   1.515   0.851  15.885  0.2120  0.7106 -0.0160
  686MPD2    C410146   1.620   0.925  15.834  0.7560  0.5159 -0.7351
  686MPD2    C510147   1.635   1.054  15.889 -0.1724 -0.0420  0.0301
  686MPD2     H10148   1.350   0.855  16.008 -1.1005  4.0740  4.6483
  686MPD2    H110149   1.683   0.892  15.752  1.9534  0.1540  0.3305
  686MPD2    H210150   1.565   1.216  16.022 -1.5900 -0.9349  2.7796
  686MPD2    H310151   1.715   1.114  15.847  0.4494 -0.7509  0.1876
  686MPD2     N10152   1.472   0.728  15.821  0.8060  0.2191  0.3264
  686MPD2    H510153   1.533   0.694  15.747  1.7494  0.4153  1.0084
  686MPD2    N110154   1.364   1.091  16.125 -0.3421  0.1983  0.4586
  686MPD2    H710155   1.384   1.186  16.154  0.6988  0.1878 -0.2349
  687TMC3    C110156   1.368   0.613  16.010 -0.0664 -0.0356  0.1073
  687TMC3    C210157   1.242   0.576  16.044  0.1509 -0.4030 -0.3092
  687TMC3    C310158   1.217   0.541  16.179  0.2393 -0.3188  0.0885
  687TMC3    C410159   1.472   0.620  16.100 -0.5796  0.9777  0.7184
  687TMC3    C510160   1.441   0.592  16.224  0.1384 -0.9884 -0.2536
  687TMC3    C610161   1.322   0.542  16.267  0.3889  0.4632 -0.0432
  687TMC3     C10162   1.386   0.637  15.869  0.1788 -0.8110  0.6270
  687TMC3     O10163   1.320   0.558  15.804  0.1741 -0.5429  0.3213
  687TMC3     H10164   1.163   0.565  15.970 -0.6973  1.6656  0.2976
  687TMC3    H110165   1.566   0.659  16.061 -0.3353  0.2737  0.6085
  687TMC3    H210166   1.294   0.536  16.371 -0.0410  0.7063 -0.1417
  687TMC3    C710167   1.496   0.688  16.321  0.1207 -0.2830  0.3966
  687TMC3    C810168   1.094   0.585  16.220  0.3927 -0.0334 -0.2957
  687TMC3    O110169   1.463   0.672  16.438  0.4747  0.0830 -0.2023
  687TMC3    O210170   1.031   0.534  16.309 -0.2193 -0.6847  0.4183
  688MPD2     C10171   1.182   0.039   0.084 -0.4199  0.3030  0.4134
  688MPD2    C110172   1.256   4.657   0.125 -0.4846  0.4602 -0.0080
  688MPD2    C210173   1.339   4.586   0.039  0.3111 -0.2454  0.0514
  688MPD2    C310174   1.339   4.620  17.596 -0.7541 -0.5382  0.5624
  688MPD2    C410175   1.252   4.718  17.556 -0.4137 -0.9693  1.0129
  688MPD2    C510176   1.178   0.063  17.644 -0.0458  0.0781  0.1088
  688MPD2     H10177   1.412   4.523   0.090 -0.0155 -1.1247 -0.5604
  688MPD2    H110178   1.243   0.021  17.451 -0.8589 -1.4367  0.9374
  688MPD2    H210179   1.118   0.098   0.148 -0.7518  1.0125 -0.5862
  688MPD2    H310180   1.124   0.153  17.615  0.9152  0.0120 -1.8965
  688MPD2     N10181   1.426   4.560  17.501  0.8783  0.5499 -0.5146
  688MPD2    H510182   1.419   4.602  17.408 -0.0634  0.6282 -0.4027
  688MPD2    N110183   1.258   4.617   0.257 -0.4847 -0.3290 -1.1041
  688MPD2    H710184   1.301   4.528   0.278  0.3330  0.2971 -0.0996
  689TMC3    C110185   1.235   4.640   0.493 -0.3875  0.1614  0.0667
  689TMC3    C210186   1.243   0.011   0.592  0.1217 -0.4096 -0.6763
  689TMC3    C310187   1.250   4.682   0.722 -0.1647 -0.2786 -0.3509
  689TMC3    C410188   1.199   4.509   0.515 -0.1476 -0.3218  0.1774
  689TMC3    C510189   1.221   4.463   0.636  0.4317  0.2614  0.4292
  689TMC3    C610190   1.243   4.550   0.737  0.1540  0.1157  0.3120
  689TMC3     C10191   1.211   4.695   0.363  0.0165  0.4574 -0.1671
  689TMC3     O10192   1.179   0.089   0.368  0.1185 -0.1020  0.2274
  689TMC3     H10193   1.274   0.114   0.578 -2.4102  0.4463 -0.0315
  689TMC3    H110194   1.176   4.449   0.427  0.6245  1.0065 -0.9236
  689TMC3    H210195   1.271   4.513   0.835  0.8058  0.6276  0.3212
  689TMC3    C710196   1.214   4.318   0.657  0.1805  0.2576 -0.3409
  689TMC3    C810197   1.231   0.046   0.844 -0.3804 -0.4873  0.4073
  689TMC3    O110198   1.276   4.285   0.759 -0.5608  0.1418 -1.2147
  689TMC3    O210199   1.214   4.713   0.952  0.2046  0.3695  0.4791
  690MPD2     C10200   3.117   1.634  15.708 -0.3305  1.2143  0.0012
  690MPD2    C110201   2.994   1.684  15.661  0.3252 -0.0826 -0.2365
  690MPD2    C210202   2.978   1.818  15.631  0.7957  0.1674 -0.0700
  690MPD2    C310203   3.092   1.900  15.637 -0.0751 -0.6775  0.1431
  690MPD2    C410204   3.212   1.849  15.680  0.4307 -0.1038 -0.3657
  690MPD2    C510205   3.222   1.719  15.718  0.3504  0.0951  0.3409
  690MPD2     H10206   2.878   1.842  15.598  1.4942  0.6674 -1.8399
  690MPD2    H110207   3.308   1.900  15.685 -1.0594  2.7135 -0.3878
  690MPD2    H210208   3.137   1.530  15.733  2.2019  1.7566  0.1878
  690MPD2    H310209   3.313   1.675  15.759 -0.1447 -0.4882  0.8139
  690MPD2     N10210   3.076   2.031  15.583 -0.5858  0.2071  0.1707
  690MPD2    H510211   2.987   2.044  15.536 -0.3098  1.4472 -0.0100
  690MPD2    N110212   2.884   1.599  15.654 -0.3778 -0.8034 -0.3978
  690MPD2    H710213   2.792   1.642  15.644 -0.2717 -0.5040 -0.1023
  691TMC3    C110214   2.765   1.392  15.639  0.1865  0.2201  0.0880
  691TMC3    C210215   2.662   1.432  15.724  0.0557  0.2920  0.2824
  691TMC3    C310216   2.577   1.326  15.767 -0.2292  0.3915 -0.2060
  691TMC3    C410217   2.773   1.267  15.592 -0.0959  0.0031 -0.7886
  691TMC3    C510218   2.676   1.176  15.627  0.6458  0.2121 -0.5326
  691TMC3    C610219   2.590   1.198  15.731 -0.1256 -0.4065  0.8838
  691TMC3     C10220   2.889   1.461  15.646  0.7279  0.0426  0.4372
  691TMC3     O10221   2.988   1.387  15.639 -0.2924  0.0391 -0.0186
  691TMC3     H10222   2.656   1.536  15.752 -1.0945  0.4241 -0.4620
  691TMC3    H110223   2.852   1.238  15.524  1.4547  0.6906  0.7106
  691TMC3    H210224   2.547   1.116  15.787  0.6422 -0.9946  0.6176
  691TMC3    C710225   2.698   1.034  15.599  0.3954  0.3339  0.4643
  691TMC3    C810226   2.493   1.346  15.883  0.1902  0.4010  0.0708
  691TMC3    O110227   2.814   1.001  15.577  0.1986 -0.1293  0.4080
  691TMC3    O210228   2.429   1.253  15.927  0.6619  0.1652  0.1146
  692TMC3    C110229   4.704   3.210  16.018 -0.6062  0.2495 -0.2380
  692TMC3    C210230   0.102   3.270  16.041  0.5812 -0.0264 -0.0951
  692TMC3    C310231   0.223   3.189  16.054  0.5887  0.1303  0.2737
  692TMC3    C410232   4.697   3.080  15.977  0.6048  0.2189  0.6019
  692TMC3    C510233   0.097   3.017  15.972  0.4048  0.1867  0.1176
  692TMC3    C610234   0.212   3.056  16.028 -0.1109  0.0054 -0.4560
  692TMC3     C10235   4.576   3.272  16.054 -0.6464  0.0647  0.0252
  692TMC3     O10236   4.473   3.211  16.039 -0.3299 -0.3982  0.0024
  692TMC3     H10237   0.106   3.373  16.073  0.2392  0.2607 -0.9642
  692TMC3    H110238   4.601   3.034  15.957  0.5309  0.7519 -0.2871
  692TMC3    H210239   0.304   2.999  16.030 -0.2013 -0.1221  0.0207
  692TMC3    C710240   0.081   2.880  15.953  0.9436 -0.0076  0.3547
  692TMC3    C810241   0.285   3.190  16.189 -0.2375  0.3167  0.5440
  692TMC3    O110242   4.704   2.845  15.886  0.3124 -0.1202  0.4515
  692TMC3    O210243   0.317   3.080  16.238 -0.3202 -0.3217  0.4819
  693MPD2     C10244   4.031   0.991  10.820 -0.2951  0.3017  0.6003
  693MPD2    C110245   4.004   0.855  10.838 -0.4127  0.3482 -0.5438
  693MPD2    C210246   4.107   0.778  10.881 -0.1431  0.2333 -0.2345
  693MPD2    C310247   4.230   0.828  10.910  0.2014 -0.1307 -0.3794
  693MPD2    C410248   4.267   0.953  10.875 -0.5347 -0.1768  0.9633
  693MPD2    C510249   4.161   1.032  10.827 -0.0037 -0.1814  0.3955
  693MPD2     H10250   4.078   0.674  10.893 -1.7949  0.4920 -2.0964
  693MPD2    H110251   4.364   0.997  10.893  0.2338 -2.0151  1.3248
  693MPD2    H210252   3.946   1.046  10.781 -2.9241 -1.9293  3.2342
  693MPD2    H310253   4.188   1.136  10.808 -1.9693  0.4265  0.8745
  693MPD2     N10254   4.334   0.742  10.960 -0.4775  0.0083 -0.1926
  693MPD2    H510255   4.428   0.781  10.967 -0.4701  0.1110 -0.8060
  693MPD2    N110256   3.871   0.814  10.813  0.7053 -0.0218 -0.2271
  693MPD2    H710257   3.794   0.881  10.813  0.3947 -0.3845 -1.0919
  694TMC3    C110258   3.715   0.645  10.787 -0.1458  0.1478  0.2068
  694TMC3    C210259   3.646   0.563  10.700 -0.2195 -0.1169  0.5787
  694TMC3    C310260   3.517   0.535  10.735 -0.6076 -0.1495 -0.1516
  694TMC3    C410261   3.664   0.674  10.907 -0.1139  0.1784 -0.1818
  694TMC3    C510262   3.543   0.636  10.945  0.0411 -0.0136 -0.3527
  694TMC3    C610263   3.460   0.574  10.857  0.0814 -0.6120  0.1303
  694TMC3     C10264   3.855   0.682  10.773  0.6807  0.8897  0.3882
  694TMC3     O10265   3.929   0.604  10.713  0.3029  0.1387  0.1062
  694TMC3     H10266   3.688   0.520  10.609 -0.5705  1.8075 -0.4994
  694TMC3    H110267   3.719   0.714  10.992 -1.7408 -0.1240  1.0208
  694TMC3    H210268   3.360   0.542  10.884 -0.5597  0.3148 -1.1459
  694TMC3    C710269   3.487   0.696  11.066 -0.2000 -0.2154  0.0247
  694TMC3    C810270   3.432   0.448  10.653 -0.0767 -0.6950  0.1983
  694TMC3    O110271   3.548   0.797  11.095 -0.6535  0.7677  0.3765
  694TMC3    O210272   3.337   0.398  10.716  0.0552 -0.0869 -0.4310
  695MPD2     C10273   0.906   2.943  13.701 -0.5347  1.4407 -0.2509
  695MPD2    C110274   0.845   2.878  13.804 -0.5765  0.3032 -0.4567
  695MPD2    C210275   0.712   2.839  13.796 -0.7233 -0.0772 -0.1307
  695MPD2    C310276   0.637   2.862  13.691 -0.3984  0.2791 -0.0114
  695MPD2    C410277   0.699   2.918  13.585 -0.1870  0.3941 -0.6911
  695MPD2    C510278   0.831   2.961  13.587  0.1279 -0.2558  0.4779
  695MPD2     H10279   0.679   2.780  13.881  0.0644 -0.8906 -0.3795
  695MPD2    H110280   0.647   2.934  13.491  1.1898 -2.2583 -1.8908
  695MPD2    H210281   1.006   2.984  13.706 -0.1306  0.3031  1.0495
  695MPD2    H310282   0.879   3.012  13.503 -0.5423  1.2047  0.9730
  695MPD2     N10283   0.499   2.824  13.697 -0.0033 -0.5958 -0.8302
  695MPD2    H510284   0.474   2.783  13.786  1.4488 -1.3882 -0.7708
  695MPD2    N110285   0.911   2.841  13.928 -0.5256  0.1075 -0.0506
  695MPD2    H710286   0.856   2.787  13.995 -0.8453 -1.5776 -1.6517
  696TMC3    C110287   0.305   2.731  13.603 -0.2597 -0.2258 -0.0772
  696TMC3    C210288   0.317   2.619  13.677  0.6338 -0.1998 -0.0552
  696TMC3    C310289   0.211   2.535  13.696  0.5657  0.4453  0.0270
  696TMC3    C410290   0.195   2.748  13.522 -0.1247  0.4190  0.4829
  696TMC3    C510291   0.097   2.654  13.532  1.1769  0.2456  0.1767
  696TMC3    C610292   0.094   2.553  13.623  0.4366  0.3387 -0.9791
  696TMC3     C10293   0.415   2.819  13.586 -0.0094 -0.6342  0.1369
  696TMC3     O10294   0.424   2.870  13.473 -0.1187  0.0887 -0.0424
  696TMC3     H10295   0.409   2.596  13.729  0.6628 -0.5134 -0.2455
  696TMC3    H110296   0.195   2.824  13.445 -2.2433 -0.1184 -0.0337
  696TMC3    H210297   0.006   2.490  13.630  2.6074 -2.3212  2.4967
  696TMC3    C710298   4.694   2.718  13.498 -0.8612  0.2961 -0.1462
  696TMC3    C810299   0.189   2.490  13.831 -0.0078 -0.3742  0.0701
  696TMC3    O110300   4.682   2.769  13.385 -0.2700 -0.0336  0.3758
  696TMC3    O210301   0.262   2.538  13.915 -0.1360  0.3785  0.4967
  697MPD2     C10302   4.474   4.686  16.005 -0.2381 -0.2674 -0.2914
  697MPD2    C110303   4.477   4.600  15.896  0.3543  0.0427  0.2564
  697MPD2    C210304   4.507   4.659  15.769  0.4611 -0.1218  0.1938
  697MPD2    C310305   4.521   0.070  15.755 -0.8951  0.0387 -0.0534
  697MPD2    C410306   4.505   0.148  15.863  0.1510 -0.2866  0.4294
  697MPD2    C510307   4.488   0.103  15.990 -0.1393 -0.1893  0.1718
  697MPD2     H10308   4.510   4.592  15.683 -1.2657  0.3372 -0.2359
  697MPD2    H110309   4.500   0.256  15.848  0.5156  0.1703  3.6293
  697MPD2    H210310   4.462   4.646  16.105 -0.5912 -0.4963 -0.4267
  697MPD2    H310311   4.483   0.163  16.080 -0.0152 -0.0683  0.0979
  697MPD2     N10312   4.547   0.108  15.624 -0.0568  0.1984  0.2383
  697MPD2    H510313   4.551   0.026  15.563 -0.1668  0.5221 -0.2050
  697MPD2    N110314   4.451   4.459  15.906  0.1123 -0.3277 -0.2990
  697MPD2    H710315   4.452   4.404  15.821 -0.2433 -1.0945  0.1885
  698TMC3    C110316   4.592   0.234  15.430 -0.0461 -0.3862  0.3572
  698TMC3    C210317   4.664   0.335  15.376  0.3927  0.0160 -0.6126
  698TMC3    C310318   4.712   0.312  15.249 -0.5367 -0.3246  0.0450
  698TMC3    C410319   4.568   0.115  15.373  0.9039  0.6527 -0.5826
  698TMC3    C510320   4.626   0.098  15.249  0.8464 -0.1220 -0.3386
  698TMC3    C610321   4.691   0.197  15.185 -0.1141  0.0743 -0.3039
  698TMC3     C10322   4.571   0.233  15.576 -0.4595  0.2590 -0.6578
  698TMC3     O10323   4.575   0.337  15.635  0.0326  0.0729 -0.0350
  698TMC3     H10324   4.661   0.433  15.422  0.1923 -1.3157  2.2069
  698TMC3    H110325   4.503   0.039  15.415 -1.3384  2.1861 -1.2594
  698TMC3    H210326   0.007   0.173  15.087  1.5043 -0.1327  0.3900
  698TMC3    C710327   4.590   4.702  15.173 -0.1234  0.2692 -0.3067
  698TMC3    C810328   0.032   0.420  15.162  0.1995 -0.3072  0.8922
  698TMC3    O110329   4.474   4.655  15.184 -0.7189  0.3068 -0.0707
  698TMC3    O210330   0.002   0.413  15.043  0.0646 -0.7751  0.3141
  699TMC3    C110331   4.008   2.898  13.137 -0.8609  0.2281  0.6162
  699TMC3    C210332   4.088   2.813  13.213  0.3558 -0.1970 -0.2975
  699TMC3    C310333   4.034   2.757  13.327 -0.0145  0.7799 -0.0108
  699TMC3    C410334   3.888   2.948  13.188 -0.5247 -0.3775 -0.0488
  699TMC3    C510335   3.830   2.895  13.300 -0.4294 -0.4304 -0.6927
  699TMC3    C610336   3.907   2.803  13.372  0.4376  0.4362  0.6833
  699TMC3     C10337   4.036   2.912  12.995 -0.4488  0.1114 -0.0268
  699TMC3     O10338   3.943   2.937  12.921  0.3227 -0.3826  0.5460
  699TMC3     H10339   4.164   2.756  13.161  0.9376  0.1824  0.1305
  699TMC3    H110340   3.827   2.986  13.106 -0.0834 -0.2705 -0.3280
  699TMC3    H210341   3.859   2.755  13.456  1.4702 -1.4490  0.1935
  699TMC3    C710342   3.705   2.942  13.350  0.2727  1.0688  0.0446
  699TMC3    C810343   4.086   2.648  13.402  0.8481 -0.2251  0.2648
  699TMC3    O110344   3.629   3.005  13.269 -0.1200  0.0553 -0.4435
  699TMC3    O210345   4.017   2.589  13.483 -0.0194  0.4951 -0.3004
  700TMC3    C110346   3.706   0.113  17.473 -0.2061  0.0308  1.0675
  700TMC3    C210347   3.724   4.722  17.540 -0.0602  0.6512  0.0606
  700TMC3    C310348   3.805   0.016  17.655  0.1544  0.8162 -0.2879
  700TMC3    C410349   3.760   0.233  17.512 -0.2898  0.8713 -0.3159
  700TMC3    C510350   3.829   0.248  17.630  0.4259 -0.3044 -0.0936
  700TMC3    C610351   3.852   0.135   0.007 -0.2450 -0.8855  0.0149
  700TMC3     C10352   3.648   0.099  17.340 -0.4420  0.7242 -0.8697
  700TMC3     O10353   3.650   4.709  17.296 -0.3933  0.3507  0.5219
  700TMC3     H10354   3.701   4.627  17.494 -1.1375  1.3690 -0.8834
  700TMC3    H110355   3.739   0.324  17.458  0.0302  0.7104 -0.7146
  700TMC3    H210356   3.916   0.129   0.094  1.9585 -2.2967 -1.7215
  700TMC3    C710357   3.847   0.385  17.685  0.3297 -0.0814  0.7493
  700TMC3    C810358   3.898   4.627  17.684 -0.4431  0.1817  0.3970
  700TMC3    O110359   3.806   0.484  17.630  0.1866  0.3114 -0.7716
  700TMC3    O210360   4.008   4.647   0.039 -0.4343 -0.3628 -0.1285
  701TMC3    C110361   3.636   3.861  15.946  0.1752  0.4721  0.2231
  701TMC3    C210362   3.615   3.794  15.832 -0.3826 -0.4394 -0.0085
  701TMC3    C310363   3.679   3.847  15.725  0.2688  0.4479 -1.2549
  701TMC3    C410364   3.731   3.957  15.961  0.0563  0.0284 -0.3203
  701TMC3    C510365   3.796   4.000  15.852 -0.5343  0.1464 -0.1608
  701TMC3    C610366   3.777   3.942  15.727  0.0426  0.3239  0.6109
  701TMC3     C10367   3.556   3.844  16.068  0.2231 -0.0313 -0.7852
  701TMC3     O10368   3.580   3.911  16.166  0.3568 -0.8637 -0.3216
  701TMC3     H10369   3.545   3.715  15.809  0.1420 -0.9201  0.0392
  701TMC3    H110370   3.745   4.005  16.057 -0.3953  0.8937 -0.6892
  701TMC3    H210371   3.810   3.987  15.634  0.8725 -0.1339  0.6865
  701TMC3    C710372   3.861   4.134  15.852  0.2604 -0.1629  0.6806
  701TMC3    C810373   3.647   3.802  15.595  0.4049 -0.1199  0.8115
  701TMC3    O110374   3.890   4.187  15.748  0.3015 -0.1557  0.0532
  701TMC3    O210375   3.742   3.774  15.519 -0.1415 -0.1867  0.3107
  702MPD2     C10376   3.329   1.202  10.567 -0.8400 -0.4561  0.6370
  702MPD2    C110377   3.309   1.315  10.643 -0.2615 -0.3851  0.5323
  702MPD2    C210378   3.394   1.420  10.612  0.0027 -0.5996  0.2271
  702MPD2    C310379   3.490   1.415  10.512 -0.4614 -0.2143  0.0043
  702MPD2    C410380   3.523   1.294  10.454 -0.0923 -0.0623  0.0223
  702MPD2    C510381   3.430   1.198  10.472  0.3068 -0.4032  0.1660
  702MPD2     H10382   3.367   1.511  10.664 -2.0959 -1.7383  1.1296
  702MPD2    H110383   3.601   1.278  10.380  0.8360  0.9882  0.7876
  702MPD2    H210384   3.262   1.120  10.589 -1.9566  0.5036  0.8778
  702MPD2    H310385   3.455   1.098  10.439  1.3510  0.4479 -1.6459
  702MPD2     N10386   3.566   1.528  10.491  0.0706  0.5495  0.3494
  702MPD2    H510387   3.511   1.611  10.511 -0.7541  0.0573  0.1483
  702MPD2    N110388   3.210   1.321  10.747 -0.4707 -0.1905 -0.1793
  702MPD2    H710389   3.205   1.411  10.792  1.2004 -0.8180  1.2661
  703TMC3    C110390   3.736   1.676  10.434  0.9163  0.2144  0.4144
  703TMC3    C210391   3.642   1.774  10.416  0.4725  0.3474 -0.1433
  703TMC3    C310392   3.689   1.901  10.408  0.3265 -0.3473 -0.1400
  703TMC3    C410393   3.875   1.699  10.423 -0.2706  0.3422  0.6472
  703TMC3    C510394   3.911   1.832  10.413 -0.4394 -0.0566  0.3464
  703TMC3    C610395   3.823   1.932  10.408  0.2475 -0.0342 -0.3091
  703TMC3     C10396   3.691   1.539  10.431 -0.3757  0.6944  0.2602
  703TMC3     O10397   3.779   1.457  10.411  0.4920  0.1461 -0.1218
  703TMC3     H10398   3.544   1.751  10.378  2.1254 -0.7985 -3.7209
  703TMC3    H110399   3.941   1.616  10.444  0.3376  0.4159 -1.0070
  703TMC3    H210400   3.852   2.036  10.413 -2.8106  0.6983  2.5289
  703TMC3    C710401   4.053   1.864  10.402  0.3069 -0.5386  0.0928
  703TMC3    C810402   3.590   2.008  10.384 -0.3904  0.1447  0.2259
  703TMC3    O110403   4.085   1.971  10.353 -0.1988  0.1961 -0.2276
  703TMC3    O210404   3.635   2.117  10.346 -0.0133 -0.6687 -0.0653
  704TMC3    C110405   0.996   0.013  13.220  0.2763 -0.3313  0.1559
  704TMC3    C210406   1.084   0.024  13.116 -0.1157  1.0743  0.0532
  704TMC3    C310407   1.164   4.644  13.083  1.3427 -0.4616 -0.5329
  704TMC3    C410408   0.997   4.613  13.291  0.0183  0.6453 -0.4699
  704TMC3    C510409   1.077   4.511  13.251  0.5072  0.2383 -0.1349
  704TMC3    C610410   1.160   4.524  13.143 -0.0186  0.3812 -0.3125
  704TMC3     C10411   0.870   0.068  13.191 -0.4450 -0.3290 -0.2338
  704TMC3     O10412   0.792   0.080  13.282 -0.1448  0.5475  0.0985
  704TMC3     H10413   1.072   0.116  13.059 -2.0130  0.2075 -0.9433
  704TMC3    H110414   0.919   4.601  13.365 -0.2362  2.0906 -0.5051
  704TMC3    H210415   1.226   4.443  13.114  0.7238  0.5766  0.8286
  704TMC3    C710416   1.015   4.382  13.249  0.9227  0.1458 -0.0822
  704TMC3    C810417   1.209   4.642  12.949 -0.5095  0.0982 -0.5936
  704TMC3    O110418   1.016   4.332  13.136 -0.5857 -0.0185 -0.9267
  704TMC3    O210419   1.144   4.711  12.869  0.5883 -0.3324  0.5133
  705MPD2     C10420   0.582   2.987  16.806 -0.1521  0.1067  0.5893
  705MPD2    C110421   0.479   2.954  16.728 -0.1381  0.2823  0.0961
  705MPD2    C210422   0.355   3.010  16.750 -0.2785 -0.4969  0.0038
  705MPD2    C310423   0.333   3.098  16.862  0.2658 -0.3757  0.7488
  705MPD2    C410424   0.445   3.128  16.940  0.1351  0.0842  0.4810
  705MPD2    C510425   0.565   3.079  16.908  0.3580  0.3288  0.2027
  705MPD2     H10426   0.281   2.968  16.683 -2.2587  1.2340  1.1472
  705MPD2    H110427   0.440   3.184  17.033  1.1586 -1.9085  1.7445
  705MPD2    H210428   0.682   2.948  16.790  0.7245  3.3875 -1.9481
  705MPD2    H310429   0.639   3.095  16.986  1.2457  2.4980 -1.0900
  705MPD2     N10430   0.204   3.130  16.912  0.6702  0.1231 -0.3066
  705MPD2    H510431   0.205   3.189  16.994 -0.7902 -2.5976  1.6453
  705MPD2    N110432   0.494   2.868  16.613  0.4729  0.3294 -0.2928
  705MPD2    H710433   0.423   2.863  16.541 -1.5486  1.3875  1.6502
  706TMC3    C110434   0.660   2.607  16.284  0.2800  0.4021  0.0274
  706TMC3    C210435   0.619   2.700  16.185 -0.9833  0.4063 -0.2077
  706TMC3    C310436   0.589   2.833  16.223  0.3834  1.4558 -0.4634
  706TMC3    C410437   0.659   2.643  16.416 -0.0067  0.3905  1.4036
  706TMC3    C510438   0.606   2.764  16.449 -0.6905  0.3767 -0.0964
  706TMC3    C610439   0.582   2.864  16.356  0.3696  0.3494  0.3162
  706TMC3     C10440   0.772   2.517  16.265  0.7712  0.8697 -0.1111
  706TMC3     O10441   0.830   2.483  16.367  0.4425  0.0607  0.2134
  706TMC3     H10442   0.636   2.674  16.081 -0.7898  1.1643 -0.3661
  706TMC3    H110443   0.695   2.579  16.495 -0.7147 -0.1279  1.3066
  706TMC3    H210444   0.552   2.963  16.387 -1.0316 -0.0774  0.3069
  706TMC3    C710445   0.609   2.804  16.584  0.1754  0.2179 -0.1122
  706TMC3    C810446   0.571   2.930  16.119 -0.7311 -0.4172 -0.2979
  706TMC3    O110447   0.687   2.758  16.663  0.4042 -0.0220  0.4450
  706TMC3    O210448   0.512   2.901  16.016 -0.7814 -0.1462 -0.3789
  707TMC3    C110449   2.189   1.925   1.295  0.1140 -0.3498  0.5341
  707TMC3    C210450   2.184   1.882   1.423 -0.2427  0.7721  0.5306
  707TMC3    C310451   2.078   1.920   1.497 -0.2432  0.7428 -0.3387
  707TMC3    C410452   2.101   2.010   1.237 -0.0853 -0.1903 -0.5385
  707TMC3    C510453   1.994   2.046   1.319 -0.3106 -0.3433 -0.2697
  707TMC3    C610454   1.985   2.002   1.448 -0.2579 -0.4777 -0.1754
  707TMC3     C10455   2.271   1.845   1.217 -0.1941 -0.1765 -0.1753
  707TMC3     O10456   2.350   1.769   1.269 -0.3341 -0.0279  0.1164
  707TMC3     H10457   2.263   1.817   1.457 -0.5769  0.8727  1.4949
  707TMC3    H110458   2.113   2.059   1.141 -0.2121 -0.3181 -0.6200
  707TMC3    H210459   1.897   2.016   1.510 -0.8220 -0.9383 -0.8626
  707TMC3    C710460   1.932   2.174   1.284 -0.2070  0.1419 -0.8604
  707TMC3    C810461   2.055   1.854   1.623 -0.5386  0.0083  0.2841
  707TMC3    O110462   2.000   2.236   1.205 -0.0389  0.0756 -0.2675
  707TMC3    O210463   1.992   1.918   1.704 -0.6152 -0.3500 -0.0454
  708MPD2     C10464   3.527   0.693  13.657  0.2072  0.0695 -0.0293
  708MPD2    C110465   3.419   0.761  13.717  0.9461 -0.1795  0.0803
  708MPD2    C210466   3.401   0.751  13.856 -0.0508 -0.5814  0.4143
  708MPD2    C310467   3.492   0.682  13.933 -0.6275  0.0976  0.7137
  708MPD2    C410468   3.603   0.630  13.877  0.3717  0.4231 -0.6118
  708MPD2    C510469   3.614   0.639  13.745 -0.5286  0.1606  0.3834
  708MPD2     H10470   3.312   0.799  13.894  1.6134  2.7511  0.0646
  708MPD2    H110471   3.679   0.568  13.923 -0.5649  0.9791  1.6862
  708MPD2    H210472   3.554   0.709  13.553 -1.3556  2.6186 -0.0244
  708MPD2    H310473   3.708   0.604  13.705 -0.5752  1.5180 -0.9167
  708MPD2     N10474   3.465   0.669  14.069  0.4196 -0.7605  0.3444
  708MPD2    H510475   3.381   0.709  14.110  0.5082 -1.2000  0.9626
  708MPD2    N110476   3.307   0.808  13.643  0.7039  0.0724  0.1496
  708MPD2    H710477   3.233   0.845  13.702  0.5028 -2.1980  1.3524
  709TMC3    C110478   3.180   0.909  13.488 -0.0125 -0.1365  0.1200
  709TMC3    C210479   3.204   1.042  13.455  0.5285  0.2536 -0.1495
  709TMC3    C310480   3.126   1.144  13.515  0.1643  0.7787 -0.4542
  709TMC3    C410481   3.074   0.889  13.570  0.1199  0.8643  0.3244
  709TMC3    C510482   3.009   0.993  13.639  0.1580 -0.3480  0.3327
  709TMC3    C610483   3.041   1.123  13.618  0.4901 -0.1021  0.4875
  709TMC3     C10484   3.305   0.844  13.514 -0.0023  0.2379 -0.1846
  709TMC3     O10485   3.386   0.815  13.421 -0.3601  0.2681 -0.5438
  709TMC3     H10486   3.294   1.073  13.404 -0.3272 -0.7908 -2.2566
  709TMC3    H110487   3.043   0.787  13.592  1.4729  0.4506  0.2967
  709TMC3    H210488   2.999   1.210  13.666 -0.8072 -1.7534  2.3546
  709TMC3    C710489   3.003   0.949  13.774  0.1886 -0.3814 -0.8847
  709TMC3    C810490   3.177   1.280  13.511  0.0829 -0.3038  0.0270
  709TMC3    O110491   3.055   0.842  13.799 -0.1124  0.0269 -0.5831
  709TMC3    O210492   3.168   1.348  13.613 -0.2729  0.2324 -0.2672
  710TMC3    C110493   4.195   2.317   0.911  0.0249 -0.2611 -0.3196
  710TMC3    C210494   4.235   2.264   0.793  0.2004 -0.7688  1.1287
  710TMC3    C310495   4.340   2.173   0.792 -0.1643 -0.4320 -0.7013
  710TMC3    C410496   4.252   2.280   1.032  0.6498 -0.6758  0.0365
  710TMC3    C510497   4.369   2.204   1.023  0.1021 -0.1528  0.4671
  710TMC3    C610498   4.408   2.147   0.907 -0.5964 -0.1277 -1.0571
  710TMC3     C10499   4.155   2.456   0.912 -0.2700  0.0642  0.1044
  710TMC3     O10500   4.154   2.517   0.806 -0.0903  0.4575 -0.8127
  710TMC3     H10501   4.207   2.316   0.702 -0.0119 -1.9386  0.5279
  710TMC3    H110502   4.226   2.312   1.132 -0.4001 -1.0246 -0.1248
  710TMC3    H210503   4.483   2.068   0.905  0.5378  0.8990  0.8367
  710TMC3    C710504   4.421   2.157   1.144 -0.5632  0.1272  0.7197
  710TMC3    C810505   4.405   2.137   0.665 -0.2197  0.1571  0.0863
  710TMC3    O110506   4.367   2.181   1.251 -0.3939  0.1424 -0.4020
  710TMC3    O210507   4.529   2.119   0.672 -0.0192 -0.1687  0.0066
  711TMC3    C110508   3.855   3.096  15.297  0.5957 -0.3398 -0.7313
  711TMC3    C210509   3.903   3.222  15.337 -0.5358 -0.4743 -0.0116
  711TMC3    C310510   4.036   3.237  15.349  0.3204  0.0980  1.2025
  711TMC3    C410511   3.942   3.000  15.250  0.1093 -0.6775  0.1860
  711TMC3    C510512   4.076   3.030  15.248  0.8106  0.3282  1.4458
  711TMC3    C610513   4.131   3.141  15.309 -1.0997  0.1167 -0.7380
  711TMC3     C10514   3.738   3.099  15.228  0.0899 -0.0014  0.4555
  711TMC3     O10515   3.715   3.015  15.142  0.0577  0.4111  0.6768
  711TMC3     H10516   3.845   3.311  15.358  1.4100  0.8154 -0.1214
  711TMC3    H110517   3.902   2.904  15.219 -0.3312 -0.4104 -0.0669
  711TMC3    H210518   4.237   3.159  15.327 -0.9479 -2.0472  0.4971
  711TMC3    C710519   4.171   2.924  15.243 -0.2070 -0.3516  0.2098
  711TMC3    C810520   4.066   3.317  15.468  0.1111  0.8238 -0.6422
  711TMC3    O110521   4.285   2.957  15.213 -0.2235 -0.0007 -0.2577
  711TMC3    O210522   3.976   3.330  15.555 -0.2562 -0.5859 -0.1911
  712MPD2     C10523   1.111   4.550  14.463 -0.4040 -0.0232 -0.2456
  712MPD2    C110524   1.041   4.601  14.354 -0.5357 -0.9774 -0.0330
  712MPD2    C210525   1.082   4.714  14.295 -0.5596  0.0619 -0.2957
  712MPD2    C310526   1.196   0.061  14.333  0.6959 -0.8923 -0.3530
  712MPD2    C410527   1.272   0.010  14.436  0.5236  0.0445  0.2923
  712MPD2    C510528   1.222   4.622  14.501 -0.0797 -0.6119 -0.2370
  712MPD2     H10529   1.027   0.038  14.215 -0.4849  0.0092 -0.3785
  712MPD2    H110530   1.353   0.069  14.476  0.4164  0.7864 -0.5887
  712MPD2    H210531   1.083   4.469  14.530  0.6098 -0.1194  0.0693
  712MPD2    H310532   1.285   4.585  14.581 -1.6907 -2.1372  0.3128
  712MPD2     N10533   1.235   0.187  14.276 -0.1445  0.2875  0.6997
  712MPD2    H510534   1.316   0.236  14.312  0.7955 -1.5681  1.0901
  712MPD2    N110535   0.915   4.540  14.306  0.0625  0.8731 -0.4367
  712MPD2    H710536   0.869   4.589  14.230  1.1403  1.7890 -0.5031
  713TMC3    C110537   1.247   0.382  14.146  0.3442 -0.1113  0.1125
  713TMC3    C210538   1.385   0.382  14.135  0.4767  0.3716 -0.7898
  713TMC3    C310539   1.452   0.497  14.096  0.7011 -0.1226 -0.2190
  713TMC3    C410540   1.172   0.493  14.108 -0.1864 -0.2775  0.5539
  713TMC3    C510541   1.237   0.606  14.074 -0.0925  0.9123 -0.1878
  713TMC3    C610542   1.373   0.609  14.076  0.2637 -0.1719  0.1564
  713TMC3     C10543   1.170   0.259  14.182  0.0646  0.0775 -1.2942
  713TMC3     O10544   1.058   0.257  14.144  0.3821 -0.0571  0.3513
  713TMC3     H10545   1.431   0.285  14.153 -1.8137 -0.4307  0.7705
  713TMC3    H110546   1.064   0.484  14.116 -0.1258  0.1137  1.8123
  713TMC3    H210547   1.424   0.701  14.049 -1.9266  0.4733 -1.7249
  713TMC3    C710548   1.170   0.732  14.043 -0.6436  0.0535 -0.2490
  713TMC3    C810549   1.547   0.490  13.985 -0.4151  0.6193 -0.2368
  713TMC3    O110550   1.241   0.827  14.017  0.5599 -0.0798 -0.2851
  713TMC3    O210551   1.511   0.539  13.877  0.2250  0.1385  0.0300
  714MPD2     C10552   3.071   3.118   1.372  0.2484 -0.1170  0.1749
  714MPD2    C110553   3.030   2.994   1.411  0.4486  0.1484  0.3181
  714MPD2    C210554   2.920   2.939   1.347 -0.2457  0.4150 -0.1149
  714MPD2    C310555   2.872   2.997   1.234  0.3841 -0.4933  0.2962
  714MPD2    C410556   2.933   3.111   1.176  1.0393 -0.5935  0.3803
  714MPD2    C510557   3.031   3.169   1.255  0.0581 -0.2018  0.2808
  714MPD2     H10558   2.881   2.847   1.388  0.9062  0.7310  1.7164
  714MPD2    H110559   2.902   3.171   1.091  0.6886  0.8855  1.5459
  714MPD2    H210560   3.160   3.161   1.417  1.9375  0.1648 -3.4032
  714MPD2    H310561   3.078   3.261   1.220 -0.4688  0.1304  0.4560
  714MPD2     N10562   2.773   2.928   1.167  0.3981 -0.1004  0.4299
  714MPD2    H510563   2.757   2.835   1.206 -0.7959 -0.2347 -0.3832
  714MPD2    N110564   3.093   2.925   1.515  0.4841 -0.4073 -0.0747
  714MPD2    H710565   3.163   2.982   1.561 -0.0886 -0.8865  1.3835
  715TMC3    C110566   3.178   2.735   1.615  0.2920 -0.1626 -1.4205
  715TMC3    C210567   3.225   2.609   1.598 -0.1088  0.1523  0.4925
  715TMC3    C310568   3.274   2.547   1.702  0.3335  0.3777 -0.1416
  715TMC3    C410569   3.199   2.808   1.732  0.0910  0.3253  0.5532
  715TMC3    C510570   3.244   2.740   1.837  0.1607  0.0502  0.3381
  715TMC3    C610571   3.285   2.611   1.826 -0.9435  0.2732  0.3672
  715TMC3     C10572   3.100   2.788   1.513 -0.4465  0.4361  0.4674
  715TMC3     O10573   3.067   2.706   1.429 -0.3709 -0.8571  0.1816
  715TMC3     H10574   3.203   2.547   1.512 -1.7512 -0.6762  1.5081
  715TMC3    H110575   3.174   2.913   1.747  0.6675  0.4964  0.3417
  715TMC3    H210576   3.327   2.560   1.912  2.1026 -0.8471 -1.7769
  715TMC3    C710577   3.258   2.804   1.967  0.0957 -0.0967  0.5651
  715TMC3    C810578   3.344   2.422   1.678 -0.2441 -0.4607  0.5167
  715TMC3    O110579   3.322   2.743   2.051 -0.7155 -0.6872 -0.9489
  715TMC3    O210580   3.338   2.395   1.559  0.3576  0.4518  0.0039
  716MPD2     C10581   2.552   2.395  10.007 -1.0519  0.1349  0.3150
  716MPD2    C110582   2.511   2.290   9.933 -0.2094 -0.2526  0.0111
  716MPD2    C210583   2.587   2.174   9.934  0.3086 -0.1248 -0.3295
  716MPD2    C310584   2.713   2.175   9.996 -0.6706 -0.3393 -0.3944
  716MPD2    C410585   2.757   2.290  10.062  0.1860 -0.5358  0.1226
  716MPD2    C510586   2.676   2.398  10.066 -0.5690 -0.0435  0.5887
  716MPD2     H10587   2.562   2.088   9.872 -0.8892 -2.2800  3.1725
  716MPD2    H110588   2.853   2.290  10.112  0.1314  1.3814  0.2044
  716MPD2    H210589   2.476   2.472  10.016  0.0207  1.1496  0.7153
  716MPD2    H310590   2.697   2.494  10.113 -2.0939  1.1692 -1.2207
  716MPD2     N10591   2.794   2.059   9.990 -0.6352 -0.6323  0.0352
  716MPD2    H510592   2.743   1.978   9.957 -0.1345 -0.6027 -0.7914
  716MPD2    N110593   2.389   2.307   9.861 -0.0619 -0.0124  0.7231
  716MPD2    H710594   2.356   2.403   9.870 -0.5364 -0.2398  1.3987
  717TMC3    C110595   2.969   1.915   9.974  0.4503  0.0396  0.2946
  717TMC3    C210596   2.876   1.812   9.969  0.1549  0.1094 -0.3466
  717TMC3    C310597   2.923   1.687   9.932 -0.8179 -0.2143 -0.8379
  717TMC3    C410598   3.100   1.887   9.931  0.2774 -0.2988 -0.2099
  717TMC3    C510599   3.139   1.761   9.890 -0.7835  0.2918 -0.0343
  717TMC3    C610600   3.052   1.655   9.890  0.0813 -0.0572  0.4605
  717TMC3     C10601   2.929   2.054   9.983 -0.0646 -0.3206 -0.0294
  717TMC3     O10602   3.017   2.135   9.977  0.2404  0.5203  0.2905
  717TMC3     H10603   2.781   1.822  10.021 -1.1270 -0.1081 -2.6638
  717TMC3    H110604   3.165   1.971   9.909 -2.0454  1.7698  0.7514
  717TMC3    H210605   3.084   1.555   9.867  1.1267  0.3372  0.1872
  717TMC3    C710606   3.265   1.754   9.813 -0.1202 -0.4008 -0.5858
  717TMC3    C810607   2.815   1.583   9.934 -0.3498 -0.5756 -0.3821
  717TMC3    O110608   3.338   1.856   9.816  0.6452  0.3223  0.3863
  717TMC3    O210609   2.705   1.618   9.975  0.2146 -0.4397  0.2759
  718MPD2     C10610   2.625   4.222  13.259  0.5454  0.1953  0.1544
  718MPD2    C110611   2.573   4.279  13.144  0.3112  0.5666  0.8889
  718MPD2    C210612   2.441   4.312  13.144 -0.0056  0.0634 -0.5143
  718MPD2    C310613   2.360   4.306  13.260 -0.4459 -0.3883 -0.5633
  718MPD2    C410614   2.413   4.239  13.370  0.1513 -0.0747  0.2449
  718MPD2    C510615   2.541   4.187  13.362 -0.1158  0.5656  0.2837
  718MPD2     H10616   2.400   4.362  13.058  0.5575 -0.3329 -1.0130
  718MPD2    H110617   2.369   4.228  13.469  3.4068 -2.2369  1.4844
  718MPD2    H210618   2.720   4.170  13.265  0.7636  0.8012  1.7637
  718MPD2    H310619   2.582   4.127  13.442 -2.1373 -1.9536 -0.5810
  718MPD2     N10620   2.238   4.377  13.254  0.1146 -0.1097 -0.0719
  718MPD2    H510621   2.231   4.434  13.171 -1.3621 -0.9080 -0.5156
  718MPD2    N110622   2.662   4.303  13.036 -0.8924  0.0351 -0.0435
  718MPD2    H710623   2.763   4.296  13.044 -0.6258  2.4799 -1.1409
  719TMC3    C110624   2.721   4.427  12.841 -0.1660  0.0855  0.5450
  719TMC3    C210625   2.788   4.500  12.936  0.4985  0.8201  0.0658
  719TMC3    C310626   2.803   4.627  12.890  0.3360  0.3272  0.6849
  719TMC3    C410627   2.700   4.454  12.711 -0.1035  0.1845 -0.1308
  719TMC3    C510628   2.744   4.573  12.659  0.5551  0.3245  0.1727
  719TMC3    C610629   2.797   4.654  12.756  0.0416 -0.1209  0.7235
  719TMC3     C10630   2.627   4.343  12.908 -0.0719 -0.5008  0.1926
  719TMC3     O10631   2.519   4.337  12.855  0.2012  0.7269  0.2751
  719TMC3     H10632   2.804   4.470  13.039 -1.8348 -0.0448  0.1754
  719TMC3    H110633   2.652   4.379  12.648 -1.2776 -0.6158  1.7308
  719TMC3    H210634   2.838   0.028  12.727 -0.5334  0.0418  0.4541
  719TMC3    C710635   2.693   4.630  12.539  0.8691  0.1116 -0.1741
  719TMC3    C810636   2.722   4.716  12.971  0.7563  0.4461  0.3270
  719TMC3    O110637   2.672   0.025  12.548 -0.0885 -0.1427  0.0184
  719TMC3    O210638   2.705   4.685  13.090  0.3109  0.0915  0.1597
  720MPD2     C10639   0.531   1.768  14.485  0.1914  0.3494 -0.0218
  720MPD2    C110640   0.641   1.813  14.409 -0.2163 -0.7405 -0.5648
  720MPD2    C210641   0.771   1.805  14.464  0.4530  0.8025  0.4438
  720MPD2    C310642   0.792   1.765  14.595 -0.7910 -0.3238  0.1248
  720MPD2    C410643   0.683   1.716  14.663  0.1365 -0.4077 -0.4893
  720MPD2    C510644   0.558   1.710  14.609  0.2890 -0.2671  0.3471
  720MPD2     H10645   0.858   1.831  14.405  1.1835  1.4833  1.8107
  720MPD2    H110646   0.701   1.692  14.768 -1.4091  1.6962  0.2580
  720MPD2    H210647   0.428   1.769  14.451  0.9423 -0.1303 -2.3400
  720MPD2    H310648   0.475   1.672  14.667  1.7262 -0.8013  2.0347
  720MPD2     N10649   0.922   1.775  14.644  0.0803 -0.5993 -0.4048
  720MPD2    H510650   0.988   1.795  14.570  1.6373 -0.8602  0.9174
  720MPD2    N110651   0.623   1.862  14.277 -0.5261 -0.0550  0.3024
  720MPD2    H710652   0.705   1.894  14.228 -0.9837  1.2978  0.4217
  721TMC3    C110653   1.100   1.741  14.785  0.0050  0.5323 -0.0029
  721TMC3    C210654   1.147   1.735  14.922 -0.0706  0.4844  0.3545
  721TMC3    C310655   1.283   1.731  14.940 -0.5087 -0.3652  0.5827
  721TMC3    C410656   1.188   1.751  14.679  0.8343 -0.0972 -0.0892
  721TMC3    C510657   1.325   1.745  14.712 -0.7454 -1.0733 -0.3698
  721TMC3    C610658   1.367   1.738  14.835 -0.8222 -0.2748 -0.9866
  721TMC3     C10659   0.960   1.745  14.770  0.4563 -0.1691  0.5115
  721TMC3     O10660   0.893   1.742  14.871 -0.2235  0.0541  0.4005
  721TMC3     H10661   1.077   1.723  15.005 -1.2283 -0.7022 -0.7993
  721TMC3    H110662   1.165   1.730  14.575  0.8140  0.3217 -0.1696
  721TMC3    H210663   1.474   1.734  14.852 -1.0063  2.7605  0.9450
  721TMC3    C710664   1.421   1.721  14.599 -0.9659 -0.0037  0.0861
  721TMC3    C810665   1.343   1.703  15.070 -0.5644 -0.4214  0.1650
  721TMC3    O110666   1.417   1.793  14.502  0.0950  0.6910  0.7555
  721TMC3    O210667   1.466   1.697  15.074 -0.0035 -0.0868 -0.0274
  722MPD2     C10668   0.003   0.287  14.071  0.0902 -0.6087 -0.8114
  722MPD2    C110669   4.699   0.347  13.949  0.1573 -0.6692 -0.2319
  722MPD2    C210670   4.600   0.291  13.873  0.6648  0.0467 -0.2472
  722MPD2    C310671   4.530   0.183  13.918 -0.1760 -0.2151 -0.5237
  722MPD2    C410672   4.556   0.130  14.040 -0.1934  0.3098 -0.2739
  722MPD2    C510673   4.658   0.179  14.119 -0.2889 -0.2393 -0.3600
  722MPD2     H10674   4.574   0.338  13.779  0.7226  0.3968 -0.0908
  722MPD2    H110675   4.503   0.045  14.082 -2.6511  2.1612  0.4458
  722MPD2    H210676   0.085   0.319  14.134  1.1613 -2.0658 -1.4685
  722MPD2    H310677   4.681   0.139  14.217  1.8708  0.4742 -0.5576
  722MPD2     N10678   4.424   0.139  13.832 -0.0913  0.2215  0.5935
  722MPD2    H510679   4.418   0.175  13.738 -0.3878  1.3626  1.0529
  722MPD2    N110680   0.052   0.455  13.894 -0.0150 -0.2821  0.1342
  722MPD2    H710681   0.007   0.489  13.810 -2.1514  2.3856  2.3730
  723TMC3    C110682   4.235   0.024  13.757 -0.1001 -0.3105  0.7457
  723TMC3    C210683   4.158   4.638  13.754 -0.6793  0.3233 -0.4010
  723TMC3    C310684   4.049   4.637  13.671  0.1180 -0.3121 -0.1124
  723TMC3    C410685   4.209   0.133  13.673 -0.1178  0.2281 -0.3145
  723TMC3    C510686   4.107   0.123  13.582  0.0572 -0.9317  0.4664
  723TMC3    C610687   4.018   0.025  13.588 -0.1572  0.2268  0.7134
  723TMC3     C10688   4.337   0.034  13.855 -0.2366 -0.3504  0.0497
  723TMC3     O10689   4.317   4.701  13.961  0.6187  0.7247  0.2218
  723TMC3     H10690   4.181   4.552  13.817 -0.4879 -0.8330 -2.0538
  723TMC3    H110691   4.274   0.220  13.673  0.2354 -0.0336  0.7475
  723TMC3    H210692   3.934   0.016  13.520  1.2479 -1.4201 -0.8069
  723TMC3    C710693   4.093   0.241  13.498  0.6444  0.2650  0.3725
  723TMC3    C810694   3.956   4.527  13.675  0.0620 -1.2353 -0.1017
  723TMC3    O110695   4.160   0.342  13.520  0.0540 -0.3708 -0.1386
  723TMC3    O210696   3.941   4.477  13.785 -0.0408 -0.0367  0.4769
  724TMC3    C110697   4.680   3.218   9.541 -0.0760 -0.2805  0.6716
  724TMC3    C210698   4.641   3.318   9.626 -0.0463  0.3867 -0.2986
  724TMC3    C310699   0.003   3.424   9.648  0.3205  0.1060 -0.3991
  724TMC3    C410700   0.068   3.228   9.465 -0.2759 -0.0323 -0.1199
  724TMC3    C510701   0.139   3.343   9.476  0.4425  0.2546  0.2848
  724TMC3    C610702   0.101   3.450   9.555  0.3427  0.2153 -0.6068
  724TMC3     C10703   4.589   3.098   9.532  0.4140 -0.2331  0.3905
  724TMC3     O10704   4.478   3.121   9.581  0.2950 -0.1414  0.0311
  724TMC3     H10705   4.561   3.295   9.695 -1.0684 -0.0634 -1.6343
  724TMC3    H110706   0.082   3.155   9.386 -0.6913  0.2194 -0.4274
  724TMC3    H210707   0.150   3.546   9.551 -0.7309  0.8713  1.8070
  724TMC3    C710708   0.255   3.372   9.389 -0.3733  0.3216 -0.3535
  724TMC3    C810709   4.654   3.534   9.696  0.8336 -0.4442 -0.4491
  724TMC3    O110710   0.283   3.490   9.378 -0.2577  0.1221 -0.3522
  724TMC3    O210711   4.533   3.534   9.685 -0.1961 -0.4519 -0.3410
  725TMC3    C110712   0.680   2.112  12.964 -0.6114 -0.3290 -0.5802
  725TMC3    C210713   0.600   2.210  12.905 -0.4463  0.0790  0.3697
  725TMC3    C310714   0.499   2.166  12.823 -0.4389  0.1420  0.0735
  725TMC3    C410715   0.681   1.980  12.928  0.9751  0.0257  0.2192
  725TMC3    C510716   0.577   1.949  12.843 -0.1331 -0.6576 -0.2935
  725TMC3    C610717   0.485   2.035  12.789  0.6359 -0.0974  0.2701
  725TMC3     C10718   0.803   2.170  13.023  0.0024 -0.1345  0.3841
  725TMC3     O10719   0.832   2.284  12.992  0.0624  0.4251 -0.1292
  725TMC3     H10720   0.617   2.314  12.932  0.8085 -0.2500  0.8099
  725TMC3    H110721   0.768   1.918  12.946 -0.2548 -1.8623 -0.2984
  725TMC3    H210722   0.402   2.001  12.728  1.1159 -0.6951 -0.0573
  725TMC3    C710723   0.579   1.821  12.783  0.1047 -0.2003  0.4678
  725TMC3    C810724   0.414   2.261  12.749  0.1703 -0.1414 -0.4059
  725TMC3    O110725   0.532   1.803  12.675 -0.2608  0.1053  0.4978
  725TMC3    O210726   0.304   2.226  12.705 -0.2334  0.5444  0.0602
  726MPD2     C10727   4.421   3.576  10.369 -0.2218 -0.0114 -0.0206
  726MPD2    C110728   4.317   3.655  10.419  0.4755 -0.1985  1.1876
  726MPD2    C210729   4.195   3.590  10.426  0.4320 -0.0229 -0.1754
  726MPD2    C310730   4.190   3.453  10.401  1.2554  0.1758 -0.1781
  726MPD2    C410731   4.293   3.382  10.355  0.0486 -1.0856 -0.2000
  726MPD2    C510732   4.413   3.451  10.338 -0.1655  0.5660  0.3715
  726MPD2     H10733   4.112   3.640  10.474 -0.5011 -0.3626 -1.4324
  726MPD2    H110734   4.296   3.276  10.331  0.5159 -1.1679  0.2233
  726MPD2    H210735   4.522   3.614  10.359 -0.4309  0.7367  0.6792
  726MPD2    H310736   4.491   3.391  10.292  0.5672  0.4915  1.7096
  726MPD2     N10737   4.066   3.383  10.427  0.2532  0.4222 -0.8415
  726MPD2    H510738   4.002   3.427  10.492 -1.7529 -2.4207 -0.8876
  726MPD2    N110739   4.326   3.794  10.465 -0.0422  0.0569 -0.9933
  726MPD2    H710740   4.243   3.847  10.488  0.3029 -0.1778  0.7910
  727TMC3    C110741   4.463   3.974  10.547  0.2285  0.1359  0.3893
  727TMC3    C210742   4.558   3.996  10.647  0.0732  0.1496 -0.2024
  727TMC3    C310743   4.574   4.128  10.683  0.3018 -0.3820 -0.0583
  727TMC3    C410744   4.382   4.077  10.496 -0.1523  1.0909 -0.0633
  727TMC3    C510745   4.408   4.202  10.535  0.1777 -0.3189  0.1871
  727TMC3    C610746   4.511   4.229  10.622  0.2525 -0.0342 -0.1833
  727TMC3     C10747   4.447   3.835  10.510  0.4188 -0.3645 -0.3668
  727TMC3     O10748   4.554   3.779  10.509 -0.0346 -0.4306 -0.3937
  727TMC3     H10749   4.611   3.908  10.681 -0.3260 -0.2929 -0.7222
  727TMC3    H110750   4.313   4.061  10.414  0.8656 -0.1127 -0.6852
  727TMC3    H210751   4.535   4.326  10.665  0.8482  0.0226 -0.6365
  727TMC3    C710752   4.343   4.324  10.481  0.1850 -0.1512  1.0851
  727TMC3    C810753   4.687   4.170  10.775 -0.5563 -0.5047 -0.3491
  727TMC3    O110754   4.222   4.313  10.467  0.4965  0.0760  0.0477
  727TMC3    O210755   0.066   4.106  10.764  0.0712  0.8290  0.0731
  728TMC3    C110756   3.140   2.245  15.507 -0.7721 -0.4647  0.5438
  728TMC3    C210757   3.213   2.356  15.538 -0.2571 -0.3910  0.4340
  728TMC3    C310758   3.177   2.475  15.474 -0.2840 -0.0478 -0.0837
  728TMC3    C410759   3.042   2.243  15.418 -0.2706  1.0738  0.0872
  728TMC3    C510760   3.018   2.357  15.351 -0.3193  0.4818  0.3381
  728TMC3    C610761   3.079   2.477  15.381  0.2539  0.2411  0.1237
  728TMC3     C10762   3.177   2.125  15.580 -0.0001  0.1221 -0.0553
  728TMC3     O10763   3.281   2.135  15.648  0.4037  0.9588 -0.7794
  728TMC3     H10764   3.282   2.355  15.621  0.6823 -0.9535 -0.3496
  728TMC3    H110765   3.016   2.147  15.375  1.2993 -0.0973  1.7152
  728TMC3    H210766   3.031   2.567  15.344 -1.5543  0.0081  1.8963
  728TMC3    C710767   2.927   2.344  15.235  0.1801  0.3660  0.0262
  728TMC3    C810768   3.243   2.592  15.515  0.3231 -0.5816 -0.4148
  728TMC3    O110769   2.855   2.245  15.229 -0.1313 -0.5749 -0.3798
  728TMC3    O210770   3.351   2.580  15.572  0.4153 -0.1616 -0.0322
  729MPD2     C10771   0.912   3.355  16.888  1.3938 -0.0351  0.4597
  729MPD2    C110772   1.025   3.280  16.877 -0.1337 -0.2056 -0.5657
  729MPD2    C210773   1.071   3.215  16.983  0.2473  0.2745 -0.3689
  729MPD2    C310774   0.998   3.206  17.096 -0.4376  0.4178 -0.2651
  729MPD2    C410775   0.868   3.260  17.103 -0.9071 -0.4432 -0.0537
  729MPD2    C510776   0.831   3.344  16.996  0.1915  0.0162 -0.1782
  729MPD2     H10777   1.169   3.171  16.969  0.0450 -0.6899  1.2886
  729MPD2    H110778   0.800   3.258  17.188 -0.7774  1.1018  0.0846
  729MPD2    H210779   0.891   3.427  16.809 -2.3008 -1.6147 -0.0016
  729MPD2    H310780   0.736   3.396  17.003 -0.2368 -0.5907 -1.5982
  729MPD2     N10781   1.050   3.142  17.208  0.3717 -0.3297 -0.4718
  729MPD2    H510782   0.992   3.142  17.292  0.4386  2.0169 -0.4272
  729MPD2    N110783   1.080   3.279  16.747  0.0268  0.4270  0.4597
  729MPD2    H710784   1.049   3.352  16.684  0.4583  1.9695  2.0260
  730TMC3    C110785   1.197   3.013  17.356 -0.7809 -0.6390 -0.1422
  730TMC3    C210786   1.315   2.943  17.356 -0.6252  0.1208 -0.0621
  730TMC3    C310787   1.425   3.007  17.411 -0.1582  0.5942  0.5033
  730TMC3    C410788   1.175   3.111  17.444 -0.0381 -0.7033  0.2041
  730TMC3    C510789   1.277   3.162  17.516  0.1497  0.1411  0.1792
  730TMC3    C610790   1.406   3.123  17.485 -0.4194  0.3785  0.0322
  730TMC3     C10791   1.163   3.057  17.220 -0.0916  0.4398  0.3096
  730TMC3     O10792   1.228   3.001  17.132 -0.1940 -0.3562  0.2613
  730TMC3     H10793   1.330   2.869  17.279 -1.8854  0.0314 -0.2218
  730TMC3    H110794   1.073   3.145  17.453 -0.5263 -0.9969 -4.2537
  730TMC3    H210795   1.492   3.169  17.532  0.0633  1.5973 -2.0507
  730TMC3    C710796   1.274   3.308  17.544 -0.2470  0.3202 -0.3750
  730TMC3    C810797   1.547   2.988  17.337  0.0192 -1.1819 -0.1962
  730TMC3    O110798   1.218   3.373  17.457  0.1555 -0.0855  0.0859
  730TMC3    O210799   1.554   2.888  17.268  0.0106  0.0946  0.5718
  731MPD2     C10800   0.200   0.655  12.605  0.3058 -0.3150 -0.4705
  731MPD2    C110801   0.316   0.685  12.528  0.1289  0.3132  0.7322
  731MPD2    C210802   0.418   0.754  12.594 -0.0291  0.1991  0.0460
  731MPD2    C310803   0.397   0.813  12.717  0.0554  0.0743  0.0688
  731MPD2    C410804   0.278   0.782  12.792 -0.1717 -0.7462 -0.5930
  731MPD2    C510805   0.185   0.701  12.734  0.3379  0.2303 -0.0224
  731MPD2     H10806   0.512   0.779  12.546  0.3227 -2.4564 -0.6181
  731MPD2    H110807   0.259   0.824  12.890  5.0442  0.3083 -0.0278
  731MPD2    H210808   0.116   0.603  12.559  0.2058  1.2032 -2.0038
  731MPD2    H310809   0.100   0.680  12.798 -0.2107 -2.1717 -1.5557
  731MPD2     N10810   0.498   0.904  12.771  0.5013  0.0746  0.3467
  731MPD2    H510811   0.586   0.917  12.720  0.3914 -3.6497 -0.7683
  731MPD2    N110812   0.315   0.659  12.386 -0.6401 -0.1025  0.4255
  731MPD2    H710813   0.228   0.620  12.349 -0.3903 -0.3273  0.0719
  732TMC3    C110814   0.386   0.679  12.165 -0.0677  0.2752 -0.0347
  732TMC3    C210815   0.258   0.693  12.125  0.1269  0.7150  0.2571
  732TMC3    C310816   0.221   0.670  11.996 -0.0973  0.4753  0.0636
  732TMC3    C410817   0.482   0.669  12.064 -0.3465  0.0226 -0.4504
  732TMC3    C510818   0.448   0.661  11.932 -0.5020  0.3596  0.4850
  732TMC3    C610819   0.316   0.652  11.895  0.2665 -0.7204 -0.3119
  732TMC3     C10820   0.420   0.686  12.302  0.2228 -0.4347 -0.2484
  732TMC3     O10821   0.526   0.749  12.322 -0.1470 -0.6134  0.2597
  732TMC3     H10822   0.191   0.728  12.202 -1.5225 -1.5101 -0.1771
  732TMC3    H110823   0.583   0.671  12.103  1.0791 -2.3971 -4.0013
  732TMC3    H210824   0.285   0.638  11.792  0.6991 -1.7552 -0.3057
  732TMC3    C710825   0.518   0.741  11.831  0.3291  0.1830 -0.7760
  732TMC3    C810826   0.082   0.662  11.960  0.4638  0.0245 -0.3944
  732TMC3    O110827   0.509   0.708  11.714 -0.3731 -1.0135 -0.1241
  732TMC3    O210828   0.053   0.687  11.843 -0.0738 -0.0808 -0.5015
  733TMC3    C110829   1.880   4.642  13.374  0.1011 -0.9833  0.6670
  733TMC3    C210830   1.947   4.522  13.390  0.3391  0.2730  0.1857
  733TMC3    C310831   2.079   4.513  13.349  0.0153  0.5155 -0.4164
  733TMC3    C410832   1.940   0.021  13.310 -0.6626 -0.3008 -0.6727
  733TMC3    C510833   2.073   0.013  13.271  0.4963  0.5670  0.4049
  733TMC3    C610834   2.145   4.618  13.292 -0.3532  0.6166 -0.1362
  733TMC3     C10835   1.737   4.636  13.392 -0.0384 -0.5882 -0.2745
  733TMC3     O10836   1.657   4.712  13.334 -0.8440  0.2373  0.3305
  733TMC3     H10837   1.901   4.439  13.443  1.5256 -0.2146  0.4532
  733TMC3    H110838   1.891   0.116  13.293 -1.3690 -0.7001 -0.8489
  733TMC3    H210839   2.246   4.611  13.252 -1.0620 -0.5816 -1.7390
  733TMC3    C710840   2.120   0.118  13.186 -0.4484 -0.2789 -0.5862
  733TMC3    C810841   2.147   4.382  13.353 -1.2877 -0.3395  0.6686
  733TMC3    O110842   2.042   0.196  13.135 -0.0926 -0.2304 -0.2196
  733TMC3    O210843   2.141   4.324  13.463 -0.8085 -0.2819  0.1707
  734MPD2     C10844   0.048   2.227  12.414 -0.2114 -1.1026 -0.2912
  734MPD2    C110845   4.667   2.313  12.436 -0.2301 -0.6966  0.4117
  734MPD2    C210846   4.644   2.417  12.347  0.1718  0.3225 -0.1216
  734MPD2    C310847   4.722   2.421  12.233  0.0754  0.1272  0.4643
  734MPD2    C410848   0.105   2.330  12.209  0.2160  0.3904  0.8028
  734MPD2    C510849   0.137   2.241  12.310  0.4412 -0.7353  0.0317
  734MPD2     H10850   4.560   2.483  12.365 -0.2185  0.1891 -1.4704
  734MPD2    H110851   0.168   2.337  12.121 -2.2805 -0.2168 -1.0336
  734MPD2    H210852   0.063   2.147  12.485 -0.0626 -1.6513 -0.9349
  734MPD2    H310853   0.211   2.164  12.300  0.0435 -1.3702  1.9851
  734MPD2     N10854   4.684   2.523  12.145 -0.4626 -0.1105  0.3627
  734MPD2    H510855   4.609   2.588  12.163 -0.1419  0.5972 -0.8947
  734MPD2    N110856   4.594   2.295  12.557  0.1265 -0.2103 -0.2688
  734MPD2    H710857   4.637   2.236  12.627  0.8120 -1.7574 -1.9970
  735TMC3    C110858   4.397   2.277  12.686  0.8374 -0.2601  0.2406
  735TMC3    C210859   4.262   2.304  12.683  0.1970  0.3233  0.1601
  735TMC3    C310860   4.168   2.203  12.658  0.2194 -0.2135  0.2302
  735TMC3    C410861   4.429   2.149  12.689  0.2086 -0.4792  0.1766
  735TMC3    C510862   4.341   2.046  12.665  0.1802 -0.9457 -0.6577
  735TMC3    C610863   4.209   2.073  12.654 -0.5026  0.1410  0.3406
  735TMC3     C10864   4.473   2.352  12.586  0.1358 -0.1170 -0.0821
  735TMC3     O10865   4.399   2.430  12.522  0.7648 -0.3703  0.0169
  735TMC3     H10866   4.225   2.405  12.677 -2.6170 -0.7393 -0.2811
  735TMC3    H110867   4.529   2.122  12.724  1.0541 -0.0500 -1.9292
  735TMC3    H210868   4.152   2.000  12.598  1.1329  0.1027 -1.2599
  735TMC3    C710869   4.415   1.938  12.593 -0.0044  0.2162 -0.2201
  735TMC3    C810870   4.076   2.235  12.543  0.6554  0.7494 -0.6720
  735TMC3    O110871   4.529   1.958  12.558  0.1627 -0.5862  0.2903
  735TMC3    O210872   3.993   2.148  12.513  0.2193  0.2352 -0.1423
  736MPD2     C10873   4.280   1.596  12.569  1.2180  0.1642 -0.4902
  736MPD2    C110874   4.374   1.694  12.566  0.0871  0.0470  0.2195
  736MPD2    C210875   4.502   1.663  12.527  0.1770  0.3631  0.1091
  736MPD2    C310876   4.532   1.539  12.477  0.2748  0.3354  0.1943
  736MPD2    C410877   4.439   1.439  12.484  0.7026  0.2260  0.3615
  736MPD2    C510878   4.313   1.470  12.524 -0.0708  0.6348  0.4114
  736MPD2     H10879   4.575   1.743  12.518  1.8814 -1.5725 -3.2969
  736MPD2    H110880   4.469   1.338  12.462 -3.6858 -0.5303 -2.0342
  736MPD2    H210881   4.179   1.617  12.602  2.0489  3.5490 -0.0620
  736MPD2    H310882   4.235   1.396  12.508 -0.3447  1.4684 -2.0569
  736MPD2     N10883   4.649   1.511  12.406 -0.0386 -0.1346  0.4067
  736MPD2    H510884   4.654   1.421  12.360 -2.2214  0.2778 -0.6586
  736MPD2    N110885   4.343   1.826  12.603 -0.0656 -0.2028 -0.0670
  736MPD2    H710886   4.253   1.848  12.645  0.1049  0.0923  0.1436
  737TMC3    C110887   0.127   1.573  12.284  0.0969  0.1720  0.5231
  737TMC3    C210888   0.195   1.682  12.244  0.3340  0.3830 -0.0801
  737TMC3    C310889   0.274   1.679  12.131 -0.1815 -1.2248  0.2153
  737TMC3    C410890   0.139   1.452  12.225 -0.5398 -0.5146 -0.0475
  737TMC3    C510891   0.210   1.447  12.110 -0.3680 -0.0123  0.6526
  737TMC3    C610892   0.280   1.556  12.063  0.6771 -0.1810  0.0149
  737TMC3     C10893   0.033   1.598  12.393  0.2357 -0.0537 -0.9853
  737TMC3     O10894   0.048   1.702  12.457  0.1507 -0.4100 -0.1147
  737TMC3     H10895   0.173   1.777  12.292  1.9663  0.4607  0.5155
  737TMC3    H110896   0.103   1.366  12.280  0.4945  1.0627  3.1217
  737TMC3    H210897   0.344   1.539  11.977  1.6999  0.5446  0.6298
  737TMC3    C710898   0.193   1.323  12.030 -0.0211 -0.4598  0.6315
  737TMC3    C810899   0.334   1.792  12.077 -1.1172  0.5955 -0.1909
  737TMC3    O110900   0.134   1.230  12.083  0.4818 -0.4212  0.0210
  737TMC3    O210901   0.318   1.896  12.139 -0.1690 -0.0822 -0.1820
  738MPD2     C10902   0.132   0.669  15.046  0.3456  0.2427  0.0689
  738MPD2    C110903   0.148   0.636  15.176 -0.1265  0.3038  0.0806
  738MPD2    C210904   0.220   0.729  15.254  0.7542 -0.0919 -0.1149
  738MPD2    C310905   0.263   0.851  15.203  0.9583  0.0125  0.0352
  738MPD2    C410906   0.246   0.881  15.068 -0.2958  0.3393 -0.6571
  738MPD2    C510907   0.183   0.787  14.992 -0.1011 -0.9517 -0.0003
  738MPD2     H10908   0.229   0.711  15.360 -0.9939 -0.2228  0.0180
  738MPD2    H110909   0.283   0.974  15.026 -1.4732  0.7289 -0.8228
  738MPD2    H210910   0.062   0.618  14.981 -0.2433  0.1091  0.8110
  738MPD2    H310911   0.168   0.808  14.887  3.2544 -1.2699 -0.5236
  738MPD2     N10912   0.336   0.950  15.278 -0.3499 -0.2728 -0.1459
  738MPD2    H510913   0.364   1.039  15.238 -0.0946 -1.0495 -1.7216
  738MPD2    N110914   0.108   0.514  15.225  0.4263 -0.0269 -0.1037
  738MPD2    H710915   0.127   0.496  15.323 -0.3178 -0.7536 -0.0916
  739TMC3    C110916   0.428   1.075  15.451 -0.5348 -0.3002 -0.1486
  739TMC3    C210917   0.439   1.185  15.365  0.1167  0.3190  0.1312
  739TMC3    C310918   0.550   1.266  15.372 -0.1999  0.3957 -0.4857
  739TMC3    C410919   0.524   1.062  15.552  0.6220  0.4169  1.6946
  739TMC3    C510920   0.633   1.142  15.551 -0.3829  0.3434 -0.1540
  739TMC3    C610921   0.647   1.248  15.468  0.4961  0.0874 -0.1570
  739TMC3     C10922   0.368   0.947  15.407  0.3424  0.3934  0.2372
  739TMC3     O10923   0.354   0.863  15.489  0.4109 -0.1960 -0.1329
  739TMC3     H10924   0.353   1.209  15.303 -0.3908  0.0692  0.7340
  739TMC3    H110925   0.512   0.982  15.625  0.8722 -1.7568 -0.6627
  739TMC3    H210926   0.741   1.304  15.468  0.8044 -0.4376  2.3450
  739TMC3    C710927   0.759   1.072  15.581 -0.6612  0.1415 -0.1629
  739TMC3    C810928   0.581   1.316  15.239 -0.5438 -0.0220 -0.7597
  739TMC3    O110929   0.854   1.097  15.505  0.0902 -0.5892 -0.4149
  739TMC3    O210930   0.494   1.286  15.162 -0.1659  0.0975  0.4658
  740TMC3    C110931   0.806   2.153  14.590 -0.6981  0.0139  0.7767
  740TMC3    C210932   0.885   2.137  14.709 -0.2263 -0.3517  0.8100
  740TMC3    C310933   1.018   2.112  14.689 -0.8488 -0.2139  0.1497
  740TMC3    C410934   0.864   2.142  14.466  0.6721 -0.7734 -0.6289
  740TMC3    C510935   1.000   2.112  14.453  0.7297  0.4522  0.1315
  740TMC3    C610936   1.078   2.099  14.567  0.1336 -1.0770  0.2658
  740TMC3     C10937   0.666   2.108  14.578  0.5586  0.0333 -0.2074
  740TMC3     O10938   0.615   2.116  14.465  0.6826  0.0359  0.9992
  740TMC3     H10939   0.846   2.165  14.806 -1.5294  0.3812  0.0921
  740TMC3    H110940   0.806   2.173  14.379  1.1871 -1.1415 -1.1005
  740TMC3    H210941   1.179   2.059  14.563  0.2484 -0.7071 -0.5281
  740TMC3    C710942   1.025   2.002  14.366  0.2166 -0.7193 -0.1924
  740TMC3    C810943   1.096   2.100  14.812  0.5207 -0.1974 -0.0694
  740TMC3    O110944   1.076   1.904  14.416  0.3281  0.3840 -0.0665
  740TMC3    O210945   1.216   2.110  14.798 -0.3047  0.4467 -0.0456
  741TMC3    C110946   0.109   1.341  14.826  0.0802 -0.4429 -0.0433
  741TMC3    C210947   0.109   1.207  14.805 -0.3443  0.1566 -0.0065
  741TMC3    C310948   0.042   1.135  14.899  0.3041  0.2573 -0.6597
  741TMC3    C410949   0.097   1.399  14.949 -0.0163  0.3833 -0.3406
  741TMC3    C510950   0.069   1.311  15.050  0.1316  0.3077  0.1479
  741TMC3    C610951   0.031   1.176  15.028  0.2740 -0.2125 -0.4346
  741TMC3     C10952   0.125   1.424  14.713  0.3504 -0.3582 -0.0701
  741TMC3     O10953   0.173   1.542  14.719  0.8258 -0.2963 -0.4054
  741TMC3     H10954   0.136   1.157  14.713  0.4211 -0.1189  0.3693
  741TMC3    H110955   0.089   1.506  14.963 -0.2835  0.6452 -2.5071
  741TMC3    H210956   0.011   1.109  15.111  0.0371  0.5764  0.1415
  741TMC3    C710957   0.129   1.338  15.178  0.4973  0.0600 -0.0800
  741TMC3    C810958   4.694   1.015  14.852  1.1895 -0.0375 -0.2736
  741TMC3    O110959   0.126   1.252  15.268 -0.1720 -0.0668 -0.1532
  741TMC3    O210960   4.688   0.995  14.733 -0.4998 -0.0493 -0.2976
  742TMC3    C110961   0.168   4.526  15.384  0.1665 -0.5280  0.4150
  742TMC3    C210962   0.074   4.440  15.341  0.2278 -0.3049  0.8552
  742TMC3    C310963   0.116   4.342  15.259  0.2866  0.3248 -0.0099
  742TMC3    C410964   0.304   4.501  15.372 -0.1195 -0.4840  0.4800
  742TMC3    C510965   0.340   4.398  15.289 -0.0709  1.4760 -0.3658
  742TMC3    C610966   0.247   4.319  15.230  0.6978 -0.0306  0.2295
  742TMC3     C10967   0.113   4.640  15.452  0.8091  0.5333 -0.4662
  742TMC3     O10968   0.006   4.633  15.509 -0.3049  1.1344 -0.1415
  742TMC3     H10969   4.698   4.485  15.348  0.5724  0.5295  0.3679
  742TMC3    H110970   0.373   4.573  15.415 -0.0227  0.3029 -1.0205
  742TMC3    H210971   0.264   4.234  15.165 -1.0419 -0.0579 -0.1936
  742TMC3    C710972   0.474   4.341  15.291  1.2780 -0.1570 -0.0961
  742TMC3    C810973   0.022   4.271  15.184 -0.3641  0.1578  1.1712
  742TMC3    O110974   0.495   4.226  15.245 -0.0058  0.3230  0.1907
  742TMC3    O210975   0.062   4.235  15.075 -0.3953  0.2504  0.2458
  743MPD2     C10976   2.868   1.329   2.133 -0.3423 -0.0367  0.4103
  743MPD2    C110977   2.884   1.229   2.049  0.5535 -0.7236 -0.0520
  743MPD2    C210978   3.010   1.185   2.028  0.5043  0.2441  0.4628
  743MPD2    C310979   3.121   1.233   2.088 -1.0922  0.4811 -0.3023
  743MPD2    C410980   3.102   1.336   2.178 -0.1549 -0.1383  0.4970
  743MPD2    C510981   2.978   1.387   2.197  0.2894  0.1511  0.2971
  743MPD2     H10982   3.017   1.093   1.971  1.4534  1.1863 -0.9456
  743MPD2    H110983   3.186   1.389   2.222  0.2183 -0.3578  0.0452
  743MPD2    H210984   2.769   1.369   2.152  0.0088  0.8403  0.4292
  743MPD2    H310985   2.961   1.472   2.261  0.2523  0.4512 -0.1140
  743MPD2     N10986   3.241   1.175   2.051  0.1564  0.3412 -0.8702
  743MPD2    H510987   3.230   1.089   1.997  3.5221 -1.0597  0.6689
  743MPD2    N110988   2.769   1.182   1.983 -0.0387  0.5683  0.2450
  743MPD2    H710989   2.686   1.240   1.996 -0.0533  0.6057 -0.0145
  744TMC3    C110990   2.670   1.086   1.797  0.4954  0.2805 -0.4658
  744TMC3    C210991   2.572   1.187   1.794 -0.3442 -0.0461 -0.0149
  744TMC3    C310992   2.474   1.186   1.701 -0.1665  0.7882 -0.2332
  744TMC3    C410993   2.670   0.991   1.701  0.7785 -0.1302  1.1989
  744TMC3    C510994   2.582   1.015   1.598 -0.6891 -1.2381 -0.6563
  744TMC3    C610995   2.480   1.107   1.598 -0.4816 -0.3837 -0.3887
  744TMC3     C10996   2.776   1.079   1.893 -0.0732 -0.1090  0.0520
  744TMC3     O10997   2.860   0.992   1.867 -0.0592  0.4249  0.3910
  744TMC3     H10998   2.568   1.262   1.873 -0.3971  0.3993 -0.4440
  744TMC3    H110999   2.737   0.907   1.698 -1.0356 -1.4159 -3.3907
  744TMC3    H211000   2.422   1.108   1.506 -0.4523  2.5341 -0.3545
  744TMC3    C711001   2.576   0.916   1.493 -0.4709 -0.2245  0.4712
  744TMC3    C811002   2.379   1.289   1.689  0.4317 -0.3335  0.0158
  744TMC3    O111003   2.525   0.946   1.386 -0.0059  0.2406 -0.2307
  744TMC3    O211004   2.323   1.309   1.580  0.5263 -0.3117 -0.0432
  745TMC3    C111005   0.736   4.389  14.299 -0.5683  0.1499  1.1964
  745TMC3    C211006   0.640   4.340  14.391 -0.2270 -0.4097  0.1781
  745TMC3    C311007   0.508   4.333  14.357  0.6773 -0.4601  0.2033
  745TMC3    C411008   0.700   4.436  14.169 -0.5937 -0.2988 -0.2011
  745TMC3    C511009   0.568   4.420  14.144  0.6682  0.1916  0.0606
  745TMC3    C611010   0.469   4.376  14.232  0.5435  0.0069  0.4146
  745TMC3     C11011   0.867   4.421  14.348 -0.1034  0.2408 -0.3302
  745TMC3     O11012   0.895   4.367  14.452  0.2693 -0.2338 -0.0529
  745TMC3     H11013   0.665   4.309  14.492  0.6008  1.3695  0.5337
  745TMC3    H111014   0.773   4.469  14.096  0.5941 -1.1557  0.5934
  745TMC3    H211015   0.365   4.393  14.203 -0.1937 -2.5572  1.5229
  745TMC3    C711016   0.525   4.437  14.002 -0.0583 -0.0588  0.7445
  745TMC3    C811017   0.432   4.396  14.464  0.3645 -0.0880  0.6130
  745TMC3    O111018   0.414   4.390  13.970  0.4428  0.4099 -0.0275
  745TMC3    O211019   0.375   4.325  14.540 -0.1483  0.6175  0.2280
  746TMC3    C111020   3.043   1.390  11.104  0.4273  0.1601  0.1760
  746TMC3    C211021   3.118   1.348  10.999  0.4393  0.1860 -0.0509
  746TMC3    C311022   3.054   1.276  10.898 -0.4946  0.1570 -0.7167
  746TMC3    C411023   2.915   1.355  11.101  0.1200 -0.4730 -0.4074
  746TMC3    C511024   2.858   1.287  11.002 -0.1657  0.0465  0.3350
  746TMC3    C611025   2.925   1.239  10.891 -0.2549 -0.1672 -0.4015
  746TMC3     C11026   3.080   1.501  11.181  0.1488  0.5180  0.1906
  746TMC3     O11027   2.999   1.537  11.268  0.2422 -0.4375 -0.0936
  746TMC3     H11028   3.225   1.366  10.998  0.7774 -1.8049  0.8982
  746TMC3    H111029   2.858   1.381  11.189  0.8946 -0.0009 -0.0449
  746TMC3    H211030   2.875   1.198  10.804 -1.5120  0.2807  0.1155
  746TMC3    C711031   2.711   1.298  10.986 -0.4632  0.4736 -0.2751
  746TMC3    C811032   3.130   1.224  10.788 -0.1712 -0.2056 -0.5291
  746TMC3    O111033   2.667   1.237  10.889 -0.2268  0.1622 -0.0324
  746TMC3    O211034   3.105   1.112  10.740 -0.0337  0.2730  0.4101
  747TMC3    C111035   0.678   1.304  11.172  0.2979  0.8244 -0.0572
  747TMC3    C211036   0.609   1.195  11.218 -0.3342 -0.4327  0.1131
  747TMC3    C311037   0.602   1.185  11.354 -0.1121  0.7684  1.2373
  747TMC3    C411038   0.742   1.394  11.248 -0.7047 -0.1190 -0.2979
  747TMC3    C511039   0.729   1.377  11.381 -0.3783 -0.4020  0.4882
  747TMC3    C611040   0.663   1.269  11.439  0.8032  0.1877 -0.0238
  747TMC3     C11041   0.692   1.324  11.025  0.1270 -0.6678  0.3813
  747TMC3     O11042   0.719   1.441  10.991  1.2149  0.0124 -0.2213
  747TMC3     H11043   0.554   1.123  11.159 -0.8498 -0.8450  1.0979
  747TMC3    H111044   0.792   1.480  11.204 -1.0142  0.4342  0.4397
  747TMC3    H211045   0.641   1.265  11.545  1.5576  1.8074  0.1898
  747TMC3    C711046   0.770   1.477  11.481  0.1289 -0.6988  0.4225
  747TMC3    C811047   0.502   1.101  11.410  0.5149 -0.1669  0.1378
  747TMC3    O111048   0.731   1.465  11.596  0.0816  0.1253 -0.6249
  747TMC3    O211049   0.475   0.990  11.366  0.1471  0.4091 -0.7658
  748MPD2     C11050   1.916   2.786   2.035  1.0183  0.1604  0.0242
  748MPD2    C111051   1.913   2.647   2.045  0.0117  0.2144 -0.4910
  748MPD2    C211052   2.029   2.577   2.012  1.0008  0.7514  0.0194
  748MPD2    C311053   2.135   2.642   1.954 -0.2828 -0.3568  0.2589
  748MPD2    C411054   2.134   2.782   1.945  0.3550 -0.2979 -0.6554
  748MPD2    C511055   2.029   2.853   1.990  0.3317  0.5480 -0.4772
  748MPD2     H11056   2.036   2.469   2.014 -1.3008  0.5605 -0.9688
  748MPD2    H111057   2.216   2.835   1.897  1.1690 -0.6919  0.3166
  748MPD2    H211058   1.827   2.844   2.056  1.0182 -0.1752  0.9389
  748MPD2    H311059   2.033   2.961   1.976  1.0610  0.7621  1.3173
  748MPD2     N11060   2.225   2.558   1.887 -0.6236  0.5623 -0.5946
  748MPD2    H511061   2.223   2.458   1.900 -1.0394  0.8742  1.7688
  748MPD2    N111062   1.787   2.580   2.090 -0.0747 -0.0011 -0.0895
  748MPD2    H711063   1.706   2.640   2.104 -1.0693 -1.1664 -0.7853
  749TMC3    C111064   2.421   2.493   1.765 -0.4121  0.4282  0.3826
  749TMC3    C211065   2.447   2.393   1.856  0.6467 -0.8022 -0.2043
  749TMC3    C311066   2.549   2.306   1.816  0.4537  0.1939  0.1497
  749TMC3    C411067   2.487   2.504   1.642 -0.8161 -0.4329 -0.4648
  749TMC3    C511068   2.581   2.418   1.612 -0.2304 -0.2084  0.9731
  749TMC3    C611069   2.609   2.309   1.694 -0.4538 -0.1682 -0.1300
  749TMC3     C11070   2.326   2.595   1.802  0.1979  0.5983 -0.0170
  749TMC3     O11071   2.338   2.705   1.749  0.1619  0.2111 -0.4325
  749TMC3     H11072   2.414   2.383   1.959  0.5820 -2.0175 -0.3352
  749TMC3    H111073   2.471   2.593   1.582  1.3435  0.7370  0.6770
  749TMC3    H211074   2.700   2.253   1.677 -0.9762 -0.3862 -2.1931
  749TMC3    C711075   2.678   2.471   1.521  0.1100  0.5693  0.5787
  749TMC3    C811076   2.614   2.220   1.921 -0.4373 -0.2150 -0.3792
  749TMC3    O111077   2.701   2.592   1.514  0.1344  0.3503  0.0377
  749TMC3    O211078   2.593   2.252   2.034 -0.2019  0.2692 -0.2962
  750MPD2     C11079   3.350   3.570  11.202  0.3310  0.3155  0.1668
  750MPD2    C111080   3.225   3.515  11.230 -0.2249 -0.3316  0.2065
  750MPD2    C211081   3.213   3.381  11.235 -0.3292 -0.0646  0.4584
  750MPD2    C311082   3.312   3.295  11.186  0.4542  0.4350  0.2383
  750MPD2    C411083   3.430   3.351  11.155 -0.3760  0.1572  0.4411
  750MPD2    C511084   3.450   3.485  11.151 -0.1463 -0.4547  0.3685
  750MPD2     H11085   3.124   3.327  11.264 -1.0805  1.4526  0.9619
  750MPD2    H111086   3.508   3.293  11.108 -1.1412  0.6892 -1.4913
  750MPD2    H211087   3.372   3.676  11.205  1.4177  0.1175 -0.4242
  750MPD2    H311088   3.547   3.518  11.114 -0.3148  0.5149  0.7958
  750MPD2     N11089   3.302   3.151  11.170 -0.2250  0.3120  0.2685
  750MPD2    H511090   3.389   3.099  11.169 -0.4525 -0.0139 -2.2958
  750MPD2    N111091   3.120   3.597  11.274  0.6171 -0.1152  0.0678
  750MPD2    H711092   3.125   3.696  11.253 -0.1846 -0.2333 -0.6866
  751TMC3    C111093   3.212   2.944  11.123 -0.2564  0.0959  0.4524
  751TMC3    C211094   3.096   2.876  11.096  0.6689 -0.5434 -0.4004
  751TMC3    C311095   3.108   2.745  11.066 -0.4540  0.1015  0.0141
  751TMC3    C411096   3.332   2.880  11.135 -0.4387  0.6061 -0.7829
  751TMC3    C511097   3.333   2.741  11.125 -0.1430  0.5559 -0.4900
  751TMC3    C611098   3.226   2.678  11.080 -0.8630 -0.5574 -0.6615
  751TMC3     C11099   3.187   3.079  11.175 -0.3522  0.0874  0.9442
  751TMC3     O11100   3.074   3.124  11.180  0.0481  0.3282 -0.1552
  751TMC3     H11101   3.022   2.941  11.051 -1.1242 -2.5518 -0.3317
  751TMC3    H111102   3.424   2.922  11.174  0.8703 -4.0158  1.1188
  751TMC3    H211103   3.215   2.570  11.073  0.3895 -0.6752 -0.8304
  751TMC3    C711104   3.450   2.659  11.124  1.3487 -0.6786 -0.1541
  751TMC3    C811105   2.995   2.671  11.010  0.7515 -0.1689  0.3639
  751TMC3    O111106   3.550   2.708  11.068  0.9673 -0.4300 -0.1870
  751TMC3    O211107   3.016   2.554  10.982  0.0210 -0.0266  0.2880
  752TMC3    C111108   2.302   2.891  16.482  0.4098 -0.0448  0.0435
  752TMC3    C211109   2.282   2.962  16.593  0.3879 -0.1814  0.5191
  752TMC3    C311110   2.367   2.950  16.694 -0.6355  0.2904  0.1031
  752TMC3    C411111   2.410   2.814  16.460 -0.3118  0.3626  0.2342
  752TMC3    C511112   2.512   2.810  16.563 -0.2112 -0.0665  0.2506
  752TMC3    C611113   2.484   2.870  16.686 -0.0548 -0.5428 -0.7166
  752TMC3     C11114   2.196   2.887  16.380 -0.1055  0.1415  0.2943
  752TMC3     O11115   2.217   2.812  16.286  1.0745  0.3355  0.1892
  752TMC3     H11116   2.198   3.029  16.607  0.6009 -0.0324  1.0768
  752TMC3    H111117   2.428   2.770  16.362  0.6025  1.7495 -0.2300
  752TMC3    H211118   2.546   2.854  16.774  0.1504  2.0113 -0.3924
  752TMC3    C711119   2.647   2.756  16.543  0.2145 -0.6190 -0.0839
  752TMC3    C811120   2.325   3.023  16.811  0.4484  0.8248  0.3305
  752TMC3    O111121   2.723   2.774  16.640 -0.0759  0.3950 -0.3930
  752TMC3    O211122   2.206   3.043  16.836  0.3223  0.1709  0.1287
  753TMC3    C111123   3.602   4.634  13.849  0.2865 -0.7609 -0.2882
  753TMC3    C211124   3.564   4.541  13.948 -0.0225  0.3869  0.9921
  753TMC3    C311125   3.491   4.441  13.902  0.4098  0.2382  0.2044
  753TMC3    C411126   3.581   4.615  13.720  0.3937  0.0249  0.1566
  753TMC3    C511127   3.485   4.527  13.684  0.0229  0.3235  0.0360
  753TMC3    C611128   3.437   4.437  13.779 -0.0043  0.0477 -0.1924
  753TMC3     C11129   3.710   4.717  13.891 -0.1197 -0.2203 -0.4631
  753TMC3     O11130   3.780   4.693  13.990  0.0170  0.4405  0.1176
  753TMC3     H11131   3.602   4.549  14.049 -3.9810  0.2310  2.4720
  753TMC3    H111132   3.623   4.671  13.637 -0.4586  0.1812 -0.1694
  753TMC3    H211133   3.362   4.362  13.758 -0.3633  0.7922 -1.5260
  753TMC3    C711134   3.469   4.502  13.542 -0.0631  0.1503 -0.2430
  753TMC3    C811135   3.479   4.316  13.985  0.0371 -0.1355  0.0040
  753TMC3    O111136   3.543   4.555  13.464 -0.4510 -0.5247 -1.1527
  753TMC3    O211137   3.408   4.221  13.943  1.1209 -0.0000  0.0266
  754MPD2     C11138   2.014   2.992  13.291  0.4570  0.0667 -0.1139
  754MPD2    C111139   1.969   2.867  13.335  0.0110 -0.3978  0.2169
  754MPD2    C211140   1.852   2.824  13.277 -0.7169 -0.1003 -0.5352
  754MPD2    C311141   1.769   2.906  13.203 -0.5687  0.3109 -0.2648
  754MPD2    C411142   1.811   3.033  13.174 -0.1343  0.2349 -0.2767
  754MPD2    C511143   1.936   3.064  13.208 -1.2685  1.0333  0.1723
  754MPD2     H11144   1.830   2.720  13.296 -1.2173 -0.1606 -1.4470
  754MPD2    H111145   1.754   3.110  13.125  0.1876  0.3314 -0.4997
  754MPD2    H211146   2.103   3.043  13.325  0.1813 -0.3562  1.2762
  754MPD2    H311147   1.978   3.156  13.168  2.2765  0.0576  1.5709
  754MPD2     N11148   1.640   2.866  13.173 -0.1601 -0.4962  0.2408
  754MPD2    H511149   1.583   2.929  13.117 -0.2769 -1.3985 -0.6540
  754MPD2    N111150   2.045   2.784  13.414 -0.2058  0.0531  0.0961
  754MPD2    H711151   2.143   2.810  13.423 -0.2057  0.7808 -2.0181
  755MPD2     C11152   0.739   3.244  13.392  0.4348  0.1862 -0.2008
  755MPD2    C111153   0.867   3.270  13.438 -0.0974  0.2586 -0.6677
  755MPD2    C211154   0.978   3.216  13.371  0.0816 -0.8835 -0.9361
  755MPD2    C311155   0.956   3.111  13.282 -0.0512 -0.2975  0.2012
  755MPD2    C411156   0.831   3.090  13.228 -0.3058 -0.2272 -0.4165
  755MPD2    C511157   0.726   3.152  13.290  0.4127 -0.7085 -0.5939
  755MPD2     H11158   1.079   3.235  13.405 -0.0063  0.6479 -1.5077
  755MPD2    H111159   0.820   3.023  13.144 -1.1706  0.0726 -0.5366
  755MPD2    H211160   0.656   3.301  13.433  0.8779 -0.6030  1.8103
  755MPD2    H311161   0.626   3.144  13.250  0.3766  0.8375 -0.8152
  755MPD2     N11162   1.055   3.024  13.233  0.2928 -0.0273  0.4568
  755MPD2    H511163   1.031   2.940  13.182 -1.2229  0.4402  0.3944
  755MPD2    N111164   0.878   3.364  13.545  0.0589  0.1956 -0.0601
  755MPD2    H711165   0.794   3.411  13.577  0.5311  1.5813 -0.8742
  756MPD2     C11166   2.335   4.134   9.982 -0.1194 -0.4983 -0.2242
  756MPD2    C111167   2.299   4.006  10.000  0.4434 -0.0315  0.3211
  756MPD2    C211168   2.173   3.958   9.952  0.3807  0.0890 -0.0416
  756MPD2    C311169   2.111   4.034   9.845 -0.0429 -0.5375 -0.1385
  756MPD2    C411170   2.153   4.168   9.821  0.4023  0.9980 -0.2597
  756MPD2    C511171   2.258   4.216   9.895 -1.3385  0.6521 -0.4015
  756MPD2     H11172   2.140   3.857   9.970 -0.3061 -0.1663 -2.7739
  756MPD2    H111173   2.097   4.232   9.754 -1.3085 -0.9416 -0.7023
  756MPD2    H211174   2.433   4.172  10.010 -0.3480 -0.9649  1.1788
  756MPD2    H311175   2.294   4.315   9.868  0.6004  0.4195  1.3455
  756MPD2     N11176   2.004   3.974   9.776  0.2215  0.3890  0.2595
  756MPD2    H511177   1.974   3.887   9.819 -0.3971 -0.3639 -1.7027
  756MPD2    N111178   2.371   3.918  10.081  0.1467  0.0343  0.1299
  756MPD2    H711179   2.329   3.831  10.110  0.1323 -0.2445 -0.7251
  757MPD2     C11180   1.459   3.146   9.617 -0.8794 -0.5317 -0.5521
  757MPD2    C111181   1.388   3.243   9.546  0.6538 -0.8101 -0.2939
  757MPD2    C211182   1.449   3.370   9.525 -0.0790 -0.4729  0.4999
  757MPD2    C311183   1.569   3.405   9.577  0.5240 -1.1022 -0.1883
  757MPD2    C411184   1.638   3.310   9.651 -0.4606  0.8604 -0.0495
  757MPD2    C511185   1.587   3.178   9.661 -0.5578  0.4386  0.3959
  757MPD2     H11186   1.389   3.438   9.465  0.3352 -0.7479 -0.2284
  757MPD2    H111187   1.739   3.318   9.688 -0.5454 -0.6660  0.5338
  757MPD2    H211188   1.421   3.045   9.628  1.1375 -1.3760 -1.3573
  757MPD2    H311189   1.655   3.109   9.709  3.4456  1.0849 -4.3444
  757MPD2     N11190   1.614   3.541   9.552  0.0388 -0.0344  0.4703
  757MPD2    H511191   1.571   3.586   9.472 -0.1101 -1.9402 -0.5170
  757MPD2    N111192   1.271   3.202   9.482 -0.1251  0.1201 -0.4929
  757MPD2    H711193   1.245   3.104   9.478 -2.8165  0.8035  0.4183
  758MPD2     C11194   3.182   1.974  16.018 -0.3568 -0.1359 -0.3458
  758MPD2    C111195   3.204   1.962  16.152  0.4747 -0.0107 -0.4714
  758MPD2    C211196   3.113   2.011  16.247 -0.4446 -0.1523  0.4497
  758MPD2    C311197   2.993   2.058  16.206  0.4171  0.6353 -0.0988
  758MPD2    C411198   2.980   2.086  16.069  0.3894  0.1145 -0.6023
  758MPD2    C511199   3.073   2.040  15.976  0.0597  0.3786  0.4949
  758MPD2     H11200   3.136   2.023  16.352 -1.2740 -1.1557  0.7401
  758MPD2    H111201   2.895   2.135  16.023  0.2685  1.6668  1.3270
  758MPD2    H211202   3.257   1.932  15.952 -0.0385 -0.2972  0.1163
  758MPD2    H311203   3.063   2.062  15.870  0.2592  1.7689  0.7649
  758MPD2     N11204   2.913   2.125  16.296 -0.4819  0.0280  0.1340
  758MPD2    H511205   2.840   2.179  16.251 -1.0891 -1.0965 -0.2316
  758MPD2    N111206   3.325   1.907  16.200 -0.1697  0.3437  0.1529
  758MPD2    H711207   3.392   1.893  16.125  0.5096  0.2418  0.7782
  759MPD2     C11208   1.317   1.095  10.925  0.2405  0.4129 -0.3978
  759MPD2    C111209   1.278   0.964  10.892  0.4580 -0.5358 -0.5278
  759MPD2    C211210   1.270   0.932  10.762  0.6168 -0.4678 -0.6093
  759MPD2    C311211   1.295   1.032  10.667 -0.2439 -0.4141  0.5808
  759MPD2    C411212   1.321   1.164  10.699  0.8727  0.2584  0.2947
  759MPD2    C511213   1.340   1.189  10.830 -0.6217  0.5785  0.6650
  759MPD2     H11214   1.247   0.829  10.737  0.0532 -0.5986  0.4533
  759MPD2    H111215   1.336   1.239  10.622  0.6382  0.0673  0.0633
  759MPD2    H211216   1.325   1.123  11.029 -0.6386  0.1007 -0.2435
  759MPD2    H311217   1.361   1.293  10.854 -1.4962  1.1132 -0.8830
  759MPD2     N11218   1.290   0.998  10.531  0.2380  0.3710 -0.0176
  759MPD2    H511219   1.293   1.074  10.464  0.6377  0.0959 -0.3048
  759MPD2    N111220   1.254   0.860  10.982  0.4807 -0.3032  0.1876
  759MPD2    H711221   1.241   0.770  10.937  1.0379  0.2121 -0.9973
  760MPD2     C11222   0.648   3.581  11.920 -0.0970  0.4485  0.4615
  760MPD2    C111223   0.766   3.573  11.993  0.6683  0.2173 -1.1495
  760MPD2    C211224   0.772   3.487  12.105  0.5522 -0.3321 -0.4090
  760MPD2    C311225   0.658   3.412  12.148  0.1430 -0.1048 -0.8307
  760MPD2    C411226   0.546   3.414  12.063  0.2297 -0.3043  0.1036
  760MPD2    C511227   0.541   3.510  11.968  0.1900  0.0368 -0.3602
  760MPD2     H11228   0.859   3.485  12.170  1.2268  1.4695 -1.2468
  760MPD2    H111229   0.458   3.360  12.097 -0.6951  0.4688 -1.1131
  760MPD2    H211230   0.646   3.653  11.839 -3.5118  0.6824  0.7566
  760MPD2    H311231   0.442   3.510  11.923  0.3301  2.7151 -0.6668
  760MPD2     N11232   0.657   3.325  12.260  0.1136  0.5943  1.0663
  760MPD2    H511233   0.588   3.251  12.247  1.6207 -0.2757 -2.1348
  760MPD2    N111234   0.877   3.645  11.961 -0.6752 -0.0079  0.4247
  760MPD2    H711235   0.956   3.635  12.024 -1.6881  1.2667  1.9050
  761MPD2     C11236   2.504   2.539  11.029 -0.5660  0.2587  0.3425
  761MPD2    C111237   2.602   2.496  10.938 -0.1666 -0.0897 -0.5082
  761MPD2    C211238   2.731   2.553  10.953  0.9181  0.2097  0.7556
  761MPD2    C311239   2.753   2.667  11.022  0.9466 -0.3093  0.5254
  761MPD2    C411240   2.652   2.713  11.100 -0.2585  0.2025 -0.1461
  761MPD2    C511241   2.535   2.644  11.109  0.3999 -0.5827  0.3184
  761MPD2     H11242   2.813   2.503  10.904 -0.5128  0.2458 -1.7105
  761MPD2    H111243   2.677   2.795  11.166  0.2316 -0.5465  0.5979
  761MPD2    H211244   2.402   2.501  11.037 -1.3293  1.9554 -1.4125
  761MPD2    H311245   2.459   2.690  11.171 -1.5616 -0.5286 -2.1459
  761MPD2     N11246   2.878   2.722  11.049 -0.3858  0.1894  0.0151
  761MPD2    H511247   2.876   2.809  11.101 -3.2653  0.7975 -1.0947
  761MPD2    N111248   2.575   2.381  10.864 -0.4100 -0.7269 -0.1061
  761MPD2    H711249   2.487   2.331  10.861 -0.6719  0.1481 -6.2632
  762MPD2     C11250   3.129   2.226  10.359  0.3046 -0.0223 -0.9141
  762MPD2    C111251   3.126   2.123  10.450  0.0312 -0.6354 -0.2531
  762MPD2    C211252   3.230   2.035  10.465 -0.7932 -0.3677  0.1043
  762MPD2    C311253   3.348   2.064  10.399  0.2174  0.1586  0.3833
  762MPD2    C411254   3.353   2.168  10.312 -0.1083 -0.5873 -0.1400
  762MPD2    C511255   3.246   2.244  10.288  0.0474  0.2936  0.8221
  762MPD2     H11256   3.234   1.953  10.535 -2.2306  1.0120  1.7799
  762MPD2    H111257   3.436   2.197  10.247 -0.6119 -0.1755 -0.6016
  762MPD2    H211258   3.035   2.280  10.353  0.2701  0.0917  0.6519
  762MPD2    H311259   3.258   2.335  10.231  1.2870  0.4759  1.3801
  762MPD2     N11260   3.457   1.976  10.421  0.5293 -0.3606  0.0743
  762MPD2    H511261   3.447   1.894  10.479 -0.1435 -0.4562 -0.1775
  762MPD2    N111262   3.007   2.122  10.531  0.7443  0.6612  0.8119
  762MPD2    H711263   2.949   2.203  10.513  0.3310  0.6925  2.3661
  763MPD2     C11264   4.699   2.916  16.351  0.4950 -0.3385  0.4779
  763MPD2    C111265   4.569   2.957  16.322  0.1908 -0.0847 -0.0882
  763MPD2    C211266   4.525   3.077  16.377  0.9029  0.2171 -0.0141
  763MPD2    C311267   4.610   3.156  16.450  0.3354  0.4796  0.0852
  763MPD2    C411268   0.018   3.111  16.480 -0.2091  0.3849  0.1670
  763MPD2    C511269   0.056   2.985  16.442  0.3360 -0.3907  0.4330
  763MPD2     H11270   4.422   3.095  16.346  0.4426  1.6863  2.4203
  763MPD2    H111271   0.091   3.172  16.532  0.9393 -0.1060 -0.8751
  763MPD2    H211272   0.020   2.822  16.320  1.9230  0.4054  0.2654
  763MPD2    H311273   0.161   2.959  16.453  0.6933  1.4773  1.4850
  763MPD2     N11274   4.581   3.279  16.510 -0.4192  0.2999 -0.4590
  763MPD2    H511275   4.662   3.326  16.548 -0.1511 -0.5267 -0.0146
  763MPD2    N111276   4.484   2.889  16.233 -0.5535  0.1798 -0.5581
  763MPD2    H711277   4.412   2.946  16.189  0.3778  1.8811  0.1269
  764MPD2     C11278   3.215   4.171   0.336  0.2978 -0.3681 -0.4472
  764MPD2    C111279   3.117   4.184   0.243 -0.7508  0.1702 -0.0893
  764MPD2    C211280   3.038   4.078   0.213 -0.0384 -0.4252  0.1574
  764MPD2    C311281   3.059   3.956   0.274 -0.1275  1.0140 -0.5855
  764MPD2    C411282   3.162   3.943   0.371 -0.0614  0.3643  0.5890
  764MPD2    C511283   3.232   4.057   0.409  0.3286 -0.7962 -0.3085
  764MPD2     H11284   2.959   4.084   0.138 -1.1177  1.1956  1.4465
  764MPD2    H111285   3.181   3.848   0.420 -0.0096  0.0637 -0.0115
  764MPD2    H211286   3.280   4.255   0.357  1.1737 -0.4964 -2.7454
  764MPD2    H311287   3.309   4.046   0.485  0.6907 -0.1224 -0.5788
  764MPD2     N11288   2.964   3.853   0.261  0.1507 -0.5314  0.1589
  764MPD2    H511289   2.898   3.872   0.186  0.2525  0.1794  0.2520
  764MPD2    N111290   3.098   4.300   0.165 -0.5686 -0.7711  0.0106
  764MPD2    H711291   3.024   4.292   0.096  0.2243 -1.4769 -0.7715
  765MPD2     C11292   2.181   1.640  16.153  0.3493 -0.8131 -0.6639
  765MPD2    C111293   2.243   1.724  16.058  0.2497  0.2737  0.1348
  765MPD2    C211294   2.332   1.664  15.970  0.7371 -0.6603  0.1242
  765MPD2    C311295   2.371   1.531  15.991 -0.6581 -1.0224 -0.0838
  765MPD2    C411296   2.308   1.457  16.087  0.3053 -0.5539  0.3981
  765MPD2    C511297   2.216   1.510  16.173 -0.2725 -0.2267  0.5914
  765MPD2     H11298   2.370   1.720  15.886 -0.6226 -1.9802 -1.3643
  765MPD2    H111299   2.333   1.353  16.102 -3.1563 -1.2978  1.1298
  765MPD2    H211300   2.100   1.675  16.216  1.4403  1.9416 -0.7740
  765MPD2    H311301   2.159   1.451  16.244  1.7067 -3.0306 -0.1481
  765MPD2     N11302   2.464   1.478  15.897 -0.5344  0.3767 -0.2982
  765MPD2    H511303   2.502   1.539  15.826  1.9237 -1.9628 -1.0322
  765MPD2    N111304   2.192   1.850  16.036  0.1509  0.3421 -0.4040
  765MPD2    H711305   2.107   1.866  16.089  0.3359  2.7837 -0.8666
  766MPD2     C11306   1.796   1.690  15.586 -0.4432 -0.5330 -0.9958
  766MPD2    C111307   1.880   1.803  15.563  0.4131  0.5744  0.2813
  766MPD2    C211308   1.943   1.818  15.443  0.1256  0.5669  0.0524
  766MPD2    C311309   1.931   1.719  15.349 -0.1763 -0.2949 -0.9560
  766MPD2    C411310   1.857   1.607  15.375  0.5008 -0.1336 -0.1031
  766MPD2    C511311   1.798   1.586  15.496  0.6682  0.0496 -0.1831
  766MPD2     H11312   2.013   1.901  15.439 -1.0411  1.6772  2.2592
  766MPD2    H111313   1.844   1.531  15.298  1.9161 -1.2723  0.7795
  766MPD2    H211314   1.749   1.675  15.682 -2.6259  0.7597 -1.8750
  766MPD2    H311315   1.741   1.495  15.513  2.1375 -0.5446  1.5624
  766MPD2     N11316   1.989   1.728  15.220 -0.6868  0.3078  0.6815
  766MPD2    H511317   1.955   1.663  15.150 -0.7638  0.2638  0.7601
  766MPD2    N111318   1.900   1.900  15.669 -0.4799 -0.3947  0.5027
  766MPD2    H711319   1.868   1.877  15.762 -0.0020  1.5394  1.1394
  767MPD2     C11320   1.734   2.049  15.249 -0.1294  0.1851 -0.1750
  767MPD2    C111321   1.840   2.110  15.185 -0.2451  0.1103 -0.3182
  767MPD2    C211322   1.838   2.123  15.050  0.0434  0.5882 -0.7719
  767MPD2    C311323   1.739   2.055  14.982  0.2758 -0.1883 -0.5857
  767MPD2    C411324   1.651   1.971  15.046  0.1403 -0.6045  0.6670
  767MPD2    C511325   1.643   1.981  15.180  0.1505  0.1633 -0.3814
  767MPD2     H11326   1.913   2.177  14.995  2.1796 -0.2202  1.3457
  767MPD2    H111327   1.572   1.910  15.004  0.2300 -0.7180  0.6622
  767MPD2    H211328   1.737   2.025  15.355 -0.9109  0.5275 -0.0767
  767MPD2    H311329   1.558   1.936  15.230  0.1926  0.1945 -0.2824
  767MPD2     N11330   1.747   2.054  14.841 -0.3788  0.3894 -0.0914
  767MPD2    H511331   1.822   2.102  14.793  0.3206  1.2266  1.8355
  767MPD2    N111332   1.935   2.177  15.276 -0.1919  0.3889  0.4443
  767MPD2    H711333   1.936   2.147  15.373 -0.4165  0.2393  0.3999
  768MPD2     C11334   2.737   1.165  10.402 -0.2316 -0.5110 -0.5771
  768MPD2    C111335   2.646   1.154  10.498  0.3706 -0.2262 -0.4828
  768MPD2    C211336   2.678   1.076  10.610  0.0737  0.4665  0.2366
  768MPD2    C311337   2.803   1.007  10.626 -0.3256 -0.2205  0.1837
  768MPD2    C411338   2.893   1.015  10.525  0.1748 -0.3843  0.1970
  768MPD2    C511339   2.860   1.096  10.415 -0.3126 -0.3357  0.0406
  768MPD2     H11340   2.614   1.098  10.695 -0.4421 -0.6140  0.1182
  768MPD2    H111341   2.988   0.963  10.531  0.3956 -0.3770 -2.9952
  768MPD2    H211342   2.711   1.201  10.303  0.3832  3.0341  0.5471
  768MPD2    H311343   2.919   1.091  10.324 -0.1273  1.1122  0.0934
  768MPD2     N11344   2.849   0.951  10.749 -0.1477  0.3733 -0.2827
  768MPD2    H511345   2.944   0.916  10.750  0.3747  1.8057  0.8388
  768MPD2    N111346   2.522   1.219  10.491  0.3364  0.3209  0.1561
  768MPD2    H711347   2.455   1.214  10.566 -0.3095 -0.6955 -0.4721
  769MPD2     C11348   3.315   3.708  15.225  1.1144 -0.3530 -0.0476
  769MPD2    C111349   3.248   3.760  15.329  0.1576 -0.2357 -0.1152
  769MPD2    C211350   3.313   3.796  15.445  1.0357 -0.2616  0.5370
  769MPD2    C311351   3.448   3.782  15.455 -0.2085  0.1288  0.7604
  769MPD2    C411352   3.515   3.720  15.347 -0.4838  0.2330  0.2855
  769MPD2    C511353   3.449   3.680  15.238  0.6393 -0.1230  0.0628
  769MPD2     H11354   3.267   3.843  15.531 -1.4490  0.1971 -1.0750
  769MPD2    H111355   3.622   3.704  15.346 -0.3010  1.2709  2.0686
  769MPD2    H211356   3.262   3.665  15.140  1.0585  0.8817 -0.6333
  769MPD2    H311357   3.507   3.628  15.163  0.8406  0.8916 -0.4817
  769MPD2     N11358   3.513   3.818  15.570  0.2004 -0.0735 -0.3604
  769MPD2    H511359   3.462   3.865  15.644  1.5242  0.1120  0.4406
  769MPD2    N111360   3.109   3.769  15.317 -0.2939 -0.3341  0.2869
  769MPD2    H711361   3.068   3.730  15.233  1.5070  0.1433 -0.8121
  770MPD2     C11362   2.702   3.189  15.969  0.9000  0.1900 -0.5417
  770MPD2    C111363   2.777   3.146  15.861  0.7886  0.1270 -0.1696
  770MPD2    C211364   2.792   3.227  15.747 -0.0468 -0.3198  0.2785
  770MPD2    C311365   2.726   3.347  15.746 -0.1164  0.0655 -0.2191
  770MPD2    C411366   2.641   3.383  15.849  0.8974  0.1192  0.3058
  770MPD2    C511367   2.633   3.309  15.962 -0.5410 -1.1066 -0.9111
  770MPD2     H11368   2.861   3.215  15.664 -0.6011 -1.0856 -0.0757
  770MPD2    H111369   2.587   3.476  15.836 -1.7705 -1.1986  1.9967
  770MPD2    H211370   2.680   3.123  16.052  1.5819  0.6133 -0.0240
  770MPD2    H311371   2.580   3.345  16.050  1.5606  3.2088 -1.4195
  770MPD2     N11372   2.747   3.427  15.631  0.3685  0.8806 -0.2457
  770MPD2    H511373   2.788   3.378  15.553  0.0806 -0.4035  0.4038
  770MPD2    N111374   2.851   3.028  15.889  0.2093  0.1409  0.3718
  770MPD2    H711375   2.869   3.005  15.986 -0.0226  0.8552  0.5770
  771MPD2     C11376   4.402   1.431  13.620 -0.1679  0.4305  0.2593
  771MPD2    C111377   4.277   1.492  13.628  0.3166 -0.3018 -0.1147
  771MPD2    C211378   4.166   1.413  13.607 -0.0278 -0.3096 -0.4237
  771MPD2    C311379   4.183   1.277  13.563 -0.1034  0.5227  0.7622
  771MPD2    C411380   4.307   1.223  13.548 -0.2852  0.4686  1.1907
  771MPD2    C511381   4.417   1.305  13.570 -0.0849 -0.7839 -0.3364
  771MPD2     H11382   4.066   1.453  13.614  0.0579  0.0810 -1.3779
  771MPD2    H111383   4.323   1.125  13.504 -0.0723  1.8977 -1.9738
  771MPD2    H211384   4.489   1.490  13.644 -0.7878  1.0128  1.0904
  771MPD2    H311385   4.519   1.272  13.551 -0.1229 -0.9164 -0.3113
  771MPD2     N11386   4.065   1.207  13.533 -0.4315  0.2791  0.4591
  771MPD2    H511387   3.978   1.259  13.535 -1.2208 -1.0474  0.3300
  771MPD2    N111388   4.272   1.626  13.689  0.3079  0.1004  0.3225
  771MPD2    H711389   4.357   1.681  13.698  1.3631 -1.4910 -0.0515
  772MPD2     C11390   3.820   2.094  14.214  0.0631  0.4462 -0.2757
  772MPD2    C111391   3.788   2.026  14.091 -0.6603 -0.3247 -0.0711
  772MPD2    C211392   3.663   1.963  14.079 -0.4164  0.3239 -0.2044
  772MPD2    C311393   3.565   1.990  14.179 -0.4668  0.2177 -0.3534
  772MPD2    C411394   3.598   2.056  14.297  0.3263  0.2764  0.0095
  772MPD2    C511395   3.728   2.103  14.315 -0.4025 -0.5205 -0.9379
  772MPD2     H11396   3.635   1.898  13.997  0.2684 -0.2976  0.0442
  772MPD2    H111397   3.530   2.084  14.377  0.9314  1.8915 -0.0343
  772MPD2    H211398   3.920   2.129  14.235  1.4950 -3.9924  0.2963
  772MPD2    H311399   3.757   2.151  14.408  1.7725 -1.1286 -1.3086
  772MPD2     N11400   3.434   1.927  14.167 -0.3653  0.3196 -0.0416
  772MPD2    H511401   3.371   1.937  14.246  1.3729 -1.5487  1.5754
  772MPD2    N111402   3.883   2.000  13.992  0.6069  0.4928  0.0474
  772MPD2    H711403   3.844   1.945  13.916 -0.4469  0.5339  0.5644
  773MPD2     C11404   3.086   2.554   0.365 -0.2884 -0.2129 -0.3017
  773MPD2    C111405   3.106   2.661   0.452  0.8837 -0.0259  0.0512
  773MPD2    C211406   3.214   2.661   0.548  1.2199 -0.0661  0.2154
  773MPD2    C311407   3.301   2.559   0.559  0.0916  0.4938 -0.4970
  773MPD2    C411408   3.282   2.452   0.474 -0.6017  0.6850  0.2686
  773MPD2    C511409   3.179   2.452   0.379 -0.5278  0.2424 -0.4027
  773MPD2     H11410   3.225   2.749   0.612 -2.0686 -1.8973  3.2942
  773MPD2    H111411   3.337   2.360   0.491  0.3751  1.4180  1.0728
  773MPD2    H211412   3.014   2.554   0.283 -0.4026 -1.5449 -0.2080
  773MPD2    H311413   3.164   2.367   0.314  0.2715 -0.6994  0.6269
  773MPD2     N11414   3.415   2.565   0.645 -0.6776  0.1370 -0.4034
  773MPD2    H511415   3.415   2.643   0.711 -2.0989  0.9266 -1.3476
  773MPD2    N111416   3.028   2.779   0.442 -0.8504  0.3183  0.1248
  773MPD2    H711417   3.065   2.871   0.464 -1.8862  0.5828  0.7343
  774MPD2     C11418   1.487   2.014  13.778  0.1533  0.1513 -0.4965
  774MPD2    C111419   1.623   2.033  13.774 -0.5011 -0.9348  0.7289
  774MPD2    C211420   1.662   2.149  13.706  0.3716  0.2989  0.5846
  774MPD2    C311421   1.577   2.232  13.629 -0.2431  0.3389  0.5365
  774MPD2    C411422   1.440   2.210  13.632  0.4352 -0.0542 -0.1417
  774MPD2    C511423   1.402   2.097  13.707  0.2518 -0.9092  0.1291
  774MPD2     H11424   1.766   2.180  13.708 -0.3473  3.1199 -3.8827
  774MPD2    H111425   1.370   2.276  13.583  1.5164  2.6241  1.8820
  774MPD2    H211426   1.437   1.930  13.825  1.1699 -0.4436 -0.4555
  774MPD2    H311427   1.296   2.078  13.715  0.6097 -2.4740  1.1738
  774MPD2     N11428   1.633   2.353  13.588  0.1049 -0.2769 -0.3591
  774MPD2    H511429   1.728   2.367  13.621 -0.0577  0.4279 -0.2029
  774MPD2    N111430   1.708   1.950  13.841 -0.3482 -0.4694  0.2878
  774MPD2    H711431   1.668   1.890  13.913 -0.1625  2.0705  2.5109
  775MPD2     C11432   3.858   3.604  15.976  0.5849  0.2395  0.0078
  775MPD2    C111433   3.875   3.677  16.091  0.6164 -0.5743 -0.4961
  775MPD2    C211434   3.975   3.774  16.094  0.1760  1.0067  0.4732
  775MPD2    C311435   4.050   3.796  15.977  0.0458 -0.2500  1.2324
  775MPD2    C411436   4.024   3.735  15.858  0.2914 -0.2088  0.4587
  775MPD2    C511437   3.922   3.642  15.856 -0.2315 -0.6931  0.2132
  775MPD2     H11438   3.995   3.835  16.181  2.0347  2.3646 -0.9151
  775MPD2    H111439   4.079   3.762  15.769  2.6156 -1.7715  1.4173
  775MPD2    H211440   3.786   3.523  15.968 -0.4781  1.1197  0.6945
  775MPD2    H311441   3.897   3.586  15.767  1.4272 -0.3705 -0.4641
  775MPD2     N11442   4.154   3.884  15.967 -0.3782 -0.4071 -0.2891
  775MPD2    H511443   4.198   3.893  15.876  0.4810 -0.5006  0.1176
  775MPD2    N111444   3.794   3.643  16.201  0.3729  0.0042  0.1366
  775MPD2    H711445   3.728   3.566  16.192  0.4425 -0.0041 -0.2904
  776MPD2     C11446   2.574   4.116  10.936  0.8833  0.0282 -0.1305
  776MPD2    C111447   2.674   4.112  11.032  0.3347 -0.1274  0.0754
  776MPD2    C211448   2.740   4.228  11.065 -0.4061 -0.2917  0.6339
  776MPD2    C311449   2.731   4.339  10.986  0.3280  0.2192 -0.2558
  776MPD2    C411450   2.654   4.332  10.871 -0.0341 -0.4801  0.2149
  776MPD2    C511451   2.569   4.225  10.851 -0.5290 -0.7167  0.0595
  776MPD2     H11452   2.813   4.224  11.144 -1.2517 -3.0871  1.2748
  776MPD2    H111453   2.654   4.418  10.805 -2.5550 -0.1974  0.5982
  776MPD2    H211454   2.504   4.037  10.911  2.0776 -0.3969 -2.2010
  776MPD2    H311455   2.510   4.231  10.760  0.9884 -0.6208 -0.9293
  776MPD2     N11456   2.809   4.453  11.005  0.1016  0.3344  0.1813
  776MPD2    H511457   2.792   4.533  10.944 -1.9486 -0.1733  0.0959
  776MPD2    N111458   2.684   3.989  11.099  0.8457  0.1212  0.8732
  776MPD2    H711459   2.613   3.918  11.085  0.0288  0.6274  2.3557
  777MPD2     C11460   3.077   1.510   1.110  0.4076  0.0947  0.6065
  777MPD2    C111461   3.101   1.412   1.200 -0.0543  0.1079  0.9176
  777MPD2    C211462   3.116   1.285   1.158  0.1708 -0.1806  0.2937
  777MPD2    C311463   3.112   1.247   1.028  0.5254  0.8470 -0.5541
  777MPD2    C411464   3.078   1.347   0.937 -0.6251 -0.5702  0.1135
  777MPD2    C511465   3.071   1.478   0.970  0.2202  0.0919 -0.1281
  777MPD2     H11466   3.134   1.210   1.234 -0.1756 -1.2751 -0.7016
  777MPD2    H111467   3.087   1.333   0.830  2.1511 -1.3538  0.4537
  777MPD2    H211468   3.065   1.612   1.143 -0.8974  0.2977 -0.5158
  777MPD2    H311469   3.062   1.557   0.896 -0.0665  1.9567  1.8704
  777MPD2     N11470   3.110   1.114   0.994 -0.1420 -0.2199 -0.5732
  777MPD2    H511471   3.145   1.053   1.067 -0.3853 -0.6652 -0.8307
  777MPD2    N111472   3.124   1.459   1.334 -0.3280 -0.1497  0.3289
  777MPD2    H711473   3.120   1.559   1.347  3.0559  0.5112 -4.0994
  778MPD2     C11474   4.095   1.356  15.296 -0.4271  0.0344  0.6655
  778MPD2    C111475   4.022   1.306  15.184 -0.1326 -0.3125  0.0824
  778MPD2    C211476   4.036   1.375  15.065 -0.0788  0.0065  1.2333
  778MPD2    C311477   4.110   1.495  15.059  0.0440 -0.3371  0.2192
  778MPD2    C411478   4.177   1.540  15.169  0.0279  0.2434  0.4304
  778MPD2    C511479   4.165   1.467  15.287 -0.1019  0.0219  0.0949
  778MPD2     H11480   3.972   1.344  14.983  1.5520 -0.0392 -0.0307
  778MPD2    H111481   4.242   1.626  15.164  1.1151 -0.5460  0.9935
  778MPD2    H211482   4.092   1.309  15.394 -1.0589 -1.0208  0.1427
  778MPD2    H311483   4.217   1.487  15.379 -3.2891 -0.0964  1.9035
  778MPD2     N11484   4.115   1.561  14.929 -0.2795  0.3004  0.7298
  778MPD2    H511485   4.083   1.504  14.851  1.3289 -2.7701  2.3484
  778MPD2    N111486   3.944   1.190  15.190  0.4206  0.0763 -0.1380
  778MPD2    H711487   3.878   1.162  15.118 -0.4547  0.6928  0.4243
  779MPD2     C11488   3.730   0.133  14.759 -0.3681 -0.0066 -0.6433
  779MPD2    C111489   3.865   0.124  14.718  0.0978 -0.1647  0.7818
  779MPD2    C211490   3.929   0.224  14.657 -0.0163  1.4164 -0.3137
  779MPD2    C311491   3.867   0.342  14.634  0.0866  0.5849 -0.5258
  779MPD2    C411492   3.740   0.367  14.687 -0.0148 -0.3509 -0.0769
  779MPD2    C511493   3.672   0.262  14.746  0.7092  1.0347  0.4657
  779MPD2     H11494   4.035   0.209  14.639  0.2644  2.1364  0.6661
  779MPD2    H111495   3.689   0.463  14.689 -1.3934 -1.1054  0.8390
  779MPD2    H211496   3.673   0.053  14.806  1.8651 -0.0914  1.8845
  779MPD2    H311497   3.575   0.281  14.791 -0.2352 -0.3325 -0.9780
  779MPD2     N11498   3.937   0.443  14.567  0.2540  0.0797  0.6700
  779MPD2    H511499   4.033   0.415  14.554  0.1597  0.4013 -0.7160
  779MPD2    N111500   3.937   0.003  14.731 -0.9397  0.8261  0.4013
  779MPD2    H711501   4.034   0.004  14.701 -2.1967  1.4290 -3.6232
  780MPD2     C11502   4.081   0.484   1.308  0.0511 -0.1356  0.3929
  780MPD2    C111503   3.974   0.419   1.252  0.0093 -0.0687  0.2401
  780MPD2    C211504   3.917   0.471   1.135 -0.2003  0.1738 -0.2171
  780MPD2    C311505   3.963   0.595   1.081 -0.5060  0.4883 -0.8003
  780MPD2    C411506   4.073   0.653   1.136 -0.3773  0.7574 -0.4098
  780MPD2    C511507   4.130   0.593   1.241 -0.6322 -0.0267  0.3413
  780MPD2     H11508   3.827   0.430   1.089  0.0421  0.5294 -1.0038
  780MPD2    H111509   4.122   0.735   1.085  0.9100  0.4043  0.2638
  780MPD2    H211510   4.131   0.455   1.400 -0.0360 -3.3817 -0.6018
  780MPD2    H311511   4.228   0.637   1.258 -1.0301  1.3074 -0.7740
  780MPD2     N11512   3.887   0.656   0.982  0.5646 -0.4685  0.0313
  780MPD2    H511513   3.811   0.604   0.939 -0.9489  0.6300  1.4357
  780MPD2    N111514   3.923   0.300   1.303  0.2957  0.2183  0.2504
  780MPD2    H711515   3.843   0.267   1.250 -0.9360  2.7266  0.5505
  781MPD2     C11516   0.462   1.391  12.399  0.3942 -0.4696 -0.0883
  781MPD2    C111517   0.448   1.519  12.450  0.0886 -0.0293  0.3478
  781MPD2    C211518   0.515   1.625  12.391 -0.0513 -0.7147  0.6007
  781MPD2    C311519   0.593   1.612  12.281 -0.8537  0.3131 -0.4324
  781MPD2    C411520   0.585   1.491  12.216  1.0747 -1.0194 -0.3310
  781MPD2    C511521   0.529   1.383  12.277 -0.7021  0.1239  0.0630
  781MPD2     H11522   0.503   1.721  12.441 -2.9761 -0.7160 -0.0876
  781MPD2    H111523   0.642   1.481  12.124  0.8603  0.8690 -0.6703
  781MPD2    H211524   0.413   1.303  12.439  1.7198 -2.0071 -1.7983
  781MPD2    H311525   0.523   1.283  12.235  0.5616 -0.2849  0.8576
  781MPD2     N11526   0.665   1.715  12.220 -0.2340 -0.6180  0.2438
  781MPD2    H511527   0.704   1.696  12.128  2.8014  1.1966  1.1426
  781MPD2    N111528   0.372   1.547  12.568  0.2557  0.2281  0.9216
  781MPD2    H711529   0.375   1.640  12.609  3.2294  0.0805  1.0074
  782MPD2     C11530   3.436   2.496  10.505 -0.0185  0.1377  0.0702
  782MPD2    C111531   3.573   2.501  10.508 -0.0035 -1.1231 -0.4358
  782MPD2    C211532   3.628   2.631  10.495  0.2326 -0.1933 -0.5246
  782MPD2    C311533   3.550   2.741  10.481  0.2906  0.1214  0.7469
  782MPD2    C411534   3.413   2.728  10.477 -0.1119 -0.1884 -0.3451
  782MPD2    C511535   3.358   2.608  10.477 -0.0030 -0.0500 -0.0518
  782MPD2     H11536   3.736   2.638  10.502  0.1149  1.8671 -0.9559
  782MPD2    H111537   3.353   2.818  10.471 -0.0753 -0.0195  1.7898
  782MPD2    H211538   3.386   2.400  10.510 -2.2013  1.2154 -1.0120
  782MPD2    H311539   3.251   2.602  10.466 -0.1362 -0.1999  1.3668
  782MPD2     N11540   3.598   2.868  10.487 -0.2482 -0.0797 -0.5907
  782MPD2    H511541   3.528   2.942  10.494 -0.0235  0.0699  0.0821
  782MPD2    N111542   3.654   2.386  10.522 -0.5070 -0.1487  0.0025
  782MPD2    H711543   3.611   2.297  10.546 -2.6265  0.4954 -1.3875
  783MPD2     C11544   3.491   2.340  11.287  0.4569 -0.1686 -0.5553
  783MPD2    C111545   3.511   2.435  11.191  0.6645  0.6309  0.5581
  783MPD2    C211546   3.604   2.416  11.091  0.2354  0.6200 -0.0125
  783MPD2    C311547   3.686   2.306  11.093 -0.6998 -0.8239  0.3789
  783MPD2    C411548   3.669   2.214  11.193  0.0106  0.1729 -0.1163
  783MPD2    C511549   3.573   2.233  11.287  0.4835  0.3045  0.6485
  783MPD2     H11550   3.627   2.494  11.019 -0.1244 -1.4352 -2.3442
  783MPD2    H111551   3.730   2.124  11.196  0.5026  0.4933 -0.6043
  783MPD2    H211552   3.425   2.360  11.370 -1.4751  0.3579 -2.2122
  783MPD2    H311553   3.563   2.162  11.368  2.2399 -0.9290 -0.2297
  783MPD2     N11554   3.774   2.292  10.976  0.4552  0.2942  0.2731
  783MPD2    H511555   3.782   2.372  10.915  0.0260  0.9716  1.0905
  783MPD2    N111556   3.428   2.545  11.193 -0.0604 -0.3517  0.7094
  783MPD2    H711557   3.340   2.538  11.242 -0.8864 -0.9234 -0.8421
  784MPD2     C11558   0.496   2.854   1.399 -0.1122 -0.3329  0.2425
  784MPD2    C111559   0.625   2.843   1.430 -0.8841 -0.5997 -0.1059
  784MPD2    C211560   0.714   2.887   1.336 -0.3304 -0.8265  0.0869
  784MPD2    C311561   0.677   2.956   1.220  0.4211 -0.1201 -0.0436
  784MPD2    C411562   0.542   2.974   1.201 -1.1329  0.2883  0.1524
  784MPD2    C511563   0.458   2.911   1.289  0.0958  0.4810 -0.5979
  784MPD2     H11564   0.821   2.875   1.352  0.0440  3.4839  0.8694
  784MPD2    H111565   0.506   3.024   1.112 -0.8723  0.3804  0.0976
  784MPD2    H211566   0.426   2.811   1.470 -0.1626 -1.3984 -0.4704
  784MPD2    H311567   0.356   2.911   1.253  0.1621  1.3207 -0.7955
  784MPD2     N11568   0.764   3.013   1.121  0.2415  0.1962 -0.3165
  784MPD2    H511569   0.712   3.071   1.055 -0.1499 -0.5158 -0.6376
  784MPD2    N111570   0.678   2.792   1.550 -0.1849 -0.5302 -0.3811
  784MPD2    H711571   0.778   2.777   1.556 -0.3354 -1.0915  0.6575
  785MPD2     C11572   1.697   2.259  10.893  0.8031  0.1064  0.0650
  785MPD2    C111573   1.558   2.255  10.867 -0.7240  0.1710  0.0621
  785MPD2    C211574   1.503   2.156  10.781 -0.3696 -0.1617  0.2526
  785MPD2    C311575   1.582   2.063  10.723  0.2433  0.1577 -0.3796
  785MPD2    C411576   1.721   2.062  10.753  0.3358 -0.6870 -0.0014
  785MPD2    C511577   1.776   2.157  10.841  0.1572 -0.4920  0.2754
  785MPD2     H11578   1.396   2.145  10.775 -0.2443 -1.4656  0.5309
  785MPD2    H111579   1.795   1.992  10.715  1.5160  1.1481 -1.0605
  785MPD2    H211580   1.734   2.340  10.955 -1.5636 -0.4519  2.2433
  785MPD2    H311581   1.883   2.153  10.855  0.3398  1.5590 -0.6023
  785MPD2     N11582   1.518   1.966  10.641 -0.1335 -0.0918  0.1406
  785MPD2    H511583   1.416   1.963  10.633 -0.0436  0.4066 -1.2455
  785MPD2    N111584   1.471   2.355  10.910 -0.5144 -0.7449  0.4444
  785MPD2    H711585   1.376   2.366  10.877 -1.0841 -2.1067  1.5839
  786MPD2     C11586   4.275   4.107  15.085 -0.0025 -0.3788  0.2220
  786MPD2    C111587   4.393   4.105  15.012 -0.1922  0.0217  0.3764
  786MPD2    C211588   4.508   4.159  15.062 -0.0391  0.1429  0.5645
  786MPD2    C311589   4.506   4.217  15.187  0.1128  0.1989  1.1176
  786MPD2    C411590   4.390   4.222  15.256 -0.3313 -0.2266  0.2537
  786MPD2    C511591   4.273   4.166  15.209  0.0479 -0.3903 -0.4091
  786MPD2     H11592   4.599   4.149  15.004  0.4876 -2.9853  1.9212
  786MPD2    H111593   4.382   4.274  15.351 -0.6659 -0.1252  0.1724
  786MPD2    H211594   4.182   4.055  15.064  0.5975 -1.2054 -0.3584
  786MPD2    H311595   4.185   4.175  15.272  0.9286 -2.1930  1.0733
  786MPD2     N11596   4.623   4.265  15.243  0.2759 -0.3330  0.3574
  786MPD2    H511597   4.620   4.307  15.335 -1.6572  0.2022  0.0465
  786MPD2    N111598   4.400   4.031  14.896 -1.0396  0.0614 -0.1558
  786MPD2    H711599   4.490   3.997  14.863 -0.6965  0.2266  0.6142
  787MPD2     C11600   4.485   3.232  14.641  0.1447 -0.2719  0.5936
  787MPD2    C111601   4.561   3.343  14.653  0.2088 -0.6876  0.0482
  787MPD2    C211602   4.693   3.331  14.681  0.4954  0.2248 -0.0848
  787MPD2    C311603   0.030   3.206  14.695 -0.4399 -0.2779 -0.1048
  787MPD2    C411604   4.675   3.091  14.670 -0.2929 -0.2838 -0.1254
  787MPD2    C511605   4.540   3.108  14.642  0.0395 -0.6468  0.2040
  787MPD2     H11606   0.030   3.417  14.709  2.1556 -0.5231 -1.3230
  787MPD2    H111607   4.714   2.991  14.684  0.3934  0.0946  0.6674
  787MPD2    H211608   4.377   3.230  14.640  0.1491 -0.4785  0.3440
  787MPD2    H311609   4.488   3.018  14.612  0.8176 -0.9089 -0.3501
  787MPD2     N11610   0.159   3.209  14.749 -0.1213 -0.2006 -0.4836
  787MPD2    H511611   0.223   3.285  14.727  1.4504 -0.6205  2.6469
  787MPD2    N111612   4.493   3.467  14.650 -0.8003  0.3267  0.7194
  787MPD2    H711613   4.395   3.466  14.622 -0.9572  3.4648  1.0983
  788MPD2     C11614   2.443   2.439   0.261  0.3508  0.2559 -0.7482
  788MPD2    C111615   2.433   2.348   0.160  0.1369 -0.4006 -0.5649
  788MPD2    C211616   2.413   2.396   0.030  0.2948 -0.4143 -0.3525
  788MPD2    C311617   2.390   2.528  17.692 -0.5381  0.2363 -1.0044
  788MPD2    C411618   2.386   2.608   0.102 -0.1057 -0.4612 -0.0925
  788MPD2    C511619   2.418   2.571   0.231 -0.0640  0.0715 -0.3098
  788MPD2     H11620   2.398   2.324  17.644 -1.4351 -0.8708  0.3877
  788MPD2    H111621   2.369   2.712   0.076  2.0545  0.3808  1.8473
  788MPD2    H211622   2.460   2.433   0.368  3.0345 -1.2622 -1.2362
  788MPD2    H311623   2.417   2.650   0.305 -1.1408 -0.3176  0.0866
  788MPD2     N11624   2.362   2.574  17.563  0.1555 -0.0005  0.3998
  788MPD2    H511625   2.326   2.668  17.551 -0.2493 -0.2940 -0.6682
  788MPD2    N111626   2.420   2.207   0.183 -0.1959  0.0789  1.2729
  788MPD2    H711627   2.412   2.148   0.101  2.8949 -1.5584  2.1387
  789MPD2     C11628   2.087   1.956  16.552 -0.5083 -0.6074 -0.4888
  789MPD2    C111629   2.006   1.872  16.630 -0.4761 -0.2307  0.2610
  789MPD2    C211630   1.892   1.921  16.692  0.1745 -0.4943 -0.0329
  789MPD2    C311631   1.857   2.054  16.676  0.2645 -0.0323 -0.7312
  789MPD2    C411632   1.942   2.140  16.610  0.3836  0.3280 -0.0995
  789MPD2    C511633   2.053   2.087  16.554 -0.5762 -1.1754 -0.2730
  789MPD2     H11634   1.841   1.853  16.759  1.5684 -1.7779 -0.2728
  789MPD2    H111635   1.923   2.246  16.597  0.3789  0.4174  0.6500
  789MPD2    H211636   2.172   1.924  16.493  1.0175 -0.2991  1.5369
  789MPD2    H311637   2.104   2.157  16.489  0.2862 -2.3800 -0.8873
  789MPD2     N11638   1.759   2.125  16.750  0.3243 -0.2609  0.1106
  789MPD2    H511639   1.761   2.226  16.744  1.6261 -0.2509  0.7305
  789MPD2    N111640   2.029   1.735  16.636  0.3831  0.4856  0.2460
  789MPD2    H711641   1.958   1.677  16.679  1.6525 -1.4877 -0.2992
  790MPD2     C11642   2.772   4.053  13.955  0.1612 -0.0578  0.4438
  790MPD2    C111643   2.879   3.961  13.962  0.2141 -0.3712 -0.9345
  790MPD2    C211644   2.888   3.866  13.865 -0.6259  1.1102  0.5408
  790MPD2    C311645   2.801   3.866  13.754  0.0707  0.1651  0.1300
  790MPD2    C411646   2.695   3.954  13.753  0.2949 -0.5571  0.5646
  790MPD2    C511647   2.680   4.049  13.848 -0.2935 -0.0004 -0.3953
  790MPD2     H11648   2.973   3.799  13.865 -1.1795  0.4070 -0.3624
  790MPD2    H111649   2.622   3.940  13.674  0.8268  1.9234 -0.3523
  790MPD2    H211650   2.777   4.144  14.013  0.8182 -2.1642  3.6867
  790MPD2    H311651   2.598   4.119  13.837  0.5123  0.8510 -0.9439
  790MPD2     N11652   2.820   3.766  13.651  0.3139 -0.1282 -0.6309
  790MPD2    H511653   2.886   3.697  13.685  0.1216 -0.2856 -0.5812
  790MPD2    N111654   2.955   3.973  14.073  0.3829  0.0751  0.3959
  790MPD2    H711655   2.910   4.016  14.153  0.9817 -0.0342  0.7931
  791MPD2     C11656   2.304   3.877  13.349 -0.5410 -0.4438 -0.6795
  791MPD2    C111657   2.350   3.788  13.255  0.1185 -0.4676  0.8785
  791MPD2    C211658   2.258   3.739  13.164 -0.1109 -0.1092  0.3853
  791MPD2    C311659   2.125   3.780  13.176 -0.1253  0.1671  1.0286
  791MPD2    C411660   2.088   3.888  13.255  0.1360 -0.2145  0.4870
  791MPD2    C511661   2.180   3.936  13.349  0.0582  0.4689 -0.1014
  791MPD2     H11662   2.281   3.656  13.098  0.6648  0.1285  0.3632
  791MPD2    H111663   1.997   3.944  13.237  0.2488  0.2911  1.4803
  791MPD2    H211664   2.371   3.926  13.419  2.3734 -2.5516 -2.0446
  791MPD2    H311665   2.159   4.018  13.416 -2.9608 -1.4124  1.2842
  791MPD2     N11666   2.026   3.738  13.080  0.4545 -0.7986  0.1411
  791MPD2    H511667   2.068   3.684  13.005  0.3505 -0.2212 -0.3336
  791MPD2    N111668   2.481   3.752  13.271 -0.6733 -0.1382 -0.5285
  791MPD2    H711669   2.525   3.790  13.354  1.5894 -1.7337 -0.9785
  792MPD2     C11670   3.635   3.855  10.884 -0.4392  0.3420  0.1051
  792MPD2    C111671   3.504   3.869  10.846 -0.2705  0.2976  0.6056
  792MPD2    C211672   3.440   3.752  10.807  0.2959 -0.3597 -0.0893
  792MPD2    C311673   3.502   3.628  10.810 -0.1815 -0.0276  0.5763
  792MPD2    C411674   3.630   3.623  10.859 -0.4241  0.7188  0.1205
  792MPD2    C511675   3.700   3.735  10.888  0.3264  0.2069 -0.8462
  792MPD2     H11676   3.335   3.760  10.781 -0.2702 -2.7386  1.4715
  792MPD2    H111677   3.671   3.527  10.887 -2.1983 -0.2525 -0.6075
  792MPD2    H211678   3.693   3.942  10.911 -0.8829  0.5241  0.4632
  792MPD2    H311679   3.804   3.730  10.916 -0.0753 -0.9568  0.4622
  792MPD2     N11680   3.430   3.502  10.789 -0.4057 -0.1657 -0.3529
  792MPD2    H511681   3.480   3.414  10.797  1.3008  0.6131 -2.6108
  792MPD2    N111682   3.443   3.999  10.839 -0.1101 -0.4877  0.1627
  792MPD2    H711683   3.504   4.078  10.858 -1.8292  0.9775 -0.3820
  793MPD2     C11684   2.503   3.332  10.618  0.2195 -0.0661  0.4759
  793MPD2    C111685   2.597   3.428  10.594  0.1238  0.1061  0.5619
  793MPD2    C211686   2.713   3.427  10.667 -0.0856 -0.6875 -0.2983
  793MPD2    C311687   2.742   3.314  10.745  0.3337 -0.5908 -0.3502
  793MPD2    C411688   2.654   3.212  10.768  0.8574 -0.4173 -0.0637
  793MPD2    C511689   2.534   3.223  10.705 -0.0078 -1.0067  0.0874
  793MPD2     H11690   2.783   3.510  10.656 -0.4857 -0.3483 -0.2966
  793MPD2    H111691   2.666   3.133  10.841  2.5232  1.0092  1.1930
  793MPD2    H211692   2.413   3.322  10.558  1.1409  1.7612 -1.1866
  793MPD2    H311693   2.448   3.163  10.734  0.0930 -1.3881 -0.3969
  793MPD2     N11694   2.878   3.309  10.789 -0.3835  0.1490  0.2832
  793MPD2    H511695   2.939   3.383  10.755 -0.3282  0.2882  0.6873
  793MPD2    N111696   2.587   3.533  10.503 -0.5098 -0.1914  0.4242
  793MPD2    H711697   2.670   3.589  10.496 -0.2483 -0.5719  0.4728
  794MPD2     C11698   3.063   3.448   0.046  1.0191  0.5420 -0.2150
  794MPD2    C111699   2.956   3.374  17.693  0.3665 -0.7072  0.0951
  794MPD2    C211700   2.892   3.425  17.587  0.3818  0.2095  0.4387
  794MPD2    C311701   2.920   3.551  17.536 -0.6802 -0.0386 -0.1888
  794MPD2    C411702   3.025   3.626  17.578  0.1950 -0.1986  0.5150
  794MPD2    C511703   3.096   3.568  17.680 -0.1154 -0.0479 -0.9648
  794MPD2     H11704   2.824   3.358  17.537 -0.5488  0.4642  1.3402
  794MPD2    H111705   3.050   3.728  17.550  2.6497 -0.2947  2.3226
  794MPD2    H211706   3.124   3.414   0.130  1.5845  0.3214 -0.7140
  794MPD2    H311707   3.187   3.615   0.023  0.8072 -0.4259 -2.7514
  794MPD2     N11708   2.831   3.608  17.444 -0.2401  0.2183 -0.5528
  794MPD2    H511709   2.853   3.706  17.426 -1.8371  0.6624 -0.1734
  794MPD2    N111710   2.919   3.244   0.046  0.4946  0.1593 -0.1273
  794MPD2    H711711   2.844   3.198  17.688  0.0856  0.6484  0.0303
  795MPD2     C11712   0.743   1.008  14.050 -0.4904  0.1326 -0.7906
  795MPD2    C111713   0.707   0.878  14.024 -0.0469  0.0136  0.1177
  795MPD2    C211714   0.808   0.788  14.018 -0.6473  0.0080 -0.0305
  795MPD2    C311715   0.942   0.824  14.038  0.7368  0.2039 -0.3044
  795MPD2    C411716   0.977   0.957  14.041  0.3963  0.2649  0.2767
  795MPD2    C511717   0.870   1.046  14.052  0.3707  0.4384 -0.1293
  795MPD2     H11718   0.786   0.683  14.011  1.7826 -0.3648 -2.0706
  795MPD2    H111719   1.081   0.985  14.048  0.7750 -1.0984 -0.0074
  795MPD2    H211720   0.665   1.084  14.049  0.0035  0.6789  1.5602
  795MPD2    H311721   0.891   1.151  14.065  1.4059  0.5543 -2.7354
  795MPD2     N11722   1.032   0.717  14.047  0.5797  0.2439 -0.3623
  795MPD2    H511723   0.991   0.626  14.062 -0.0160  0.6712  0.6082
  795MPD2    N111724   0.573   0.832  13.990 -0.9416 -0.7166 -0.1336
  795MPD2    H711725   0.569   0.739  13.949 -0.6653 -0.9560  0.3761
  796MPD2     C11726   0.097   2.421  16.157  0.9015  0.2274 -1.1195
  796MPD2    C111727   0.184   2.507  16.222  0.8706 -0.2777  0.4334
  796MPD2    C211728   0.222   2.624  16.169  1.0440 -0.3430 -0.3772
  796MPD2    C311729   0.149   2.676  16.063 -0.2868  0.4739  0.5380
  796MPD2    C411730   0.072   2.587  15.999 -0.2032 -0.3999 -0.6052
  796MPD2    C511731   0.048   2.460  16.042  0.1859  0.6445  0.2358
  796MPD2     H11732   0.302   2.679  16.216  1.3472 -1.6095  0.5731
  796MPD2    H111733   0.022   2.610  15.906  1.0905 -0.3941 -1.2938
  796MPD2    H211734   0.070   2.320  16.184  1.0179 -0.1972 -2.5609
  796MPD2    H311735   4.702   2.395  15.989  0.1658 -0.0111  1.0594
  796MPD2     N11736   0.161   2.813  16.038 -0.6568  0.3813 -1.2513
  796MPD2    H511737   0.224   2.869  16.095  1.0636  0.0544 -2.8432
  796MPD2    N111738   0.224   2.459  16.350  0.0416  0.0932 -0.4847
  796MPD2    H711739   0.183   2.375  16.390 -1.4811  0.7205 -0.7179
  797MPD2     C11740   0.072   2.274  17.648  0.0853 -0.7000 -0.4996
  797MPD2    C111741   0.137   2.380   0.011 -0.4393  0.1323 -0.8158
  797MPD2    C211742   0.093   2.511  17.686  0.9340 -0.7951  0.4713
  797MPD2    C311743   4.707   2.532  17.607  0.4095 -0.3524  0.7094
  797MPD2    C411744   4.647   2.425  17.539  0.2681  0.0973 -0.1999
  797MPD2    C511745   4.685   2.293  17.570  0.1997  0.3580  0.4207
  797MPD2     H11746   0.145   2.588   0.048 -1.9466  1.9873 -0.7374
  797MPD2    H111747   4.564   2.453  17.475  0.7481  2.9907  0.4544
  797MPD2    H211748   0.100   2.171  17.666 -0.8502 -0.7106  0.9153
  797MPD2    H311749   4.625   2.211  17.532  1.1345  0.0418 -0.3807
  797MPD2     N11750   4.648   2.664  17.596 -1.0766 -0.6294  0.2453
  797MPD2    H511751   4.586   2.678  17.518 -1.6486  0.8804  0.9803
  797MPD2    N111752   0.249   2.379   0.098  0.5049 -0.5816 -0.0193
  797MPD2    H711753   0.290   2.467   0.125 -0.6332 -0.0056 -0.1361
  798MPD2     C11754   0.310   3.057   0.326  1.2174 -0.0048 -0.1850
  798MPD2    C111755   0.231   2.963   0.269 -0.1880 -0.1177  0.7079
  798MPD2    C211756   0.274   2.836   0.291 -0.1740 -0.0158  0.6997
  798MPD2    C311757   0.387   2.797   0.360 -0.0873 -0.0918 -0.4860
  798MPD2    C411758   0.471   2.894   0.408  0.1948  0.3644  0.8921
  798MPD2    C511759   0.427   3.023   0.396 -0.1135  0.7037  0.0964
  798MPD2     H11760   0.216   2.760   0.239  2.5557  0.5989 -3.2518
  798MPD2    H111761   0.560   2.865   0.464 -1.1889  1.0989  3.4849
  798MPD2    H211762   0.288   3.164   0.325 -2.0603 -0.6617  1.1395
  798MPD2    H311763   0.480   3.105   0.444  2.0039 -0.6079 -0.0328
  798MPD2     N11764   0.411   2.660   0.368  0.4027 -0.1274  0.0359
  798MPD2    H511765   0.338   2.593   0.348  1.1715 -0.8793 -0.2711
  798MPD2    N111766   0.114   2.991   0.192 -0.0709 -0.0031  0.7159
  798MPD2    H711767   0.064   2.914   0.148  1.1364  1.2364 -2.7651
  799MPD2     C11768   4.632   2.669  14.853 -0.5796  0.4872  0.2368
  799MPD2    C111769   4.623   2.571  14.760  0.0055 -0.9796  0.1965
  799MPD2    C211770   4.516   2.574  14.673  0.1945 -0.2831  0.4563
  799MPD2    C311771   4.430   2.681  14.675 -0.6582 -0.1461 -0.2181
  799MPD2    C411772   4.431   2.763  14.786  0.0317  1.0110  0.3434
  799MPD2    C511773   4.532   2.757  14.875 -0.1760 -0.1498  0.1144
  799MPD2     H11774   4.507   2.499  14.595  1.2384  0.3094 -0.2439
  799MPD2    H111775   4.359   2.843  14.797 -1.0718  0.0070  0.3716
  799MPD2    H211776   4.714   2.665  14.924 -1.3455 -0.8600  1.0491
  799MPD2    H311777   4.539   2.825  14.958 -0.6669 -0.8925  0.7655
  799MPD2     N11778   4.331   2.713  14.578 -0.0849 -0.4259 -0.8904
  799MPD2    H511779   4.266   2.789  14.593 -0.9670 -1.4641  0.5043
  799MPD2    N111780   0.002   2.480  14.729 -0.5540 -0.3653  0.4805
  799MPD2    H711781   4.708   2.410  14.657 -4.3144 -0.2642  1.2650
  800MPD2     C11782   0.497   0.023  14.835  0.5776 -0.0868 -0.1859
  800MPD2    C111783   0.542   0.077  14.718  0.2280  0.1812 -0.2603
  800MPD2    C211784   0.517   0.004  14.600 -0.5443  0.2188 -0.8210
  800MPD2    C311785   0.453   4.600  14.598 -0.1214  0.1076  0.6132
  800MPD2    C411786   0.395   4.563  14.719  0.5022 -0.9724  0.6301
  800MPD2    C511787   0.416   4.631  14.832  0.2884  0.3480  0.1479
  800MPD2     H11788   0.562   0.043  14.509 -3.5180  2.2307 -1.4609
  800MPD2    H111789   0.345   4.468  14.735 -0.9325 -0.1670  0.9311
  800MPD2    H211790   0.506   0.075  14.929  0.2658  0.4499 -0.4526
  800MPD2    H311791   0.386   4.584  14.925 -2.0338 -2.0584 -1.7932
  800MPD2     N11792   0.463   4.526  14.473  0.4499 -0.3836 -0.4697
  800MPD2    H511793   0.514   4.573  14.399 -0.3923  0.5214 -0.4637
  800MPD2    N111794   0.612   0.201  14.713 -0.0367 -0.1462  0.5038
  800MPD2    H711795   0.648   0.235  14.801 -0.2645 -1.1890  0.9994
  801MPD2     C11796   0.942   0.908  14.418 -0.1895  0.2066  0.6906
  801MPD2    C111797   0.851   0.841  14.495  0.1319  0.1857  0.5361
  801MPD2    C211798   0.790   0.908  14.601 -0.1592  0.0101 -0.4611
  801MPD2    C311799   0.837   1.038  14.641  0.3258 -1.0299  0.0952
  801MPD2    C411800   0.943   1.090  14.570 -0.1026  0.0474 -0.4666
  801MPD2    C511801   0.991   1.031  14.455 -0.5084 -0.4926  0.0875
  801MPD2     H11802   0.723   0.850  14.663 -1.3704  1.2843 -0.5770
  801MPD2    H111803   0.985   1.184  14.604 -1.5836  0.4483  0.2762
  801MPD2    H211804   0.974   0.865  14.323 -0.6723 -1.5216  1.3008
  801MPD2    H311805   1.065   1.079  14.391  0.1464 -0.0741  1.1736
  801MPD2     N11806   0.812   1.090  14.773 -0.0856 -0.7323  0.0128
  801MPD2    H511807   0.885   1.152  14.807 -0.1695 -0.3329 -0.5497
  801MPD2    N111808   0.825   0.701  14.488 -0.1123 -0.1098 -0.2906
  801MPD2    H711809   0.764   0.658  14.557  0.4363  1.0470  0.9184
  802MPD2     C11810   4.265   1.446  17.651 -0.3956  0.3049 -0.0885
  802MPD2    C111811   4.230   1.406   0.090 -0.1666 -1.0099 -0.2024
  802MPD2    C211812   4.208   1.269   0.117 -0.1974 -0.2627  0.0040
  802MPD2    C311813   4.237   1.178   0.017  0.4105  0.2795  0.2099
  802MPD2    C411814   4.268   1.221  17.587 -0.3306  0.7177  0.4351
  802MPD2    C511815   4.269   1.350  17.555 -0.5896  0.1367 -0.3060
  802MPD2     H11816   4.185   1.228   0.215  0.2943 -1.4530 -0.3721
  802MPD2    H111817   4.296   1.153  17.507 -2.1120 -0.8794  1.1705
  802MPD2    H211818   4.267   1.549  17.619 -3.0769 -0.4063 -2.5637
  802MPD2    H311819   4.281   1.380  17.451  1.0477  0.2868 -0.0722
  802MPD2     N11820   4.242   1.040   0.053  0.2730 -0.2345  0.3902
  802MPD2    H511821   4.226   1.012   0.149 -1.7528 -1.8782 -0.4133
  802MPD2    N111822   4.196   1.497   0.193  0.3255  0.4208  0.4162
  802MPD2    H711823   4.164   1.462   0.283  0.7960 -0.4842  0.2343
  803MPD2     C11824   0.634   4.251  12.331  0.2408 -0.8028 -0.5507
  803MPD2    C111825   0.760   4.214  12.377 -0.2557 -0.2451  0.7738
  803MPD2    C211826   0.760   4.117  12.481 -0.5686  0.2967 -0.2185
  803MPD2    C311827   0.645   4.061  12.525  0.5227  0.9848  0.5828
  803MPD2    C411828   0.525   4.091  12.475 -0.0726 -0.5722  0.5927
  803MPD2    C511829   0.524   4.184  12.375  0.6047  0.4753 -0.1478
  803MPD2     H11830   0.853   4.083  12.525 -0.4075 -1.4724 -1.8966
  803MPD2    H111831   0.429   4.053  12.509 -0.6380  0.0279 -0.3369
  803MPD2    H211832   0.604   4.330  12.264 -0.7588  1.3287  2.4410
  803MPD2    H311833   0.424   4.206  12.341  0.4509  1.3942  0.8898
  803MPD2     N11834   0.641   3.973  12.635 -0.1063  0.1423 -0.0361
  803MPD2    H511835   0.550   3.952  12.674 -0.5763 -2.5331 -2.5258
  803MPD2    N111836   0.885   4.274  12.332 -0.0502  0.1895  0.6284
  803MPD2    H711837   0.972   4.241  12.373  0.3198 -0.9048 -1.0404
  804MPD2     C11838   0.339   0.249  17.684 -0.2892 -0.2879  0.4298
  804MPD2    C111839   0.479   0.233   0.011 -0.4603  0.5736  0.4260
  804MPD2    C211840   0.564   0.345   0.022  0.1770 -0.1479  0.0376
  804MPD2    C311841   0.513   0.473   0.014 -0.0700  0.4651 -0.0185
  804MPD2    C411842   0.382   0.483  17.674  0.2517  0.3276 -0.0740
  804MPD2    C511843   0.296   0.376  17.667  0.2645 -0.3650 -0.1655
  804MPD2     H11844   0.669   0.329   0.044  0.6490  1.7103 -0.8348
  804MPD2    H111845   0.337   0.581  17.666  0.2578  0.4731  1.7099
  804MPD2    H211846   0.271   0.166  17.665 -0.7774  0.1784  0.1341
  804MPD2    H311847   0.191   0.389  17.645 -0.0626 -2.2127  0.3220
  804MPD2     N11848   0.587   0.592   0.012  0.4293 -0.4480 -0.7786
  804MPD2    H511849   0.543   0.673  17.662 -1.0156 -0.6815  0.2825
  804MPD2    N111850   0.537   0.101   0.022 -0.2038 -0.7230 -0.2948
  804MPD2    H711851   0.635   0.114   0.044 -0.2739 -2.8350  1.2324
  805MPD2     C11852   4.219   3.471  15.668  0.7649  0.2520  0.1373
  805MPD2    C111853   4.271   3.433  15.556  0.0275 -0.3939 -0.3808
  805MPD2    C211854   4.405   3.458  15.533 -0.1545  0.1423 -0.6168
  805MPD2    C311855   4.485   3.495  15.639 -0.4119  0.3677 -0.2520
  805MPD2    C411856   4.433   3.513  15.763  0.1646 -0.1335  0.6825
  805MPD2    C511857   4.298   3.505  15.774  0.3737  0.4791  0.3178
  805MPD2     H11858   4.447   3.423  15.439 -0.4872  0.6567 -0.9487
  805MPD2    H111859   4.490   3.548  15.848  0.8663 -2.3047  1.0899
  805MPD2    H211860   4.112   3.483  15.681  0.8177 -0.6560  1.4679
  805MPD2    H311861   4.250   3.547  15.861 -0.2019 -1.9382  1.1635
  805MPD2     N11862   4.621   3.519  15.619 -0.2531  0.3234 -0.6180
  805MPD2    H511863   4.653   3.545  15.526 -0.8857 -0.8049 -1.1547
  805MPD2    N111864   4.200   3.357  15.458 -0.0142 -0.0760  0.1793
  805MPD2    H711865   4.243   3.342  15.368  0.1129  1.8519 -0.0818
  806MPD2     C11866   0.876   2.600   0.773 -0.0894 -0.6460 -0.0027
  806MPD2    C111867   0.782   2.678   0.837 -0.2791 -0.7861 -0.7193
  806MPD2    C211868   0.749   2.802   0.783 -0.1163  0.0253 -0.3803
  806MPD2    C311869   0.810   2.853   0.664  0.1391 -0.2901 -0.2834
  806MPD2    C411870   0.910   2.775   0.608 -0.4790 -0.1371  0.0434
  806MPD2    C511871   0.940   2.648   0.657 -0.5289  0.3403 -0.4853
  806MPD2     H11872   0.683   2.862   0.844 -1.3371 -0.8150 -0.8750
  806MPD2    H111873   0.975   2.813   0.530 -0.7782 -0.3942 -0.3366
  806MPD2    H211874   0.905   2.506   0.819 -0.2038 -0.5439  0.2797
  806MPD2    H311875   1.018   2.603   0.597  0.7329  3.8839 -1.4988
  806MPD2     N11876   0.767   2.983   0.623 -0.4798  0.1397 -0.7137
  806MPD2    H511877   0.726   3.034   0.701  0.7593  0.7099 -0.4304
  806MPD2    N111878   0.717   2.619   0.951  0.1840 -0.5175  0.1756
  806MPD2    H711879   0.751   2.527   0.979  1.4652 -0.3561 -0.8796
  807MPD2     C11880   0.059   2.374   1.443 -0.3037  0.1405 -0.0690
  807MPD2    C111881   0.187   2.358   1.489 -0.0225 -0.2425  0.1729
  807MPD2    C211882   0.214   2.259   1.579  0.0482 -0.4984 -0.0283
  807MPD2    C311883   0.108   2.182   1.634 -0.0077  0.5812  0.6068
  807MPD2    C411884   4.703   2.201   1.588  0.6843  0.3957  0.3872
  807MPD2    C511885   4.678   2.300   1.498  0.1015 -0.1090  0.2076
  807MPD2     H11886   0.315   2.242   1.617 -0.1307 -1.9334 -0.1896
  807MPD2    H111887   4.618   2.143   1.621 -1.0364  3.0341  0.6206
  807MPD2    H211888   0.039   2.449   1.368 -0.5520 -0.3137 -0.4546
  807MPD2    H311889   4.576   2.312   1.465  0.3005  1.6114  0.2548
  807MPD2     N11890   0.136   2.080   1.731  0.0394 -0.5011  0.2594
  807MPD2    H511891   0.235   2.063   1.749  0.3275  0.1639 -0.7046
  807MPD2    N111892   0.301   2.429   1.443 -0.3140  0.1627 -0.0572
  807MPD2    H711893   0.382   2.388   1.488 -0.6060 -0.7063 -0.3250
  808MPD2     C11894   0.940   4.387  10.030 -0.3286 -0.9872  0.3560
  808MPD2    C111895   0.842   4.455  10.098 -0.0912  0.3894 -0.3061
  808MPD2    C211896   0.874   4.583  10.151  0.1606 -0.2270 -0.5069
  808MPD2    C311897   1.008   4.630  10.134  0.6050 -0.7799  0.2710
  808MPD2    C411898   1.107   4.555  10.069 -0.0868  0.2783  0.2995
  808MPD2    C511899   1.066   4.443  10.015 -0.5069 -0.9898  0.9341
  808MPD2     H11900   0.791   4.641  10.191 -0.4559 -0.1179 -1.9556
  808MPD2    H111901   1.206   4.596  10.047 -0.0597 -0.2506 -0.5632
  808MPD2    H211902   0.932   4.287   9.989 -0.2571  0.3296 -2.8184
  808MPD2    H311903   1.138   4.377   9.968 -0.2891 -0.8234  1.0338
  808MPD2     N11904   1.047   0.043  10.174  0.1819  0.2503 -0.0018
  808MPD2    H511905   1.143   0.068  10.152 -0.5381  1.3399 -1.8825
  808MPD2    N111906   0.713   4.402  10.107 -0.1582 -0.5095  0.0439
  808MPD2    H711907   0.648   4.459  10.161  0.0942 -1.7078  1.6151
  809MPD2     C11908   1.302   0.872   9.673 -0.3435  0.8126  0.2542
  809MPD2    C111909   1.359   0.754   9.705  0.2027  0.0431  0.0750
  809MPD2    C211910   1.293   0.668   9.796 -0.1310 -0.2534  0.6826
  809MPD2    C311911   1.173   0.708   9.864 -0.0717 -0.5052 -0.4995
  809MPD2    C411912   1.119   0.833   9.837 -0.6674  0.1512 -0.4830
  809MPD2    C511913   1.190   0.909   9.748  0.6381 -0.0039  0.5365
  809MPD2     H11914   1.347   0.577   9.820  0.2383 -0.2708 -0.1977
  809MPD2    H111915   1.024   0.877   9.865  1.9716  4.0806  2.1615
  809MPD2    H211916   1.336   0.944   9.600 -0.7417  0.3834 -0.3479
  809MPD2    H311917   1.146   1.005   9.725 -1.2896 -1.5347 -2.1544
  809MPD2     N11918   1.113   0.628   9.963 -0.1268  0.2758  0.5200
  809MPD2    H511919   1.043   0.674  10.021 -0.2186 -0.9378  1.3486
  809MPD2    N111920   1.493   0.720   9.661  0.3878 -0.1259  0.1613
  809MPD2    H711921   1.541   0.643   9.705  0.4743 -1.1258 -1.6966
  810MPD2     C11922   0.769   4.087  10.374 -0.1925  0.0737  0.2976
  810MPD2    C111923   0.692   4.054  10.479  0.0086  0.6747 -0.1492
  810MPD2    C211924   0.724   4.115  10.596  0.4731  0.4188 -0.0860
  810MPD2    C311925   0.816   4.215  10.615 -0.6888 -0.5732 -0.2006
  810MPD2    C411926   0.906   4.240  10.511  0.5564  0.2720 -0.4718
  810MPD2    C511927   0.874   4.171  10.393 -0.6232  0.7259 -0.3136
  810MPD2     H11928   0.665   4.082  10.680  1.1990 -1.4839 -0.3213
  810MPD2    H111929   0.996   4.299  10.523 -0.1357  1.6283 -1.9308
  810MPD2    H211930   0.752   4.041  10.277 -1.0556  2.1338 -0.5293
  810MPD2    H311931   0.936   4.189  10.306  0.8387  0.2094  0.6302
  810MPD2     N11932   0.808   4.308  10.727  0.0602 -0.9382 -0.0148
  810MPD2    H511933   0.884   4.375  10.727 -0.1153 -0.7397 -0.4786
  810MPD2    N111934   0.578   3.968  10.459 -0.4498  0.3533  0.3392
  810MPD2    H711935   0.554   3.946  10.363 -0.1757 -2.1925  0.8566
  811MPD2     C11936   4.486   3.980  10.200 -0.5131  0.0995 -0.1497
  811MPD2    C111937   4.606   4.027  10.231 -1.2766  0.3065  0.1322
  811MPD2    C211938   4.623   4.163  10.214  0.0249 -0.0491  1.2700
  811MPD2    C311939   4.524   4.253  10.177 -0.0648 -0.4568 -0.3367
  811MPD2    C411940   4.395   4.201  10.148 -0.3680 -0.4919  0.2162
  811MPD2    C511941   4.384   4.064  10.160  0.3980 -0.1585 -0.0962
  811MPD2     H11942   0.001   4.202  10.227 -0.4528  2.1561 -1.7129
  811MPD2    H111943   4.318   4.267  10.110  1.6537  2.4398  1.1710
  811MPD2    H211944   4.467   3.873  10.210  1.0081 -0.1069  0.5879
  811MPD2    H311945   4.287   4.026  10.131  0.7948 -3.2217  2.6192
  811MPD2     N11946   4.556   4.392  10.168 -0.7846 -0.8895  0.6851
  811MPD2    H511947   4.651   4.412  10.195 -0.7233  0.2173 -0.3287
  811MPD2    N111948   4.711   3.939  10.262  0.2855  0.2517  0.1500
  811MPD2    H711949   4.688   3.841  10.250  1.3137 -0.0452  0.6278
  812MPD2     C11950   3.442   3.846  12.146  0.4929 -0.0139  0.0616
  812MPD2    C111951   3.357   3.918  12.232 -0.4677  0.3258 -0.2154
  812MPD2    C211952   3.335   3.866  12.358  0.1329 -0.1632 -0.0578
  812MPD2    C311953   3.383   3.741  12.387 -0.0704  0.7651  0.6913
  812MPD2    C411954   3.460   3.669  12.304  0.5125 -0.5329  1.0203
  812MPD2    C511955   3.496   3.727  12.182 -0.0044 -0.3109  0.7377
  812MPD2     H11956   3.271   3.915  12.430  0.6555  0.4627 -0.0171
  812MPD2    H111957   3.500   3.575  12.342  1.6786 -1.0692 -1.5462
  812MPD2    H211958   3.446   3.874  12.042 -0.7887 -1.4759 -0.3784
  812MPD2    H311959   3.555   3.664  12.117 -2.0519 -0.7512 -0.6975
  812MPD2     N11960   3.358   3.694  12.518  0.5303  0.2152  0.2289
  812MPD2    H511961   3.345   3.767  12.588  0.9788  0.2038  0.3219
  812MPD2    N111962   3.294   4.039  12.186  0.2957 -0.2175 -0.4297
  812MPD2    H711963   3.311   4.047  12.086  1.3724  1.8550 -0.0681
  813MPD2     C11964   3.194   1.001  12.714 -0.3050 -0.7445  0.7306
  813MPD2    C111965   3.127   1.121  12.736 -0.0444  0.3304  0.1176
  813MPD2    C211966   3.008   1.112  12.799 -0.1846 -0.4066  0.3064
  813MPD2    C311967   2.961   0.990  12.846  0.8507 -0.0595  0.5580
  813MPD2    C411968   3.028   0.877  12.834 -1.0594  0.4622  0.6889
  813MPD2    C511969   3.139   0.886  12.755  0.4899 -0.5997  0.0093
  813MPD2     H11970   2.947   1.197  12.825 -1.9970 -0.7901 -2.5613
  813MPD2    H111971   3.005   0.778  12.871 -2.5980 -0.4785 -2.7678
  813MPD2    H211972   3.288   0.986  12.664 -0.2632  0.8307  0.3225
  813MPD2    H311973   3.185   0.790  12.736  0.9989 -0.1722 -0.9215
  813MPD2     N11974   2.835   1.000  12.920 -0.1775  0.3988  0.5317
  813MPD2    H511975   2.798   1.095  12.931 -2.2583 -0.1022 -2.1656
  813MPD2    N111976   3.177   1.250  12.708  0.0081  0.2510  0.3279
  813MPD2    H711977   3.108   1.317  12.743 -1.3273  0.0523 -1.9743
  814MPD2     C11978   2.953   2.337  12.701 -0.3099 -0.0003 -0.4755
  814MPD2    C111979   3.050   2.333  12.607  0.3327 -0.1729  0.1568
  814MPD2    C211980   3.113   2.455  12.579 -0.8075  0.3366 -0.4152
  814MPD2    C311981   3.082   2.574  12.648 -0.4339 -0.1122  0.1945
  814MPD2    C411982   2.976   2.571  12.734  0.1697 -0.0166 -0.1177
  814MPD2    C511983   2.918   2.450  12.762 -0.1374 -0.8035  0.3533
  814MPD2     H11984   3.198   2.459  12.512 -1.0043  2.2996 -0.5533
  814MPD2    H111985   2.957   2.661  12.791  0.3572 -0.1692  0.1776
  814MPD2    H211986   2.902   2.246  12.731  0.6666 -0.4200 -0.1006
  814MPD2    H311987   2.846   2.451  12.843  0.2131 -0.3334  0.6570
  814MPD2     N11988   3.144   2.697  12.616  0.0950 -0.4975 -0.6128
  814MPD2    H511989   3.096   2.776  12.657  2.9297  0.4572  0.8284
  814MPD2    N111990   3.086   2.215  12.536 -0.1637  0.2765 -0.6469
  814MPD2    H711991   3.148   2.232  12.458  2.2055  0.3816  1.2661
  815MPD2     C11992   3.256   0.572  12.206  0.1725 -0.1025  0.3159
  815MPD2    C111993   3.216   0.571  12.075  0.0356  0.3276 -0.0014
  815MPD2    C211994   3.081   0.586  12.042 -0.3796  0.5443 -0.1249
  815MPD2    C311995   2.987   0.600  12.142 -0.0891 -0.0996  0.1907
  815MPD2    C411996   3.035   0.620  12.270  0.0525  0.1607  0.3634
  815MPD2    C511997   3.165   0.594  12.307  0.4917  0.0494  0.2516
  815MPD2     H11998   3.048   0.567  11.941  0.8608  0.9006 -0.6023
  815MPD2    H111999   2.965   0.637  12.351 -2.6145 -3.2219 -1.1977
  815MPD2    H212000   3.358   0.545  12.232  0.1727 -1.7015 -1.3495
  815MPD2    H312001   3.192   0.589  12.411  0.0072 -0.6451  0.3464
  815MPD2     N12002   2.853   0.599  12.100  0.0221  0.2877  0.0903
  815MPD2    H512003   2.832   0.587  12.002  1.3891  0.2931 -0.1990
  815MPD2    N112004   3.317   0.553  11.976  0.2851  0.0146  0.5768
  815MPD2    H712005   3.411   0.537  12.013 -0.1351 -2.0579  0.7270
  816MPD2     C12006   3.810   4.275  17.682  0.9212 -0.1306  0.1952
  816MPD2    C112007   3.893   4.384  17.673  0.3937 -0.0496  0.0003
  816MPD2    C212008   4.024   4.362  17.645 -0.3463 -0.1676 -0.1244
  816MPD2    C312009   4.072   4.232  17.627  0.4201 -0.9517 -0.3055
  816MPD2    C412010   3.992   4.128  17.661  0.7079  1.0574  0.5508
  816MPD2    C512011   3.859   4.149  17.675  0.0733  0.4649 -0.7449
  816MPD2     H12012   4.093   4.444  17.630 -3.0289  1.5500 -3.0886
  816MPD2    H112013   4.020   4.023  17.656  3.1867  1.8104 -1.0057
  816MPD2    H212014   3.708   4.276   0.026  1.6336 -1.0347  2.1955
  816MPD2    H312015   3.788   4.069  17.692 -0.1689  0.5106 -1.5088
  816MPD2     N12016   4.210   4.213  17.596 -0.1982 -0.3635  0.2333
  816MPD2    H512017   4.268   4.296  17.590  1.3225 -1.4419  0.1648
  816MPD2    N112018   3.833   4.507  17.670  0.4544 -0.3170 -0.4755
  816MPD2    H712019   3.734   4.511  17.649  0.2615 -0.1253  0.4531
  817MPD2     C12020   3.562   2.250  10.015 -0.1120  0.5403 -0.3237
  817MPD2    C112021   3.480   2.150   9.967  0.1099  0.2196 -0.3665
  817MPD2    C212022   3.359   2.183   9.912  0.1095  0.1637 -0.5217
  817MPD2    C312023   3.312   2.313   9.914  0.2974  0.1325 -0.1586
  817MPD2    C412024   3.393   2.416   9.961 -0.6320  0.5257 -0.0372
  817MPD2    C512025   3.516   2.379  10.019  0.2221 -0.1663  0.0328
  817MPD2     H12026   3.298   2.108   9.862  0.1386 -0.8792  1.0299
  817MPD2    H112027   3.357   2.517   9.970 -0.2397  0.5133  1.6123
  817MPD2    H212028   3.661   2.233  10.055 -0.0045 -0.7642 -1.1742
  817MPD2    H312029   3.573   2.456  10.072 -1.3310 -0.8582  2.7001
  817MPD2     N12030   3.182   2.335   9.862 -0.0732  0.5662 -0.6884
  817MPD2    H512031   3.130   2.250   9.844 -0.0771  0.3384  0.4280
  817MPD2    N112032   3.519   2.017   9.971 -0.2184  0.3934 -0.0624
  817MPD2    H712033   3.452   1.955   9.927  2.1057 -1.6236 -0.7458
  818MPD2     C12034   1.407   2.050  10.140  0.1730  0.3803  0.2303
  818MPD2    C112035   1.526   2.016  10.208  0.2766  0.3053  0.9300
  818MPD2    C212036   1.590   1.895  10.176  1.0544 -0.7779  0.0509
  818MPD2    C312037   1.541   1.809  10.088  0.5111  0.4810 -0.3511
  818MPD2    C412038   1.430   1.840  10.021 -0.2546  0.3665 -0.1643
  818MPD2    C512039   1.358   1.955  10.054  0.1292 -0.3214 -0.2165
  818MPD2     H12040   1.689   1.876  10.217  0.8110  0.3309  1.1683
  818MPD2    H112041   1.380   1.778   9.948  0.2506  1.6263 -1.5761
  818MPD2    H212042   1.358   2.146  10.152  0.7609  0.5981  0.8446
  818MPD2    H312043   1.265   1.984  10.007  0.6190  0.0134 -0.9920
  818MPD2     N12044   1.599   1.687  10.059  0.2571  0.5361 -0.1578
  818MPD2    H512045   1.544   1.631   9.994  1.4537 -0.5928 -0.1878
  818MPD2    N112046   1.605   2.106  10.288 -0.4781  0.0200  0.2256
  818MPD2    H712047   1.696   2.070  10.315 -1.1597  0.2825  2.8913
  819MPD2     C12048   0.550   3.054  15.590 -0.3140 -0.3955  0.2693
  819MPD2    C112049   0.532   2.933  15.661  0.6776 -0.7918 -0.1206
  819MPD2    C212050   0.639   2.896  15.735 -0.0534 -0.2877 -0.4941
  819MPD2    C312051   0.758   2.968  15.749 -0.3285 -0.2326  1.4854
  819MPD2    C412052   0.773   3.081  15.681  0.3139  0.2847 -0.0919
  819MPD2    C512053   0.668   3.125  15.611  0.0190  0.2316  0.7971
  819MPD2     H12054   0.632   2.802  15.789  2.3385 -0.4632 -0.4762
  819MPD2    H112055   0.858   3.147  15.692  1.7102 -1.1519 -2.1734
  819MPD2    H212056   0.477   3.096  15.521 -0.4456  1.6985  1.6977
  819MPD2    H312057   0.670   3.229  15.581  0.5933  0.5731  2.0529
  819MPD2     N12058   0.858   2.937  15.844  0.6478 -0.1376  0.0996
  819MPD2    H512059   0.927   3.010  15.858  0.7814 -0.0249 -1.1043
  819MPD2    N112060   0.426   2.842  15.641  0.4386  0.6886 -0.4885
  819MPD2    H712061   0.436   2.751  15.684  3.3383 -0.0219 -2.7329
  820MPD2     C12062   4.125   2.589  15.358 -0.2232  0.1219 -0.4317
  820MPD2    C112063   4.189   2.700  15.322  0.2029 -0.2585 -0.9302
  820MPD2    C212064   4.320   2.709  15.353  0.4271  0.0854 -0.1846
  820MPD2    C312065   4.379   2.602  15.417  0.1774 -0.9225  0.3196
  820MPD2    C412066   4.320   2.479  15.426 -0.1632  0.5858  0.1341
  820MPD2    C512067   4.187   2.479  15.409 -0.0896 -0.8601 -0.0354
  820MPD2     H12068   4.373   2.804  15.350  1.5663 -0.5753 -1.2820
  820MPD2    H112069   4.369   2.394  15.472 -1.7169 -1.5918 -2.2250
  820MPD2    H212070   4.018   2.583  15.341 -0.4950  0.0978  1.2908
  820MPD2    H312071   4.130   2.396  15.448 -1.1630  0.0672  0.3681
  820MPD2     N12072   4.511   2.605  15.470  0.3889 -0.3282  0.5639
  820MPD2    H512073   4.530   2.527  15.532  0.0558 -1.2765 -0.5238
  820MPD2    N112074   4.114   2.803  15.264 -0.2604 -0.6038 -0.3343
  820MPD2    H712075   4.014   2.797  15.277 -0.1985 -0.5025  0.1603
  821MPD2     C12076   0.530   4.483  13.711 -0.2011  0.4948  0.0821
  821MPD2    C112077   0.602   4.562  13.799 -0.0651 -0.5015  0.7061
  821MPD2    C212078   0.676   4.659  13.744  0.6267  0.0837 -0.7912
  821MPD2    C312079   0.687   4.677  13.604  0.2443  0.6390 -0.6255
  821MPD2    C412080   0.620   4.596  13.520 -0.4531 -0.2021 -0.1833
  821MPD2    C512081   0.534   4.508  13.575  0.5465  0.1659 -0.0441
  821MPD2     H12082   0.736   4.721  13.809  2.3372  0.9306 -3.1646
  821MPD2    H112083   0.611   4.604  13.413  0.1683  2.4767 -0.0187
  821MPD2    H212084   0.464   4.404  13.743 -0.0806  1.0479  1.6878
  821MPD2    H312085   0.488   4.439  13.505  1.6872 -1.0126  0.3600
  821MPD2     N12086   0.771   0.049  13.543 -0.1879  0.0904  0.2475
  821MPD2    H512087   0.777   0.058  13.442  0.8111  0.9338  0.3792
  821MPD2    N112088   0.602   4.533  13.942  0.0173 -0.3289 -0.4074
  821MPD2    H712089   0.663   4.580  14.009 -0.2801 -1.1913  0.4697
  822MPD2     C12090   1.291   4.474  16.138  0.1812  0.5671  0.4520
  822MPD2    C112091   1.346   4.456  16.262 -0.0178  0.4275 -0.1475
  822MPD2    C212092   1.281   4.517  16.370 -0.4310  0.2244 -0.3954
  822MPD2    C312093   1.173   4.602  16.359 -0.1816 -0.0050  0.1903
  822MPD2    C412094   1.124   4.621  16.230 -0.1043 -0.1208  0.1580
  822MPD2    C512095   1.185   4.556  16.120 -0.0417  1.4705  0.0457
  822MPD2     H12096   1.326   4.510  16.469  1.0666  0.7279 -1.0418
  822MPD2    H112097   1.036   4.682  16.212  0.4407  0.9040  0.9602
  822MPD2    H212098   1.332   4.432  16.046 -0.6025 -1.8414  1.2046
  822MPD2    H312099   1.132   4.550  16.026 -0.0273 -2.0889  0.2655
  822MPD2     N12100   1.116   4.649  16.480 -0.2960  0.6968 -0.4455
  822MPD2    H512101   1.136   4.617  16.574 -0.3870  0.8207 -0.3842
  822MPD2    N112102   1.449   4.360  16.293 -0.2142 -0.2968  0.2128
  822MPD2    H712103   1.486   4.348  16.387 -3.3864 -0.0783  1.4822
  823MPD2     C12104   0.901   4.705  17.259  0.1846 -0.2947 -0.6011
  823MPD2    C112105   0.950   4.640  17.153 -0.3068 -0.7786  0.3226
  823MPD2    C212106   1.037   4.529  17.162  0.4079  0.0620 -0.0041
  823MPD2    C312107   1.065   4.479  17.288  0.1524 -0.4719 -0.4387
  823MPD2    C412108   1.012   4.549  17.400 -1.2579 -0.1751 -0.4831
  823MPD2    C512109   0.946   4.667  17.380 -0.1743  0.9190 -0.1889
  823MPD2     H12110   1.082   4.487  17.073  1.7713  1.1787  0.1585
  823MPD2    H112111   1.039   4.523  17.502 -0.5702  0.8626 -0.3999
  823MPD2    H212112   0.854   0.079  17.252 -0.0725 -0.1696  2.5562
  823MPD2    H312113   0.925   0.001  17.470  0.4690  1.5333 -0.4357
  823MPD2     N12114   1.152   4.365  17.311  0.4682 -0.3683 -0.7788
  823MPD2    H512115   1.139   4.319  17.400  2.0199 -1.0830 -0.9140
  823MPD2    N112116   0.907   4.696  17.032 -0.1898  0.2027 -0.3500
  823MPD2    H712117   0.860   0.063  17.031  1.8461  1.2517 -2.0330
  824MPD2     C12118   1.738   3.549  16.181  0.0484 -0.2254 -0.5027
  824MPD2    C112119   1.838   3.633  16.151  0.4781 -0.1261  0.4712
  824MPD2    C212120   1.956   3.588  16.101  0.2768 -1.1120 -0.6166
  824MPD2    C312121   1.970   3.453  16.071 -0.1068  0.2873 -0.4055
  824MPD2    C412122   1.866   3.368  16.095  0.8717 -0.0269  0.4994
  824MPD2    C512123   1.754   3.419  16.153  0.5720 -0.2080  0.2416
  824MPD2     H12124   2.028   3.661  16.069 -1.7299  0.9486 -0.4483
  824MPD2    H112125   1.876   3.262  16.073  1.0299  0.3485 -1.1977
  824MPD2    H212126   1.644   3.582  16.225  0.4381  1.4136 -0.9166
  824MPD2    H312127   1.669   3.353  16.165 -1.1739  1.9487 -0.1726
  824MPD2     N12128   2.089   3.415  16.008 -0.8933 -0.1652 -0.7275
  824MPD2    H512129   2.146   3.494  15.979 -0.8591  0.9034  2.2921
  824MPD2    N112130   1.834   3.774  16.176 -0.1206 -0.3562  0.0136
  824MPD2    H712131   1.921   3.820  16.196 -1.3447  1.0234  2.1640
  825MPD2     C12132   2.411   3.469  15.234 -0.5819 -0.1627  0.0556
  825MPD2    C112133   2.409   3.510  15.362  0.2333 -0.2836  0.1115
  825MPD2    C212134   2.430   3.649  15.392 -0.0530 -0.0118 -0.3274
  825MPD2    C312135   2.446   3.741  15.284 -0.3022  0.6649 -0.2305
  825MPD2    C412136   2.460   3.685  15.157  0.3228 -0.0717  0.0563
  825MPD2    C512137   2.438   3.558  15.135 -0.3515  0.1188 -0.3032
  825MPD2     H12138   2.439   3.687  15.493 -3.9608  1.6036 -0.6145
  825MPD2    H112139   2.462   3.746  15.067 -1.3510  2.0384  1.4453
  825MPD2    H212140   2.393   3.367  15.204 -0.8060 -1.0649  3.1953
  825MPD2    H312141   2.438   3.537  15.029  2.4271 -1.1398 -0.0538
  825MPD2     N12142   2.463   3.882  15.298 -0.9324 -0.1097  0.1466
  825MPD2    H512143   2.485   3.934  15.213 -0.8045 -1.8460 -0.8903
  825MPD2    N112144   2.393   3.412  15.462  1.3361  0.6881  0.2119
  825MPD2    H712145   2.417   3.318  15.435 -1.1463  0.3374 -0.7268
  826MPD2     C12146   1.941   3.847  14.118  0.7070  0.5145 -0.0293
  826MPD2    C112147   1.865   3.848  14.001  0.5623  0.3988 -1.0720
  826MPD2    C212148   1.732   3.895  14.011 -0.5962  0.2829  0.0587
  826MPD2    C312149   1.682   3.941  14.135 -0.2866  0.8990  0.6175
  826MPD2    C412150   1.760   3.922  14.249 -0.2750  0.0346 -0.8482
  826MPD2    C512151   1.889   3.882  14.241 -0.7889 -0.1236 -0.1899
  826MPD2     H12152   1.668   3.899  13.923  1.0994  1.4924 -1.1134
  826MPD2    H112153   1.727   3.950  14.349  0.6340 -1.0679 -0.2446
  826MPD2    H212154   2.045   3.819  14.112  0.6033  0.1495 -0.1272
  826MPD2    H312155   1.953   3.879  14.329 -0.2361  0.8027 -0.5586
  826MPD2     N12156   1.553   4.000  14.159  0.2131 -0.2694  0.2812
  826MPD2    H512157   1.538   4.013  14.259 -0.7633 -2.8132  0.4571
  826MPD2    N112158   1.938   3.806  13.886  0.2000  0.3428 -0.1493
  826MPD2    H712159   2.035   3.777  13.896 -0.2514 -0.5361  1.8257
  827MPD2     C12160   2.764   0.168   9.864 -0.4211  0.2834  0.0896
  827MPD2    C112161   2.687   0.095   9.951 -0.7889  0.6791 -0.2794
  827MPD2    C212162   2.546   0.085   9.924  0.0350 -0.0795 -0.2231
  827MPD2    C312163   2.494   0.139   9.807  0.7311 -0.2966  0.4468
  827MPD2    C412164   2.574   0.209   9.722  0.0606 -0.2119 -0.3931
  827MPD2    C512165   2.705   0.218   9.754 -0.0836 -0.2868 -0.6296
  827MPD2     H12166   2.480   0.047  10.001 -0.2875 -1.1087 -1.0050
  827MPD2    H112167   2.534   0.260   9.635 -0.6991 -0.8989 -0.4453
  827MPD2    H212168   2.867   0.184   9.892 -0.2955 -1.4329  0.6413
  827MPD2    H312169   2.760   0.286   9.691  1.4697  0.8637  1.9436
  827MPD2     N12170   2.355   0.120   9.783  0.0361  0.1596 -0.1825
  827MPD2    H512171   2.317   0.048   9.843  2.1391  1.8535  3.1563
  827MPD2    N112172   2.749   0.052  10.071 -0.7781 -0.2977  0.2611
  827MPD2    H712173   2.841   0.086  10.096 -0.1611 -0.7007 -1.5093
  828MPD2     C12174   1.241   0.323  13.038 -0.7081  0.2327 -0.7016
  828MPD2    C112175   1.179   0.316  12.912 -0.1626 -0.6274  0.5118
  828MPD2    C212176   1.256   0.278  12.805 -0.2593  0.0128  0.4460
  828MPD2    C312177   1.389   0.240  12.812  0.4850 -0.2345  0.8447
  828MPD2    C412178   1.446   0.250  12.930  0.9669 -0.4610 -0.8236
  828MPD2    C512179   1.374   0.295  13.040  0.3090 -1.1191 -0.3912
  828MPD2     H12180   1.206   0.273  12.708  1.0637  0.4779 -0.2611
  828MPD2    H112181   1.553   0.239  12.933  1.1228  1.7947  1.8781
  828MPD2    H212182   1.197   0.367  13.127 -0.8314 -0.0665 -0.6147
  828MPD2    H312183   1.428   0.298  13.133 -1.1546  1.3798  0.3874
  828MPD2     N12184   1.460   0.192  12.699  0.0495 -0.6290 -0.1135
  828MPD2    H512185   1.562   0.193  12.706  0.0175 -0.4835  0.2994
  828MPD2    N112186   1.043   0.350  12.889  0.8249 -0.9448  0.2981
  828MPD2    H712187   1.003   0.366  12.796 -2.7036 -1.5905  1.6948
  829MPD2     C12188   0.304   0.255  12.327  0.2153  0.5755 -0.3649
  829MPD2    C112189   0.433   0.304  12.307  0.1730 -0.3884  0.1947
  829MPD2    C212190   0.504   0.367  12.409  0.3809  0.6567 -0.1142
  829MPD2    C312191   0.446   0.389  12.530 -0.5415 -0.5639 -0.5863
  829MPD2    C412192   0.312   0.359  12.545  0.5748  0.0433 -0.0351
  829MPD2    C512193   0.247   0.279  12.451  0.0064 -0.2293  0.8657
  829MPD2     H12194   0.603   0.408  12.391  0.8834  0.3406  1.9545
  829MPD2    H112195   0.264   0.376  12.641  2.0676  0.0680  0.7087
  829MPD2    H212196   0.258   0.195  12.249 -0.0654  2.6628 -1.8046
  829MPD2    H312197   0.149   0.241  12.478 -0.7024  1.5518  0.7422
  829MPD2     N12198   0.520   0.437  12.639  0.1935  0.6649  0.4609
  829MPD2    H512199   0.467   0.448  12.725  0.3222 -1.3501  0.7932
  829MPD2    N112200   0.482   0.282  12.175 -0.1873  0.1312  0.2942
  829MPD2    H712201   0.407   0.249  12.115  0.9337 -4.2146  1.2845
  830MPD2     C12202   1.676   2.705  15.910 -0.3651 -0.3054  0.0920
  830MPD2    C112203   1.584   2.781  15.849 -0.2763 -0.0506  0.2163
  830MPD2    C212204   1.626   2.877  15.768 -0.0843 -0.4441  0.2833
  830MPD2    C312205   1.759   2.902  15.740 -0.2084  0.5405 -0.3473
  830MPD2    C412206   1.851   2.824  15.815  0.0213  0.2999 -0.9005
  830MPD2    C512207   1.811   2.734  15.898 -0.3604 -0.4680 -0.5741
  830MPD2     H12208   1.549   2.936  15.719 -1.4053 -4.2896 -2.2991
  830MPD2    H112209   1.957   2.847  15.805  0.1020  0.8970  1.2457
  830MPD2    H212210   1.653   2.618  15.970 -0.3176 -0.5284 -0.2130
  830MPD2    H312211   1.873   2.663  15.952 -1.4485  1.0702  2.7065
  830MPD2     N12212   1.805   3.001  15.648 -0.1060 -0.4096 -0.1644
  830MPD2    H512213   1.731   3.050  15.598  1.6148  0.4173 -1.9083
  830MPD2    N112214   1.452   2.751  15.881  0.2552  0.1696  0.1924
  830MPD2    H712215   1.436   2.669  15.939 -0.1283  0.4968  0.5523
  831MPD2     C12216   1.399   0.113  16.729 -0.2369 -0.2438 -0.6717
  831MPD2    C112217   1.440   4.722  16.669  0.4746  1.0459 -0.6687
  831MPD2    C212218   1.388   4.600  16.705  0.3586  0.2355 -0.4944
  831MPD2    C312219   1.279   4.589  16.791 -0.5238 -0.3087  0.8732
  831MPD2    C412220   1.232   4.708  16.843 -0.1723  0.0298  0.4079
  831MPD2    C512221   1.287   0.107  16.813  0.7565 -1.0470 -1.0422
  831MPD2     H12222   1.438   4.508  16.677 -1.0759 -0.3911 -1.0071
  831MPD2    H112223   1.154   4.722  16.917 -0.7715 -0.6168 -0.1135
  831MPD2    H212224   1.445   0.211  16.714 -1.5528  0.4779  0.0567
  831MPD2    H312225   1.251   0.197  16.863  1.9142 -1.5391  0.6907
  831MPD2     N12226   1.210   4.471  16.815 -0.3476 -0.6105 -0.4134
  831MPD2    H512227   1.140   4.481  16.887  1.0106 -0.6041  0.9111
  831MPD2    N112228   1.537   0.015  16.560  0.1090  0.0340 -0.8898
  831MPD2    H712229   1.557   0.113  16.540  2.3791 -0.2666 -0.1208
  832MPD2     C12230   3.939   0.969  17.369  0.6652  0.3478 -0.4346
  832MPD2    C112231   4.012   1.001  17.255  0.1711 -0.2486  0.1459
  832MPD2    C212232   3.944   1.037  17.139 -0.3068 -0.1130 -0.2149
  832MPD2    C312233   3.805   1.039  17.136 -0.0439  1.2320  0.3616
  832MPD2    C412234   3.738   1.024  17.257 -1.0829 -0.3128  0.2371
  832MPD2    C512235   3.802   0.994  17.370  0.2352  0.3903  0.3342
  832MPD2     H12236   4.006   1.046  17.051  1.3304  3.5395  1.3013
  832MPD2    H112237   3.630   1.024  17.270 -1.1368 -0.6119 -0.1970
  832MPD2    H212238   3.987   0.920  17.453 -1.8330 -1.2064  0.0758
  832MPD2    H312239   3.740   0.973  17.456 -0.0864 -2.3381 -0.5878
  832MPD2     N12240   3.721   1.052  17.023  0.0297  0.4821  0.0491
  832MPD2    H512241   3.620   1.054  17.034 -0.1534  2.1174 -2.0118
  832MPD2    N112242   4.148   0.979  17.264  0.0644  0.4277  0.0290
  832MPD2    H712243   4.193   0.945  17.348 -0.1883 -1.3614 -0.5694
  833MPD2     C12244   1.426   2.580  12.844 -0.2334  0.0524 -0.2271
  833MPD2    C112245   1.452   2.713  12.817  0.1758 -0.0856 -0.3078
  833MPD2    C212246   1.548   2.754  12.723 -0.1616 -0.2157 -0.3482
  833MPD2    C312247   1.619   2.651  12.661 -0.0460 -0.6040 -0.5016
  833MPD2    C412248   1.594   2.513  12.680 -1.1412 -0.6080  0.4265
  833MPD2    C512249   1.491   2.484  12.765 -0.2913  0.3638  0.3319
  833MPD2     H12250   1.569   2.855  12.692  1.1309 -0.1852  0.6660
  833MPD2    H112251   1.654   2.440  12.627 -1.0406  0.8010 -1.4039
  833MPD2    H212252   1.352   2.553  12.918  1.7555 -4.2216  0.1618
  833MPD2    H312253   1.460   2.381  12.770  0.9013 -0.0393 -0.5164
  833MPD2     N12254   1.722   2.676  12.565 -0.3504  0.4965 -1.0804
  833MPD2    H512255   1.757   2.596  12.514  0.6945  0.0771  0.3328
  833MPD2    N112256   1.371   2.808  12.881 -0.2311  0.3406  0.3711
  833MPD2    H712257   1.282   2.780  12.921 -0.7003  2.4277  0.7553
  834MPD2     C12258   1.690   2.778  11.684 -0.1183  0.3831  0.1964
  834MPD2    C112259   1.789   2.690  11.708  0.4245 -0.2675 -0.1380
  834MPD2    C212260   1.859   2.686  11.825  0.1604  0.1781  0.3954
  834MPD2    C312261   1.815   2.773  11.925 -0.0934  1.6413  0.5427
  834MPD2    C412262   1.716   2.870  11.900 -1.0117  0.1883  0.6138
  834MPD2    C512263   1.647   2.870  11.781 -0.1999  0.0243  0.9187
  834MPD2     H12264   1.942   2.617  11.840  1.8079  1.7892 -1.2260
  834MPD2    H112265   1.680   2.944  11.971  2.6514  1.4975  1.1105
  834MPD2    H212266   1.640   2.781  11.587 -1.1618 -0.1924  0.7208
  834MPD2    H312267   1.573   2.945  11.753 -1.7582 -2.0031 -0.3802
  834MPD2     N12268   1.881   2.761  12.051 -0.1377 -0.0736  0.8744
  834MPD2    H512269   1.962   2.700  12.061  0.5553  0.6700 -0.2345
  834MPD2    N112270   1.826   2.606  11.596  1.0762 -0.4139 -0.0455
  834MPD2    H712271   1.773   2.615  11.509  3.0214 -1.0822 -1.3118
  835MPD2     C12272   2.211   0.126  11.451 -0.4418  0.0514 -1.0466
  835MPD2    C112273   2.080   0.134  11.484 -0.0181 -0.5411  0.4894
  835MPD2    C212274   2.048   0.138  11.617 -0.4528 -0.6960 -0.5874
  835MPD2    C312275   2.142   0.125  11.721  0.1719  0.4300  0.7381
  835MPD2    C412276   2.278   0.107  11.681 -0.6770 -0.3284 -0.5574
  835MPD2    C512277   2.314   0.113  11.548 -0.4540 -0.2699  1.3208
  835MPD2     H12278   1.943   0.145  11.643 -0.8938 -2.2991 -1.8911
  835MPD2    H112279   2.356   0.091  11.754 -1.8846 -0.9302  0.6017
  835MPD2    H212280   2.242   0.121  11.347 -0.2498  0.9501 -1.0298
  835MPD2    H312281   2.416   0.101  11.514 -0.6254 -2.1362  1.4989
  835MPD2     N12282   2.109   0.115  11.859  0.4673  0.2551  0.1857
  835MPD2    H512283   2.181   0.140  11.926 -0.1711 -1.4243  1.5136
  835MPD2    N112284   1.965   0.146  11.408  0.2414 -0.1546 -0.3184
  835MPD2    H712285   1.887   0.158  11.471  1.7425 -0.0428  1.5237
  836MPD2     C12286   1.411   0.371  12.005  0.6390  0.0259 -0.1182
  836MPD2    C112287   1.491   0.400  12.113  0.1597 -0.3286  0.0651
  836MPD2    C212288   1.428   0.454  12.227 -0.5800 -0.1555  0.2228
  836MPD2    C312289   1.289   0.479  12.227  1.0038  0.6491 -0.0885
  836MPD2    C412290   1.214   0.444  12.115 -0.3269 -0.3132 -0.6822
  836MPD2    C512291   1.277   0.389  12.009 -0.6402 -0.4717  0.8550
  836MPD2     H12292   1.482   0.467  12.320  0.6879 -0.8756 -0.4184
  836MPD2    H112293   1.107   0.455  12.106 -0.4073 -0.3666  0.1250
  836MPD2    H212294   1.459   0.335  11.915 -0.5274 -1.1417 -0.2890
  836MPD2    H312295   1.212   0.369  11.924 -2.1411  0.0519  1.8856
  836MPD2     N12296   1.219   0.526  12.338 -0.0680  0.1252  0.1541
  836MPD2    H512297   1.118   0.528  12.325  0.0515 -2.2385 -1.1061
  836MPD2    N112298   1.626   0.363  12.106  0.0142 -0.1568  0.2026
  836MPD2    H712299   1.668   0.308  12.032 -1.6103 -1.4458  0.2335
  837MPD2     C12300   0.307   0.263   9.937 -0.4857 -0.3744  0.0924
  837MPD2    C112301   0.211   0.289  10.029  0.0012  0.1634 -0.7538
  837MPD2    C212302   0.210   0.420  10.071 -0.8533 -0.5006 -0.5446
  837MPD2    C312303   0.285   0.518  10.017 -0.0993 -0.1817  0.3570
  837MPD2    C412304   0.385   0.490   9.931  0.9665 -0.4990 -0.6141
  837MPD2    C512305   0.389   0.360   9.886  0.7307  0.5147  0.6379
  837MPD2     H12306   0.132   0.440  10.144 -2.1792 -0.6901 -1.9008
  837MPD2    H112307   0.453   0.562   9.887  0.8161  0.3422  0.5156
  837MPD2    H212308   0.327   0.167   9.891  0.1717 -0.5355  0.7136
  837MPD2    H312309   0.464   0.327   9.815  0.1214  0.6720 -0.0745
  837MPD2     N12310   0.259   0.648  10.044  0.3733  0.1139  0.6156
  837MPD2    H512311   0.179   0.673  10.101 -1.6602  0.1015 -2.2166
  837MPD2    N112312   0.117   0.191  10.072 -0.1577  0.0754  0.2631
  837MPD2    H712313   0.049   0.214  10.144 -0.1185  0.4978  0.1674
  838MPD2     C12314   3.339   3.492  11.907  0.2906 -0.4610  0.7987
  838MPD2    C112315   3.306   3.356  11.906  0.1641 -0.0324 -0.7576
  838MPD2    C212316   3.196   3.319  11.979 -0.7206 -0.1951  0.1756
  838MPD2    C312317   3.123   3.409  12.054 -0.4257  0.5900 -0.0535
  838MPD2    C412318   3.155   3.541  12.050 -0.7775 -0.6788  0.3191
  838MPD2    C512319   3.263   3.583  11.968 -0.5973  0.1851  0.2726
  838MPD2     H12320   3.166   3.214  11.982 -1.8358  0.0560 -2.5771
  838MPD2    H112321   3.100   3.620  12.101  0.7553  1.4909 -1.4025
  838MPD2    H212322   3.432   3.527  11.864 -0.6466  2.1333  0.8964
  838MPD2    H312323   3.281   3.690  11.959 -0.9361  0.2970  0.8746
  838MPD2     N12324   3.012   3.352  12.116 -0.2786  0.4509 -0.0559
  838MPD2    H512325   2.994   3.253  12.100  1.2508  0.1640  0.0366
  838MPD2    N112326   3.374   3.261  11.836 -0.1139  0.3581 -0.3661
  838MPD2    H712327   3.329   3.171  11.842  0.8722 -0.0798  0.3850
  839MPD2     C12328   2.764   2.822  11.458  0.5912 -0.6013 -0.1194
  839MPD2    C112329   2.874   2.735  11.436 -0.7793  0.2721 -0.2099
  839MPD2    C212330   2.998   2.787  11.452 -0.2572 -0.2364  0.4216
  839MPD2    C312331   3.023   2.924  11.463 -0.1836 -0.0744  0.2506
  839MPD2    C412332   2.912   3.005  11.470  0.1229 -0.2389 -0.0423
  839MPD2    C512333   2.785   2.956  11.473  0.0112 -0.9456 -0.2873
  839MPD2     H12334   3.082   2.719  11.445 -0.3041 -0.3086  0.5690
  839MPD2    H112335   2.922   3.113  11.480  1.6050 -0.6063  2.5174
  839MPD2    H212336   2.658   2.796  11.453  0.8676 -1.5535 -0.9879
  839MPD2    H312337   2.709   3.032  11.485  0.7423  0.0468 -1.9974
  839MPD2     N12338   3.155   2.981  11.495  0.2730  0.3820  0.1835
  839MPD2    H512339   3.151   3.080  11.516 -0.6199  0.4968 -0.5556
  839MPD2    N112340   2.857   2.601  11.409 -0.0471 -0.1298 -0.3171
  839MPD2    H712341   2.946   2.555  11.394 -1.1862 -1.7264 -2.1932
  840MPD2     C12342   3.253   0.295  10.206 -0.0055 -0.6176 -0.1194
  840MPD2    C112343   3.220   0.241  10.331 -0.2938  0.0694 -0.1200
  840MPD2    C212344   3.279   0.297  10.440  0.2026 -0.0238 -0.3709
  840MPD2    C312345   3.382   0.389  10.418  0.2364  0.6233  0.1704
  840MPD2    C412346   3.411   0.435  10.293  0.0701 -0.1527 -0.4351
  840MPD2    C512347   3.345   0.391  10.185  0.4950  0.1783  0.3980
  840MPD2     H12348   3.263   0.251  10.537  0.2488  1.5702  0.3816
  840MPD2    H112349   3.486   0.512  10.278  0.7964 -1.5235 -3.8393
  840MPD2    H212350   3.203   0.249  10.121  0.8711  1.5264 -1.7883
  840MPD2    H312351   3.356   0.435  10.086  1.1152  2.7265  1.6042
  840MPD2     N12352   3.457   0.451  10.521  0.0293 -0.6848 -0.5029
  840MPD2    H512353   3.523   0.520  10.486  0.8382 -0.9172  0.5741
  840MPD2    N112354   3.109   0.149  10.341 -0.4617  0.1194  0.0665
  840MPD2    H712355   3.076   0.115  10.251 -0.8326  1.9984 -0.4876
  841MPD2     C12356   2.710   0.047  15.186 -0.6044 -0.1612  0.2214
  841MPD2    C112357   2.741   0.043  15.048 -0.2277 -0.4261  0.6366
  841MPD2    C212358   2.737   0.166  14.980 -0.2786 -0.0861 -0.1159
  841MPD2    C312359   2.703   0.281  15.051 -0.5010 -0.0075  0.6617
  841MPD2    C412360   2.673   0.281  15.183 -0.5409  0.0294 -0.6994
  841MPD2    C512361   2.683   0.169  15.253 -0.0612  0.3528  0.9165
  841MPD2     H12362   2.751   0.162  14.872  0.5897  2.9204 -0.1013
  841MPD2    H112363   2.627   0.368  15.229 -0.1265 -0.6459  0.9757
  841MPD2    H212364   2.713   4.682  15.249 -3.0531  0.3527  1.0395
  841MPD2    H312365   2.659   0.170  15.358  1.5010 -0.3567  1.2800
  841MPD2     N12366   2.695   0.394  14.972 -0.1440  0.3104 -0.0860
  841MPD2    H512367   2.712   0.373  14.874 -1.3977  1.0491 -0.4719
  841MPD2    N112368   2.777   4.650  14.971  0.0074 -0.3828 -0.0746
  841MPD2    H712369   2.812   4.666  14.877  0.2059  0.2201  0.1073
  842MPD2     C12370   3.163   0.737  16.721 -0.5236  0.5860 -0.4905
  842MPD2    C112371   3.034   0.734  16.771  0.2957  0.2616 -0.1885
  842MPD2    C212372   3.023   0.762  16.904  0.7116 -0.0689  0.5944
  842MPD2    C312373   3.133   0.783  16.986 -0.5236 -0.1869 -0.1025
  842MPD2    C412374   3.255   0.776  16.929  0.2306 -0.5490 -1.2113
  842MPD2    C512375   3.272   0.752  16.797 -0.3669 -0.4770 -0.3525
  842MPD2     H12376   2.923   0.793  16.931  0.7506  0.8294 -0.3009
  842MPD2    H112377   3.344   0.797  16.988 -0.3587 -1.8978  0.1311
  842MPD2    H212378   3.170   0.725  16.614  0.3526  2.5491 -0.6404
  842MPD2    H312379   3.371   0.739  16.755  0.5898  1.1397  1.3984
  842MPD2     N12380   3.127   0.833  17.117  0.1011  0.7472 -0.6380
  842MPD2    H512381   3.219   0.854  17.153  0.1367  1.7874 -1.3244
  842MPD2    N112382   2.920   0.731  16.685  0.6061 -0.1476  0.4641
  842MPD2    H712383   2.932   0.736  16.584  0.2787  0.2960  0.4480
  843MPD2     C12384   1.555   1.186   0.826 -0.1714 -0.3657 -0.2108
  843MPD2    C112385   1.487   1.291   0.777  0.0500 -1.1376  0.3991
  843MPD2    C212386   1.555   1.401   0.719 -0.1442 -0.5449 -0.4812
  843MPD2    C312387   1.694   1.394   0.704  0.4302  0.3759 -0.1841
  843MPD2    C412388   1.766   1.295   0.760 -1.2107 -0.3752  0.2019
  843MPD2    C512389   1.695   1.201   0.827  0.3805 -0.2750 -0.5483
  843MPD2     H12390   1.499   1.482   0.673 -0.5712 -1.2207 -1.1623
  843MPD2    H112391   1.871   1.278   0.742 -0.7704  0.0793  2.3423
  843MPD2    H212392   1.509   1.099   0.871 -0.1151 -0.5354 -0.4812
  843MPD2    H312393   1.752   1.121   0.872 -0.1839  0.3362  1.2373
  843MPD2     N12394   1.759   1.480   0.617  0.3181  0.3317 -0.2464
  843MPD2    H512395   1.843   1.438   0.579 -0.0992  0.4694 -1.3177
  843MPD2    N112396   1.347   1.287   0.795 -0.2407 -0.4524  0.4707
  843MPD2    H712397   1.298   1.202   0.823  3.0145 -2.0002  1.4071
  844MPD2     C12398   4.068   4.179  16.586 -0.4697 -0.4524  0.1979
  844MPD2    C112399   4.168   4.265  16.557  0.4673  1.1987  0.0245
  844MPD2    C212400   4.153   4.401  16.598  0.2184 -0.3804  0.0684
  844MPD2    C312401   4.033   4.443  16.659  0.7699  0.8687 -0.2951
  844MPD2    C412402   3.935   4.348  16.692 -0.2001 -0.2064 -0.0665
  844MPD2    C512403   3.952   4.223  16.643  0.7749 -0.6806 -0.1514
  844MPD2     H12404   4.230   4.470  16.566 -1.5485  1.2732 -0.6081
  844MPD2    H112405   3.838   4.375  16.733 -0.6367 -1.2928 -0.3761
  844MPD2    H212406   4.077   4.074  16.562  1.2064 -0.2647  0.0396
  844MPD2    H312407   3.873   4.152  16.665 -0.4812  1.2414  1.6247
  844MPD2     N12408   4.025   4.582  16.695  0.3111  0.0691  0.0641
  844MPD2    H512409   4.106   4.634  16.666 -0.7399  2.5251  1.5171
  844MPD2    N112410   4.290   4.230  16.502  0.1068 -1.2456 -0.3440
  844MPD2    H712411   4.359   4.303  16.490 -2.4134  1.0802 -0.5186
  845MPD2     C12412   4.180   0.813  16.434  0.3839 -0.1369  0.8850
  845MPD2    C112413   4.149   0.836  16.560  0.4403 -0.9276 -0.0663
  845MPD2    C212414   4.130   0.733  16.652  0.2360 -0.4748  0.2975
  845MPD2    C312415   4.137   0.597  16.610 -0.3656  0.0627  0.3086
  845MPD2    C412416   4.171   0.570  16.477  0.4045  0.0352 -0.4714
  845MPD2    C512417   4.192   0.677  16.396 -0.1512  0.1598 -0.2879
  845MPD2     H12418   4.090   0.757  16.750 -1.8193 -1.2505 -0.3473
  845MPD2    H112419   4.193   0.474  16.431  0.8072 -0.7013  1.2679
  845MPD2    H212420   4.213   0.877  16.353  1.1062 -0.1246  1.1879
  845MPD2    H312421   4.210   0.652  16.292  0.3544 -0.0993 -0.1391
  845MPD2     N12422   4.093   0.494  16.694 -0.4224 -0.3738 -0.1477
  845MPD2    H512423   4.051   0.530  16.779  0.0816 -0.9253  0.3329
  845MPD2    N112424   4.144   0.977  16.596 -0.0457 -0.4783 -0.5989
  845MPD2    H712425   4.158   1.044  16.521  0.0522 -1.6040 -1.5841
  846MPD2     C12426   0.920   1.762  13.926 -0.3391  0.6688 -0.4022
  846MPD2    C112427   0.928   1.897  13.901  0.0679 -0.3409  0.0512
  846MPD2    C212428   0.956   1.983  14.009 -0.0531  0.6773 -0.0302
  846MPD2    C312429   0.970   1.937  14.136  0.0738 -0.2798  0.3156
  846MPD2    C412430   0.954   1.801  14.155 -0.2043 -0.2062 -0.1400
  846MPD2    C512431   0.930   1.715  14.049 -0.3155  0.0525  0.2706
  846MPD2     H12432   0.965   2.089  13.988 -0.7080  1.0644  1.7177
  846MPD2    H112433   0.958   1.763  14.257 -2.7547  0.7004  0.2983
  846MPD2    H212434   0.904   1.693  13.844 -0.4702 -1.1167  1.1382
  846MPD2    H312435   0.916   1.610  14.074 -3.1620  0.1871 -0.7955
  846MPD2     N12436   0.993   2.034  14.238  0.4626 -0.2420 -0.6118
  846MPD2    H512437   0.965   2.130  14.224  0.3008 -0.1846  0.1116
  846MPD2    N112438   0.908   1.947  13.771 -0.0636  0.2950 -0.1929
  846MPD2    H712439   0.918   2.048  13.767  1.9716  0.0044 -2.6153
  847MPD2     C12440   1.048   2.952  14.648 -0.7667 -0.4855  0.5604
  847MPD2    C112441   1.158   2.938  14.566  0.0947  0.1852 -0.4970
  847MPD2    C212442   1.253   2.850  14.613  1.3008 -0.0144 -0.0769
  847MPD2    C312443   1.241   2.780  14.732  0.4244 -1.3213  0.2009
  847MPD2    C412444   1.126   2.796  14.811 -0.2306  0.0799 -0.2850
  847MPD2    C512445   1.029   2.887  14.766 -0.1525 -0.0835 -0.1596
  847MPD2     H12446   1.342   2.840  14.553 -0.3399 -1.9334 -2.2056
  847MPD2    H112447   1.127   2.758  14.913 -1.4847 -0.4712 -0.4728
  847MPD2    H212448   0.974   3.026  14.619  1.2194  1.6196  0.9233
  847MPD2    H312449   0.951   2.906  14.839 -0.4568 -0.4515 -0.3946
  847MPD2     N12450   1.352   2.695  14.771  0.3511 -0.4534 -0.1443
  847MPD2    H512451   1.439   2.718  14.724  0.1357  1.7526  0.5473
  847MPD2    N112452   1.174   3.011  14.441  0.1397 -0.4413  0.3242
  847MPD2    H712453   1.249   2.988  14.377 -0.7540 -0.6751 -0.6405
  848MPD2     C12454   3.851   0.947  16.259 -0.9676  0.4592  0.0844
  848MPD2    C112455   3.726   0.950  16.309 -0.6932 -0.0496  0.0602
  848MPD2    C212456   3.634   1.032  16.247 -0.2638  0.0361 -0.4460
  848MPD2    C312457   3.661   1.093  16.123  0.5180 -0.2003 -0.0919
  848MPD2    C412458   3.785   1.089  16.073  0.5762  0.1270  0.3757
  848MPD2    C512459   3.883   1.024  16.146 -0.5127  0.4064  0.6075
  848MPD2     H12460   3.536   1.051  16.290 -0.0931  0.1111 -0.0899
  848MPD2    H112461   3.817   1.151  15.990  0.1865  2.3129  1.8662
  848MPD2    H212462   3.928   0.893  16.314 -0.7483  0.4573 -0.2249
  848MPD2    H312463   3.987   1.032  16.116 -0.1792 -1.2934  1.3616
  848MPD2     N12464   3.573   1.176  16.051 -0.1820  0.2350 -0.0655
  848MPD2    H512465   3.600   1.226  15.967 -0.7167  3.9331  1.9487
  848MPD2    N112466   3.702   0.907  16.440  0.4774  0.2678 -0.1527
  848MPD2    H712467   3.625   0.942  16.497  0.2241 -2.1235  0.9739
  849MPD2     C12468   2.853   1.116  14.070 -0.5001 -0.0325  0.6889
  849MPD2    C112469   2.944   1.028  14.000 -0.4904 -0.5752 -0.0331
  849MPD2    C212470   3.030   0.961  14.078  0.8102 -0.4179  0.3421
  849MPD2    C312471   3.030   0.970  14.213  0.2571  0.1781  0.7956
  849MPD2    C412472   2.946   1.052  14.282 -0.0216 -0.1821 -0.3617
  849MPD2    C512473   2.862   1.130  14.207 -0.2463  0.1322  0.6798
  849MPD2     H12474   3.100   0.901  14.022  0.5897 -0.7511  0.4242
  849MPD2    H112475   2.953   1.068  14.389 -1.4877  0.4327 -0.3655
  849MPD2    H212476   2.796   1.193  14.017  0.7336 -0.8572 -1.8440
  849MPD2    H312477   2.799   1.200  14.261 -0.2353  0.1329  0.6920
  849MPD2     N12478   3.112   0.895  14.293  0.4691 -0.9944 -0.1228
  849MPD2    H512479   3.112   0.919  14.392 -1.2884 -2.6701  0.2775
  849MPD2    N112480   2.952   1.041  13.858 -0.4616 -0.2498 -1.4513
  849MPD2    H712481   2.888   1.110  13.820 -2.6875 -0.3874  2.0006
  850MPD2     C12482   1.286   3.509  14.980  0.1401  0.4038  0.3921
  850MPD2    C112483   1.251   3.622  15.056 -0.0449  0.3394 -0.6369
  850MPD2    C212484   1.349   3.689  15.121 -0.4566  0.1696  0.3886
  850MPD2    C312485   1.478   3.653  15.121 -0.1014  0.2669 -0.4765
  850MPD2    C412486   1.513   3.541  15.048 -0.3768  0.1412  0.0861
  850MPD2    C512487   1.415   3.469  14.980  0.2248  0.2664 -0.4923
  850MPD2     H12488   1.329   3.782  15.173  0.5797  0.5298  0.1401
  850MPD2    H112489   1.614   3.504  15.060 -0.5044  0.1693  1.2918
  850MPD2    H212490   1.215   3.439  14.937  0.4357 -0.0901  0.6932
  850MPD2    H312491   1.439   3.374  14.933  1.6664  0.5451 -0.3020
  850MPD2     N12492   1.582   3.720  15.188 -0.2360 -0.5803 -1.2094
  850MPD2    H512493   1.674   3.681  15.170 -0.6528 -1.7158 -0.8620
  850MPD2    N112494   1.109   3.651  15.064  0.8069  0.1583 -0.1738
  850MPD2    H712495   1.061   3.597  14.992 -0.6518  1.9714 -0.5483
  851MPD2     C12496   1.554   3.791  15.746 -0.3289 -0.3400 -0.7780
  851MPD2    C112497   1.498   3.702  15.663  1.0364 -0.5442  0.1886
  851MPD2    C212498   1.584   3.606  15.610  0.3117  0.4184 -0.1654
  851MPD2    C312499   1.718   3.600  15.641  0.4038  0.5079  0.7364
  851MPD2    C412500   1.765   3.689  15.740 -0.6008 -0.1686  0.3738
  851MPD2    C512501   1.681   3.778  15.791 -0.1784  0.5189 -0.2522
  851MPD2     H12502   1.545   3.534  15.539  0.8613  1.3126 -1.3593
  851MPD2    H112503   1.865   3.680  15.783  0.6760 -0.2919 -2.6515
  851MPD2    H212504   1.493   3.864  15.798  1.2920  1.1339 -0.9543
  851MPD2    H312505   1.727   3.846  15.862 -2.6603  0.9485  0.9580
  851MPD2     N12506   1.798   3.508  15.567 -0.3435 -0.1965  0.4359
  851MPD2    H512507   1.753   3.458  15.491  0.2932  0.4734 -0.3808
  851MPD2    N112508   1.368   3.720  15.618  0.6052  0.4483  0.0662
  851MPD2    H712509   1.325   3.808  15.646  1.3789  0.8398  0.0250
  852MPD2     C12510   1.111   1.678  10.140  0.2305 -0.8549 -0.9386
  852MPD2    C112511   1.160   1.764  10.237  0.4111 -0.0685  0.1471
  852MPD2    C212512   1.111   1.891  10.238  0.9960 -0.1076 -0.7037
  852MPD2    C312513   1.029   1.946  10.138 -0.6005  0.1148  0.0764
  852MPD2    C412514   0.987   1.856  10.037  0.0750 -0.3614 -1.0508
  852MPD2    C512515   1.034   1.729  10.036  0.7192 -0.0936  0.0357
  852MPD2     H12516   1.152   1.955  10.315 -0.4423  2.4510 -2.0385
  852MPD2    H112517   0.910   1.884   9.965 -1.2038  3.3060  1.7300
  852MPD2    H212518   1.137   1.573  10.139  1.3376 -0.5908 -0.0537
  852MPD2    H312519   1.000   1.662   9.958 -0.7893  0.5935  0.0895
  852MPD2     N12520   0.996   2.086  10.138  0.3449  0.8956  0.5189
  852MPD2    H512521   1.038   2.146  10.208 -1.1950 -0.8421  2.9086
  852MPD2    N112522   1.241   1.723  10.343  0.4444 -0.4278 -0.0981
  852MPD2    H712523   1.273   1.789  10.413  1.8856  1.6077 -2.6766
  853MPD2     C12524   2.887   1.697  12.448 -0.4229  0.6812 -0.5230
  853MPD2    C112525   2.772   1.736  12.386 -0.3753  0.7169  1.0955
  853MPD2    C212526   2.760   1.721  12.247 -0.1399  0.1271 -0.1751
  853MPD2    C312527   2.859   1.652  12.183  0.4097  0.3411 -0.7201
  853MPD2    C412528   2.971   1.605  12.246 -0.7283 -0.1850  0.2808
  853MPD2    C512529   2.992   1.634  12.381 -0.0939 -0.4400  0.5438
  853MPD2     H12530   2.662   1.746  12.209  0.7964  0.5758 -2.2949
  853MPD2    H112531   3.049   1.550  12.195 -1.1036  1.2333 -1.7890
  853MPD2    H212532   2.889   1.706  12.556  1.0831  2.1642 -0.6697
  853MPD2    H312533   3.081   1.609  12.438  1.3957  0.3155 -1.4708
  853MPD2     N12534   2.856   1.623  12.043  0.2299  0.0962  0.5206
  853MPD2    H512535   2.941   1.588  12.001  0.9218 -1.6543  3.3703
  853MPD2    N112536   2.665   1.765  12.466  0.1027  0.4111 -0.1976
  853MPD2    H712537   2.667   1.736  12.563  3.1739  2.7693  0.4488
  854MPD2     C12538   4.669   1.832  13.321 -0.4125 -0.0398 -0.2467
  854MPD2    C112539   4.596   1.716  13.304 -0.3084  0.3436 -0.4213
  854MPD2    C212540   4.668   1.596  13.318 -0.0926 -0.5130 -0.1692
  854MPD2    C312541   0.084   1.602  13.329 -0.2239  0.0216 -0.1742
  854MPD2    C412542   0.152   1.717  13.346 -0.4947 -0.8828  0.3405
  854MPD2    C512543   0.075   1.833  13.333 -0.0714  0.6514 -0.2713
  854MPD2     H12544   4.621   1.501  13.295 -1.5389  0.5017 -1.4513
  854MPD2    H112545   0.260   1.725  13.344 -0.5489 -0.5106 -0.7462
  854MPD2    H212546   4.623   1.930  13.332 -0.9079 -0.5095  1.7374
  854MPD2    H312547   0.129   1.927  13.339 -0.7914  1.0700 -0.3456
  854MPD2     N12548   0.160   1.483  13.318 -0.7851  0.2735  0.3797
  854MPD2    H512549   0.262   1.487  13.317 -0.7420 -0.7844  0.4839
  854MPD2    N112550   4.455   1.721  13.301 -0.5071  0.5969  0.1633
  854MPD2    H712551   4.410   1.812  13.300  0.6163  1.1760  1.5171
  855MPD2     C12552   0.623   1.538  13.979 -0.1121  0.1734  0.0464
  855MPD2    C112553   0.578   1.411  13.990  0.7180  0.1693 -0.8586
  855MPD2    C212554   0.541   1.345  13.873 -0.3742 -0.0659  0.4992
  855MPD2    C312555   0.543   1.409  13.752 -0.8885  0.2999 -0.1174
  855MPD2    C412556   0.581   1.539  13.748  0.3273 -0.6295  0.2004
  855MPD2    C512557   0.624   1.603  13.860  0.9183 -0.3130  0.4324
  855MPD2     H12558   0.500   1.245  13.885  1.1653 -0.7762 -0.2027
  855MPD2    H112559   0.589   1.588  13.652 -2.0590  1.3146  0.9783
  855MPD2    H212560   0.642   1.608  14.059 -0.5789  0.1625  0.1683
  855MPD2    H312561   0.660   1.704  13.843  2.1585 -0.1525  3.9607
  855MPD2     N12562   0.498   1.347  13.629  0.6675  0.3477  0.3540
  855MPD2    H512563   0.491   1.410  13.550  2.0250  0.4500  0.3196
  855MPD2    N112564   0.570   1.348  14.110 -0.0959 -0.1963  0.5660
  855MPD2    H712565   0.526   1.257  14.110 -2.2976  0.8975 -2.2265
  856MPD2     C12566   2.331   2.205  13.672 -0.0687  0.0243  0.6328
  856MPD2    C112567   2.231   2.282  13.618  0.5090  0.2930  0.6266
  856MPD2    C212568   2.120   2.305  13.694 -0.1453  0.3406 -0.0524
  856MPD2    C312569   2.119   2.256  13.824  0.2591 -0.0812 -0.1672
  856MPD2    C412570   2.223   2.183  13.882  0.3044 -0.2139 -0.3237
  856MPD2    C512571   2.330   2.158  13.798  0.1994 -0.2848 -0.1806
  856MPD2     H12572   2.045   2.374  13.656 -0.9914 -1.4359 -1.6179
  856MPD2    H112573   2.228   2.136  13.980  2.7663 -0.7756 -0.7113
  856MPD2    H212574   2.426   2.185  13.624 -0.1868 -2.8056  1.5732
  856MPD2    H312575   2.412   2.099  13.836  0.0755 -0.0664  0.4281
  856MPD2     N12576   2.009   2.286  13.909 -0.6324 -0.1401  0.4373
  856MPD2    H512577   2.022   2.257  14.005 -1.9120 -0.3284  0.5561
  856MPD2    N112578   2.251   2.365  13.505 -1.0526 -0.1562  0.4645
  856MPD2    H712579   2.187   2.440  13.481 -0.2589 -0.1587 -1.6931
  857MPD2     C12580   3.650   4.175  13.464  0.1499 -0.3197  0.3200
  857MPD2    C112581   3.708   4.243  13.356  0.4736 -0.8000  0.4088
  857MPD2    C212582   3.793   4.349  13.385 -0.0484  0.6338 -0.2422
  857MPD2    C312583   3.826   4.387  13.516  0.0584 -0.1390  0.4701
  857MPD2    C412584   3.766   4.313  13.619 -0.7318 -0.5760 -0.1281
  857MPD2    C512585   3.684   4.208  13.592 -0.4676 -0.0272  0.7426
  857MPD2     H12586   3.836   4.407  13.304 -1.2561  1.5564 -0.2233
  857MPD2    H112587   3.773   4.342  13.723  1.4039 -1.6857  0.0430
  857MPD2    H212588   3.581   4.091  13.457 -0.2513 -0.0776  1.3538
  857MPD2    H312589   3.651   4.160  13.683 -1.8250  1.1037  0.8385
  857MPD2     N12590   3.915   4.491  13.547 -0.1845  0.2526 -0.3678
  857MPD2    H512591   3.951   4.541  13.466  0.1555  0.3180 -0.1736
  857MPD2    N112592   3.681   4.206  13.223 -0.6746 -0.5158 -0.3628
  857MPD2    H712593   3.637   4.114  13.219 -3.9151  1.0257 -0.0860
  858MPD2     C12594   4.184   3.497  17.144 -0.9559 -0.2923  0.1761
  858MPD2    C112595   4.311   3.534  17.110 -0.5794 -0.3440  0.0260
  858MPD2    C212596   4.387   3.596  17.205 -0.7373  0.2944 -0.1943
  858MPD2    C312597   4.341   3.625  17.329 -0.9120 -0.8151  0.4517
  858MPD2    C412598   4.210   3.590  17.359 -1.0801 -0.2868 -0.7223
  858MPD2    C512599   4.130   3.526  17.268  0.1345  0.2309 -0.0020
  858MPD2     H12600   4.481   3.641  17.176  0.2233 -1.5398  0.0709
  858MPD2    H112601   4.172   3.603  17.460  1.6542 -0.3267  0.3266
  858MPD2    H212602   4.128   3.431  17.079 -0.6067  1.6658 -2.0931
  858MPD2    H312603   4.033   3.482  17.289  0.0045 -0.4579 -2.0199
  858MPD2     N12604   4.425   3.684  17.433  0.0292 -0.1037  0.8444
  858MPD2    H512605   4.370   3.715  17.512 -0.1069  0.9977  0.3163
  858MPD2    N112606   4.350   3.518  16.980  0.3188 -0.6643  0.3505
  858MPD2    H712607   4.284   3.476  16.915 -0.4293  1.1323 -0.0400
  859MPD2     C12608   2.954   0.564  15.285 -0.2489 -0.3360 -0.5126
  859MPD2    C112609   3.077   0.604  15.249 -0.2960  1.0971 -0.7375
  859MPD2    C212610   3.165   0.501  15.215  0.3085 -0.0931 -0.5214
  859MPD2    C312611   3.132   0.366  15.249 -0.6131  0.2181  0.0137
  859MPD2    C412612   3.006   0.328  15.294 -0.1592  1.0625 -0.6199
  859MPD2    C512613   2.922   0.431  15.310  0.2336  0.4466  0.3952
  859MPD2     H12614   3.267   0.525  15.187  1.4913 -2.0333  2.1671
  859MPD2    H112615   2.976   0.227  15.318  0.8162  1.4280  2.0799
  859MPD2    H212616   2.878   0.633  15.320  0.6557  1.0916 -1.3509
  859MPD2    H312617   2.828   0.402  15.356  1.0246  0.3286  1.9102
  859MPD2     N12618   3.223   0.256  15.238  0.2561  0.5758  0.1483
  859MPD2    H512619   3.173   0.168  15.244  1.9271 -0.1663  2.9412
  859MPD2    N112620   3.111   0.743  15.246 -0.1595 -0.5834  0.5443
  859MPD2    H712621   3.037   0.807  15.273  0.9245  0.6277  0.6300
  860MPD2     C12622   4.497   0.680  11.991  0.5951 -0.1211 -0.1742
  860MPD2    C112623   4.582   0.660  12.095  0.0533 -0.1077 -1.0333
  860MPD2    C212624   4.537   0.643  12.220  0.3473 -0.2156 -0.0036
  860MPD2    C312625   4.401   0.669  12.251 -0.7125  1.0863 -0.0255
  860MPD2    C412626   4.317   0.694  12.149 -0.4713  0.3954  0.0569
  860MPD2    C512627   4.363   0.700  12.020  0.0472 -0.2664 -0.5263
  860MPD2     H12628   4.607   0.619  12.298  2.3712 -2.2487 -2.4497
  860MPD2    H112629   4.211   0.711  12.164 -0.7552 -1.2458  0.0034
  860MPD2    H212630   4.520   0.670  11.885  0.7025  2.2850 -0.3904
  860MPD2    H312631   4.291   0.718  11.941  0.1540  0.5936 -0.4266
  860MPD2     N12632   4.365   0.688  12.383 -0.1919 -0.1027 -0.5250
  860MPD2    H512633   4.439   0.675  12.452  2.1252  0.4841 -2.9068
  860MPD2    N112634   0.003   0.652  12.071  0.0240  0.2606  0.0183
  860MPD2    H712635   0.055   0.629  12.155 -1.8580  0.3454  1.2286
  861MPD2     C12636   4.361   4.563  10.997  0.1290 -0.8055  0.0543
  861MPD2    C112637   4.239   4.514  11.033  0.4067  0.2591 -0.2663
  861MPD2    C212638   4.130   4.529  10.945  0.7826 -0.8327  0.2683
  861MPD2    C312639   4.150   4.605  10.830  0.0388  0.6674 -0.2978
  861MPD2    C412640   4.279   4.648  10.793 -0.1680 -0.1585  0.1890
  861MPD2    C512641   4.383   4.620  10.876 -0.2616  0.4071 -0.0576
  861MPD2     H12642   4.031   4.496  10.973 -0.6555  2.3847 -0.9526
  861MPD2    H112643   4.293   4.693  10.695 -0.2432  1.2869  0.8320
  861MPD2    H212644   4.446   4.558  11.065  0.4143  1.6472 -0.1224
  861MPD2    H312645   4.488   4.636  10.856 -0.0415 -1.1111 -0.0926
  861MPD2     N12646   4.043   4.652  10.750  0.0149 -0.1696  0.3834
  861MPD2    H512647   4.068   4.719  10.678  0.5384 -0.4196  0.3283
  861MPD2    N112648   4.208   4.453  11.152 -0.4919  0.1914 -0.1985
  861MPD2    H712649   4.114   4.416  11.166  0.2991 -0.7978  2.3598
  862MPD2     C12650   3.304   4.402  10.452  0.2441  0.0467  0.0245
  862MPD2    C112651   3.416   4.383  10.526  0.2525 -0.3735 -0.2368
  862MPD2    C212652   3.481   4.265  10.527 -0.4842  0.2768  0.4277
  862MPD2    C312653   3.427   4.159  10.453  0.3904  0.5490  0.1229
  862MPD2    C412654   3.321   4.190  10.366 -0.0681 -0.2736 -0.0482
  862MPD2    C512655   3.260   4.308  10.365 -0.1178  1.0720 -0.0232
  862MPD2     H12656   3.571   4.261  10.586  0.7281  1.4530 -1.3138
  862MPD2    H112657   3.276   4.109  10.310  0.8223 -0.8856  0.1228
  862MPD2    H212658   3.256   4.498  10.454  3.7745  1.8104  0.3070
  862MPD2    H312659   3.176   4.328  10.300  1.1374  0.6186 -1.8152
  862MPD2     N12660   3.484   4.028  10.456 -0.2890  0.1716 -0.3114
  862MPD2    H512661   3.443   3.954  10.400  0.1405 -0.5059  0.2856
  862MPD2    N112662   3.481   4.488  10.591  0.1279  0.0693  0.1050
  862MPD2    H712663   3.554   4.452  10.651 -1.0083  0.3713  1.6686
  863MPD2     C12664   2.904   2.754  16.937 -0.7253 -0.1217 -0.1342
  863MPD2    C112665   2.955   2.627  16.914  0.3477 -0.5982  0.0690
  863MPD2    C212666   3.051   2.570  16.997  0.3724  0.2109 -0.5312
  863MPD2    C312667   3.121   2.652  17.089 -0.3559  0.2291 -0.0439
  863MPD2    C412668   3.083   2.789  17.086  0.2375 -0.3663  0.4438
  863MPD2    C512669   2.973   2.836  17.023  0.3779 -0.1354 -0.9983
  863MPD2     H12670   3.082   2.467  16.989  2.6210  0.6730  2.1317
  863MPD2    H112671   3.128   2.857  17.158 -0.3249  0.5999 -0.1137
  863MPD2    H212672   2.819   2.797  16.886 -0.5770  0.6704  0.2912
  863MPD2    H312673   2.931   2.935  17.035 -0.2037 -0.5685  0.4563
  863MPD2     N12674   3.225   2.613  17.184  0.5190  0.5541 -0.1210
  863MPD2    H512675   3.248   2.683  17.253  0.0477  0.7556 -0.1658
  863MPD2    N112676   2.893   2.552  16.815 -0.6168  0.7044  0.6526
  863MPD2    H712677   2.831   2.606  16.756 -0.3953 -0.1422 -0.3584
  864MPD2     C12678   3.691   3.306  17.499 -0.1118 -0.0331  0.3482
  864MPD2    C112679   3.579   3.386  17.518  0.1914 -0.6973  0.3764
  864MPD2    C212680   3.597   3.523  17.520  0.1820 -0.1905 -0.0853
  864MPD2    C312681   3.732   3.572  17.509  0.5663 -0.2713  0.2865
  864MPD2    C412682   3.839   3.485  17.499  0.3599  0.0078  0.0360
  864MPD2    C512683   3.816   3.353  17.493  0.1686 -0.5266  0.3811
  864MPD2     H12684   3.514   3.592  17.535  0.4377  0.7110 -2.6863
  864MPD2    H112685   3.944   3.510  17.488  0.6630 -0.4908  1.7979
  864MPD2    H212686   3.674   3.199  17.500 -2.1151  0.2786 -1.0564
  864MPD2    H312687   3.895   3.280  17.497 -0.2239 -0.9325  0.6786
  864MPD2     N12688   3.758   3.708  17.498 -0.2623  0.8395 -0.6062
  864MPD2    H512689   3.855   3.736  17.484 -0.1812  0.4145 -0.8699
  864MPD2    N112690   3.455   3.323  17.525 -0.1897 -0.1861 -0.5393
  864MPD2    H712691   3.438   3.224  17.536  1.2906 -0.5033 -1.2183
  865MPD2     C12692   3.577   4.238  16.672 -0.2238  0.0595 -0.0168
  865MPD2    C112693   3.607   4.117  16.740  0.3581  0.0519  1.1322
  865MPD2    C212694   3.616   4.112  16.883  0.1566  0.2327  0.3284
  865MPD2    C312695   3.613   4.233  16.955  0.2933 -0.0491 -0.0411
  865MPD2    C412696   3.606   4.351  16.881 -0.1439  0.8947 -0.1685
  865MPD2    C512697   3.578   4.350  16.751 -0.0895 -0.2613 -0.2057
  865MPD2     H12698   3.631   4.021  16.940 -1.1147  2.3314  4.0369
  865MPD2    H112699   3.605   4.452  16.920 -2.3857  0.6835  0.3382
  865MPD2    H212700   3.554   4.239  16.566 -0.9865 -1.1674  0.1419
  865MPD2    H312701   3.562   4.447  16.703  0.5699  0.8756  1.8712
  865MPD2     N12702   3.634   4.236  17.093  0.3159 -0.9893 -0.2381
  865MPD2    H512703   3.657   4.323  17.141 -0.9466  1.6294 -4.3919
  865MPD2    N112704   3.605   3.996  16.658 -0.0182 -0.3900  0.6946
  865MPD2    H712705   3.597   4.006  16.557  0.5867 -3.1254  0.3655
  866MPD2     C12706   4.615   4.561  11.757  0.8278 -0.1537 -0.0991
  866MPD2    C112707   4.673   4.628  11.646  0.3224 -0.5037 -0.0486
  866MPD2    C212708   4.590   4.684  11.549 -0.4788  0.0772  0.1641
  866MPD2    C312709   4.454   4.674  11.570  0.3098 -0.4904 -0.2726
  866MPD2    C412710   4.410   4.638  11.698 -0.6152  0.2012  0.2012
  866MPD2    C512711   4.486   4.565  11.785 -0.2319 -0.0808 -0.0303
  866MPD2     H12712   4.635   0.010  11.463  0.8297 -0.6501  0.4524
  866MPD2    H112713   4.309   4.649  11.735 -0.2330  2.2961  0.5908
  866MPD2    H212714   4.672   4.533  11.845  2.8802 -1.2618 -1.7559
  866MPD2    H312715   4.448   4.530  11.880  0.4970  1.6120  0.8839
  866MPD2     N12716   4.356   0.007  11.484  0.2335  0.3178 -0.6963
  866MPD2    H512717   4.261   4.707  11.511  0.1979  0.3399 -0.8025
  866MPD2    N112718   0.091   4.625  11.638 -0.2538  0.0108  0.3145
  866MPD2    H712719   0.141   4.574  11.711  1.9296 -3.0952 -3.4008
  867MPD2     C12720   2.657   4.332  17.049  0.0505  0.0853  0.3172
  867MPD2    C112721   2.704   4.239  17.135 -0.3589 -1.0351 -0.1312
  867MPD2    C212722   2.810   4.286  17.219 -0.2098 -0.4841  0.1085
  867MPD2    C312723   2.853   4.413  17.224 -0.0312 -0.5746  0.3058
  867MPD2    C412724   2.788   4.513  17.147 -0.1303  0.5054  0.0186
  867MPD2    C512725   2.699   4.461  17.051 -0.5252 -0.7111  0.2209
  867MPD2     H12726   2.857   4.207  17.276  0.6889  0.2771  0.4166
  867MPD2    H112727   2.822   4.616  17.151 -1.0185  0.8603 -1.8812
  867MPD2    H212728   2.578   4.312  16.977 -2.2578 -1.6250  3.3045
  867MPD2    H312729   2.658   4.538  16.986 -0.2493  0.5391  1.5083
  867MPD2     N12730   2.954   4.459  17.310 -0.1150  0.0397 -0.3641
  867MPD2    H512731   2.965   4.559  17.316  2.3174 -0.3112  0.7921
  867MPD2    N112732   2.652   4.107  17.139 -0.0980  0.1848 -0.3758
  867MPD2    H712733   2.591   4.083  17.061  1.5668  1.9788 -2.2416
  868MPD2     C12734   3.571   3.009  13.681  0.5093  0.4869  1.0369
  868MPD2    C112735   3.564   2.994  13.545 -0.0796  0.1008  0.5132
  868MPD2    C212736   3.450   3.029  13.475  0.3346 -0.5382 -0.4054
  868MPD2    C312737   3.340   3.071  13.544  0.2162 -0.7072 -0.3133
  868MPD2    C412738   3.346   3.098  13.685  0.0105  0.2360  0.2437
  868MPD2    C512739   3.464   3.066  13.747  0.6317 -0.4196  0.1105
  868MPD2     H12740   3.440   3.010  13.369 -2.2254  1.1270 -0.4639
  868MPD2    H112741   3.275   3.141  13.755  0.4680  1.1030  0.1749
  868MPD2    H212742   3.665   2.989  13.732 -0.4110 -0.3647  2.4061
  868MPD2    H312743   3.482   3.097  13.849 -2.6264 -1.3676  0.9590
  868MPD2     N12744   3.220   3.095  13.474 -0.1466  0.1864 -0.3908
  868MPD2    H512745   3.231   3.079  13.374  1.5841  2.1109 -0.5144
  868MPD2    N112746   3.678   2.937  13.482  0.4129 -0.3994 -0.2137
  868MPD2    H712747   3.757   2.909  13.539 -0.2895 -0.2627  0.8220
  869MPD2     C12748   0.663   0.358   2.267 -0.0745  0.7214 -0.1631
  869MPD2    C112749   0.780   0.429   2.248  0.4300  0.1809 -0.7967
  869MPD2    C212750   0.779   0.557   2.197 -0.3696  0.2699  0.5080
  869MPD2    C312751   0.659   0.599   2.138  0.0144  0.1479 -0.0213
  869MPD2    C412752   0.545   0.527   2.160 -0.3750 -0.3840  1.3029
  869MPD2    C512753   0.548   0.412   2.232  0.2092 -1.1335 -0.4686
  869MPD2     H12754   0.868   0.610   2.165  0.4642 -2.3573 -1.5357
  869MPD2    H112755   0.452   0.574   2.130  1.0954  1.9221  0.3232
  869MPD2    H212756   0.672   0.261   2.316 -1.9747  0.1989 -0.8497
  869MPD2    H312757   0.455   0.360   2.250  0.0239 -1.5205 -2.5239
  869MPD2     N12758   0.642   0.711   2.051  0.1148  0.0051  0.3785
  869MPD2    H512759   0.550   0.755   2.048 -0.2813 -0.9069 -0.9678
  869MPD2    N112760   0.906   0.373   2.280  0.1287  0.2968  0.1905
  869MPD2    H712761   0.899   0.277   2.313 -2.0733 -0.2999 -2.0253
  870MPD2     C12762   0.120   3.942   2.158 -0.2835 -0.3990 -0.1675
  870MPD2    C112763   0.245   3.986   2.124 -0.2241 -0.3042  0.2014
  870MPD2    C212764   0.253   4.098   2.048  0.9160  0.4490  0.1634
  870MPD2    C312765   0.142   4.159   2.001  0.8860  0.0787  1.1715
  870MPD2    C412766   0.017   4.118   2.035 -0.3988  0.5626 -0.3385
  870MPD2    C512767   0.006   4.006   2.112 -0.1180 -1.2183  0.1594
  870MPD2     H12768   0.351   4.129   2.012  0.0908  0.0270 -2.4683
  870MPD2    H112769   4.656   4.177   2.000 -1.1098 -0.1962  0.1168
  870MPD2    H212770   0.101   3.869   2.236  0.4877 -1.4670 -0.9744
  870MPD2    H312771   4.636   3.968   2.155  0.0063 -1.9692 -0.2433
  870MPD2     N12772   0.159   4.275   1.924 -0.1439 -0.3852 -0.0534
  870MPD2    H512773   0.240   4.286   1.864 -0.9228 -2.8330 -1.5815
  870MPD2    N112774   0.357   3.922   2.184 -0.3756  0.5230 -0.7511
  870MPD2    H712775   0.342   3.826   2.215  3.1825  1.0720  2.6711
  871MPD2     C12776   1.444   4.028  16.667 -0.5413 -0.1429 -0.0322
  871MPD2    C112777   1.420   3.943  16.771 -0.4948 -0.0609 -0.3035
  871MPD2    C212778   1.421   3.804  16.749  0.3158  0.4043 -1.0335
  871MPD2    C312779   1.435   3.750  16.623  0.2103  0.1359 -0.1202
  871MPD2    C412780   1.441   3.842  16.515  0.2559  0.3653  0.5024
  871MPD2    C512781   1.444   3.972  16.540  0.0964 -0.1778 -0.2332
  871MPD2     H12782   1.425   3.739  16.835  0.3712  0.5595 -0.9202
  871MPD2    H112783   1.442   3.813  16.411 -1.8498 -0.6011  0.7404
  871MPD2    H212784   1.446   4.134  16.690  0.5471 -0.1205 -0.2615
  871MPD2    H312785   1.431   4.046  16.462  1.1951  0.8947  0.6003
  871MPD2     N12786   1.413   3.614  16.596 -0.0303  0.1628  0.3303
  871MPD2    H512787   1.402   3.559  16.681 -1.1825  0.4085  0.3353
  871MPD2    N112788   1.419   3.995  16.899 -0.1192 -0.1719  0.5615
  871MPD2    H712789   1.439   4.094  16.897  0.9589 -0.4656 -3.0256
  872MPD2     C12790   1.824   1.461  14.416 -0.0240  0.0481  0.2049
  872MPD2    C112791   1.745   1.557  14.361 -0.5179  0.1013 -0.6739
  872MPD2    C212792   1.630   1.603  14.421 -0.9729 -0.9494 -0.1291
  872MPD2    C312793   1.595   1.550  14.545 -0.4842  0.1286 -0.1721
  872MPD2    C412794   1.679   1.448  14.597  0.2865 -0.0972  0.1270
  872MPD2    C512795   1.790   1.403  14.538 -0.2464 -0.1528 -0.3657
  872MPD2     H12796   1.567   1.681  14.381  0.4110  0.2312 -0.0132
  872MPD2    H112797   1.661   1.404  14.694 -0.0199  0.8148  0.4847
  872MPD2    H212798   1.920   1.448  14.367 -0.1633  1.6084 -0.4652
  872MPD2    H312799   1.846   1.331  14.596 -0.9221  1.0372  1.7544
  872MPD2     N12800   1.493   1.605  14.628  0.2956 -0.0444 -0.0572
  872MPD2    H512801   1.455   1.551  14.705  0.5825 -1.4234 -0.8821
  872MPD2    N112802   1.782   1.616  14.238 -0.3361  0.2740 -0.0914
  872MPD2    H712803   1.731   1.700  14.214  0.2590  0.8613  0.7160
  873MPD2     C12804   3.330   1.838   1.100 -0.2420  0.1806  0.2108
  873MPD2    C112805   3.362   1.748   1.200 -0.5369 -1.0219  0.5122
  873MPD2    C212806   3.399   1.622   1.161  0.1356 -0.7836  0.9278
  873MPD2    C312807   3.400   1.582   1.029 -1.0360 -0.1870  0.1700
  873MPD2    C412808   3.362   1.676   0.931 -0.8017 -0.2619 -0.2099
  873MPD2    C512809   3.328   1.797   0.966 -0.2419  0.5804  0.6163
  873MPD2     H12810   3.424   1.549   1.236  1.4488 -0.3096  0.9549
  873MPD2    H112811   3.348   1.647   0.827  1.6745 -1.4382 -0.2061
  873MPD2    H212812   3.309   1.938   1.136 -0.3151  1.0729 -2.3418
  873MPD2    H312813   3.292   1.869   0.893  0.3151 -0.4564 -0.6808
  873MPD2     N12814   3.423   1.446   0.994  0.0312 -0.3538  0.3804
  873MPD2    H512815   3.428   1.377   1.069  1.6162 -1.0019 -0.3078
  873MPD2    N112816   3.369   1.794   1.331  0.4793 -0.4225 -0.0517
  873MPD2    H712817   3.336   1.890   1.329 -1.6175 -1.1160  1.2937
  874MPD2     C12818   2.618   1.341  16.290  0.2887  0.1679  0.4853
  874MPD2    C112819   2.689   1.221  16.291 -0.6281  0.1486  0.5205
  874MPD2    C212820   2.811   1.220  16.223  0.1954 -0.0257  0.0776
  874MPD2    C312821   2.860   1.338  16.164  0.2922 -0.0556 -0.7790
  874MPD2    C412822   2.783   1.452  16.163 -0.6331 -0.1943 -0.1634
  874MPD2    C512823   2.654   1.449  16.214 -0.3160 -0.6503  0.0051
  874MPD2     H12824   2.869   1.131  16.204  0.0476  0.6346 -3.5061
  874MPD2    H112825   2.809   1.543  16.110 -3.6826 -0.0504 -1.4217
  874MPD2    H212826   2.517   1.340  16.329 -0.4117  0.8029 -1.3273
  874MPD2    H312827   2.591   1.538  16.211 -1.2635 -1.3377 -0.6517
  874MPD2     N12828   2.992   1.346  16.113 -0.3072  0.0946  0.2768
  874MPD2    H512829   3.047   1.261  16.115  0.0299  0.3644  2.3130
  874MPD2    N112830   2.637   1.115  16.362  0.4046  0.7769  0.1076
  874MPD2    H712831   2.555   1.137  16.418 -0.9203 -1.1770 -1.0827
  875MPD2     C12832   4.623   4.479  14.714  0.0178 -0.0086  0.1646
  875MPD2    C112833   4.517   4.511  14.803 -0.5254 -0.0392 -0.0598
  875MPD2    C212834   4.543   4.564  14.919 -0.3230 -0.4212  0.2563
  875MPD2    C312835   4.667   4.598  14.962 -0.4767  0.3659 -0.2915
  875MPD2    C412836   0.051   4.576  14.876  0.2422 -0.0098  0.4595
  875MPD2    C512837   0.027   4.510  14.755  0.7851  0.1560  0.0266
  875MPD2     H12838   4.459   4.579  14.986 -1.3865  1.0541 -1.3996
  875MPD2    H112839   0.153   4.607  14.896  1.3242 -2.3219 -1.4338
  875MPD2    H212840   4.608   4.449  14.611  0.5447  4.4039 -1.2243
  875MPD2    H312841   0.111   4.507  14.688  0.3628 -0.7300 -0.4570
  875MPD2     N12842   4.689   4.669  15.081  0.0967  0.5103 -0.3471
  875MPD2    H512843   0.057   4.712  15.100  1.8773 -3.9821  1.4162
  875MPD2    N112844   4.377   4.487  14.777  0.0901 -0.5122  0.1067
  875MPD2    H712845   4.311   4.505  14.851 -2.5460 -2.0010 -1.8318
  876MPD2     C12846   3.019   1.103  15.789  0.5175 -0.8462  0.3068
  876MPD2    C112847   3.154   1.109  15.775 -0.6719  0.0949  0.3199
  876MPD2    C212848   3.235   1.017  15.840 -0.0358 -0.5052  0.4359
  876MPD2    C312849   3.179   0.918  15.915 -0.7650 -0.3080  0.6409
  876MPD2    C412850   3.041   0.922  15.927 -0.2620 -0.0178 -0.5814
  876MPD2    C512851   2.967   1.015  15.870 -0.1940  0.2829 -0.0435
  876MPD2     H12852   3.342   1.015  15.827  0.0580 -2.0181  1.5084
  876MPD2    H112853   2.981   0.856  15.988  0.4691  0.8491  1.0656
  876MPD2    H212854   2.963   1.184  15.744 -1.5237 -1.0215  2.5116
  876MPD2    H312855   2.861   1.013  15.891 -0.3119  0.0509 -0.6651
  876MPD2     N12856   3.262   0.825  15.980 -0.2540  0.3943  0.1991
  876MPD2    H512857   3.358   0.816  15.949 -1.2121 -0.5556 -2.4758
  876MPD2    N112858   3.201   1.217  15.695  0.4298  0.1557  0.2185
  876MPD2    H712859   3.133   1.287  15.667 -0.2229 -0.7255 -0.3780
  877MPD2     C12860   3.229   1.500  14.988 -0.1211 -0.2100 -0.3237
  877MPD2    C112861   3.339   1.556  15.050  0.0071 -0.0514  1.2699
  877MPD2    C212862   3.432   1.631  14.981 -0.0115 -0.3631 -0.1177
  877MPD2    C312863   3.426   1.629  14.841  0.3784 -0.1278 -0.2059
  877MPD2    C412864   3.324   1.552  14.785  0.1119 -1.3821  0.2724
  877MPD2    C512865   3.220   1.492  14.855  0.2961  0.3101 -0.3114
  877MPD2     H12866   3.502   1.698  15.030  0.3988 -1.4578  0.8140
  877MPD2    H112867   3.303   1.542  14.679  0.2276  0.2504  0.1018
  877MPD2    H212868   3.141   1.465  15.040  0.4195  1.2465  1.5870
  877MPD2    H312869   3.139   1.434  14.810 -0.5412 -0.6432  2.3936
  877MPD2     N12870   3.519   1.696  14.757 -0.0200 -0.2579  0.2283
  877MPD2    H512871   3.515   1.688  14.656 -1.2582 -1.1282  0.3432
  877MPD2    N112872   3.349   1.562  15.195  0.4756 -0.6417  0.4816
  877MPD2    H712873   3.435   1.598  15.235  0.0976  1.5049 -0.6559
  878MPD2     C12874   3.427   1.672  13.274  0.3497 -0.9878  0.0784
  878MPD2    C112875   3.412   1.570  13.182 -0.3817  0.2438  0.7591
  878MPD2    C212876   3.341   1.454  13.225  0.0721 -0.2078 -0.2352
  878MPD2    C312877   3.306   1.433  13.354  0.0954  0.1754  0.1294
  878MPD2    C412878   3.332   1.535  13.445  0.3116  0.6882 -0.0442
  878MPD2    C512879   3.383   1.649  13.405  0.3572  0.5608  0.1309
  878MPD2     H12880   3.324   1.380  13.147  0.9835  0.8633 -1.4619
  878MPD2    H112881   3.316   1.523  13.551 -1.0026 -0.1701 -0.3440
  878MPD2    H212882   3.488   1.760  13.256  0.8994 -0.9830  2.0079
  878MPD2    H312883   3.401   1.730  13.475 -0.1530  0.7283  0.0686
  878MPD2     N12884   3.231   1.318  13.389  0.3887  0.5896  0.2848
  878MPD2    H512885   3.215   1.253  13.313  0.1482 -0.9121  1.6057
  878MPD2    N112886   3.455   1.605  13.049  0.0618  0.5549  0.3249
  878MPD2    H712887   3.474   1.704  13.036 -1.2650  1.1789  3.0228
  879MPD2     C12888   3.828   2.569  17.460  0.5382  0.0559  0.1671
  879MPD2    C112889   3.830   2.504  17.583  0.7841 -0.4980 -0.1540
  879MPD2    C212890   3.802   2.367  17.593  0.3127  0.8064  0.4479
  879MPD2    C312891   3.767   2.297  17.478 -0.2235 -0.0602 -0.1983
  879MPD2    C412892   3.750   2.368  17.359 -0.1607 -0.3226 -0.4036
  879MPD2    C512893   3.779   2.504  17.348 -0.1793 -0.3430 -0.4337
  879MPD2     H12894   3.809   2.320  17.691 -0.7473  1.3824  0.7983
  879MPD2    H112895   3.715   2.308  17.277 -1.0741 -0.2713 -0.0514
  879MPD2    H212896   3.857   2.673  17.450  0.8528  0.0328  0.9008
  879MPD2    H312897   3.776   2.557  17.254  2.2360  0.6157  0.0259
  879MPD2     N12898   3.736   2.160  17.478 -0.0803  0.5628 -0.7558
  879MPD2    H512899   3.724   2.121  17.385 -3.3204  1.8085 -0.8465
  879MPD2    N112900   3.872   2.590  17.690  0.0917  0.1311 -0.1358
  879MPD2    H712901   3.898   2.684  17.662  3.7739 -0.3792  1.5783
  880MPD2     C12902   0.853   3.829   1.382 -0.2196  0.1527 -0.4388
  880MPD2    C112903   0.899   3.858   1.261  0.1610 -0.1625  0.7591
  880MPD2    C212904   0.952   3.760   1.185  0.3030  0.4882  0.2337
  880MPD2    C312905   0.943   3.632   1.232 -0.0485  0.0910  0.2241
  880MPD2    C412906   0.897   3.602   1.358 -0.8130 -0.2776  0.0623
  880MPD2    C512907   0.845   3.706   1.433  0.9320 -0.1095 -0.3691
  880MPD2     H12908   0.993   3.769   1.085 -1.5417  2.8468 -0.3171
  880MPD2    H112909   0.891   3.504   1.405 -0.4749 -0.7560 -0.8854
  880MPD2    H212910   0.803   3.907   1.439  1.5939  0.5554  0.5838
  880MPD2    H312911   0.805   3.700   1.533 -2.6343  1.1229 -1.7144
  880MPD2     N12912   0.976   3.539   1.137  0.0958  0.4909  0.0164
  880MPD2    H512913   1.019   3.567   1.049 -1.4201  0.5036 -0.7264
  880MPD2    N112914   0.874   3.993   1.212 -0.4361 -0.3740  0.3887
  880MPD2    H712915   0.816   4.060   1.261  0.4021  2.3798 -2.3632
  881MPD2     C12916   0.859   0.095   0.480  0.1146  0.4248 -0.0284
  881MPD2    C112917   0.863   4.683   0.461  0.1884 -1.1187 -0.1894
  881MPD2    C212918   0.859   4.594   0.564  0.6606 -0.5917  0.3459
  881MPD2    C312919   0.878   4.643   0.691 -0.3628  0.4685 -0.1633
  881MPD2    C412920   0.903   0.056   0.710 -0.2077  0.2956 -0.0742
  881MPD2    C512921   0.885   0.148   0.607  0.1264  0.6644 -0.1741
  881MPD2     H12922   0.851   4.488   0.545 -2.2042 -0.3214  0.0396
  881MPD2    H112923   0.926   0.103   0.804 -0.4132 -1.8600  1.0517
  881MPD2    H212924   0.853   0.168   0.400 -0.4178  0.0946 -0.2956
  881MPD2    H312925   0.911   0.253   0.613  0.7580  0.6040 -2.0262
  881MPD2     N12926   0.888   4.561   0.804  0.2872 -0.3971  0.2011
  881MPD2    H512927   0.898   4.615   0.889 -2.5798 -0.3671  0.5428
  881MPD2    N112928   0.831   4.655   0.323  0.3180 -0.0491  0.2755
  881MPD2    H712929   0.817   0.011   0.261  1.3505 -2.7009 -3.3373
  882MPD2     C12930   3.618   1.620  14.028  0.2360  0.1621 -0.4133
  882MPD2    C112931   3.554   1.600  14.146  0.1693  0.0625 -0.6367
  882MPD2    C212932   3.424   1.556  14.147 -0.2317 -0.1111 -0.1084
  882MPD2    C312933   3.357   1.513  14.036 -0.1891  0.1314 -0.5365
  882MPD2    C412934   3.418   1.530  13.912 -0.0075  0.1305  0.3150
  882MPD2    C512935   3.550   1.575  13.910 -0.4052  0.0607  1.0596
  882MPD2     H12936   3.364   1.546  14.236  0.3097 -1.1227  0.1491
  882MPD2    H112937   3.377   1.503  13.816  0.3156 -0.4189  0.3319
  882MPD2    H212938   3.723   1.645  14.031  0.2855  0.2730 -2.6143
  882MPD2    H312939   3.601   1.595  13.817 -3.1384  2.7693  0.1640
  882MPD2     N12940   3.217   1.482  14.035 -0.0583  0.5288  0.6424
  882MPD2    H512941   3.175   1.496  13.944 -1.2440  2.5947  1.4972
  882MPD2    N112942   3.629   1.632  14.258 -0.5394  0.8634  0.6754
  882MPD2    H712943   3.725   1.658  14.235 -0.1098  0.6977  2.3304
  883MPD2     C12944   0.575   1.993  17.012  0.7735  0.0848 -1.1942
  883MPD2    C112945   0.661   1.979  16.906 -0.5562  0.1606  0.1019
  883MPD2    C212946   0.779   1.911  16.922  1.3272 -0.1303  0.8736
  883MPD2    C312947   0.803   1.849  17.045  0.0661  0.9342 -0.7036
  883MPD2    C412948   0.715   1.859  17.150 -0.1069 -1.0791 -0.3367
  883MPD2    C512949   0.607   1.938  17.134  0.3224 -0.4268 -0.1875
  883MPD2     H12950   0.855   1.900  16.846 -0.8007 -1.9756 -0.9752
  883MPD2    H112951   0.719   1.810  17.247  1.3950  1.2582  0.7853
  883MPD2    H212952   0.482   2.049  17.007  0.0352 -1.2428 -2.1207
  883MPD2    H312953   0.538   1.949  17.217  1.7637 -1.1559  1.1038
  883MPD2     N12954   0.907   1.752  17.045  0.6335 -0.3518  0.4309
  883MPD2    H512955   0.961   1.764  16.960  0.5437  0.4580  0.4846
  883MPD2    N112956   0.644   2.034  16.778 -0.0666 -0.0497  0.5311
  883MPD2    H712957   0.717   2.017  16.710 -0.7359 -1.3851  0.1495
  884MPD2     C12958   2.853   2.234  15.722  0.3780 -1.3780 -0.2445
  884MPD2    C112959   2.818   2.364  15.685 -0.7932 -0.6065 -0.2034
  884MPD2    C212960   2.707   2.392  15.622 -0.3416 -0.8016  0.1419
  884MPD2    C312961   2.620   2.288  15.593 -0.1096 -0.3635  0.3690
  884MPD2    C412962   2.644   2.159  15.637 -0.9277  0.0746 -0.0435
  884MPD2    C512963   2.770   2.134  15.697 -0.6773  0.4476 -0.2374
  884MPD2     H12964   2.680   2.494  15.600 -0.8858 -0.8665  0.5063
  884MPD2    H112965   2.581   2.071  15.631 -0.2615 -0.3278 -1.3620
  884MPD2    H212966   2.945   2.206  15.772  0.4962 -1.3713 -0.4603
  884MPD2    H312967   2.789   2.035  15.735 -1.1100  0.4894  0.0841
  884MPD2     N12968   2.503   2.326  15.527  0.1953  0.0442  0.5130
  884MPD2    H512969   2.490   2.423  15.500  1.8641  0.4739  1.3135
  884MPD2    N112970   2.894   2.478  15.707  0.2737  0.1882 -0.6534
  884MPD2    H712971   2.865   2.565  15.663 -0.3766  0.5629  0.5118
  885MPD2     C12972   1.461   2.595   0.728  1.1514 -0.1524  0.2112
  885MPD2    C112973   1.429   2.469   0.675  0.0200 -0.4002 -1.0359
  885MPD2    C212974   1.359   2.462   0.558 -0.2653 -0.2176  0.3987
  885MPD2    C312975   1.298   2.576   0.502  0.5856  0.0438  0.3193
  885MPD2    C412976   1.327   2.697   0.560  0.2999  0.1005 -0.7010
  885MPD2    C512977   1.402   2.704   0.667 -0.3467  1.0273  0.5773
  885MPD2     H12978   1.325   2.370   0.512 -2.1182  0.2850  0.7689
  885MPD2    H112979   1.298   2.795   0.524  0.6320 -0.2360 -1.8946
  885MPD2    H212980   1.517   2.607   0.820  1.1814  0.8494  0.0681
  885MPD2    H312981   1.427   2.804   0.700 -0.7799  0.8845  1.3576
  885MPD2     N12982   1.199   2.561   0.401  0.3331 -0.3582 -0.3516
  885MPD2    H512983   1.159   2.468   0.393 -2.5812  0.7523  1.3317
  885MPD2    N112984   1.469   2.357   0.751 -0.2025  0.4906  0.0536
  885MPD2    H712985   1.518   2.374   0.838  0.2183  0.5559 -0.1967
  886MPD2     C12986   1.663   0.823  15.388  0.2451 -0.4391 -0.6636
  886MPD2    C112987   1.801   0.825  15.413  0.2601  0.3858 -0.2480
  886MPD2    C212988   1.898   0.882  15.326  0.6353  0.3282 -0.0060
  886MPD2    C312989   1.852   0.936  15.207  0.5522 -0.3579  0.0878
  886MPD2    C412990   1.714   0.944  15.187 -0.1718 -0.3495  0.8738
  886MPD2    C512991   1.621   0.892  15.279  0.6473 -0.0613  0.6923
  886MPD2     H12992   2.003   0.887  15.352  0.8588 -2.0229 -0.4150
  886MPD2    H112993   1.675   0.993  15.098  2.7561  1.1796  0.4286
  886MPD2    H212994   1.588   0.786  15.457  0.9310  2.1842  1.5286
  886MPD2    H312995   1.516   0.905  15.259  0.6913 -1.2275 -0.3303
  886MPD2     N12996   1.943   0.995  15.107  0.1643 -0.0498 -0.1892
  886MPD2    H512997   1.906   1.022  15.017 -1.7708  0.9117  0.9111
  886MPD2    N112998   1.856   0.752  15.521 -0.3795  1.0651  0.0708
  886MPD2    H712999   1.957   0.757  15.526 -0.3216 -1.3067  0.9134
  887MPD2     C13000   2.513   0.552  15.656 -0.1535  0.3053 -0.4248
  887MPD2    C113001   2.411   0.646  15.662  0.6203 -0.2182 -1.2090
  887MPD2    C213002   2.428   0.772  15.622 -0.2725  0.0122 -0.0434
  887MPD2    C313003   2.562   0.821  15.608 -0.1600  0.4030  0.5680
  887MPD2    C413004   2.667   0.732  15.615  0.4835  0.0437 -0.4708
  887MPD2    C513005   2.641   0.601  15.622 -0.7789 -0.4449 -0.2452
  887MPD2     H13006   2.343   0.839  15.620 -1.0702 -1.0028 -0.0981
  887MPD2    H113007   2.770   0.767  15.617  0.7468 -0.7121 -0.8633
  887MPD2    H213008   2.498   0.445  15.668 -0.9315  0.7766  2.7408
  887MPD2    H313009   2.727   0.536  15.631  0.1502  0.6944 -1.0384
  887MPD2     N13010   2.580   0.960  15.613  0.3473  0.4394 -0.1015
  887MPD2    H513011   2.494   1.014  15.618  0.3055  0.4424 -0.8535
  887MPD2    N113012   2.281   0.604  15.666  0.0458  0.3332  0.4506
  887MPD2    H713013   2.221   0.686  15.662 -2.5822 -1.6335 -0.0947
  888MPD2     C13014   4.428   1.401  14.920  0.4811 -0.4070  0.0878
  888MPD2    C113015   4.439   1.377  15.059  0.2571 -0.0658 -0.4518
  888MPD2    C213016   4.500   1.473  15.134  0.8938 -0.4868  0.3475
  888MPD2    C313017   4.561   1.588  15.085 -0.0389  0.6781 -0.3922
  888MPD2    C413018   4.553   1.614  14.951 -0.0025  0.0744  0.2649
  888MPD2    C513019   4.495   1.515  14.876  0.2065 -0.2108 -0.4165
  888MPD2     H13020   4.505   1.455  15.241  2.5258 -1.5007  0.0978
  888MPD2    H113021   4.596   1.695  14.893 -1.0001 -1.9542 -3.3523
  888MPD2    H213022   4.404   1.328  14.843  2.8507 -0.0685 -0.9770
  888MPD2    H313023   4.527   1.515  14.772  0.3552  2.4199 -0.3722
  888MPD2     N13024   4.642   1.668  15.169  0.0944  0.8694 -0.1719
  888MPD2    H513025   4.634   1.655  15.269  2.6549 -1.7638 -0.2972
  888MPD2    N113026   4.382   1.270  15.135  0.8350  0.1003 -0.0492
  888MPD2    H713027   4.392   1.267  15.236 -0.9417 -0.8536  0.1077
  889MPD2     C13028   3.865   0.285  13.222  0.1200  0.4315 -0.3240
  889MPD2    C113029   3.963   0.326  13.314 -0.2376 -0.6092 -0.1936
  889MPD2    C213030   3.956   0.462  13.351 -0.1779 -0.5961  0.0624
  889MPD2    C313031   3.875   0.552  13.288 -0.5621 -0.3873 -0.1115
  889MPD2    C413032   3.788   0.502  13.195 -0.3320 -0.2311  0.8985
  889MPD2    C513033   3.790   0.374  13.165  0.4878  0.5848  0.1627
  889MPD2     H13034   4.027   0.497  13.425 -0.2087 -0.0060 -0.1959
  889MPD2    H113035   3.715   0.566  13.147 -0.2727 -1.4693 -0.8184
  889MPD2    H213036   3.853   0.178  13.208  1.2709  0.3104 -0.3435
  889MPD2    H313037   3.706   0.350  13.100  0.1205  0.9416  0.5016
  889MPD2     N13038   3.865   0.686  13.334  0.0531  0.1111  0.0169
  889MPD2    H513039   3.931   0.717  13.405  0.0791  3.1352 -1.3090
  889MPD2    N113040   4.006   0.221  13.397  0.4077 -0.9525 -0.5495
  889MPD2    H713041   3.976   0.127  13.372 -3.9371  0.6857 -1.4235
  890MPD2     C13042   2.768   2.569  14.797  0.4361 -0.3953 -0.4130
  890MPD2    C113043   2.881   2.630  14.840  0.1283 -0.0106  0.4084
  890MPD2    C213044   2.949   2.579  14.956  0.1012 -0.2731 -0.0397
  890MPD2    C313045   2.900   2.468  15.025  0.2212 -0.1607  0.3049
  890MPD2    C413046   2.783   2.415  14.982 -0.3148  0.3919 -0.0168
  890MPD2    C513047   2.719   2.473  14.871  0.0568 -0.4018 -0.2122
  890MPD2     H13048   3.032   2.631  15.002 -1.6714  0.9115  1.8182
  890MPD2    H113049   2.733   2.332  15.031 -0.5932  0.1945 -0.6323
  890MPD2    H213050   2.703   2.607  14.720  0.1176 -0.5986 -0.2426
  890MPD2    H313051   2.627   2.427  14.837  0.7052 -2.2429  0.5253
  890MPD2     N13052   2.973   2.426  15.141  0.6164 -1.1847 -0.1490
  890MPD2    H513053   3.057   2.477  15.166 -0.5399 -0.1674  1.6168
  890MPD2    N113054   2.922   2.753  14.781  0.3339  0.3505 -0.4601
  890MPD2    H713055   2.861   2.784  14.706 -1.9579  1.2306  1.7610
  891MPD2     C13056   1.444   0.823  16.791 -0.3620 -0.1962  0.2213
  891MPD2    C113057   1.377   0.790  16.902 -0.4163 -0.1673 -0.3977
  891MPD2    C213058   1.443   0.738  17.003 -0.9339  0.1974 -0.4792
  891MPD2    C313059   1.581   0.714  17.006  0.5248  0.3823  0.6863
  891MPD2    C413060   1.653   0.747  16.891 -0.1683 -0.8567  0.0253
  891MPD2    C513061   1.579   0.792  16.781  0.3970  0.2953  0.1477
  891MPD2     H13062   1.394   0.714  17.097 -0.3623 -3.2102 -1.0467
  891MPD2    H113063   1.761   0.742  16.885 -0.1452  0.7832 -0.9890
  891MPD2    H213064   1.392   0.861  16.703  0.1886  0.1303  0.0412
  891MPD2    H313065   1.645   0.814  16.697  1.4447 -3.1155  0.0956
  891MPD2     N13066   1.648   0.695  17.131  0.4535 -0.4135  0.0219
  891MPD2    H513067   1.600   0.703  17.221  0.2240 -0.3117 -0.1101
  891MPD2    N113068   1.237   0.826  16.901  0.2555  0.7600 -0.3546
  891MPD2    H713069   1.206   0.898  16.836  1.1750  0.5564 -1.0287
  892MPD2     C13070   2.603   1.509  14.876 -0.0917 -0.3648 -1.0291
  892MPD2    C113071   2.528   1.544  14.764 -0.1335 -0.3044 -0.8003
  892MPD2    C213072   2.589   1.566  14.640 -0.0921 -0.0092 -0.3975
  892MPD2    C313073   2.723   1.542  14.626  0.2117 -0.1238  0.1770
  892MPD2    C413074   2.799   1.507  14.739 -0.3674  0.6430 -0.4032
  892MPD2    C513075   2.738   1.487  14.864 -1.1543 -0.6764  0.0913
  892MPD2     H13076   2.524   1.602  14.561 -0.3887  0.4850  0.0817
  892MPD2    H113077   2.905   1.484  14.734 -0.3144  0.7413  0.2406
  892MPD2    H213078   2.553   1.485  14.969  0.8175 -0.3114 -0.5267
  892MPD2    H313079   2.805   1.458  14.945 -1.3769 -2.9192 -0.5169
  892MPD2     N13080   2.795   1.557  14.504  0.0954  0.3375  0.8144
  892MPD2    H513081   2.896   1.548  14.502  0.1135 -0.1012  4.1648
  892MPD2    N113082   2.391   1.584  14.780 -0.1810 -0.0307 -0.5078
  892MPD2    H713083   2.353   1.624  14.695  0.5694 -0.2400 -0.9455
  893MPD2     C13084   4.568   4.112   2.443 -0.1523  0.2734  0.5276
  893MPD2    C113085   4.690   4.062   2.467 -0.3924  0.1638  0.2300
  893MPD2    C213086   4.706   3.948   2.542  0.1644  0.3258  0.3842
  893MPD2    C313087   4.593   3.878   2.581 -0.3798  0.1903 -0.3902
  893MPD2    C413088   4.471   3.926   2.548 -0.0627 -0.2023  0.6056
  893MPD2    C513089   4.457   4.047   2.481 -0.0726  0.4255  0.2497
  893MPD2     H13090   0.081   3.909   2.568 -0.8706 -1.7840  1.0776
  893MPD2    H113091   4.375   3.880   2.569  0.2698 -1.3551 -0.3209
  893MPD2    H213092   4.558   4.205   2.387 -0.9138  0.1787  0.4974
  893MPD2    H313093   4.361   4.082   2.445 -0.1266 -0.0411 -0.0682
  893MPD2     N13094   4.598   3.751   2.633  0.0720  0.3604  0.1862
  893MPD2    H513095   4.506   3.708   2.639  0.3154 -0.0903  0.6269
  893MPD2    N113096   0.075   4.146   2.439  0.2010 -0.1336  0.0637
  893MPD2    H713097   0.060   4.223   2.375 -0.7401 -0.3355  0.0387
  894MPD2     C13098   2.238   2.275   1.420 -0.5508  0.3600 -0.9201
  894MPD2    C113099   2.203   2.410   1.429 -0.0074  0.1339 -0.4501
  894MPD2    C213100   2.273   2.504   1.353  0.0330  0.6908  0.3639
  894MPD2    C313101   2.368   2.457   1.262 -0.3765 -0.4659  0.0760
  894MPD2    C413102   2.402   2.326   1.254 -0.1503 -0.4620  0.1055
  894MPD2    C513103   2.349   2.243   1.345  0.5799 -0.1050 -0.1119
  894MPD2     H13104   2.246   2.609   1.360 -3.8042 -0.2663  0.2049
  894MPD2    H113105   2.472   2.297   1.177  0.3671 -0.1697  0.4734
  894MPD2    H213106   2.189   2.197   1.478 -0.0484  0.6898 -0.0623
  894MPD2    H313107   2.381   2.139   1.341  0.2344 -0.2476  0.8330
  894MPD2     N13108   2.422   2.552   1.169 -0.2048 -0.1864  0.2950
  894MPD2    H513109   2.428   2.649   1.198 -0.2102  0.0449 -0.4807
  894MPD2    N113110   2.105   2.459   1.514 -0.1599 -0.4252  0.3102
  894MPD2    H713111   2.067   2.548   1.483  1.6128  1.0015  2.1919
  895MPD2     C13112   1.769   1.561  13.640 -0.1919  0.1256 -0.0011
  895MPD2    C113113   1.695   1.497  13.545 -0.1818  0.2633  0.6229
  895MPD2    C213114   1.751   1.396  13.476  0.0896  0.3692  0.2527
  895MPD2    C313115   1.872   1.348  13.508  1.2196 -0.1362  0.4256
  895MPD2    C413116   1.951   1.415  13.605 -0.1235  0.2476  0.2306
  895MPD2    C513117   1.896   1.518  13.674 -0.2679 -0.4809  0.9260
  895MPD2     H13118   1.687   1.342  13.407  0.4869  0.1156  0.0848
  895MPD2    H113119   2.053   1.382  13.621  0.1769  0.4421 -1.2360
  895MPD2    H213120   1.742   1.653  13.690  1.1566 -0.9014  2.5988
  895MPD2    H313121   1.947   1.564  13.758 -0.7327 -2.0256  2.0512
  895MPD2     N13122   1.917   1.226  13.446  0.2923  0.0485  0.1458
  895MPD2    H513123   1.858   1.188  13.372  0.1018 -0.3263  0.4917
  895MPD2    N113124   1.556   1.536  13.516 -0.4692  1.4456  0.0615
  895MPD2    H713125   1.498   1.477  13.458 -0.9616  0.2069  1.8045
  896MPD2     C13126   4.029   3.257   2.653 -0.2176 -0.0459 -0.4621
  896MPD2    C113127   4.059   3.224   2.523 -0.0017  0.9449 -0.3925
  896MPD2    C213128   3.953   3.210   2.437 -0.2233  0.3479  0.0464
  896MPD2    C313129   3.825   3.224   2.474 -0.8123 -0.8533  1.0345
  896MPD2    C413130   3.793   3.244   2.605  0.0215  0.3987 -0.1639
  896MPD2    C513131   3.899   3.248   2.695 -0.8410 -0.2156 -0.3386
  896MPD2     H13132   3.975   3.178   2.336  2.3122  0.1558  0.6614
  896MPD2    H113133   3.693   3.244   2.646  0.2952 -0.2974  0.5044
  896MPD2    H213134   4.104   3.280   2.728 -0.1366 -0.2428 -0.4828
  896MPD2    H313135   3.868   3.278   2.795 -0.2895  2.4716 -0.9855
  896MPD2     N13136   3.726   3.214   2.368  0.2353 -0.3831  0.3625
  896MPD2    H513137   3.765   3.185   2.279  3.8019 -2.9810  2.7431
  896MPD2    N113138   4.194   3.229   2.480 -0.0821  0.4192  0.7314
  896MPD2    H713139   4.261   3.246   2.554 -0.7667 -0.5631  1.5862
  897MPD2     C13140   0.362   0.162  10.737  0.1277 -1.0528 -0.3596
  897MPD2    C113141   0.336   0.297  10.712 -0.1699 -0.2922 -0.4023
  897MPD2    C213142   0.237   0.352  10.795 -0.1841  0.4376 -0.1047
  897MPD2    C313143   0.182   0.284  10.900  0.0617  0.0328 -0.1146
  897MPD2    C413144   0.224   0.156  10.930  0.3725  0.3396  1.0511
  897MPD2    C513145   0.305   0.095  10.839  0.1852  0.2356  0.2061
  897MPD2     H13146   0.205   0.455  10.785  1.7018  1.1203  0.8751
  897MPD2    H113147   0.194   0.094  11.014 -2.4896 -1.2783 -1.1316
  897MPD2    H213148   0.431   0.110  10.672 -1.7231  0.4476 -3.5354
  897MPD2    H313149   0.314   4.710  10.832  2.4485  0.5070 -0.9582
  897MPD2     N13150   0.080   0.339  10.986  0.1940 -0.0637 -0.8546
  897MPD2    H513151   0.049   0.268  11.052  0.7853  1.4885  1.0857
  897MPD2    N113152   0.409   0.367  10.615  0.5210 -0.0095  0.2461
  897MPD2    H713153   0.492   0.321  10.579 -0.1679 -0.3720 -0.9008
  898MPD2     C13154   1.783   1.330   0.189 -0.1598 -0.3303 -0.8846
  898MPD2    C113155   1.890   1.298   0.107  0.1954  0.0488 -0.4549
  898MPD2    C213156   1.914   1.399   0.006 -0.4995  0.3377  0.1377
  898MPD2    C313157   1.828   1.512  17.692  0.4391  0.4967 -0.7736
  898MPD2    C413158   1.712   1.531   0.080 -0.1612  0.2187 -0.4690
  898MPD2    C513159   1.695   1.437   0.178 -0.4667 -0.4021 -0.0003
  898MPD2     H13160   1.996   1.398  17.629 -1.0453  1.5321 -0.5281
  898MPD2    H113161   1.647   1.618   0.073 -1.3961 -0.5504  1.3782
  898MPD2    H213162   1.774   1.259   0.271  0.9365  0.9730  0.3780
  898MPD2    H313163   1.622   1.477   0.247  0.0271 -0.2942  0.4635
  898MPD2     N13164   1.857   1.592  17.588  0.6169  0.2131  0.1103
  898MPD2    H513165   1.931   1.573  17.522  2.0780  0.9291  1.5375
  898MPD2    N113166   1.984   1.194   0.118  0.3689 -0.2924  0.3283
  898MPD2    H713167   2.066   1.189   0.059  2.2161  0.2044  2.8234
  899MPD2     C13168   3.308   1.864  17.434 -0.0561 -0.1720  0.6165
  899MPD2    C113169   3.339   1.957  17.532 -0.4558 -0.0050  0.5684
  899MPD2    C213170   3.312   1.933  17.664  1.0868 -0.3548 -0.6521
  899MPD2    C313171   3.240   1.823   0.010 -0.1449 -0.4070  0.0225
  899MPD2    C413172   3.196   1.743  17.600 -0.0223  0.5764  0.7453
  899MPD2    C513173   3.244   1.746  17.471  0.4803  0.2720  0.2975
  899MPD2     H13174   3.353   1.998   0.047  1.9063 -0.7738 -0.7358
  899MPD2    H113175   3.150   1.650  17.631  2.2146 -0.5329  0.7814
  899MPD2    H213176   3.334   1.879  17.330 -1.7662  0.3415  0.2579
  899MPD2    H313177   3.217   1.667  17.402  2.1287  1.4379 -1.6849
  899MPD2     N13178   3.199   1.794   0.140 -0.6097  1.0037  0.1228
  899MPD2    H513179   3.119   1.733   0.150 -2.1056  2.8554 -0.7300
  899MPD2    N113180   3.391   2.080  17.476  0.7644 -0.0892  0.1180
  899MPD2    H713181   3.402   2.090  17.375  0.8802 -0.6382  0.0732
  900MPD2     C13182   2.407   3.937  12.926  0.7089  0.9525  0.4181
  900MPD2    C113183   2.322   3.854  12.855  0.3726 -0.0848  0.4518
  900MPD2    C213184   2.226   3.900  12.768  0.2332  0.1625  0.2876
  900MPD2    C313185   2.197   4.034  12.769  0.0933  0.1048  0.2133
  900MPD2    C413186   2.272   4.118  12.848 -0.2239  0.2960 -0.2005
  900MPD2    C513187   2.379   4.073  12.924  0.3503  0.2298  0.2254
  900MPD2     H13188   2.166   3.830  12.710  0.3855 -1.2838  1.8755
  900MPD2    H113189   2.252   4.224  12.857 -0.0330  0.4860 -1.8857
  900MPD2    H213190   2.495   3.896  12.975 -0.4024 -0.1450  1.4717
  900MPD2    H313191   2.454   4.137  12.969 -1.3169  2.8273 -0.7426
  900MPD2     N13192   2.086   4.071  12.689 -0.4479  0.3167 -0.7217
  900MPD2    H513193   2.033   4.001  12.639 -0.9632 -0.3296  0.7656
  900MPD2    N113194   2.362   3.722  12.865  0.1568  0.0960 -0.3000
  900MPD2    H713195   2.446   3.701  12.918  1.0994  2.6077 -0.8006
  901MPD2     C13196   2.187   2.632  12.992  0.3416 -0.0934 -0.1087
  901MPD2    C113197   2.272   2.642  12.887  0.2891  0.2327  0.4372
  901MPD2    C213198   2.299   2.766  12.832 -0.3401  0.0982 -0.1388
  901MPD2    C313199   2.250   2.881  12.890  0.4706 -0.1377  0.3073
  901MPD2    C413200   2.158   2.868  12.993  0.3234 -0.4112  0.1384
  901MPD2    C513201   2.117   2.744  13.032 -0.3393  1.3795 -0.1767
  901MPD2     H13202   2.349   2.786  12.738  0.8986 -2.1333  0.0391
  901MPD2    H113203   2.094   2.948  13.029  0.1399 -0.3347 -0.3510
  901MPD2    H213204   2.152   2.536  13.028 -0.1513 -1.1244 -3.3530
  901MPD2    H313205   2.031   2.733  13.097 -0.6695 -0.7735 -0.9571
  901MPD2     N13206   2.282   3.019  12.845  0.1529  0.0070 -0.3905
  901MPD2    H513207   2.349   3.013  12.769  0.8343 -2.1437  0.3480
  901MPD2    N113208   2.328   2.525  12.829  0.3050 -0.1374  0.6016
  901MPD2    H713209   2.290   2.437  12.860  0.7042 -0.5549 -0.0751
  902MPD2     C13210   0.676   1.505  12.928  0.4736  0.5158 -0.2388
  902MPD2    C113211   0.672   1.602  12.829 -0.2024 -0.0205 -0.4865
  902MPD2    C213212   0.737   1.592  12.707  0.1703  0.2495  0.6072
  902MPD2    C313213   0.794   1.472  12.680 -0.4105  0.4009 -0.3393
  902MPD2    C413214   0.783   1.366  12.769  0.5885  0.9836 -0.3658
  902MPD2    C513215   0.736   1.383  12.899  0.8252  0.3147 -0.2716
  902MPD2     H13216   0.749   1.677  12.642  0.0556  1.0084  1.5702
  902MPD2    H113217   0.835   1.273  12.747  1.9447  0.9709  2.8439
  902MPD2    H213218   0.636   1.526  13.026  1.6183 -0.4584  0.4367
  902MPD2    H313219   0.734   1.305  12.974  1.2459  2.1311  1.6332
  902MPD2     N13220   0.853   1.447  12.551 -0.3980 -0.1280  0.5620
  902MPD2    H513221   0.870   1.351  12.522 -1.7663 -0.2311  0.1261
  902MPD2    N113222   0.629   1.728  12.872  0.4359  0.4483  0.0247
  902MPD2    H713223   0.609   1.742  12.971  2.0599  1.0984  0.2495
  903MPD2     C13224   0.874   1.093  11.762 -0.2589 -0.4326 -1.0028
  903MPD2    C113225   0.844   1.085  11.898 -0.3435  0.8776 -0.5487
  903MPD2    C213226   0.759   0.985  11.941  0.0466 -0.2555  0.1066
  903MPD2    C313227   0.694   0.908  11.850  0.0365 -0.2677 -0.0813
  903MPD2    C413228   0.732   0.906  11.714  0.2510  0.6041 -0.3262
  903MPD2    C513229   0.821   1.005  11.674 -0.2927  0.3707 -1.2866
  903MPD2     H13230   0.721   0.987  12.042  0.5815 -0.6426  0.3180
  903MPD2    H113231   0.690   0.838  11.640 -1.2575  1.2109 -0.0306
  903MPD2    H213232   0.947   1.167  11.731 -1.9376  1.0028 -1.5244
  903MPD2    H313233   0.852   0.998  11.571  1.8679 -3.4268 -0.3881
  903MPD2     N13234   0.596   0.827  11.903 -0.3197 -0.3062  0.0937
  903MPD2    H513235   0.569   0.841  11.999 -0.2971  0.2619  0.0145
  903MPD2    N113236   0.892   1.189  11.982 -0.4683  0.4332  0.4735
  903MPD2    H713237   0.958   1.253  11.939  0.0838 -0.5580 -0.1538
  904MPD2     C13238   1.569   0.988  13.655 -0.9074  0.5552  0.3306
  904MPD2    C113239   1.536   0.901  13.760 -0.0944  0.2616  0.5891
  904MPD2    C213240   1.624   0.869  13.866  0.2740  0.2061  0.2872
  904MPD2    C313241   1.746   0.937  13.868 -0.3444 -0.4759  0.1969
  904MPD2    C413242   1.779   1.029  13.769  0.1226  0.2403 -0.0128
  904MPD2    C513243   1.689   1.050  13.670  0.1835  0.4505 -0.8849
  904MPD2     H13244   1.595   0.799  13.943  1.6657  1.5455  2.0183
  904MPD2    H113245   1.866   1.094  13.775  1.7373 -2.0483  1.8707
  904MPD2    H213246   1.508   1.017  13.570 -2.9266  0.5465  1.7697
  904MPD2    H313247   1.714   1.114  13.586 -1.0762  2.0060 -0.0646
  904MPD2     N13248   1.839   0.907  13.975 -0.1559 -0.9471 -0.6412
  904MPD2    H513249   1.804   0.842  14.045 -1.0915  1.3460  1.0002
  904MPD2    N113250   1.404   0.855  13.764 -0.0885 -0.1985 -0.3897
  904MPD2    H713251   1.366   0.824  13.852  1.1208 -1.8543 -0.4568
  905MPD2     C13252   1.363   1.065  13.087 -0.0208  1.1369  0.2102
  905MPD2    C113253   1.381   1.003  13.209 -0.1234 -0.1008 -0.1537
  905MPD2    C213254   1.503   0.951  13.244 -1.0085 -0.7946 -0.0287
  905MPD2    C313255   1.605   0.953  13.150  0.3542 -0.0862  0.0041
  905MPD2    C413256   1.589   1.008  13.025 -0.5464 -0.0375  0.0039
  905MPD2    C513257   1.467   1.069  12.998  1.0869 -0.4901 -0.2040
  905MPD2     H13258   1.512   0.903  13.341 -3.2000 -3.9124 -1.3340
  905MPD2    H113259   1.670   1.007  12.954  0.6830 -0.1064  1.4017
  905MPD2    H213260   1.268   1.096  13.046  1.1722  1.9508 -1.9194
  905MPD2    H313261   1.443   1.102  12.898  1.6222 -2.2823 -0.9264
  905MPD2     N13262   1.739   0.918  13.188  0.1030  0.1087  0.2708
  905MPD2    H513263   1.815   0.942  13.125 -0.0228  1.8817  0.7888
  905MPD2    N113264   1.286   0.968  13.303  0.1755 -0.0324 -0.0916
  905MPD2    H713265   1.323   0.919  13.384 -0.1535  0.1075  0.1430
  906MPD2     C13266   3.361   0.798  11.307  0.1594  0.1483 -0.9177
  906MPD2    C113267   3.325   0.682  11.245  0.5346  0.0057 -0.3797
  906MPD2    C213268   3.218   0.617  11.297  0.3712 -0.5706  0.0505
  906MPD2    C313269   3.151   0.664  11.406 -0.4488  0.0240  0.2016
  906MPD2    C413270   3.205   0.771  11.483  0.1521  0.6020 -0.1978
  906MPD2    C513271   3.311   0.840  11.425  0.2003 -0.2609 -0.3777
  906MPD2     H13272   3.185   0.533  11.237  2.0357 -1.3510  0.2243
  906MPD2    H113273   3.158   0.807  11.574 -0.5538  0.6259 -0.5634
  906MPD2    H213274   3.443   0.858  11.270  1.4815  0.6425  2.7440
  906MPD2    H313275   3.345   0.932  11.471 -1.2750 -0.3601  0.9284
  906MPD2     N13276   3.039   0.586  11.452 -0.0666 -0.1295  0.4405
  906MPD2    H513277   2.993   0.621  11.536  0.8730 -0.2178  0.9968
  906MPD2    N113278   3.380   0.638  11.123 -0.4703  0.3173 -0.3098
  906MPD2    H713279   3.344   0.548  11.094  0.9628  0.5118 -2.6785
  907MPD2     C13280   2.559   4.549  15.796 -0.7510 -0.2998  0.1479
  907MPD2    C113281   2.611   4.420  15.777  0.3790 -0.3824 -0.7554
  907MPD2    C213282   2.650   4.345  15.891 -0.0430 -0.0345  0.0561
  907MPD2    C313283   2.659   4.410  16.013 -0.6381  0.2449 -0.5312
  907MPD2    C413284   2.630   4.543  16.020  0.0200 -0.1197  0.0421
  907MPD2    C513285   2.581   4.613  15.914  0.6859  0.4566  0.4080
  907MPD2     H13286   2.681   4.241  15.894  0.4302  0.1127  0.3261
  907MPD2    H113287   2.633   4.610  16.106 -0.4601  1.0753 -0.8736
  907MPD2    H213288   2.511   4.607  15.719  0.0243  2.4673  1.7263
  907MPD2    H313289   2.547   4.715  15.927 -2.1810 -0.3986 -0.4200
  907MPD2     N13290   2.700   4.346  16.135 -0.0504 -0.2106 -0.0572
  907MPD2    H513291   2.719   4.247  16.120 -1.2140  0.0420 -3.3028
  907MPD2    N113292   2.610   4.354  15.648 -0.2280  0.5003  0.4314
  907MPD2    H713293   2.634   4.256  15.641  0.5436  0.5892  1.7454
  908MPD2     C13294   0.804   0.223   9.784 -0.5281  0.0219 -0.5088
  908MPD2    C113295   0.705   0.150   9.855  0.1948 -0.0481  0.6505
  908MPD2    C213296   0.652   0.209   9.970  0.1947  0.4623 -0.3934
  908MPD2    C313297   0.690   0.337  10.007  0.2911 -0.4063  0.5693
  908MPD2    C413298   0.796   0.398   9.945 -0.1646  0.3867  0.1780
  908MPD2    C513299   0.848   0.342   9.832 -0.5829  0.0932 -0.0429
  908MPD2     H13300   0.580   0.158  10.034  2.4561 -1.4068  0.6451
  908MPD2    H113301   0.838   0.492   9.980  0.3523 -0.0246  0.6541
  908MPD2    H213302   0.846   0.187   9.691  0.3944 -2.0030  0.6861
  908MPD2    H313303   0.925   0.392   9.774 -0.0055 -2.1789 -1.2048
  908MPD2     N13304   0.618   0.393  10.119  0.2700  0.1239 -0.1492
  908MPD2    H513305   0.550   0.340  10.172  2.2225  0.3313  2.5974
  908MPD2    N113306   0.684   0.016   9.820 -0.2831 -0.2224  0.2452
  908MPD2    H713307   0.741   4.697   9.747  1.4801  2.6486 -0.0325
  909MPD2     C13308   0.188   3.302  12.029 -0.8656  0.5594  0.8876
  909MPD2    C113309   0.124   3.375  11.932  0.2004 -0.2492  0.2550
  909MPD2    C213310   0.008   3.443  11.962 -1.0642 -0.1509 -0.2854
  909MPD2    C313311   4.668   3.439  12.084 -0.0400  0.3005  0.2970
  909MPD2    C413312   0.008   3.365  12.186 -0.1655  0.7655  0.7871
  909MPD2    C513313   0.126   3.302  12.155 -0.5002 -0.9444  0.1622
  909MPD2     H13314   4.675   3.495  11.884 -0.8542  0.4055 -0.0652
  909MPD2    H113315   4.693   3.354  12.287 -0.9626  0.3030  0.4388
  909MPD2    H213316   0.274   3.237  12.016 -1.8178  0.2737 -3.9395
  909MPD2    H313317   0.181   3.258  12.238  0.2130  3.2858  1.9709
  909MPD2     N13318   4.558   3.512  12.113  0.3427  0.0092  0.4721
  909MPD2    H513319   4.516   3.576  12.046 -0.5668 -2.4914 -1.3412
  909MPD2    N113320   0.169   3.383  11.799  0.0836  0.2410  0.2693
  909MPD2    H713321   0.125   3.451  11.737 -1.3525 -0.5852  0.3901
  910MPD2     C13322   1.679   0.262  15.836  0.1480 -0.7061  0.1095
  910MPD2    C113323   1.797   0.248  15.764  0.0974  0.0923  0.4639
  910MPD2    C213324   1.804   0.297  15.635  0.4641 -0.6413 -0.3645
  910MPD2    C313325   1.691   0.363  15.579 -0.3205 -0.2816  0.3691
  910MPD2    C413326   1.578   0.384  15.657 -0.2241 -0.2571 -0.0205
  910MPD2    C513327   1.572   0.332  15.786  0.2466  0.0246 -0.3832
  910MPD2     H13328   1.894   0.277  15.578 -0.4582  2.2583 -2.8486
  910MPD2    H113329   1.494   0.445  15.627 -1.6594 -2.0036  0.4531
  910MPD2    H213330   1.662   0.236  15.940  2.4728 -0.3851  0.5753
  910MPD2    H313331   1.489   0.360  15.849  1.5942 -0.3855  1.5704
  910MPD2     N13332   1.692   0.415  15.446 -0.4645  0.6704 -0.6927
  910MPD2    H513333   1.606   0.463  15.422  0.2304  2.6930  0.8456
  910MPD2    N113334   1.902   0.180  15.830  0.3095  0.2609  0.3604
  910MPD2    H713335   1.974   0.137  15.772 -0.4147  0.3866 -0.6396
  911MPD2     C13336   4.539   0.096  17.308  0.5654  0.1373 -0.0809
  911MPD2    C113337   4.651   0.092  17.227 -0.5228  0.2747 -0.3312
  911MPD2    C213338   4.639   0.149  17.109 -0.1844 -1.0541 -0.6074
  911MPD2    C313339   4.524   0.211  17.069 -0.0903 -0.1098 -0.0684
  911MPD2    C413340   4.416   0.217  17.155 -0.2572 -0.2132  0.5401
  911MPD2    C513341   4.428   0.169  17.282  0.4414  0.3067  0.1598
  911MPD2     H13342   4.718   0.153  17.035  0.1420  1.3895 -0.1117
  911MPD2    H113343   4.326   0.273  17.133 -1.4945 -2.6125 -0.4473
  911MPD2    H213344   4.545   0.039  17.399  2.8510  1.3428  0.5123
  911MPD2    H313345   4.345   0.165  17.352 -1.0897 -0.8616 -1.7229
  911MPD2     N13346   4.524   0.258  16.938 -0.3405 -0.4307  0.6285
  911MPD2    H513347   4.607   0.237  16.883 -0.8202 -1.0485  0.1584
  911MPD2    N113348   0.048   0.025  17.264  0.2470  0.2446 -0.5711
  911MPD2    H713349   0.048   4.692  17.349 -1.0548 -1.8651 -1.9598
  912MPD2     C13350   0.031   0.056  16.155  0.1392  0.4404  0.3301
  912MPD2    C113351   4.687   0.036  16.276 -0.0909 -0.0903 -0.7537
  912MPD2    C213352   4.673   4.628  16.320  0.2830 -0.1149 -0.2086
  912MPD2    C313353   4.712   4.527  16.244  0.0408 -0.2038  0.5385
  912MPD2    C413354   0.062   4.546  16.127 -0.2215  0.3866  0.4609
  912MPD2    C513355   0.079   4.673  16.082  0.6888 -0.5910 -0.3549
  912MPD2     H13356   4.620   4.604  16.412 -0.6476 -0.3533 -0.8054
  912MPD2    H113357   0.089   4.457  16.071  2.5568 -0.7070  3.5506
  912MPD2    H213358   0.050   0.153  16.109 -1.0612  0.2981 -0.4737
  912MPD2    H313359   0.126   4.693  15.987 -0.9928 -2.6922 -1.6213
  912MPD2     N13360   4.682   4.396  16.295 -0.0959  0.2880 -0.1028
  912MPD2    H513361   4.630   4.397  16.382 -0.1308 -0.0563 -0.1161
  912MPD2    N113362   4.646   0.148  16.362 -1.0004  0.6695 -0.0043
  912MPD2    H713363   4.649   0.245  16.331 -0.8212  0.0131 -2.0849
  913MPD2     C13364   0.107   2.700  10.362 -0.3288  0.0949 -0.2913
  913MPD2    C113365   0.219   2.762  10.415  0.3011 -0.1506  0.1880
  913MPD2    C213366   0.241   2.894  10.384  0.2997  0.0280 -0.9824
  913MPD2    C313367   0.133   2.968  10.336  0.1349  1.1292 -0.2558
  913MPD2    C413368   0.015   2.906  10.295 -0.2696 -0.5152 -0.1579
  913MPD2    C513369   0.005   2.772  10.298 -0.4686 -0.1460 -0.3394
  913MPD2     H13370   0.336   2.939  10.410 -1.1541  0.5759  3.4630
  913MPD2    H113371   4.651   2.960  10.259  0.0015  0.4697  0.6738
  913MPD2    H213372   0.090   2.594  10.375 -1.0672 -0.0156 -2.1564
  913MPD2    H313373   4.628   2.732  10.281 -0.0016 -1.4919  0.0948
  913MPD2     N13374   0.144   3.109  10.314  0.2890 -0.3474 -0.0245
  913MPD2    H513375   0.076   3.150  10.252 -1.0220 -0.1945  1.5039
  913MPD2    N113376   0.328   2.688  10.471  0.7351 -0.2176  0.0833
  913MPD2    H713377   0.299   2.593  10.495 -0.5524  0.5332  1.4866
  914MPD2     C13378   2.968   2.741  12.239 -0.8047 -0.9120 -0.5564
  914MPD2    C113379   2.850   2.793  12.290  0.4646 -0.0056 -1.0746
  914MPD2    C213380   2.770   2.709  12.364  0.3280  0.1909  0.5289
  914MPD2    C313381   2.795   2.572  12.367 -0.2481  0.2867  0.4225
  914MPD2    C413382   2.907   2.517  12.312  0.0583  0.0736 -0.4424
  914MPD2    C513383   2.992   2.606  12.249 -0.1399  0.2631  0.1425
  914MPD2     H13384   2.681   2.750  12.411  0.2935  1.6209 -0.8132
  914MPD2    H113385   2.934   2.412  12.308  1.3315  0.4795 -3.2502
  914MPD2    H213386   3.032   2.810  12.185  0.9723 -1.1924  1.2429
  914MPD2    H313387   3.076   2.561  12.196  0.6888  2.2710 -0.2237
  914MPD2     N13388   2.693   2.481  12.428  0.0034 -0.3625 -0.1955
  914MPD2    H513389   2.623   2.523  12.489  1.8050  1.2343  0.7702
  914MPD2    N113390   2.812   2.925  12.268 -0.2480 -0.0484  0.0884
  914MPD2    H713391   2.878   2.984  12.219 -0.7467  0.3391 -0.1043
  915MPD2     C13392   1.129   2.277  16.001  0.0099  0.5652  0.1081
  915MPD2    C113393   1.027   2.298  15.917  0.3773  0.5239  0.1091
  915MPD2    C213394   0.917   2.371  15.967  0.1012  1.4079 -0.0391
  915MPD2    C313395   0.919   2.412  16.098 -0.1072 -0.1103 -0.0249
  915MPD2    C413396   1.026   2.376  16.179  0.2294  0.6706  0.1931
  915MPD2    C513397   1.133   2.316  16.129 -0.5099  0.9609 -0.0874
  915MPD2     H13398   0.829   2.389  15.906 -1.4372  1.5935  2.1845
  915MPD2    H113399   1.032   2.393  16.286  0.9631 -3.2888  0.7942
  915MPD2    H213400   1.206   2.211  15.964 -1.2829 -0.0327 -1.5107
  915MPD2    H313401   1.216   2.284  16.191 -1.2372 -0.0551  0.3422
  915MPD2     N13402   0.810   2.489  16.138 -0.6036 -0.4572 -0.0984
  915MPD2    H513403   0.741   2.515  16.068  1.1573  3.2733 -0.4310
  915MPD2    N113404   1.028   2.240  15.784 -0.1267 -0.6126  0.4584
  915MPD2    H713405   1.104   2.181  15.751 -0.3255 -0.4635 -0.2703
  916MPD2     C13406   3.902   0.835  15.873 -1.1885 -0.2419  0.3796
  916MPD2    C113407   3.849   0.715  15.922 -0.6859  0.4886  0.6418
  916MPD2    C213408   3.912   0.590  15.888 -0.1425  0.7078  0.0422
  916MPD2    C313409   4.014   0.588  15.795  0.6065  0.2953  0.2712
  916MPD2    C413410   4.056   0.712  15.747  0.0646  0.3814 -0.1980
  916MPD2    C513411   4.006   0.831  15.786  0.3232 -0.2872  0.3186
  916MPD2     H13412   3.868   0.496  15.920  1.8193  0.3107  1.5827
  916MPD2    H113413   4.126   0.715  15.665  0.9798  2.2675  0.6467
  916MPD2    H213414   3.855   0.929  15.901 -1.2599 -0.1066 -0.1937
  916MPD2    H313415   4.029   0.923  15.734  2.4197 -0.8346  0.3083
  916MPD2     N13416   4.072   0.467  15.762  0.2944 -0.6382 -0.1717
  916MPD2    H513417   4.035   0.381  15.800 -2.3309  1.4972  2.1534
  916MPD2    N113418   3.730   0.717  15.997 -0.0264 -0.0548  0.0781
  916MPD2    H713419   3.678   0.804  15.987 -1.5694 -1.1998 -2.0175
  917MPD2     C13420   3.909   2.572  11.201 -0.2206 -0.2702 -0.1963
  917MPD2    C113421   3.871   2.663  11.299 -0.0596 -0.4784 -0.5060
  917MPD2    C213422   3.917   2.791  11.284  0.1432  0.4618 -0.2863
  917MPD2    C313423   4.006   2.832  11.187 -0.8757 -0.8387 -0.5368
  917MPD2    C413424   4.037   2.744  11.091 -0.0581  0.1974 -0.0475
  917MPD2    C513425   3.987   2.611  11.101 -0.4040  0.0581 -0.0586
  917MPD2     H13426   3.881   2.866  11.354  1.0185  0.3732  0.2613
  917MPD2    H113427   4.108   2.768  11.012 -2.7354  1.7211 -2.0126
  917MPD2    H213428   3.863   2.475  11.191  2.4174 -1.3384 -1.8653
  917MPD2    H313429   3.987   2.545  11.015  1.8634  0.6428 -0.5067
  917MPD2     N13430   4.072   2.959  11.184 -0.7632 -0.8301  0.3387
  917MPD2    H513431   4.137   2.970  11.107 -0.9029 -0.0341  0.3281
  917MPD2    N113432   3.782   2.619  11.397  0.4544  1.1653  0.3265
  917MPD2    H713433   3.736   2.529  11.387  0.6870  0.7251  3.2050
  918MPD2     C13434   3.395   3.119  12.192 -0.3561  0.3196  0.7141
  918MPD2    C113435   3.523   3.088  12.154  0.5507  0.3013 -0.0408
  918MPD2    C213436   3.534   2.990  12.062  0.5984  0.2202 -0.2474
  918MPD2    C313437   3.429   2.923  11.995  0.1502 -0.4219  0.3588
  918MPD2    C413438   3.301   2.955  12.028 -0.6226  0.2273 -0.5152
  918MPD2    C513439   3.288   3.047  12.131 -0.0642  0.3691 -0.3195
  918MPD2     H13440   3.633   2.973  12.022  0.6533  2.3744 -1.0164
  918MPD2    H113441   3.209   2.908  11.996 -1.4962 -0.5914  3.2191
  918MPD2    H213442   3.376   3.195  12.267 -1.3909 -1.3141  2.1068
  918MPD2    H313443   3.185   3.060  12.163  0.2783  1.8817  0.1474
  918MPD2     N13444   3.460   2.833  11.886 -0.1177  0.4216  0.2588
  918MPD2    H513445   3.559   2.813  11.879 -0.8864 -2.6695 -2.1137
  918MPD2    N113446   3.636   3.161  12.202  0.6374 -0.3819 -0.5660
  918MPD2    H713447   3.715   3.120  12.154  1.2610  0.4090 -0.2006
  919MPD2     C13448   0.499   1.982  11.924  0.2536  0.2598  0.6156
  919MPD2    C113449   0.467   1.852  11.879 -0.2523 -0.4729 -0.1192
  919MPD2    C213450   0.509   1.817  11.748 -0.2215 -0.4618 -0.5669
  919MPD2    C313451   0.585   1.895  11.671  0.3516 -0.0462 -0.7875
  919MPD2    C413452   0.623   2.019  11.726  0.3995  0.1476 -0.3109
  919MPD2    C513453   0.574   2.067  11.849 -0.6136  0.2339 -1.0030
  919MPD2     H13454   0.464   1.725  11.712 -0.3588 -0.1361 -1.2354
  919MPD2    H113455   0.682   2.086  11.664  0.2605  1.1762  0.6557
  919MPD2    H213456   0.467   2.017  12.021 -1.1886  0.4432  0.0758
  919MPD2    H313457   0.616   2.159  11.887 -0.5682 -0.8606  1.6612
  919MPD2     N13458   0.592   1.882  11.531  0.1082 -0.2389 -0.0075
  919MPD2    H513459   0.658   1.945  11.486 -0.3025  0.1610 -0.0450
  919MPD2    N113460   0.384   1.763  11.952 -0.2551 -0.6380 -0.1278
  919MPD2    H713461   0.357   1.671  11.917 -1.8339 -0.2100 -0.0605
  920MPD2     C13462   0.275   2.387  10.780 -0.3378 -0.0471  0.5603
  920MPD2    C113463   0.260   2.263  10.721 -0.2783  0.5227 -0.0305
  920MPD2    C213464   0.312   2.154  10.782 -0.6995 -0.5104 -0.0885
  920MPD2    C313465   0.380   2.165  10.902 -0.3814 -0.0569  0.2987
  920MPD2    C413466   0.395   2.293  10.959  0.7391  0.3825 -0.3447
  920MPD2    C513467   0.345   2.402  10.896  0.2043 -0.1555  0.2273
  920MPD2     H13468   0.302   2.054  10.740 -0.4309  0.1147 -1.6278
  920MPD2    H113469   0.452   2.310  11.050 -0.9600  0.7426  0.6493
  920MPD2    H213470   0.253   2.477  10.724 -1.4021 -1.1432 -0.8053
  920MPD2    H313471   0.366   2.501  10.933  2.7093 -0.0791 -1.4744
  920MPD2     N13472   0.437   2.050  10.959  0.0262 -0.2159  0.4724
  920MPD2    H513473   0.440   1.964  10.904  1.1313  0.9434 -1.2796
  920MPD2    N113474   0.204   2.238  10.594 -0.1643  0.6492 -0.1489
  920MPD2    H713475   0.197   2.146  10.552 -0.8584 -0.3182  2.0598
  921MPD2     C13476   0.364   0.731  17.218 -0.5659  0.0287 -0.6937
  921MPD2    C113477   0.478   0.667  17.198  0.1745 -0.6549  0.6014
  921MPD2    C213478   0.491   0.536  17.241  0.5819  0.2979  0.0183
  921MPD2    C313479   0.376   0.471  17.298 -0.2300 -0.0492  0.3115
  921MPD2    C413480   0.260   0.537  17.323  0.1903  0.1555 -0.1546
  921MPD2    C513481   0.263   0.671  17.296  0.4160 -0.4645 -0.7042
  921MPD2     H13482   0.584   0.484  17.220  0.5300  1.1769 -2.5042
  921MPD2    H113483   0.179   0.502  17.386  0.3385 -0.6497 -0.4171
  921MPD2    H213484   0.355   0.835  17.189 -0.5240 -0.1445 -1.3303
  921MPD2    H313485   0.183   0.729  17.340 -1.6096 -0.8712 -3.8673
  921MPD2     N13486   0.382   0.336  17.331 -0.0482  0.2195  0.3158
  921MPD2    H513487   0.289   0.297  17.341  1.6395 -4.2359 -1.5238
  921MPD2    N113488   0.575   0.729  17.122 -0.9527 -0.3328 -0.3834
  921MPD2    H713489   0.550   0.823  17.094  1.6639  0.5845  0.3577
  922MPD2     C13490   1.887   3.180  16.999 -0.3293 -0.1898 -0.7932
  922MPD2    C113491   1.862   3.273  17.093  0.2627  0.5148 -0.3484
  922MPD2    C213492   1.771   3.256  17.193 -0.6303  0.1317  0.2476
  922MPD2    C313493   1.695   3.140  17.192  0.1328 -0.7031 -0.5044
  922MPD2    C413494   1.703   3.056  17.085 -0.4277 -0.4195  0.0792
  922MPD2    C513495   1.807   3.069  16.997 -0.0173 -0.0524 -0.1333
  922MPD2     H13496   1.763   3.329  17.273 -1.5235  0.9233 -0.5786
  922MPD2    H113497   1.646   2.964  17.076  0.7244 -1.2181  0.7971
  922MPD2    H213498   1.957   3.186  16.917 -1.1284 -1.6852 -1.5954
  922MPD2    H313499   1.818   2.998  16.915  0.4804 -0.3566  0.1943
  922MPD2     N13500   1.617   3.108  17.310  0.7087 -0.0336 -0.7299
  922MPD2    H513501   1.616   3.185  17.375  0.7405 -0.6717  0.0215
  922MPD2    N113502   1.936   3.402  17.097  0.0477 -0.4300 -0.4287
  922MPD2    H713503   1.913   3.465  17.174 -1.9087  0.3011 -1.6068
  923MPD2     C13504   2.584   1.165   9.728 -0.6008 -0.6600  0.8076
  923MPD2    C113505   2.537   1.292   9.759 -0.0149 -0.3391  0.7663
  923MPD2    C213506   2.633   1.384   9.811  0.1784  0.4147  0.1449
  923MPD2    C313507   2.759   1.355   9.833 -0.4902 -0.5726  0.0815
  923MPD2    C413508   2.803   1.232   9.785  0.0049 -0.0072  0.3244
  923MPD2    C513509   2.718   1.143   9.734  0.9564  0.3213  0.3881
  923MPD2     H13510   2.590   1.481   9.833 -1.6161  0.1760 -2.3485
  923MPD2    H113511   2.905   1.199   9.801  0.6404  0.1751 -3.4720
  923MPD2    H213512   2.517   1.086   9.695  0.5194 -1.1361 -0.3267
  923MPD2    H313513   2.755   1.041   9.723 -2.2329 -0.9438  1.3562
  923MPD2     N13514   2.848   1.457   9.881 -0.5662  0.4434 -0.1575
  923MPD2    H513515   2.948   1.455   9.861 -0.0012 -0.2303  2.7620
  923MPD2    N113516   2.400   1.329   9.745 -0.5080  0.5556  0.2788
  923MPD2    H713517   2.348   1.247   9.713  0.4262  1.4745 -3.5902
  924MPD2     C13518   2.936   3.595  16.103 -0.2899  0.2715  0.5143
  924MPD2    C113519   2.873   3.627  16.222  0.2586 -0.1254  0.7908
  924MPD2    C213520   2.896   3.749  16.275 -0.5949  0.6428 -0.3642
  924MPD2    C313521   2.972   3.837  16.212  0.0452 -0.7348  0.0546
  924MPD2    C413522   3.028   3.805  16.087  0.3540  0.8089 -0.9159
  924MPD2    C513523   3.014   3.679  16.033 -0.2237  0.7097 -0.1868
  924MPD2     H13524   2.843   3.774  16.366 -0.9659 -1.4283  0.0046
  924MPD2    H113525   3.086   3.878  16.032  1.9861 -0.1050 -0.3913
  924MPD2    H213526   2.929   3.493  16.065 -1.4175  0.0752  1.2587
  924MPD2    H313527   3.064   3.673  15.937 -1.0674  0.0952 -0.5848
  924MPD2     N13528   2.981   3.968  16.258 -0.3861  0.6005  0.3172
  924MPD2    H513529   2.991   4.042  16.189 -1.9634  1.2170  0.7345
  924MPD2    N113530   2.797   3.522  16.284  0.2716 -0.0959  0.3974
  924MPD2    H713531   2.810   3.430  16.242  0.3799 -0.2595  0.7881
  925MPD2     C13532   1.423   1.590  15.329  0.5890 -0.4824 -0.2785
  925MPD2    C113533   1.290   1.599  15.289  0.1279 -0.7770 -0.1827
  925MPD2    C213534   1.193   1.555  15.373 -0.6091 -0.1608 -0.4184
  925MPD2    C313535   1.222   1.505  15.501 -0.9844  0.1181 -0.0453
  925MPD2    C413536   1.353   1.509  15.543  0.0875  0.1160 -0.0214
  925MPD2    C513537   1.453   1.538  15.453  0.6541  0.4803 -0.5389
  925MPD2     H13538   1.090   1.561  15.341 -0.9434 -0.9210  0.5328
  925MPD2    H113539   1.386   1.473  15.640 -0.5849 -1.5336 -0.4098
  925MPD2    H213540   1.509   1.612  15.268  1.3498  0.3319  1.0980
  925MPD2    H313541   1.556   1.526  15.486  1.4000  0.8843 -2.7199
  925MPD2     N13542   1.120   1.460  15.589  0.8394 -0.5329 -0.2347
  925MPD2    H513543   1.152   1.438  15.683  2.1597 -0.9584 -0.7876
  925MPD2    N113544   1.257   1.656  15.163  0.1212 -0.1090  0.1231
  925MPD2    H713545   1.159   1.681  15.154  0.1735  0.8687  2.3425
  926MPD2     C13546   4.714   4.602  14.385 -0.6295 -0.3327 -1.0146
  926MPD2    C113547   0.092   4.696  14.401 -0.5744 -0.6287  1.1571
  926MPD2    C213548   0.192   4.716  14.311 -0.1843 -0.2274 -0.0532
  926MPD2    C313549   0.180   4.654  14.189 -1.2497  0.5274 -0.6811
  926MPD2    C413550   0.080   4.555  14.165  0.2187 -0.1588  0.3526
  926MPD2    C513551   4.711   4.530  14.266  0.2062  0.0169  0.4115
  926MPD2     H13552   0.265   0.070  14.336 -1.4421  0.8383  0.3338
  926MPD2    H113553   0.077   4.490  14.078  0.2570 -0.0800  0.2922
  926MPD2    H213554   4.632   4.580  14.452 -0.2211  1.4681  0.0711
  926MPD2    H313555   4.632   4.459  14.247 -0.8807  0.6806  2.4117
  926MPD2     N13556   0.255   4.702  14.077 -0.7117 -0.6705 -0.0010
  926MPD2    H513557   0.231   4.646  13.995  0.0047 -2.9323  1.3148
  926MPD2    N113558   0.097   0.068  14.505  0.4427 -0.8994 -0.3329
  926MPD2    H713559   0.178   0.124  14.526  0.5064 -2.2517  2.9669
  927MPD2     C13560   4.261   2.105   0.326  0.3889  0.4116  0.9507
  927MPD2    C113561   4.358   2.091   0.429 -0.4075 -0.6357  0.0363
  927MPD2    C213562   4.486   2.035   0.404 -0.4191  1.0673 -0.0623
  927MPD2    C313563   4.509   1.999   0.268  1.1562  0.7075  0.3253
  927MPD2    C413564   4.418   2.023   0.171  1.1108 -0.4377  0.3852
  927MPD2    C513565   4.290   2.063   0.202 -0.1288 -1.0224 -0.1499
  927MPD2     H13566   4.557   2.007   0.481 -2.7499  1.6902  2.3260
  927MPD2    H113567   4.429   2.000   0.066 -1.6680 -2.8067  0.6180
  927MPD2    H213568   4.165   2.150   0.346  0.1894  0.4251 -0.0366
  927MPD2    H313569   4.210   2.082   0.131  0.3106 -3.3730 -1.2936
  927MPD2     N13570   4.638   1.938   0.246 -0.3711 -0.2516  0.8007
  927MPD2    H513571   4.705   1.938   0.322  1.6862 -0.3031 -1.0059
  927MPD2    N113572   4.321   2.133   0.558  1.0509 -0.0220 -0.3642
  927MPD2    H713573   4.226   2.155   0.586  0.4787 -0.6492 -1.8831
  928MPD2     C13574   2.594   0.555   1.491  0.3321  0.1599 -0.2186
  928MPD2    C113575   2.622   0.680   1.451  0.3635  0.9719 -0.7918
  928MPD2    C213576   2.686   0.698   1.327  0.4079  0.5946 -0.6905
  928MPD2    C313577   2.729   0.590   1.256 -0.4203 -0.0950  0.1309
  928MPD2    C413578   2.708   0.460   1.306 -0.3539 -0.1443  0.1561
  928MPD2    C513579   2.639   0.447   1.420 -0.3775 -0.4891 -0.2592
  928MPD2     H13580   2.713   0.800   1.301  1.1305  0.6264  0.1999
  928MPD2    H113581   2.759   0.375   1.263 -0.5594  0.0829 -0.5262
  928MPD2    H213582   2.541   0.547   1.585 -2.2199 -1.7906 -1.8006
  928MPD2    H313583   2.625   0.344   1.452  0.0475  0.2056  2.1167
  928MPD2     N13584   2.815   0.603   1.151  0.6590  0.4687 -0.3496
  928MPD2    H513585   2.858   0.515   1.124  0.0575 -0.2828  1.1312
  928MPD2    N113586   2.605   0.788   1.540 -0.7450  0.3056  0.2950
  928MPD2    H713587   2.594   0.765   1.638  0.0175  0.7207  0.4747
  929MPD2     C13588   2.437   0.976  10.135 -0.2360 -0.5614  0.4177
  929MPD2    C113589   2.333   0.922  10.199  0.0535 -0.1194 -0.1603
  929MPD2    C213590   2.212   0.989  10.206  0.4708 -0.4177  0.0096
  929MPD2    C313591   2.202   1.117  10.152 -0.2258  0.1771 -0.3960
  929MPD2    C413592   2.306   1.165  10.077 -1.2817  0.3260  0.6500
  929MPD2    C513593   2.420   1.097  10.072  0.1124 -0.2213  0.7038
  929MPD2     H13594   2.130   0.954  10.268 -0.5566  1.1993 -0.4291
  929MPD2    H113595   2.313   1.263  10.031 -0.3026 -1.3056 -2.6571
  929MPD2    H213596   2.531   0.923  10.139  1.3575  2.2937 -0.1132
  929MPD2    H313597   2.504   1.143  10.020  0.4098 -1.3499  0.1848
  929MPD2     N13598   2.081   1.195  10.161 -0.2678  0.6426  0.0289
  929MPD2    H513599   2.005   1.148  10.210 -0.9357 -0.0866 -1.7109
  929MPD2    N113600   2.365   0.801  10.269 -0.1378 -0.7457 -0.0077
  929MPD2    H713601   2.461   0.769  10.273  1.1194  3.1499  0.5674
  930MPD2     C13602   4.522   2.351  14.143  0.5359 -0.1238  0.1940
  930MPD2    C113603   4.625   2.436  14.162  0.3834 -0.3150 -0.7759
  930MPD2    C213604   0.005   2.453  14.068  0.1338  0.5801  0.4794
  930MPD2    C313605   4.720   2.389  13.948 -0.0692 -0.5426 -0.4983
  930MPD2    C413606   4.603   2.320  13.918 -0.4312 -0.7544 -0.4829
  930MPD2    C513607   4.513   2.300  14.017  0.2216 -0.8345  0.8973
  930MPD2     H13608   0.087   2.523  14.080 -0.7688  1.7954 -0.4581
  930MPD2    H113609   4.586   2.272  13.823 -3.7314  0.5399 -0.5472
  930MPD2    H213610   4.446   2.331  14.218  0.3359 -0.4510 -0.0983
  930MPD2    H313611   4.437   2.227  13.993  0.6175 -0.8185 -0.3781
  930MPD2     N13612   0.078   2.408  13.840  0.3595  0.2175  0.5784
  930MPD2    H513613   0.051   2.356  13.757  0.9719  0.5293  0.1835
  930MPD2    N113614   4.623   2.508  14.281 -0.0117  0.4878 -0.3318
  930MPD2    H713615   4.528   2.523  14.313  0.0360  0.6576 -0.2691
  931MPD2     C13616   0.045   2.077   1.196 -0.2028 -0.7083 -0.0717
  931MPD2    C113617   4.633   2.061   1.214  0.5605 -0.4824  0.1586
  931MPD2    C213618   4.575   1.990   1.321 -0.2421 -0.4550 -0.1345
  931MPD2    C313619   4.667   1.907   1.386 -0.0146 -0.3305 -0.0239
  931MPD2    C413620   0.085   1.918   1.365  0.5670 -0.3359 -0.0415
  931MPD2    C513621   0.132   2.006   1.275  0.5802  0.1893 -0.1316
  931MPD2     H13622   4.470   1.962   1.328 -0.6097  0.8328 -0.4771
  931MPD2    H113623   0.155   1.867   1.430  2.1945  1.7896 -0.1195
  931MPD2    H213624   0.088   2.142   1.121  1.0348 -1.9101 -0.3941
  931MPD2    H313625   0.240   2.005   1.259  0.6953 -2.1622  0.8816
  931MPD2     N13626   4.626   1.824   1.493 -0.0488 -0.0919 -0.3023
  931MPD2    H513627   4.696   1.763   1.533 -1.3607 -1.2127  0.2550
  931MPD2    N113628   4.554   2.132   1.123 -0.5524 -0.2722  0.3301
  931MPD2    H713629   4.596   2.166   1.038  0.7795  1.3581  1.6304
  932MPD2     C13630   2.058   2.016  11.043 -0.2462 -0.2412  0.3113
  932MPD2    C113631   2.013   2.022  11.179 -0.0446 -0.2414  0.4880
  932MPD2    C213632   1.970   1.912  11.247 -0.1208 -0.0035  0.4319
  932MPD2    C313633   1.943   1.797  11.178 -0.2096 -0.1118 -0.6473
  932MPD2    C413634   1.984   1.789  11.048 -0.3781 -0.6750 -0.3382
  932MPD2    C513635   2.054   1.892  10.990 -0.4022  0.0375  0.0795
  932MPD2     H13636   1.949   1.923  11.353  1.3542 -1.3326  0.8762
  932MPD2    H113637   1.969   1.703  10.983  1.6263 -1.6096  0.4368
  932MPD2    H213638   2.088   2.103  10.986 -0.0266 -0.8483 -0.4961
  932MPD2    H313639   2.073   1.886  10.883 -0.1873 -2.1154  0.2464
  932MPD2     N13640   1.868   1.688  11.242 -0.1070 -0.2231  0.3014
  932MPD2    H513641   1.836   1.690  11.338 -0.7505 -0.1199  0.0790
  932MPD2    N113642   2.026   2.138  11.260 -0.6408  0.5196 -0.4043
  932MPD2    H713643   1.958   2.142  11.335 -0.2769 -2.1176  0.0663
  933MPD2     C13644   2.218   1.498   1.954  0.2695  0.2204 -0.1526
  933MPD2    C113645   2.258   1.463   1.827  0.0046  0.5028  0.8050
  933MPD2    C213646   2.223   1.540   1.721  0.1455 -0.1735 -0.4638
  933MPD2    C313647   2.135   1.647   1.740 -0.8176 -0.3142 -0.4551
  933MPD2    C413648   2.102   1.684   1.871 -0.2297 -0.0112  0.1302
  933MPD2    C513649   2.142   1.609   1.976 -0.2086 -0.3343  0.6101
  933MPD2     H13650   2.270   1.526   1.625  0.5475 -1.3000 -0.0988
  933MPD2    H113651   2.052   1.777   1.894  1.6394  0.7093  1.3133
  933MPD2    H213652   2.262   1.456   2.044 -0.5499  2.2741  1.2044
  933MPD2    H313653   2.109   1.641   2.075  1.9866  2.5444  0.4338
  933MPD2     N13654   2.112   1.729   1.628 -0.6609  0.2338  0.3206
  933MPD2    H513655   2.155   1.694   1.543 -0.3924  2.4603 -0.4595
  933MPD2    N113656   2.348   1.355   1.804  0.4578  0.4655  0.3519
  933MPD2    H713657   2.393   1.320   1.888 -1.6213  0.8833  1.6509
  934MPD2     C13658   3.140   3.149   2.336 -0.3969 -0.2922  0.1831
  934MPD2    C113659   3.222   3.037   2.340 -0.5290  0.1025 -0.3558
  934MPD2    C213660   3.230   2.954   2.229  0.3151  0.2212  0.7120
  934MPD2    C313661   3.167   2.992   2.111  0.1431  0.3435  0.5303
  934MPD2    C413662   3.090   3.110   2.113  0.6576 -0.6566 -0.7733
  934MPD2    C513663   3.076   3.190   2.224 -0.2339  0.7590  0.2420
  934MPD2     H13664   3.314   2.886   2.234 -0.1995 -0.4406  0.3954
  934MPD2    H113665   3.031   3.132   2.025 -1.6789  2.3232  1.5520
  934MPD2    H213666   3.131   3.201   2.430  2.4359 -0.4799  0.5718
  934MPD2    H313667   3.014   3.278   2.234 -0.7902  0.3317  0.5712
  934MPD2     N13668   3.180   2.918   1.987  0.5716  0.0666 -0.5586
  934MPD2    H513669   3.117   2.955   1.916  0.5637 -0.9694 -1.0849
  934MPD2    N113670   3.311   2.999   2.451 -0.3465 -0.7544 -0.7235
  934MPD2    H713671   3.368   2.919   2.425  0.2220 -0.8214  0.7179
  935MPD2     C13672   3.736   2.100   1.714  0.4666  0.1479 -0.0429
  935MPD2    C113673   3.640   2.112   1.622 -0.0380 -1.4515 -0.0464
  935MPD2    C213674   3.540   2.209   1.628 -0.2506 -0.4911  0.3915
  935MPD2    C313675   3.528   2.280   1.748  0.3716 -0.4964 -0.1609
  935MPD2    C413676   3.624   2.260   1.841 -0.1408 -0.2093  0.1376
  935MPD2    C513677   3.728   2.174   1.828  0.0940  0.1987  0.3361
  935MPD2     H13678   3.480   2.225   1.539  0.1859  1.7792  0.5004
  935MPD2    H113679   3.622   2.313   1.935 -2.3621 -0.9162  0.4826
  935MPD2    H213680   3.817   2.028   1.709 -0.5487 -0.9914  0.0115
  935MPD2    H313681   3.807   2.174   1.902 -0.9739 -1.5269  1.4537
  935MPD2     N13682   3.422   2.371   1.774 -0.5208 -0.4178  0.5908
  935MPD2    H513683   3.407   2.417   1.863  0.2794 -1.3685  1.2262
  935MPD2    N113684   3.645   2.047   1.496  0.1668 -0.5717 -0.1690
  935MPD2    H713685   3.582   2.089   1.428  0.2490  1.5553  1.0658
  936MPD2     C13686   2.293   0.273  12.993  0.3362  0.0727  1.0726
  936MPD2    C113687   2.339   0.177  13.076  0.3070 -0.3683 -0.5538
  936MPD2    C213688   2.459   0.128  13.053 -0.2987 -0.6039  0.0814
  936MPD2    C313689   2.531   0.153  12.938 -0.2723 -0.0841  0.6853
  936MPD2    C413690   2.481   0.251  12.847 -0.2224 -0.0395  0.1939
  936MPD2    C513691   2.366   0.313  12.883 -0.7817 -0.5639 -0.2347
  936MPD2     H13692   2.496   0.056  13.126  1.1552  0.3099  0.2481
  936MPD2    H113693   2.537   0.282  12.759 -2.8792  2.5588 -0.5638
  936MPD2    H213694   2.193   0.314  12.992  0.7842  1.1543  0.6389
  936MPD2    H313695   2.339   0.388  12.810 -0.0332  1.6116  1.7260
  936MPD2     N13696   2.662   0.095  12.901 -0.6014 -0.8382 -0.1340
  936MPD2    H513697   2.689   0.118  12.805 -0.0234 -0.6228  0.0792
  936MPD2    N113698   2.256   0.114  13.173 -0.2441  0.5945 -0.0272
  936MPD2    H713699   2.308   0.057  13.239  0.5235 -1.4714 -2.4299
  937MPD2     C13700   0.218   1.091  11.842  0.1339 -0.2970 -0.4469
  937MPD2    C113701   0.240   1.225  11.807  0.8827  0.6872 -0.2251
  937MPD2    C213702   0.314   1.247  11.694 -0.7879 -0.2022  0.1950
  937MPD2    C313703   0.349   1.143  11.610 -0.2840  0.3931  0.3980
  937MPD2    C413704   0.313   1.013  11.639 -0.6657  0.8838 -0.6401
  937MPD2    C513705   0.249   0.990  11.757  0.5067  0.2923 -0.2578
  937MPD2     H13706   0.352   1.345  11.669 -0.8615 -0.6171 -1.5740
  937MPD2    H113707   0.326   0.932  11.568 -0.3537  1.7251 -1.5535
  937MPD2    H213708   0.174   1.049  11.932 -0.0169 -0.4272 -0.5811
  937MPD2    H313709   0.216   0.890  11.782  1.1911  0.0100 -0.4777
  937MPD2     N13710   0.434   1.183  11.501  0.3070  0.3032  0.3749
  937MPD2    H513711   0.470   1.276  11.519  4.0820 -1.0445 -0.2900
  937MPD2    N113712   0.231   1.336  11.898  0.9113 -0.1841  0.1462
  937MPD2    H713713   0.264   1.428  11.869 -0.0045  0.4904  1.2174
  938MPD2     C13714   2.899   2.463   1.067 -0.4271  0.3080 -0.2401
  938MPD2    C113715   2.919   2.545   1.169 -0.4345 -0.1051 -0.4888
  938MPD2    C213716   2.858   2.519   1.285 -0.6908 -0.3680 -0.6050
  938MPD2    C313717   2.766   2.422   1.300  0.3461 -0.2749 -0.8179
  938MPD2    C413718   2.744   2.340   1.193 -0.7610 -0.1460 -0.3123
  938MPD2    C513719   2.815   2.359   1.075  0.5116  0.7632 -0.0328
  938MPD2     H13720   2.876   2.584   1.369 -2.0855  1.7289 -1.9224
  938MPD2    H113721   2.673   2.258   1.193 -1.2747  0.2894  3.6082
  938MPD2    H213722   2.958   2.463   0.976 -0.2261 -3.6174 -0.0935
  938MPD2    H313723   2.786   2.311   0.982  0.8874 -2.6924  1.6226
  938MPD2     N13724   2.702   2.383   1.419 -1.0502 -0.7787 -0.4170
  938MPD2    H513725   2.662   2.290   1.429  1.5353 -1.8405  0.0872
  938MPD2    N113726   3.019   2.651   1.163 -0.1466  0.1995  0.2467
  938MPD2    H713727   3.040   2.685   1.257  1.0529 -0.0408  0.0629
  939MPD2     C13728   4.497   3.439   1.383 -0.3051 -0.2791 -0.3168
  939MPD2    C113729   4.507   3.576   1.417 -0.2317 -0.5255 -0.0339
  939MPD2    C213730   4.586   3.659   1.341  0.0765  0.6378  0.2479
  939MPD2    C313731   4.672   3.604   1.245  0.2973 -0.7565  0.1097
  939MPD2    C413732   4.666   3.468   1.221 -0.5374 -0.2459 -0.3051
  939MPD2    C513733   4.579   3.388   1.287  0.3265  0.4574 -0.2018
  939MPD2     H13734   4.596   3.763   1.369  1.6170  0.6041 -0.1969
  939MPD2    H113735   4.721   3.416   1.143  2.2026  1.3512  0.5546
  939MPD2    H213736   4.427   3.374   1.434 -1.6738  0.5814 -1.0886
  939MPD2    H313737   4.577   3.281   1.274  0.9999  0.4099  0.0700
  939MPD2     N13738   0.042   3.688   1.163  0.3628  0.4962 -0.0732
  939MPD2    H513739   0.020   3.787   1.166 -0.6915  0.2184  1.8768
  939MPD2    N113740   4.420   3.618   1.523  0.0239  0.2399  0.4763
  939MPD2    H713741   4.371   3.550   1.580  0.0573  0.3736  0.6622
  940MPD2     C13742   2.709   0.241  13.338 -0.0184 -0.2336 -0.5256
  940MPD2    C113743   2.798   0.156  13.406  0.2427  0.0619 -0.1332
  940MPD2    C213744   2.910   0.122  13.326  0.5146  0.2230 -0.2671
  940MPD2    C313745   2.933   0.156  13.199  0.6419 -0.0411 -1.2212
  940MPD2    C413746   2.844   0.237  13.130  0.3133  0.1082  0.2988
  940MPD2    C513747   2.732   0.285  13.205  0.8276  0.3173 -0.4743
  940MPD2     H13748   2.993   0.069  13.371  0.3337 -0.6847 -0.9922
  940MPD2    H113749   2.864   0.254  13.025 -1.8695 -0.8673 -0.2709
  940MPD2    H213750   2.619   0.263  13.395 -0.5467 -0.3298 -1.3206
  940MPD2    H313751   2.645   0.338  13.165  0.4505  0.1240  0.0930
  940MPD2     N13752   3.036   0.103  13.126  0.3188 -0.7091 -0.3581
  940MPD2    H513753   3.048   0.129  13.029  0.0969  1.0259  0.0790
  940MPD2    N113754   2.777   0.109  13.534 -0.5960  0.8932 -0.6090
  940MPD2    H713755   2.854   0.060  13.579 -0.9482  0.8421 -0.0564
  941MPD2     C13756   1.429   3.909   9.610 -0.3018  0.9416  0.5437
  941MPD2    C113757   1.475   3.888   9.741 -0.0976  0.3327  0.0919
  941MPD2    C213758   1.430   3.776   9.813  0.5181  0.1025 -0.0507
  941MPD2    C313759   1.357   3.682   9.745  0.5883 -0.9491  0.1651
  941MPD2    C413760   1.308   3.705   9.623 -0.3500  0.6225 -0.3464
  941MPD2    C513761   1.340   3.820   9.560 -0.2420 -0.1885  0.0503
  941MPD2     H13762   1.474   3.760   9.911  0.5706  3.5857  0.4801
  941MPD2    H113763   1.239   3.635   9.576  0.0143 -0.9572  1.5142
  941MPD2    H213764   1.462   3.996   9.554 -0.5770 -0.1978 -1.3560
  941MPD2    H313765   1.296   3.839   9.462 -1.7742  1.5130  1.0751
  941MPD2     N13766   1.338   3.547   9.793 -0.5121  0.3139 -0.3143
  941MPD2    H513767   1.280   3.490   9.733 -0.2678  1.6184 -1.8019
  941MPD2    N113768   1.561   3.974   9.805 -0.1842 -0.4212  0.1186
  941MPD2    H713769   1.608   3.937   9.888  0.7413  2.4282  0.8793
  942MPD2     C13770   2.241   1.796   9.368  0.0638  0.1426  0.0968
  942MPD2    C113771   2.376   1.758   9.359  0.1935  0.2391 -0.7606
  942MPD2    C213772   2.394   1.626   9.349  0.1731 -0.4213 -0.6436
  942MPD2    C313773   2.292   1.534   9.345  0.0065  1.0642  0.5160
  942MPD2    C413774   2.163   1.578   9.367  0.8178 -0.5566  0.1844
  942MPD2    C513775   2.138   1.706   9.364 -0.7730 -0.2582 -0.0299
  942MPD2     H13776   2.496   1.589   9.353 -0.1418 -1.3683 -1.2143
  942MPD2    H113777   2.082   1.508   9.351 -0.1576  1.1815 -2.4443
  942MPD2    H213778   2.215   1.900   9.385 -2.2827 -0.4228 -0.0395
  942MPD2    H313779   2.034   1.734   9.378 -0.9114 -0.8336  0.0741
  942MPD2     N13780   2.316   1.397   9.353 -0.5232  0.6670 -0.3007
  942MPD2    H513781   2.231   1.341   9.361  0.2004 -0.2007  1.2617
  942MPD2    N113782   2.484   1.849   9.341  0.2471 -0.2426 -0.4319
  942MPD2    H713783   2.580   1.819   9.351  0.9817  2.4026  0.4878
  943MPD2     C13784   1.232   4.224   9.354 -0.5817  0.0961  0.5978
  943MPD2    C113785   1.164   4.117   9.413 -0.5786  0.3119  0.0181
  943MPD2    C213786   1.091   4.030   9.335  0.4317  0.3953 -0.0193
  943MPD2    C313787   1.071   4.051   9.198 -0.4990 -0.1777  0.4446
  943MPD2    C413788   1.139   4.155   9.143 -0.1923 -0.0444 -0.0639
  943MPD2    C513789   1.217   4.242   9.219 -0.0161  0.1889  0.4086
  943MPD2     H13790   1.059   3.936   9.379  0.9199  0.0584 -0.3826
  943MPD2    H113791   1.141   4.168   9.035 -0.6724 -1.9323 -0.3144
  943MPD2    H213792   1.286   4.298   9.412  0.8957  0.2101 -0.9103
  943MPD2    H313793   1.268   4.326   9.173 -1.2771  0.8547  0.2183
  943MPD2     N13794   1.006   3.969   9.107 -0.5186  0.2531  0.2210
  943MPD2    H513795   1.008   4.002   9.012  0.5196 -1.7357 -0.4528
  943MPD2    N113796   1.171   4.097   9.553 -0.4782 -0.0085  0.7111
  943MPD2    H713797   1.246   4.149   9.598 -0.9208  0.4704  0.8923
  944MPD2     C13798   0.433   3.573  11.287  0.1599  0.5016  0.6133
  944MPD2    C113799   0.328   3.486  11.312  0.2058 -0.0004 -0.5210
  944MPD2    C213800   0.220   3.537  11.381 -0.6627  0.8817  0.3038
  944MPD2    C313801   0.208   3.670  11.414 -0.0409  0.4069 -0.1309
  944MPD2    C413802   0.308   3.754  11.368 -0.0214  0.0049  0.3090
  944MPD2    C513803   0.421   3.706  11.312 -0.3944 -0.0302 -0.4383
  944MPD2     H13804   0.135   3.473  11.406  0.3128 -1.1788 -1.6156
  944MPD2    H113805   0.304   3.862  11.374 -1.3163 -0.0778  0.9924
  944MPD2    H213806   0.524   3.550  11.234 -0.0895 -0.2144  0.4987
  944MPD2    H313807   0.504   3.775  11.300 -0.1304 -0.2009  0.3553
  944MPD2     N13808   0.084   3.720  11.466 -0.0922  0.8005  0.2958
  944MPD2    H513809   0.074   3.821  11.469 -0.7369  0.6952  1.5322
  944MPD2    N113810   0.344   3.349  11.269 -0.1486  0.6208  0.2684
  944MPD2    H713811   0.431   3.322  11.223  0.4983 -0.2630  1.9993
    1TCq1    O113812   3.266   3.342  14.480  0.5425 -0.0409 -0.4675
    1TCq1    C113813   3.267   3.435  14.581  0.4799 -0.1392  0.8914
    1TCq1    O213814   3.168   3.493  14.616 -0.1102  0.4477  0.0212
    1TCq1    C213815   3.387   3.430  14.659  0.1322 -0.0421 -0.3980
    1TCq1    C313816   3.483   3.327  14.655 -0.7763 -0.6722 -0.0283
    1TCq1    C413817   3.593   3.327  14.736  0.4372  0.3623 -0.1736
    1TCq1    C513818   3.610   3.432  14.823 -0.0837 -0.3329 -0.1673
    1TCq1    C613819   3.510   3.524  14.832 -0.2079 -0.5055  0.3342
    1TCq1    C713820   3.402   3.529  14.750  0.1560 -0.8828 -0.6743
    1TCq1    C813821   3.544   3.652  14.897  0.3554  0.1909 -0.4974
    1TCq1    O413822   3.641   3.643  14.975 -0.0322 -1.2112 -0.2942
    1TCq1    C913823   3.697   3.226  14.721  0.3554 -0.9039 -0.2112
    1TCq1    O513824   3.682   3.129  14.645 -0.5268  0.5372  0.0893
    1TCq1    O613825   3.805   3.237  14.785  0.7098  0.3319  0.2759
    1TCq1    H113826   3.356   3.322  14.447  1.0196  2.2957 -0.5755
    1TCq1    H213827   3.474   3.249  14.580 -1.5167  0.6229 -1.2815
    1TCq1    H313828   3.698   3.433  14.886  0.2475  1.1168 -0.6732
    1TCq1    H413829   3.315   3.588  14.777  0.0830  0.0575 -2.9003
    2MPD2     C13830   3.456   4.149  14.995  0.2040 -0.0032  0.0179
    2MPD2    C113831   3.391   4.120  14.875 -0.1435 -0.7858  0.2552
    2MPD2    C213832   3.408   3.990  14.831 -0.5033 -0.0126 -0.1124
    2MPD2    C313833   3.483   3.897  14.899 -0.2904 -0.0000  0.1726
    2MPD2    C413834   3.546   3.928  15.015  0.2170 -0.3681  0.3404
    2MPD2    C513835   3.530   4.054  15.059  0.0278  0.1342  0.0807
    2MPD2     H13836   3.347   3.964  14.745  0.3897  1.7710 -1.2790
    2MPD2    H113837   3.611   3.859  15.067 -0.9926 -1.1667  0.7716
    2MPD2    H213838   3.449   4.245  15.045  2.0035 -0.2334  0.7069
    2MPD2    H313839   3.589   4.085  15.145  0.9155 -2.6006  0.4667
    2MPD2     N13840   3.486   3.764  14.841 -0.1091  0.7171 -0.1282
    2MPD2    H513841   3.435   3.747  14.755 -0.2530  3.3301 -0.5735
    2MPD2    N113842   3.326   4.230  14.808 -0.0865  0.1214  0.4094
    2MPD2    H713843   3.327   4.322  14.851 -0.3906  0.0154  0.6428
    3TMC2    C113844   3.237   4.345  14.637 -0.0456  0.6479  0.2230
    3TMC2    C213845   3.168   4.423  14.729  0.4531  0.3364  0.4790
    3TMC2    C313846   3.146   4.549  14.691  0.1872 -0.4022 -0.1951
    3TMC2    C413847   3.275   4.385  14.510  0.0262 -0.8362 -0.2832
    3TMC2    C513848   3.233   4.507  14.474 -0.2060 -0.8607 -0.1916
    3TMC2    C613849   3.173   4.595  14.567 -0.7386 -0.4358 -0.7051
    3TMC2     C13850   3.284   4.218  14.680  0.6042 -0.3018  0.7892
    3TMC2     O13851   3.281   4.125  14.600  0.3557  0.1471  0.7018
    3TMC2     H13852   3.128   4.380  14.820 -1.5864  1.3696  0.0707
    3TMC2    H113853   3.330   4.309  14.456  1.4273  0.5289 -0.7348
    3TMC2    H213854   3.161   4.700  14.545 -1.1747 -0.4163 -0.3668
    3TMC2    C713855   3.303   4.562  14.363 -0.5536 -0.4001  0.5085
    3TMC2    C813856   3.074   4.636  14.783  0.1137  0.0793 -0.0160
    3TMC2    O113857   3.415   4.515  14.336  0.6575 -0.2517  0.4332
    3TMC2    O213858   2.991   4.714  14.742 -0.5635 -0.2264 -0.3822
    3TMC2    O513859   3.087   4.589  14.909 -0.5334 -0.0843 -0.2009
    3TMC2    H513860   3.164   4.530  14.920 -2.2861 -2.1622  1.0001
    4MPD2     C13861   2.208   0.485  13.457  0.0904  0.1408  0.2070
    4MPD2    C113862   2.305   0.525  13.367 -0.9941 -0.0916  0.2030
    4MPD2    C213863   2.443   0.509  13.404 -0.4258  0.3423 -0.4777
    4MPD2    C313864   2.474   0.476  13.532  0.4123  0.1644  0.0682
    4MPD2    C413865   2.373   0.446  13.616 -0.2481 -0.0153 -0.1538
    4MPD2    C513866   2.247   0.452  13.580  0.5968 -0.4143 -0.3776
    4MPD2     H13867   2.524   0.536  13.338  0.2158 -0.4196  0.0013
    4MPD2    H113868   2.386   0.405  13.715 -1.0658 -0.8161 -0.3827
    4MPD2    H213869   2.103   0.502  13.436  0.7400  2.7420 -0.9991
    4MPD2    H313870   2.166   0.429  13.648  2.4345 -3.1549  0.8747
    4MPD2     N13871   2.615   0.474  13.568 -0.0481 -1.0062 -0.6489
    4MPD2    H513872   2.684   0.499  13.498 -0.9911  0.1118 -1.1700
    4MPD2    N113873   2.262   0.573  13.240 -0.2365  0.3065 -0.4805
    4MPD2    H713874   2.162   0.557  13.228  0.2648 -1.4407 -2.2148
    5TCq2    C113875   2.661   0.438  13.694 -0.2172 -0.6275  0.3118
    5TCq2    O213876   2.605   0.401  13.792  0.8566  0.2509  0.8994
    5TCq2    C213877   2.811   0.423  13.702 -0.2229  0.4944 -0.2219
    5TCq2    C313878   2.893   0.462  13.602 -0.0998  0.8693 -0.5506
    5TCq2    C413879   3.025   0.421  13.602  0.4365  0.0451 -0.2997
    5TCq2    C513880   3.081   0.336  13.695 -0.8027 -0.9649  0.5944
    5TCq2    C613881   3.001   0.311  13.800 -0.1524 -0.0156 -0.0055
    5TCq2    C713882   2.865   0.344  13.798  0.2744  0.9690 -0.4856
    5TCq2    C813883   3.057   0.250  13.916  0.4979 -1.0707  0.1108
    5TCq2    O413884   2.972   0.213  13.999 -0.4388  0.7644 -0.0111
    5TCq2    C913885   3.106   0.458  13.489  0.3465  0.6623 -0.8381
    5TCq2    O513886   3.221   0.406  13.479  0.0738  0.6615 -0.0945
    5TCq2    O613887   3.050   0.541  13.412  0.5794 -0.2424  0.3253
    5TCq2    H213888   2.853   0.524  13.522  0.6256  1.0936 -0.7414
    5TCq2    H313889   3.179   0.296  13.674 -0.0136  1.3841 -0.1401
    5TCq2    H413890   2.815   0.320  13.892  0.0620  1.2758 -0.5212
    6MPD1     C13891   2.477   1.450  11.614  0.4580  0.0524  0.0025
    6MPD1    C113892   2.383   1.535  11.668  0.1504 -0.1654  0.2815
    6MPD1    C213893   2.390   1.545  11.802 -0.5166 -0.3217 -0.5584
    6MPD1    C313894   2.479   1.471  11.879 -0.1128 -0.2851  0.1199
    6MPD1    C413895   2.565   1.379  11.816 -0.0961  0.6758 -0.1939
    6MPD1    C513896   2.571   1.371  11.681  0.5694 -0.3948 -0.3785
    6MPD1     H13897   2.313   1.609  11.844 -0.2047 -0.6905  0.5732
    6MPD1    H113898   2.630   1.316  11.877 -1.3235  0.8970  1.3388
    6MPD1    H213899   2.483   1.453  11.506  1.5288 -1.3804  0.0300
    6MPD1    H313900   2.648   1.318  11.627  1.0804  0.9003 -0.9072
    6MPD1     N13901   2.487   1.486  12.025 -0.8736  1.2481  0.7988
    6MPD1    H513902   2.547   1.420  12.074 -3.3336  0.0162  2.1736
    6MPD1    N113903   2.284   1.589  11.592  0.1634 -0.3198  0.0496
    6MPD1    H613904   2.293   1.587  11.491  0.7486 -1.4761  0.1343
    6MPD1    H713905   2.246   1.679  11.623 -0.3869 -0.8552  0.9372
    7MPD2     C13906   2.014   1.371  12.727 -0.2941 -0.3013 -0.0937
    7MPD2    C113907   2.108   1.295  12.655  0.3854  0.4178 -0.2730
    7MPD2    C213908   2.126   1.168  12.697  0.3420 -0.1078 -0.1201
    7MPD2    C313909   2.039   1.111  12.787 -0.4535 -0.0519 -0.1914
    7MPD2    C413910   1.936   1.180  12.850 -0.4358 -0.4198  0.2380
    7MPD2    C513911   1.925   1.314  12.824 -0.1783 -0.1474 -0.0521
    7MPD2     H13912   2.195   1.105  12.642  0.4714  0.1720 -0.2774
    7MPD2    H113913   1.873   1.129  12.921 -2.1603  1.4783  0.0895
    7MPD2    H213914   2.006   1.475  12.701 -0.5508 -0.3443 -0.1891
    7MPD2    H313915   1.882   1.387  12.891  0.8804  0.5215 -0.0921
    7MPD2     N13916   2.071   0.977  12.819 -0.6091 -0.2591 -0.6250
    7MPD2    H513917   2.142   0.939  12.757  1.2618  2.6048 -0.2437
    7MPD2    N113918   2.201   1.346  12.564 -0.0215  0.5483 -0.9142
    7MPD2    H713919   2.270   1.280  12.530  1.8656  2.2280 -0.4058
    8TMC3    C113920   2.099   0.760  12.908 -0.1424  0.0220 -0.6579
    8TMC3    C213921   2.153   0.723  13.025 -0.0909  0.2831 -0.1765
    8TMC3    C313922   2.276   0.659  13.021  0.1080 -0.4376 -0.0478
    8TMC3    C413923   2.170   0.736  12.794  0.0544 -0.1613  0.3369
    8TMC3    C513924   2.301   0.691  12.787 -0.0175  0.3431 -0.6299
    8TMC3    C613925   2.357   0.659  12.906 -0.4766  0.2753  0.7634
    8TMC3     C13926   2.029   0.890  12.916  0.2224 -0.8853 -0.4357
    8TMC3     O13927   1.967   0.923  13.017  0.3860 -0.1232  0.2543
    8TMC3     H13928   2.097   0.739  13.117  1.4699 -1.6275  1.1025
    8TMC3    H113929   2.114   0.741  12.701 -0.2138  1.1581  0.5747
    8TMC3    H213930   2.451   0.604  12.906 -0.7132 -0.1311  2.1192
    8TMC3    C713931   2.365   0.774  12.695 -0.0216 -0.5821  0.6554
    8TMC3    C813932   2.342   0.609  13.139 -0.3101 -0.0817  1.1264
    8TMC3    O113933   2.301   0.845  12.620 -0.7193  0.0306 -0.5738
    8TMC3    O213934   2.465   0.607  13.128 -0.1948 -0.2659  0.1442
    9TMC3    C113935   2.449   1.546  12.255 -0.1519 -0.3647 -0.1860
    9TMC3    C213936   2.560   1.476  12.302 -0.6760 -0.2725 -0.2343
    9TMC3    C313937   2.549   1.406  12.419 -0.0055 -0.5678  0.3932
    9TMC3    C413938   2.332   1.548  12.326  0.4035  0.5083  0.0862
    9TMC3    C513939   2.332   1.478  12.448 -0.2257  0.6203 -0.4638
    9TMC3    C613940   2.442   1.406  12.495 -0.0795 -0.1708 -0.7077
    9TMC3     C13941   2.430   1.577  12.111  0.2371 -0.1616 -0.2212
    9TMC3     O13942   2.339   1.652  12.073  0.1478  0.2920  0.1255
    9TMC3     H13943   2.654   1.476  12.249  0.5718 -0.4747  1.9999
    9TMC3    H113944   2.245   1.596  12.282 -1.0858 -0.6877  1.7475
    9TMC3    H213945   2.440   1.356  12.591 -2.5069 -1.8879 -1.6578
    9TMC3    C713946   2.216   1.470  12.524 -0.3312 -0.0234 -0.1013
    9TMC3    C813947   2.634   1.296  12.436 -0.5097 -0.2884  0.0763
    9TMC3    O113948   2.153   1.573  12.545  0.2953  0.3373 -0.2789
    9TMC3    O213949   2.750   1.316  12.438 -0.1065  0.3252 -0.2061
   10MPD2     C13950   2.714   0.821  12.626  0.1831  0.2467 -0.1710
   10MPD2    C113951   2.585   0.862  12.641  0.2985 -0.4670  0.2392
   10MPD2    C213952   2.541   0.981  12.588  0.5725 -0.4455  0.2774
   10MPD2    C313953   2.625   1.068  12.527  0.4080 -0.6190  0.1024
   10MPD2    C413954   2.757   1.030  12.518 -0.2443 -0.7071 -0.8379
   10MPD2    C513955   2.798   0.909  12.565 -0.2975  0.4074 -0.4122
   10MPD2     H13956   2.437   1.011  12.592  0.2295 -1.6895  0.6794
   10MPD2    H113957   2.828   1.099  12.474  1.3628 -0.9416  1.3912
   10MPD2    H213958   2.762   0.731  12.664 -0.6340 -0.6073 -1.1483
   10MPD2    H313959   2.901   0.877  12.550 -0.5326 -0.3543 -0.4179
   10MPD2     N13960   2.569   1.183  12.472  0.1513 -0.7423  0.5287
   10MPD2    H513961   2.469   1.184  12.460  0.0927 -0.0727  1.0076
   10MPD2    N113962   2.504   0.767  12.704 -0.0773 -0.1882  0.0800
   10MPD2    H713963   2.545   0.699  12.766  0.7077 -1.0773 -1.4188
   11MPD2     C13964   3.444   0.049  14.204  0.3301 -0.1550  0.2522
   11MPD2    C113965   3.303   0.036  14.207  0.5170  0.0201 -0.9836
   11MPD2    C213966   3.219   0.102  14.117  0.1377 -0.1589 -0.3306
   11MPD2    C313967   3.270   0.191  14.024 -0.0950  0.3081  0.2993
   11MPD2    C413968   3.404   0.214  14.030 -0.4938  0.0333  0.0588
   11MPD2    C513969   3.489   0.146  14.115  0.6073  0.0276 -0.2165
   11MPD2     H13970   3.115   0.070  14.116  0.2164 -0.3537 -1.5929
   11MPD2    H113971   3.454   0.286  13.966 -0.0988 -1.0652 -0.8802
   11MPD2    H213972   3.517   0.008  14.272  0.0340 -0.5932  0.3059
   11MPD2    H313973   3.595   0.169  14.116  1.2226 -2.8094  0.0070
   11MPD2     N13974   3.194   0.254  13.923  0.3837 -0.3198 -0.0245
   11MPD2    H513975   3.239   0.301  13.845  0.2175  1.5692  1.0344
   11MPD2    N113976   3.238   4.671  14.300 -0.4323  0.1713  0.1448
   11MPD2    H713977   3.140   4.682  14.321 -0.1950  1.1454  0.7297
    1MPD1     C13978   1.042   0.694  17.362 -0.8790 -0.3236 -0.0140
    1MPD1    C113979   0.906   0.685  17.386  0.3347 -0.4190  0.1393
    1MPD1    C213980   0.823   0.791  17.393 -0.0200 -0.2765 -0.9922
    1MPD1    C313981   0.877   0.921  17.375  0.3251 -0.3562  1.2763
    1MPD1    C413982   1.011   0.937  17.341  0.2287 -0.8049 -0.0462
    1MPD1    C513983   1.084   0.820  17.339 -0.1468 -0.4320  0.4537
    1MPD1     H13984   0.721   0.766  17.419 -0.7074  2.3374 -1.1468
    1MPD1    H113985   1.059   1.034  17.339  1.4895 -1.4891 -2.7285
    1MPD1    H213986   1.104   0.606  17.362  0.6935  0.7965 -3.2171
    1MPD1    H313987   1.189   0.830  17.313 -0.7514  0.5102 -1.5833
    1MPD1     N13988   0.797   1.036  17.375 -0.3678 -0.1167  0.3119
    1MPD1    H513989   0.840   1.121  17.340 -2.1296 -0.4239 -2.5479
    1MPD1    N113990   0.857   0.560  17.420  0.6498  0.4498  0.6837
    1MPD1    H613991   0.913   0.480  17.391 -1.1878 -0.6735  0.2377
    1MPD1    H713992   0.762   0.545  17.387  0.9743  0.1644 -0.1126
    2MPD1     C13993   0.547   1.967  17.568  0.3078 -0.1220  0.5491
    2MPD1    C113994   0.422   1.920  17.536 -0.7998  0.3946  0.2561
    2MPD1    C213995   0.411   1.805  17.462  0.2106  0.3994  0.3390
    2MPD1    C313996   0.525   1.724  17.449 -1.3018  0.4795  0.2295
    2MPD1    C413997   0.645   1.769  17.506  0.7537 -0.4266 -0.1546
    2MPD1    C513998   0.656   1.890  17.565  0.4526 -0.2052  0.3130
    2MPD1     H13999   0.320   1.766  17.418  0.9894 -0.5903 -0.4154
    2MPD1    H114000   0.740   1.718  17.503  0.3307 -1.2633  0.7111
    2MPD1    H214001   0.538   2.063  17.618 -0.2371  0.0598  0.1003
    2MPD1    H314002   0.746   1.930  17.612 -0.9251  3.8632 -0.5163
    2MPD1     N14003   0.517   1.602  17.393  0.0169 -0.6336 -0.0778
    2MPD1    H514004   0.423   1.572  17.369  0.5510 -1.7410 -0.7901
    2MPD1    N114005   0.320   2.011  17.536 -0.1009 -0.5999 -0.5133
    2MPD1    H614006   0.317   2.069  17.620  3.1303  0.9643 -1.4544
    2MPD1    H714007   0.231   1.963  17.536 -1.3736  1.7647  0.3476
    3TMC3    C114008   0.571   1.385  17.326  0.0659  0.0808 -0.1900
    3TMC3    C214009   0.457   1.367  17.251 -0.2371 -0.6423  0.1131
    3TMC3    C314010   0.414   1.240  17.225 -0.6221  0.0046 -0.0902
    3TMC3    C414011   0.638   1.275  17.364  0.2185  0.1778 -0.1016
    3TMC3    C514012   0.599   1.149  17.331 -0.0460 -0.5852  0.4054
    3TMC3    C614013   0.480   1.127  17.266  0.1292 -0.2729 -0.2862
    3TMC3     C14014   0.616   1.510  17.373 -0.0465 -0.0976 -0.0972
    3TMC3     O14015   0.734   1.504  17.400  0.2463 -0.1591  0.1148
    3TMC3     H14016   0.418   1.457  17.205 -1.2344 -0.4525  1.3220
    3TMC3    H114017   0.730   1.277  17.421 -0.0486 -0.3407  0.3482
    3TMC3    H214018   0.439   1.030  17.242  0.5746 -0.7334  0.7927
    3TMC3    C714019   0.659   1.030  17.382  0.6546 -0.3125 -0.1269
    3TMC3    C814020   0.298   1.216  17.141 -0.5052  0.0413  0.0221
    3TMC3    O114021   0.584   0.938  17.393 -0.2267  0.4365  0.4275
    3TMC3    O214022   0.293   1.108  17.093 -0.0793  0.0901  0.0180
    4MPD1     C14023   4.532   1.282  16.964  0.5396  0.5683  0.7381
    4MPD1    C114024   4.557   1.391  17.054  0.3424 -0.1593 -0.1036
    4MPD1    C214025   4.686   1.399  17.111 -0.4079  0.5478  0.3183
    4MPD1    C314026   0.064   1.304  17.086  0.3300  0.5170 -0.0373
    4MPD1    C414027   0.032   1.196  17.007  0.2418 -0.2520  0.0078
    4MPD1    C514028   4.628   1.183  16.947 -0.0379 -0.3580  0.0017
    4MPD1     H14029   0.001   1.482  17.171 -0.4867  0.7022  0.1540
    4MPD1    H114030   0.103   1.117  16.986 -0.2982 -0.9794  0.9107
    4MPD1    H214031   4.436   1.276  16.914  0.7269  1.4473  0.2571
    4MPD1    H314032   4.609   1.100  16.881 -1.1823 -0.5726  0.5966
    4MPD1     N14033   0.199   1.313  17.137 -0.7035  0.5112  0.5059
    4MPD1    H514034   0.222   1.399  17.186  2.6459 -1.7226  2.8163
    4MPD1    N114035   4.466   1.497  17.085  0.0608 -0.1543  0.1809
    4MPD1    H614036   4.487   1.540  17.175  0.0599 -0.1838  0.1949
    4MPD1    H714037   4.371   1.463  17.074 -0.8756  2.2666  0.7587
    1TCq1    O114038   2.670   1.151  11.329 -0.0218  0.0396 -0.1266
    1TCq1    C114039   2.730   1.069  11.414 -0.3129 -1.0473 -0.0357
    1TCq1    O214040   2.849   1.046  11.421 -0.1860 -0.1322 -0.1262
    1TCq1    C214041   2.633   1.009  11.503  0.0788 -0.2728  0.1916
    1TCq1    C314042   2.506   0.967  11.458  0.8134  0.6252 -0.0263
    1TCq1    C414043   2.408   0.925  11.543 -0.5724 -0.3504 -0.7821
    1TCq1    C514044   2.417   0.959  11.672 -0.9558 -1.0537 -0.5599
    1TCq1    C614045   2.544   1.002  11.725 -0.2252 -0.4453  0.2820
    1TCq1    C714046   2.652   1.022  11.638 -0.1581 -0.0819 -0.0402
    1TCq1    C814047   2.570   0.985  11.866 -0.4899 -0.4844 -0.4988
    1TCq1    O414048   2.675   1.032  11.913  0.1414 -0.2743  0.0303
    1TCq1    C914049   2.283   0.912  11.481  0.2581 -0.8372  0.1330
    1TCq1    O514050   2.271   0.937  11.359 -0.0296 -0.0227 -0.0021
    1TCq1    O614051   2.184   0.885  11.553 -0.1259  0.0326 -0.2466
    1TCq1    H114052   2.573   1.164  11.337 -0.2404 -0.4130 -2.0665
    1TCq1    H214053   2.504   0.940  11.353  1.7953 -0.1830  0.1572
    1TCq1    H314054   2.325   0.964  11.727  0.3227 -0.5938  1.5223
    1TCq1    H414055   2.753   1.043  11.672 -1.0832  0.0558  2.6337
    2MPD1     C14056   2.439   0.822  12.333  1.1433  0.0911 -0.4372
    2MPD1    C114057   2.325   0.856  12.266  0.1693 -0.2234  0.2327
    2MPD1    C214058   2.333   0.887  12.133 -0.2001  0.0836 -0.1174
    2MPD1    C314059   2.455   0.893  12.062  0.1561  0.1367  0.0394
    2MPD1    C414060   2.569   0.881  12.141 -0.3332 -0.4233  0.1790
    2MPD1    C514061   2.560   0.837  12.268  0.2080 -0.2117  1.3996
    2MPD1     H14062   2.241   0.905  12.078 -0.2649  0.1540  0.0154
    2MPD1    H114063   2.667   0.897  12.098 -0.9560  3.3180  0.1894
    2MPD1    H214064   2.443   0.794  12.437 -0.5070  1.2390 -0.0511
    2MPD1    H314065   2.649   0.833  12.331 -0.4457 -0.0875  2.3298
    2MPD1     N14066   2.455   0.943  11.931 -0.1055 -0.6632  0.0497
    2MPD1    H514067   2.370   0.945  11.875 -1.0461 -1.1373  1.4274
    2MPD1    N114068   2.201   0.832  12.321 -0.0026 -0.3194 -0.3119
    2MPD1    H614069   2.135   0.906  12.297  0.1029 -0.9370 -2.5695
    2MPD1    H714070   2.197   0.821  12.422  0.0508 -1.7866 -0.4691
    1TCq1    O114071   4.351   0.719   9.336  0.2049  0.2376 -0.2596
    1TCq1    C114072   4.450   0.712   9.428  0.5877 -0.5585 -0.5118
    1TCq1    O214073   4.514   0.814   9.460  0.0843 -0.6557 -0.5117
    1TCq1    C214074   4.514   0.588   9.416 -0.6657 -0.5544  0.5076
    1TCq1    C314075   4.653   0.582   9.402 -0.1740  0.3146  0.4102
    1TCq1    C414076   4.709   0.458   9.369  0.0230  0.6206 -0.1787
    1TCq1    C514077   4.625   0.355   9.333  0.5503 -0.3222 -0.1376
    1TCq1    C614078   4.489   0.365   9.354 -0.3671 -0.4544 -0.3435
    1TCq1    C714079   4.433   0.485   9.388  0.1953  0.2049  0.2227
    1TCq1    C814080   4.412   0.241   9.363 -0.0964  0.4392 -0.7915
    1TCq1    O414081   4.290   0.243   9.363  0.1159  0.0869  0.1396
    1TCq1    C914082   0.124   0.462   9.316 -0.5969  0.6242 -0.1947
    1TCq1    O514083   0.165   0.576   9.288 -0.0980 -0.0556  0.2882
    1TCq1    O614084   0.187   0.358   9.297  0.3075 -0.1797  0.9011
    1TCq1    H114085   4.326   0.635   9.292 -0.5325  0.4165 -0.1789
    1TCq1    H214086   4.719   0.664   9.428 -1.0293  0.2985  2.6248
    1TCq1    H314087   4.667   0.266   9.287  0.1651 -0.6620  0.1735
    1TCq1    H414088   4.325   0.481   9.390  0.2291  1.0930  3.2847
    2MPD1     C14089   4.398   4.447   9.372 -0.1729 -0.1935  0.3845
    2MPD1    C114090   4.527   4.482   9.374  1.0006  0.3852 -0.4991
    2MPD1    C214091   4.546   4.622   9.359  0.6839 -0.0958  0.4842
    2MPD1    C314092   4.447   4.719   9.358  0.3123  0.3163  0.0750
    2MPD1    C414093   4.316   4.675   9.357  0.1061 -0.4057  0.5078
    2MPD1    C514094   4.294   4.538   9.367 -0.0155  0.4475 -0.0706
    2MPD1     H14095   4.647   4.656   9.339 -0.0886  1.6833 -0.4091
    2MPD1    H114096   4.229   0.017   9.362  0.8911  0.5360  2.0148
    2MPD1    H214097   4.371   4.348   9.408  0.3107 -0.1933  0.7569
    2MPD1    H314098   4.193   4.497   9.365  0.1759  0.0069 -0.6487
    2MPD1     N14099   4.492   0.129   9.360  0.1852  0.3033 -0.5041
    2MPD1    H514100   4.593   0.141   9.358  0.3718 -1.4083 -1.8343
    2MPD1    N114101   4.633   4.398   9.363 -0.0099  0.4988 -0.6608
    2MPD1    H614102   4.619   4.312   9.416 -1.8137  1.3323  0.1908
    2MPD1    H714103   4.722   4.441   9.389 -0.6781  0.9973  0.7987
    1MPD1     C14104   4.129   2.439  11.468 -0.3487  0.4501  0.4536
    1MPD1    C114105   4.243   2.483  11.403  0.5736 -0.7902 -0.2003
    1MPD1    C214106   4.369   2.447  11.448 -0.5069 -0.2770 -0.3838
    1MPD1    C314107   4.387   2.370  11.561 -0.4381 -0.3531 -0.1904
    1MPD1    C414108   4.279   2.335  11.637 -0.0740 -0.6688  0.5664
    1MPD1    C514109   4.150   2.362  11.583  0.1354  0.8339 -0.4922
    1MPD1     H14110   4.454   2.463  11.383  0.7787  0.7899  1.5735
    1MPD1    H114111   4.278   2.252  11.706 -2.5530  0.0347  1.3647
    1MPD1    H214112   4.028   2.468  11.442 -1.6413 -1.0332  3.7818
    1MPD1    H314113   4.075   2.308  11.640 -1.6587  1.7090 -2.0205
    1MPD1     N14114   4.518   2.330  11.600 -0.0731 -0.1596  0.3255
    1MPD1    H514115   4.592   2.369  11.542 -1.0402 -0.0355 -0.8236
    1MPD1    N114116   4.236   2.534  11.270 -0.3834 -0.4809 -0.1534
    1MPD1    H614117   4.143   2.573  11.256  1.0168  2.9529  0.1654
    1MPD1    H714118   4.296   2.615  11.256 -1.5647  0.1688 -1.3839
    2MPD1     C14119   3.662   1.893  10.750 -0.5960  0.3802  0.4358
    2MPD1    C114120   3.536   1.830  10.765  0.7131  0.7033 -0.2450
    2MPD1    C214121   3.527   1.708  10.831  1.1372 -0.0075  0.7605
    2MPD1    C314122   3.637   1.641  10.870 -0.1705 -0.4602  0.3533
    2MPD1    C414123   3.759   1.697  10.860 -0.4543  0.2046  0.2301
    2MPD1    C514124   3.766   1.821  10.801 -0.2165 -0.3487  0.6994
    2MPD1     H14125   3.428   1.665  10.846  0.0659  1.9872 -0.5052
    2MPD1    H114126   3.853   1.660  10.900 -1.2491 -0.9605  1.0063
    2MPD1    H214127   3.679   1.990  10.705  1.4533 -0.6872 -1.0683
    2MPD1    H314128   3.867   1.859  10.800  0.3585 -1.8434  0.8871
    2MPD1     N14129   3.639   1.512  10.920 -0.7227 -0.3983  0.4621
    2MPD1    H514130   3.726   1.464  10.942 -0.6499 -0.5022 -0.0614
    2MPD1    N114131   3.421   1.899  10.719 -0.1719  0.0486  0.3222
    2MPD1    H614132   3.429   1.997  10.695 -2.6510 -0.0673 -1.0195
    2MPD1    H714133   3.344   1.888  10.784 -1.0865  2.5388 -0.3641
    3MPD1     C14134   3.210   0.717  10.571  0.5048 -0.1796 -0.2131
    3MPD1    C114135   3.156   0.726  10.697  0.4457  0.8546  0.1855
    3MPD1    C214136   3.216   0.809  10.784 -1.0884 -0.3001 -0.1150
    3MPD1    C314137   3.335   0.880  10.749 -0.5821 -0.4696  0.0811
    3MPD1    C414138   3.387   0.858  10.625 -0.4664  0.4778  0.1362
    3MPD1    C514139   3.330   0.768  10.544  0.5245 -1.0635  0.3972
    3MPD1     H14140   3.174   0.819  10.883 -1.4663  0.5343 -0.3577
    3MPD1    H114141   3.465   0.905  10.566  0.2844 -0.2862  0.5084
    3MPD1    H214142   3.177   0.637  10.505  1.2405 -0.6458 -0.0209
    3MPD1    H314143   3.369   0.752  10.444  1.2490 -1.9611  0.8282
    3MPD1     N14144   3.402   0.954  10.844 -0.6999  1.1385 -0.0095
    3MPD1    H514145   3.357   0.973  10.933  0.0490 -3.7454  1.3890
    3MPD1    N114146   3.028   0.678  10.721 -0.5117  0.5081 -0.3869
    3MPD1    H614147   3.025   0.644  10.817  0.6637 -0.1523 -0.5922
    3MPD1    H714148   3.016   0.596  10.661 -0.9970 -0.9902  1.7617
    4MPD2     C14149   0.184   1.940  11.208 -0.1909  0.1854  0.5348
    4MPD2    C114150   0.166   1.895  11.334 -0.2790  0.0222  0.2677
    4MPD2    C214151   0.105   1.775  11.358  0.5631  0.5139 -0.4719
    4MPD2    C314152   0.069   1.692  11.251  0.0146  0.1594  1.1166
    4MPD2    C414153   0.087   1.733  11.119  0.0378  0.0259 -0.2353
    4MPD2    C514154   0.145   1.860  11.097 -0.6016 -0.0496 -0.2983
    4MPD2     H14155   0.081   1.754  11.461  1.7607  1.1852 -0.0533
    4MPD2    H114156   0.064   1.674  11.031 -2.2652  2.1179 -1.0402
    4MPD2    H214157   0.228   2.035  11.179 -1.1365  0.2611 -0.6731
    4MPD2    H314158   0.163   1.896  10.996  0.4677  3.8003  1.2914
    4MPD2     N14159   0.018   1.559  11.270 -0.1048  0.5228 -0.6348
    4MPD2    H514160   4.706   1.510  11.188 -0.4885  1.1340 -0.8393
    4MPD2    N114161   0.187   1.974  11.449 -0.5417  0.7105  0.7174
    4MPD2    H714162   0.156   1.932  11.536  1.3384 -0.3862  0.8373
    5TMC3    C114163   0.172   2.157  11.581 -0.0750  0.2167 -0.0690
    5TMC3    C214164   0.056   2.232  11.594  0.6207 -0.6702  0.2821
    5TMC3    C314165   4.694   2.205  11.701  0.0279  0.3400 -0.0812
    5TMC3    C414166   0.199   2.052  11.674  0.2241  0.4701 -0.3994
    5TMC3    C514167   0.111   2.026  11.777  0.7638  0.3399  0.2600
    5TMC3    C614168   4.721   2.105  11.792 -0.2569 -0.8174  0.2947
    5TMC3     C14169   0.198   2.111  11.445  0.5094 -0.3890 -0.0308
    5TMC3     O14170   0.205   2.185  11.349  0.0470  0.2891 -0.3661
    5TMC3     H14171   0.025   2.305  11.520 -2.4919 -3.1872 -0.8735
    5TMC3    H114172   0.288   1.990  11.665  1.4439  2.3515 -1.2079
    5TMC3    H214173   4.648   2.077  11.867  0.9929 -0.6343  1.5861
    5TMC3    C714174   0.091   1.884  11.793 -0.0835 -0.0926  0.6062
    5TMC3    C814175   4.553   2.251  11.702  0.5722  0.1041  0.3122
    5TMC3    O114176   0.142   1.818  11.702  0.3179  0.0610  0.2766
    5TMC3    O214177   4.492   2.221  11.804  0.0871 -0.3966 -0.1284
    6TMC3    C114178   3.579   1.304  10.995 -0.4521  0.4009  0.8833
    6TMC3    C214179   3.498   1.208  10.954  0.1422  0.1885  1.1654
    6TMC3    C314180   3.560   1.085  10.948 -0.6454 -0.4012  0.2382
    6TMC3    C414181   3.703   1.293  11.052  0.2161  0.2689  0.8082
    6TMC3    C514182   3.750   1.162  11.062  0.3168 -0.2735  0.0796
    6TMC3    C614183   3.685   1.057  10.995 -0.5857 -0.4757  0.3861
    6TMC3     C14184   3.530   1.437  10.952  0.2406 -0.6409 -0.3735
    6TMC3     O14185   3.413   1.468  10.964  0.1565  0.9163  0.4012
    6TMC3     H14186   3.403   1.235  10.909  1.7054  1.3416 -1.4568
    6TMC3    H114187   3.748   1.374  11.108  0.5522  0.1863  0.6566
    6TMC3    H214188   3.735   0.962  10.982 -1.6748 -0.6687 -2.2806
    6TMC3    C714189   3.887   1.144  11.109 -0.0054 -0.1477  0.0095
    6TMC3    C814190   3.530   1.005  10.830 -0.4945 -0.5322  0.4914
    6TMC3    O114191   3.949   1.246  11.130 -0.1283  0.5236  0.2795
    6TMC3    O214192   3.625   0.980  10.760 -0.4348 -0.2629 -0.5612
    7MPD2     C14193   4.584   1.459  11.955  0.0918 -0.4010  0.6378
    7MPD2    C114194   4.648   1.485  11.837 -0.0243 -0.1235  0.1384
    7MPD2    C214195   4.683   1.614  11.809  0.0608  0.1632 -0.0694
    7MPD2    C314196   4.689   1.709  11.914  0.2001  0.2916  0.1447
    7MPD2    C414197   4.645   1.681  12.038 -0.2296 -0.4005  0.9057
    7MPD2    C514198   4.575   1.563  12.052 -0.5554  0.6292 -0.0271
    7MPD2     H14199   4.716   1.640  11.709 -1.0110 -0.0887 -0.4836
    7MPD2    H114200   4.629   1.768  12.101 -0.9506  0.6319 -0.7017
    7MPD2    H214201   4.530   1.367  11.975  1.0706 -1.0506  0.2591
    7MPD2    H314202   4.521   1.553  12.145 -1.9173  1.5313 -0.7091
    7MPD2     N14203   0.012   1.837  11.892  0.2714  0.1231  0.1327
    7MPD2    H514204   0.008   1.895  11.975  3.3457 -0.4388  0.6635
    7MPD2    N114205   4.669   1.397  11.727 -0.1552  0.8161  0.3506
    7MPD2    H714206   0.002   1.433  11.650  0.0567 -0.9220 -0.2911
    8TMC3    C114207   4.623   1.235  11.569  0.1470 -0.4913  0.0416
    8TMC3    C214208   4.511   1.207  11.499 -0.5080 -0.7185  0.2137
    8TMC3    C314209   4.485   1.274  11.388  0.1795 -0.0920 -0.7717
    8TMC3    C414210   0.002   1.305  11.511  0.1835  0.4572  0.4099
    8TMC3    C514211   4.696   1.364  11.389  0.0762 -0.6522  0.6907
    8TMC3    C614212   4.573   1.362  11.324  0.5888  0.1764  0.2125
    8TMC3     C14213   4.609   1.275  11.709  0.5973  0.1216 -0.1884
    8TMC3     O14214   4.534   1.214  11.786  0.1305 -0.3154  0.3813
    8TMC3     H14215   4.433   1.149  11.548  2.1389 -2.5499  2.3002
    8TMC3    H114216   0.100   1.304  11.558 -0.2278 -0.0122  1.2559
    8TMC3    H214217   4.542   1.419  11.237 -1.0433 -2.2584 -0.8013
    8TMC3    C714218   0.031   1.493  11.389 -0.5544 -0.4985 -0.2187
    8TMC3    C814219   4.388   1.211  11.302 -0.7135  0.3217 -0.6709
    8TMC3    O114220   0.105   1.514  11.483 -0.0189  0.2551  0.2452
    8TMC3    O214221   4.344   1.284  11.214 -0.5224 -0.2400  0.5192
    9MPD2     C14222   4.248   0.868  11.324 -0.4506  0.0797 -0.4225
    9MPD2    C114223   4.263   0.988  11.269 -0.6164  0.2105 -0.4181
    9MPD2    C214224   4.154   1.039  11.196  0.8053 -0.4078  0.1900
    9MPD2    C314225   4.036   0.961  11.184  0.0164  0.2200 -0.3214
    9MPD2    C414226   4.034   0.831  11.232  0.3906 -0.8037 -0.4193
    9MPD2    C514227   4.142   0.785  11.304  0.5922 -0.3596 -0.0796
    9MPD2     H14228   4.154   1.141  11.159 -1.3939 -0.5759 -0.2663
    9MPD2    H114229   3.945   0.769  11.240  0.1373 -0.2562  1.1547
    9MPD2    H214230   4.334   0.824  11.375 -0.2346  1.0058  0.0057
    9MPD2    H314231   4.145   0.694  11.363 -0.6991  0.4816  1.2917
    9MPD2     N14232   3.914   1.012  11.138 -0.8149 -0.2719  0.4916
    9MPD2    H514233   3.839   0.944  11.148 -2.4011  1.4235  0.1515
    9MPD2    N114234   4.369   1.070  11.319  0.9113  0.4538  0.1279
    9MPD2    H714235   4.431   1.017  11.380  1.4289 -0.8217 -1.4739
    1MPD1     C14236   0.120   0.529  16.324 -0.6524 -0.5290 -0.3454
    1MPD1    C114237   0.174   0.476  16.201  0.3601 -0.3809  0.2220
    1MPD1    C214238   0.233   0.352  16.199  0.0656 -0.2919  0.6764
    1MPD1    C314239   0.251   0.280  16.317  0.0023  0.8062 -0.5509
    1MPD1    C414240   0.199   0.328  16.438 -0.0126  0.6032  0.0550
    1MPD1    C514241   0.131   0.453  16.439  0.0037 -0.1064  0.1908
    1MPD1     H14242   0.276   0.315  16.107 -1.0235  1.1184 -0.3913
    1MPD1    H114243   0.218   0.272  16.529 -1.3441 -1.3975 -0.8946
    1MPD1    H214244   0.079   0.629  16.327  0.0869 -0.2538  0.5301
    1MPD1    H314245   0.095   0.493  16.533  2.0657  0.8566  0.5662
    1MPD1     N14246   0.308   0.152  16.325 -0.0826 -0.0865 -0.3991
    1MPD1    H514247   0.291   0.106  16.414 -1.4257 -1.3510 -1.3019
    1MPD1    N114248   0.149   0.545  16.081 -0.2803  0.0179 -0.2259
    1MPD1    H614249   0.223   0.525  16.014 -2.9073  0.9721 -3.3944
    1MPD1    H714250   0.156   0.644  16.102 -1.5192  0.3398 -1.2918
    2MPD1     C14251   4.682   4.393  16.898  0.0466 -0.3136 -0.2618
    2MPD1    C114252   4.674   4.518  16.843  0.5463 -0.4944  0.1186
    2MPD1    C214253   0.019   4.551  16.728  0.0281  0.6684  0.5858
    2MPD1    C314254   0.099   4.452  16.663 -0.8814  0.3200  0.1902
    2MPD1    C414255   0.118   4.336  16.729  0.0859 -0.2917 -0.5417
    2MPD1    C514256   0.050   4.310  16.844 -0.2858  0.7761  0.2473
    2MPD1     H14257   4.717   4.648  16.686  3.1871  0.9277 -0.7131
    2MPD1    H114258   0.193   4.263  16.700  0.9540  1.3244 -2.3440
    2MPD1    H214259   4.617   4.361  16.979  0.2078 -1.3026 -0.5168
    2MPD1    H314260   0.058   4.215  16.896 -2.7369  1.4976  1.9591
    2MPD1     N14261   0.164   4.487  16.547 -0.0916 -0.0898  0.2967
    2MPD1    H514262   0.155   4.585  16.521 -0.9239 -0.5823 -1.2893
    2MPD1    N114263   4.585   4.605  16.901 -0.4716  0.2197  0.1200
    2MPD1    H614264   4.615   4.702  16.902  0.3050 -0.0295  0.6832
    2MPD1    H714265   4.567   4.578  16.997 -0.2611 -1.5141 -0.3400
    3TCq2    C114266   0.242   4.407  16.469 -1.1322  0.3283  0.1778
    3TCq2    O214267   0.272   4.290  16.482  1.3971  0.0888  0.6308
    3TCq2    C214268   0.305   4.475  16.350  0.1899 -0.8253  0.1337
    3TCq2    C314269   0.385   4.404  16.263 -0.0778  0.9445  0.1882
    3TCq2    C414270   0.440   4.464  16.157  0.0600 -0.6239  0.5343
    3TCq2    C514271   0.426   4.595  16.143  0.1179  0.3303  0.2368
    3TCq2    C614272   0.374   4.670  16.244  0.2373  0.2547  0.1912
    3TCq2    C714273   0.307   4.615  16.348  0.3180  0.5032  0.2747
    3TCq2    C814274   0.373   0.092  16.219 -0.0184 -0.0068 -0.2427
    3TCq2    O414275   0.426   0.135  16.118 -0.3055  0.3216 -0.2659
    3TCq2    C914276   0.523   4.391  16.067  0.2313 -0.3080  0.3501
    3TCq2    O514277   0.575   4.449  15.967  0.3384 -0.5581 -0.6009
    3TCq2    O614278   0.514   4.264  16.080 -0.1376  0.2886 -0.6158
    3TCq2    H214279   0.387   4.296  16.265  0.1111  0.9947  2.1864
    3TCq2    H314280   0.482   4.643  16.063  1.8583 -0.4789  0.9581
    3TCq2    H414281   0.230   4.668  16.402 -1.2301  0.3939 -1.7888
    1TCq1    O114282   1.139   4.048  12.944 -0.0075 -0.4684 -0.4242
    1TCq1    C114283   1.085   3.943  13.006  0.0534  0.0199  0.6867
    1TCq1    O214284   0.970   3.907  12.985  0.7499  0.6377 -0.3585
    1TCq1    C214285   1.139   3.944  13.138  0.7759 -0.4370 -0.8390
    1TCq1    C314286   1.058   3.927  13.245  0.9578  0.1295 -0.0474
    1TCq1    C414287   1.115   3.908  13.367 -0.2069  0.3382 -0.0627
    1TCq1    C514288   1.250   3.928  13.384 -0.4180  0.7856  0.0135
    1TCq1    C614289   1.326   3.941  13.273 -0.9716  0.7076  0.5682
    1TCq1    C714290   1.275   3.956  13.149 -0.0013 -0.2047  0.1661
    1TCq1    C814291   1.462   3.994  13.285 -1.0010 -0.1737 -0.8541
    1TCq1    O414292   1.538   3.988  13.194  0.1586 -0.5490  0.2905
    1TCq1    C914293   1.033   3.861  13.477  0.2999 -0.3271 -0.3704
    1TCq1    O514294   0.911   3.843  13.457 -0.2786  0.3185  0.1187
    1TCq1    O614295   1.091   3.877  13.591  0.1397  0.1394 -0.0876
    1TCq1    H114296   1.221   4.084  12.986 -1.7439  0.3871  2.2073
    1TCq1    H214297   0.955   3.899  13.227  1.0509 -2.1236  2.8860
    1TCq1    H314298   1.296   3.905  13.479 -0.5788  3.1245  0.6558
    1TCq1    H414299   1.343   3.974  13.066 -0.7694  3.1945  0.2658
    2MPD2     C14300   1.723   4.095  13.383 -0.0625  0.9654 -0.8577
    2MPD2    C114301   1.610   4.078  13.467  0.1766  0.2535 -0.3807
    2MPD2    C214302   1.628   4.089  13.604  0.0580  0.5723 -0.3672
    2MPD2    C314303   1.751   4.128  13.657 -0.3477 -0.0979 -0.4973
    2MPD2    C414304   1.862   4.150  13.569  0.1998  0.0720 -0.2053
    2MPD2    C514305   1.848   4.137  13.435 -0.0080 -0.2049 -0.5802
    2MPD2     H14306   1.540   4.075  13.667 -0.8285 -0.7743 -1.8938
    2MPD2    H114307   1.961   4.178  13.603  0.5906  0.1633 -1.4193
    2MPD2    H214308   1.719   4.091  13.275 -0.8235 -0.2113 -0.7915
    2MPD2    H314309   1.934   4.150  13.370 -0.9173  2.5690 -1.2337
    2MPD2     N14310   1.761   4.141  13.796  0.0705  0.0210  0.1908
    2MPD2    H514311   1.680   4.116  13.851  1.4487 -0.9390  1.7788
    2MPD2    N114312   1.485   4.034  13.417 -0.1453 -0.5032 -0.4955
    2MPD2    H714313   1.409   4.029  13.484  1.3085  0.0556  1.1748
    3TCq1    O114314   1.604   4.433  14.327  0.5827 -0.4714  0.3201
    3TCq1    C114315   1.592   4.365  14.215  0.2224 -0.7024  0.5646
    3TCq1    O214316   1.500   4.379  14.136  0.4955  0.3711 -0.2775
    3TCq1    C214317   1.713   4.285  14.173 -0.0488  0.2781  0.9448
    3TCq1    C314318   1.813   4.265  14.263  0.0947 -0.3611 -0.1085
    3TCq1    C414319   1.938   4.226  14.212  0.1123  0.2142  0.1624
    3TCq1    C514320   1.960   4.210  14.082 -1.1533 -0.1806  0.2771
    3TCq1    C614321   1.851   4.211  14.001 -1.0282 -0.8103 -0.2071
    3TCq1    C714322   1.725   4.255  14.041  0.0830 -0.1062 -0.1196
    3TCq1    C814323   1.868   4.192  13.861 -0.1635 -0.3035 -0.2482
    3TCq1    O414324   1.971   4.243  13.824  0.1983  0.7560 -0.0095
    3TCq1    C914325   2.053   4.200  14.294  0.7165  0.5376 -0.0675
    3TCq1    O514326   2.155   4.150  14.240 -0.2760  0.3645 -0.3093
    3TCq1    O614327   2.039   4.216  14.415 -0.1327 -0.4371 -0.5232
    3TCq1    H114328   1.675   4.393  14.382 -0.6750 -0.0010  2.2678
    3TCq1    H214329   1.800   4.256  14.370  1.2253 -2.4051 -0.1528
    3TCq1    H314330   2.051   4.164  14.045 -1.9246 -1.2335 -0.2757
    3TCq1    H414331   1.634   4.262  13.982 -0.3453 -0.0522  0.5598
    1MPD2     C14332   1.415   0.113  15.365  0.1169 -0.5129 -0.3171
    1MPD2    C114333   1.326   0.013  15.345  0.1153  0.8235 -0.0816
    1MPD2    C214334   1.375   4.609  15.340 -0.6136  0.3540  1.0602
    1MPD2    C314335   1.506   4.580  15.337  0.1324  0.2119  0.0161
    1MPD2    C414336   1.592   4.687  15.353 -0.6550  0.9883 -0.1230
    1MPD2    C514337   1.550   0.090  15.373 -0.7829 -0.1346  0.2644
    1MPD2     H14338   1.313   4.521  15.326 -0.2909  0.0676  1.4424
    1MPD2    H114339   1.700   4.681  15.353 -0.6624  0.8440 -0.0391
    1MPD2    H214340   1.381   0.212  15.395 -0.8060 -1.3771  1.4501
    1MPD2    H314341   1.620   0.162  15.415 -0.9086  0.9203 -1.3008
    1MPD2     N14342   1.539   4.446  15.318 -0.8445 -0.3200 -0.1153
    1MPD2    H514343   1.464   4.378  15.304 -2.2570  1.3474 -0.6953
    1MPD2    N114344   1.190   0.047  15.332  0.2592  0.6664 -0.6201
    1MPD2    H714345   1.158   0.143  15.344 -0.6340  0.3428 -0.4216
    2TMC3    C114346   0.969   0.012  15.269 -0.0713 -0.0312 -0.8869
    2TMC3    C214347   0.882   4.629  15.261 -0.1027  0.3149 -0.0427
    2TMC3    C314348   0.802   4.619  15.148 -0.3822  0.0611 -0.6908
    2TMC3    C414349   0.970   0.113  15.179 -0.1409 -0.2644 -0.1381
    2TMC3    C514350   0.891   0.111  15.067  0.2231 -0.1523 -0.7210
    2TMC3    C614351   0.805   0.004  15.059  0.1861 -0.0234  0.3348
    2TMC3     C14352   1.094   4.677  15.305 -0.3050 -0.3825 -0.5064
    2TMC3     O14353   1.104   4.554  15.292 -0.0441 -0.2096  0.0907
    2TMC3     H14354   0.886   4.547  15.332 -3.6848  2.4003  2.5429
    2TMC3    H114355   1.032   0.199  15.202 -1.4611  0.5733  0.2548
    2TMC3    H214356   0.745   4.719  14.970  1.1515 -0.1691 -0.3003
    2TMC3    C714357   0.861   0.236  15.000 -0.1395 -0.5565  0.1546
    2TMC3    C814358   0.790   4.486  15.090  0.8246 -0.6941 -0.1442
    2TMC3    O114359   0.746   0.239  14.961  0.0109 -0.5252 -0.2132
    2TMC3    O214360   0.711   4.467  14.999  0.1686 -0.4736  0.0219
    3TCq1    O114361   1.396   1.189  14.369  0.1199 -0.0606  0.0544
    3TCq1    C114362   1.373   1.190  14.502 -0.1525  0.4391 -0.1171
    3TCq1    O214363   1.317   1.286  14.556 -0.2387 -0.4666  0.3139
    3TCq1    C214364   1.369   1.049  14.555  0.1753 -0.5053  0.0153
    3TCq1    C314365   1.470   0.972  14.516 -0.0070  0.2768 -1.2127
    3TCq1    C414366   1.473   0.849  14.582 -0.4331  0.2660 -0.6764
    3TCq1    C514367   1.392   0.810  14.682  0.5006  0.0150  0.0431
    3TCq1    C614368   1.295   0.902  14.721 -0.1288  0.5267 -0.1115
    3TCq1    C714369   1.284   1.020  14.658 -0.5236  0.0900 -0.2453
    3TCq1    C814370   1.180   0.865  14.801 -0.6813  0.0586 -0.1321
    3TCq1    O414371   1.101   0.952  14.829 -0.2191 -0.0571  0.3484
    3TCq1    C914372   1.558   0.750  14.533  0.4449 -0.0221 -0.3894
    3TCq1    O514373   1.566   0.645  14.597  0.4297  0.8700 -0.6358
    3TCq1    O614374   1.641   0.769  14.438 -0.7698 -0.3504 -0.0768
    3TCq1    H114375   1.437   1.102  14.351 -1.5533 -0.7097 -0.6130
    3TCq1    H214376   1.550   1.017  14.458  0.6877 -1.7317 -1.8309
    3TCq1    H314377   1.399   0.710  14.725  2.9448  0.2334  0.1654
    3TCq1    H414378   1.196   1.083  14.659 -1.0928 -0.6876 -1.4639
    4MPD2     C14379   0.932   0.709  14.858  0.0757 -0.0078  0.0980
    4MPD2    C114380   1.062   0.659  14.872 -0.6108  0.4638 -0.6035
    4MPD2    C214381   1.069   0.525  14.903  0.6126 -0.8297 -0.0699
    4MPD2    C314382   0.957   0.454  14.938  0.5487  0.0663 -0.2257
    4MPD2    C414383   0.831   0.509  14.928  0.2450  0.2010  0.2274
    4MPD2    C514384   0.815   0.635  14.886 -0.7835  0.0551  0.4594
    4MPD2     H14385   1.168   0.483  14.912 -0.2000 -2.2202  2.3202
    4MPD2    H114386   0.737   0.464  14.958  0.2188 -1.0844 -1.7878
    4MPD2    H214387   0.911   0.808  14.820 -1.9340  0.4232  2.3661
    4MPD2    H314388   0.720   0.684  14.870 -1.2867 -0.7873  0.9190
    4MPD2     N14389   0.967   0.323  14.982  0.2649 -0.0755 -0.0750
    4MPD2    H514390   1.060   0.301  15.017 -0.5702 -0.8718  1.6375
    4MPD2    N114391   1.176   0.729  14.831  0.6454  0.2127 -0.1799
    4MPD2    H714392   1.262   0.679  14.848  0.2335 -1.0563 -1.8430
    5TMC2    C114393   1.463   4.136  15.197  0.2523  0.3313  0.3108
    5TMC2    C214394   1.506   4.136  15.064  0.3370  0.7190 -0.3111
    5TMC2    C314395   1.633   4.184  15.042 -0.5641 -0.6903 -0.0666
    5TMC2    C414396   1.530   4.205  15.291 -0.2672  0.2027 -0.0516
    5TMC2    C514397   1.655   4.260  15.265 -0.0263 -0.5726  0.0514
    5TMC2    C614398   1.704   4.245  15.142 -0.0996 -0.0177  0.5182
    5TMC2     C14399   1.326   4.154  15.210  0.3996  0.1672  0.3008
    5TMC2     O14400   1.294   4.230  15.298 -0.1602 -0.0287 -0.1271
    5TMC2     H14401   1.443   4.114  14.978  0.6944  3.5689 -1.3321
    5TMC2    H114402   1.497   4.202  15.394 -0.6603  0.6218 -0.1665
    5TMC2    H214403   1.805   4.281  15.126  0.4694 -1.6803  0.4030
    5TMC2    C714404   1.663   4.397  15.305 -0.1321 -0.0796  0.7228
    5TMC2    C814405   1.709   4.130  14.934  0.1857  1.1551  0.4183
    5TMC2    O114406   1.775   4.449  15.306 -0.0346  0.3954  0.4818
    5TMC2    O214407   1.824   4.165  14.912 -0.4833  0.1320  0.4225
    5TMC2    O514408   1.655   4.022  14.883 -0.0100  0.1971 -0.5195
    5TMC2    H514409   1.564   3.999  14.912 -0.2048  0.8124 -0.6479
    6MPD2     C14410   0.876   4.214  14.990  0.2217  0.8339  0.0289
    6MPD2    C114411   0.943   4.289  15.083  0.1052 -0.6937 -1.3638
    6MPD2    C214412   1.067   4.252  15.122 -0.2303  0.1073  0.6684
    6MPD2    C314413   1.125   4.133  15.076 -0.1494  0.7921  0.4042
    6MPD2    C414414   1.060   4.051  14.983  0.4172 -0.0441  0.1648
    6MPD2    C514415   0.930   4.094  14.938 -0.7885  0.1091  0.0106
    6MPD2     H14416   1.118   4.311  15.197  1.6475 -0.6297 -0.0511
    6MPD2    H114417   1.095   3.953  14.953  0.9824 -0.2761  1.5843
    6MPD2    H214418   0.783   4.249  14.946 -0.8315 -0.0827  1.5357
    6MPD2    H314419   0.867   4.035  14.873 -1.6592 -0.3014  1.2246
    6MPD2     N14420   1.253   4.096  15.115 -0.0922  0.1240 -0.4665
    6MPD2    H514421   1.299   4.018  15.067  1.2602  0.4946  0.2318
    6MPD2    N114422   0.902   4.417  15.129 -0.1782  0.4928  0.1833
    6MPD2    H714423   0.968   4.467  15.188  1.0510 -0.7260 -0.1803
  945NH4     N114424   3.705   0.560   9.032  0.2396  0.2546 -0.5341
  945NH4     H214425   3.611   0.604   9.019  0.0495  0.5476  1.8688
  945NH4     H314426   3.775   0.624   8.989  0.8978  0.6676  1.1647
  945NH4     H414427   3.699   0.470   8.980 -0.5716  0.9040 -1.5688
  945NH4     H514428   3.715   0.537   9.132  1.3064 -2.0088 -1.1602
  946SOD     NA14429   3.620   4.103   9.941 -0.0994  0.0902  0.3918
  947SOD     NA14430   0.603   2.714  15.264 -0.2189 -0.5157 -0.1068
  948SOD     NA14431   3.190   3.277   0.429  0.1258 -0.0574  0.1324
  949SOD     NA14432   3.141   2.461  13.706 -0.1140 -0.0973 -0.1696
  950SOD     NA14433   3.620   2.208   0.447 -0.1843 -0.0797  0.1632
  951SOD     NA14434   1.572   4.317  11.854  0.2925  0.0714  0.0697
  952SOD     NA14435   3.581   1.341   2.581 -0.0687 -0.3740 -0.1058
  953SOD     NA14436   0.845   2.756  11.466  0.0793  0.1546 -0.3057
  954SOD     NA14437   0.473   3.998  10.850  0.5170  0.0881 -0.1877
  955SOD     NA14438   2.496   4.686   2.957  0.0543 -0.0368 -0.3153
  956SOD     NA14439   0.716   3.744  13.427  0.3859 -0.3083 -0.2013
  957SOD     NA14440   0.343   3.297  13.265  0.2334  0.1191  0.2911
  958SOD     NA14441   0.176   2.590  11.491 -0.5689 -0.3442  0.3893
  959SOD     NA14442   1.782   4.384  10.893  0.0403 -0.3392 -0.4609
  960SOD     NA14443   1.803   0.671  14.559 -0.3026  0.2143  0.1425
  961SOD     NA14444   2.368   3.741   0.443  0.1343 -0.1707  0.1780
  962SOD     NA14445   1.322   2.990   2.963  0.2242  0.0880  0.3436
  963SOD     NA14446   3.149   1.940   8.456  0.5904  0.0568  0.3838
  964SOD     NA14447   3.486   1.334  11.886  0.2900 -0.3658  0.2414
  965SOD     NA14448   3.869   3.656   2.042  0.2092  0.1168 -0.3884
  966SOD     NA14449   3.957   2.508  14.562 -0.2351 -0.0662 -0.0637
  967SOD     NA14450   1.820   1.830  12.397 -0.4775  0.1934 -0.2261
  968SOD     NA14451   0.624   3.387   9.640 -0.4109  0.1802  0.5454
  969SOD     NA14452   2.260   1.845  11.987  0.4978  0.1857  0.1348
  970SOD     NA14453   3.487   2.969   5.308  0.0134 -0.0534 -0.3099
  971SOD     NA14454   2.522   3.650   8.349  0.5520  0.4223  0.2602
  972SOD     NA14455   1.295   4.452  15.723  0.3990  0.2222  0.2478
  973SOD     NA14456   2.053   0.918  11.340  0.9291 -0.2315 -0.5741
  974SOD     NA14457   0.807   0.421  10.683  0.0278 -0.0435 -0.1398
  975SOD     NA14458   1.713   3.811  10.283 -0.1088 -0.2601  0.3756
  976SOD     NA14459   2.770   3.937  14.727  0.1229 -0.5731 -0.2040
  977SOD     NA14460   0.436   0.304   5.879  0.2208 -0.2021 -0.4389
  978SOD     NA14461   3.035   2.981   3.421 -0.1050 -0.8246  0.2998
  979SOD     NA14462   2.168   3.645  12.208 -0.3475 -0.2500  0.5338
  980SOD     NA14463   3.013   3.783  14.849  0.5155  0.2504 -0.5250
  981SOD     NA14464   4.070   3.284   1.836  0.0006 -0.1456  0.0285
  982SOD     NA14465   2.044   3.953  11.830  0.2690 -0.2191  0.1128
  983SOD     NA14466   1.462   4.310  10.156 -0.2320  0.3558  0.3293
  984SOD     NA14467   1.615   0.457  14.529 -0.1797 -0.1502  0.6847
  985SOD     NA14468   4.193   1.399   7.804 -0.2362  0.2959 -0.0514
  986SOD     NA14469   0.462   1.715   1.185 -0.3167  0.1583  0.0633
  987SOD     NA14470   3.181   1.937  16.610  0.0310 -0.2978  0.2452
  988SOD     NA14471   4.245   4.654  15.161  0.2483 -0.2303 -0.0673
  989SOD     NA14472   1.515   1.916   1.617 -0.1917  0.2454 -0.4665
  990SOD     NA14473   1.125   2.705   2.349 -0.1356 -0.1448  0.4605
  991SOD     NA14474   3.567   3.830  13.819  0.6716  0.5761 -0.6618
  992SOD     NA14475   1.011   2.818  15.279  0.2092  0.5776  0.1557
  993SOD     NA14476   1.800   3.947  14.708  0.3227  0.3212 -0.3482
  994SOD     NA14477   4.416   3.915  13.958  0.1610  0.4626 -0.4346
  995SOD     NA14478   0.609   4.386   3.198 -0.4546  0.1978 -0.0975
  996SOD     NA14479   4.493   0.904  14.344  0.6886  0.1140  0.1170
  997SOD     NA14480   1.901   3.808  12.391 -0.1854 -0.1515 -0.2263
  998SOD     NA14481   1.591   3.780  12.377  0.0370 -0.0086 -0.0325
  999SOD     NA14482   2.078   0.662  11.069 -0.5090 -0.3368 -0.4569
 1000SOD     NA14483   3.882   4.618  14.187 -0.0791  0.1714  0.1650
 1001SOD     NA14484   0.433   4.211  15.886  0.0716  0.2851 -0.2601
 1002SOD     NA14485   4.547   3.872   9.277  0.2371 -0.0597  0.1033
 1003SOD     NA14486   4.481   2.421   1.872  0.1205  0.5586  0.3501
 1004SOD     NA14487   3.259   4.465  15.593 -0.1369  0.6553  0.4553
 1005SOD     NA14488   3.441   0.676  13.245  0.1305  0.1867  0.6498
 1006SOD     NA14489   3.589   4.471  15.241  0.1772 -0.1295 -0.3199
 1007SOD     NA14490   4.232   2.772  10.406  0.3891 -0.2269 -0.3851
 1008SOD     NA14491   2.230   4.151  14.487 -0.1532  0.0245 -0.2404
 1009SOD     NA14492   3.123   0.297  10.726 -0.1706 -0.2747  0.1545
 1010SOD     NA14493   2.620   4.482   5.442 -0.0651  0.2091  0.2183
 1011SOL     OW14494   2.982   1.601   0.280 -0.1259  0.4220 -0.1437
 1011SOL    HW114495   2.960   1.516   0.240  0.7036 -0.3987  1.1253
 1011SOL    HW214496   2.980   1.593   0.376  1.9671  0.7923 -0.0670
 1012SOL     OW14497   4.058   4.239   9.183 -0.2036  0.0205 -0.3839
 1012SOL    HW114498   4.012   4.213   9.103 -2.2577 -0.1204  0.8237
 1012SOL    HW214499   4.036   4.332   9.195 -0.8063 -0.2893  0.8724
 1013SOL     OW14500   3.121   1.098  11.749 -0.2322  0.1790  0.8387
 1013SOL    HW114501   3.043   1.146  11.719 -1.0783 -1.9189 -0.3654
 1013SOL    HW214502   3.104   1.004  11.734 -0.8879  0.6567 -1.4305
 1014SOL     OW14503   2.767   3.987   8.388 -0.2108  0.2784  0.4666
 1014SOL    HW114504   2.759   3.959   8.479  2.1759  2.4795  1.3937
 1014SOL    HW214505   2.853   4.030   8.399 -0.7900  2.3055 -2.7783
 1015SOL     OW14506   1.791   4.371   2.987 -0.2383 -1.0073  0.2056
 1015SOL    HW114507   1.785   4.460   2.952 -0.4132 -0.2432  2.1463
 1015SOL    HW214508   1.845   4.329   2.920 -0.8679 -2.4816  0.6368
 1016SOL     OW14509   3.750   3.838   3.559  0.1484 -0.0826  0.2740
 1016SOL    HW114510   3.702   3.835   3.641  1.6250  2.9464  1.2375
 1016SOL    HW214511   3.829   3.883   3.589  0.8112 -0.4032 -0.9875
 1017SOL     OW14512   3.653   0.557   6.956 -0.2908  0.5670  0.3809
 1017SOL    HW114513   3.597   0.629   6.929 -2.6330 -1.9034 -1.3968
 1017SOL    HW214514   3.700   0.551   6.873  0.4427  2.5769  0.6573
 1018SOL     OW14515   4.668   1.407   5.270 -0.8627 -0.2310 -0.5060
 1018SOL    HW114516   0.018   1.394   5.208 -1.1902  0.4747 -1.0367
 1018SOL    HW214517   4.686   1.497   5.296  1.2159 -1.6457  2.9615
 1019SOL     OW14518   2.135   3.996   6.029  0.1973  0.2026  0.4556
 1019SOL    HW114519   2.163   4.045   6.107 -0.2355  1.4463 -0.1572
 1019SOL    HW214520   2.156   3.904   6.043 -0.6230 -0.0697 -0.0961
 1020SOL     OW14521   4.454   0.544   6.503  0.1178 -0.0438 -0.1965
 1020SOL    HW114522   4.446   0.592   6.421 -2.9818 -1.4540 -0.7120
 1020SOL    HW214523   4.481   0.622   6.552  0.9735  0.2275 -1.1068
 1021SOL     OW14524   0.880   0.429   6.483  0.2418  0.4287 -0.1966
 1021SOL    HW114525   0.792   0.460   6.506  0.4872  0.1258  1.1644
 1021SOL    HW214526   0.936   0.506   6.496 -0.6204  0.8840  0.8672
 1022SOL     OW14527   4.311   3.086   9.294 -0.3625 -0.3420 -0.0497
 1022SOL    HW114528   4.354   3.001   9.299  0.8178  0.3680  1.9828
 1022SOL    HW214529   4.385   3.143   9.274 -0.3789 -0.3171 -0.0397
 1023SOL     OW14530   3.700   3.854   5.099  0.0803 -0.0294  0.0835
 1023SOL    HW114531   3.611   3.878   5.126  0.6937  1.1269  1.0693
 1023SOL    HW214532   3.739   3.910   5.165  1.9701  0.5028 -1.4932
 1024SOL     OW14533   1.812   2.379  16.006  0.4120 -0.7931 -0.5423
 1024SOL    HW114534   1.906   2.392  15.996  0.5043 -1.5921 -0.6804
 1024SOL    HW214535   1.794   2.424  16.088 -1.9683 -1.8567 -0.4901
 1025SOL     OW14536   0.965   1.763  12.997 -0.4478 -0.1021  0.1371
 1025SOL    HW114537   0.977   1.669  13.001 -1.3110 -0.1015  2.5223
 1025SOL    HW214538   0.962   1.785  12.904  0.7401  1.0429  0.3580
 1026SOL     OW14539   3.890   4.471  17.083  0.2593  0.3156  0.6924
 1026SOL    HW114540   3.866   4.491  16.993  1.6250 -0.7851  0.0797
 1026SOL    HW214541   3.983   4.492  17.089  0.1412  0.8789  0.4558
 1027SOL     OW14542   0.971   4.507   9.371  0.2256  0.4515 -0.2492
 1027SOL    HW114543   1.046   4.515   9.430  0.0686 -1.1721  0.1798
 1027SOL    HW214544   0.916   4.442   9.415  2.3613 -1.8480 -0.9884
 1028SOL     OW14545   2.443   3.455   7.004 -0.5147 -0.6180  0.1510
 1028SOL    HW114546   2.370   3.395   6.989 -0.4226 -0.4146 -1.0824
 1028SOL    HW214547   2.397   3.539   7.012  0.5155 -0.1813  1.6367
 1029SOL     OW14548   1.886   0.082   1.446  0.2149  0.7231  0.3249
 1029SOL    HW114549   1.824   0.035   1.502  0.6690 -0.5775 -0.2360
 1029SOL    HW214550   1.965   0.037   1.477  0.6398  1.5357  0.4055
 1030SOL     OW14551   0.097   2.213   6.534 -0.5653  0.3144  0.0044
 1030SOL    HW114552   0.125   2.240   6.621  0.4907  0.5856 -0.4151
 1030SOL    HW214553   0.183   2.183   6.505  1.0052  3.2221  1.6501
 1031SOL     OW14554   3.145   2.278   1.197 -0.4569 -0.0843 -0.5174
 1031SOL    HW114555   3.065   2.321   1.227 -0.1892 -1.0737  1.6013
 1031SOL    HW214556   3.115   2.248   1.111  0.6373 -2.7526  0.0419
 1032SOL     OW14557   2.075   2.079  17.006  0.0247  0.2860 -1.0280
 1032SOL    HW114558   2.109   2.155  16.958  2.1880 -0.5231 -0.7603
 1032SOL    HW214559   1.988   2.118  17.018  0.5879  1.6183 -1.1913
 1033SOL     OW14560   4.125   2.475   4.975 -0.3566  0.4655  0.0698
 1033SOL    HW114561   4.205   2.487   4.924 -0.5984  1.4790 -0.0828
 1033SOL    HW214562   4.057   2.519   4.923  1.7121  2.1255 -1.2394
 1034SOL     OW14563   4.308   0.218   2.221 -0.2498 -0.1228 -0.0062
 1034SOL    HW114564   4.380   0.223   2.157  0.1054  0.1654  0.4170
 1034SOL    HW214565   4.276   0.128   2.216  1.1245 -0.5665 -0.9447
 1035SOL     OW14566   4.336   4.133   6.121 -0.0785 -0.1248 -0.0900
 1035SOL    HW114567   4.363   4.193   6.190 -0.0870  0.6862 -0.8024
 1035SOL    HW214568   4.382   4.176   6.050 -1.1345 -0.4524 -0.9721
 1036SOL     OW14569   0.813   0.125   3.305  0.1199 -0.4194 -0.4985
 1036SOL    HW114570   0.812   0.124   3.209 -0.7944  1.4439 -0.5128
 1036SOL    HW214571   0.721   0.144   3.324  0.0328 -0.9697 -0.3931
 1037SOL     OW14572   3.001   0.090   3.334  0.3617 -0.3994 -0.9523
 1037SOL    HW114573   3.035   0.099   3.423 -2.9185 -0.9426  0.3547
 1037SOL    HW214574   3.031   0.179   3.314  0.0298 -0.2149 -0.6440
 1038SOL     OW14575   1.923   4.679   2.438  0.6303 -0.0240 -0.2433
 1038SOL    HW114576   1.904   0.009   2.361  0.8805 -1.1392 -1.0761
 1038SOL    HW214577   1.899   4.590   2.411 -0.7242  0.0492  0.6813
 1039SOL     OW14578   4.213   3.147  12.080  0.1828 -0.1520 -0.3339
 1039SOL    HW114579   4.141   3.121  12.023 -0.0801 -0.2167  0.0341
 1039SOL    HW214580   4.245   3.222  12.030 -0.9546  0.3183 -0.3422
 1040SOL     OW14581   1.879   3.910   7.238  0.2042  0.0889  0.0191
 1040SOL    HW114582   1.918   3.823   7.237 -3.0016 -1.2805 -2.6080
 1040SOL    HW214583   1.789   3.896   7.208  0.7374  0.2990 -1.6970
 1041SOL     OW14584   4.139   2.501   9.183  0.2839  0.2728  0.0742
 1041SOL    HW114585   4.203   2.561   9.144  0.2990  0.3220  0.1766
 1041SOL    HW214586   4.159   2.434   9.117  0.3500  1.2382 -0.8888
 1042SOL     OW14587   1.540   0.113   4.786  0.2815 -0.1053 -0.0151
 1042SOL    HW114588   1.635   0.100   4.788 -0.2882 -4.5081 -0.8698
 1042SOL    HW214589   1.507   0.026   4.764 -0.2020 -0.3718  1.8337
 1043SOL     OW14590   1.987   4.603  12.784  0.0415 -0.3858  1.1000
 1043SOL    HW114591   2.025   4.591  12.697  0.4522 -1.5332  1.4458
 1043SOL    HW214592   1.964   4.696  12.789  1.8795  0.1836 -0.9581
 1044SOL     OW14593   2.055   0.727  11.719 -0.0398 -0.1346  0.0241
 1044SOL    HW114594   1.962   0.728  11.697  0.0293  0.3770 -0.2527
 1044SOL    HW214595   2.100   0.778  11.651 -2.2534  1.6137 -0.1272
 1045SOL     OW14596   0.139   3.367   4.878  0.1211  0.4022  0.2103
 1045SOL    HW114597   0.188   3.438   4.836  0.8169  0.4133  1.0412
 1045SOL    HW214598   0.213   3.333   4.929  0.7326  0.9104 -0.3394
 1046SOL     OW14599   2.299   1.484   5.807  0.3743  0.4667 -0.7030
 1046SOL    HW114600   2.320   1.422   5.877  1.1790 -0.1476 -1.4889
 1046SOL    HW214601   2.209   1.509   5.829  0.8203  0.9272  0.5958
 1047SOL     OW14602   3.308   4.294   6.848 -0.6923  0.3684  0.3589
 1047SOL    HW114603   3.388   4.339   6.822  0.3779 -2.1081 -0.5719
 1047SOL    HW214604   3.258   4.373   6.871 -0.4609  0.6989 -0.2905
 1048SOL     OW14605   3.910   3.594   3.627  0.3235  0.1610 -0.5111
 1048SOL    HW114606   3.855   3.563   3.554  2.4305 -1.1049 -1.5360
 1048SOL    HW214607   3.927   3.681   3.589 -0.4266  0.7687  0.5267
 1049SOL     OW14608   3.273   1.161   3.448 -0.2157 -0.1485  0.0968
 1049SOL    HW114609   3.322   1.194   3.372 -1.7692  1.3954 -0.2330
 1049SOL    HW214610   3.348   1.131   3.499 -0.1659  2.1940  1.4149
 1050SOL     OW14611   4.565   1.957   9.222  0.2638  0.2940  0.1071
 1050SOL    HW114612   4.569   1.871   9.264 -1.3366  0.2104  0.1083
 1050SOL    HW214613   4.581   2.014   9.298 -0.4989 -0.2175  0.6538
 1051SOL     OW14614   1.844   2.121   8.610  0.7236  0.4895 -0.5360
 1051SOL    HW114615   1.868   2.212   8.596 -0.3076  0.9744  0.8218
 1051SOL    HW214616   1.793   2.110   8.530  0.2821 -0.3293 -0.1476
 1052SOL     OW14617   4.568   0.939   3.560 -0.4119 -0.0975 -0.0327
 1052SOL    HW114618   4.539   0.959   3.649  0.0239  0.1139  0.0630
 1052SOL    HW214619   4.505   0.875   3.527  1.2613 -1.0619 -1.3580
 1053SOL     OW14620   1.278   0.690   5.660  0.5345  0.3005 -0.0840
 1053SOL    HW114621   1.281   0.752   5.587  1.0690 -0.5757 -0.8047
 1053SOL    HW214622   1.359   0.640   5.648 -0.2861 -0.6728 -1.5396
 1054SOL     OW14623   0.999   1.762   0.591 -0.0108 -0.2791  0.5390
 1054SOL    HW114624   0.935   1.715   0.646 -1.1142  0.2111 -0.3398
 1054SOL    HW214625   0.958   1.755   0.505  0.5164 -1.8902  0.4145
 1055SOL     OW14626   1.783   1.252   8.725 -0.2229  0.4641 -0.1195
 1055SOL    HW114627   1.762   1.159   8.732  0.4442  0.0585 -3.5981
 1055SOL    HW214628   1.865   1.249   8.676  1.4144  2.9966  2.4845
 1056SOL     OW14629   2.984   3.695  16.618  0.2195  0.0532 -0.1364
 1056SOL    HW114630   2.941   3.750  16.684 -1.3235  0.4521 -1.4753
 1056SOL    HW214631   3.010   3.761  16.554  2.7797 -1.8278 -1.0340
 1057SOL     OW14632   1.956   4.622   4.482 -0.7024  0.2768 -0.4385
 1057SOL    HW114633   1.867   4.648   4.457 -1.5039 -0.8551  1.3029
 1057SOL    HW214634   1.999   4.707   4.491  1.5186 -0.7295 -1.4959
 1058SOL     OW14635   1.568   1.621   3.393  0.0705 -1.2436  0.4375
 1058SOL    HW114636   1.517   1.638   3.313 -0.4137  0.6963  1.1638
 1058SOL    HW214637   1.563   1.707   3.433  1.0114 -0.1377 -1.8492
 1059SOL     OW14638   0.232   0.111   2.920  0.0288  0.0280  0.0666
 1059SOL    HW114639   0.228   0.207   2.913  0.8774  0.1221  0.8252
 1059SOL    HW214640   0.187   0.089   2.839  1.2902  0.8072 -0.8470
 1060SOL     OW14641   0.620   1.582   3.710 -0.0543  0.1012  0.3174
 1060SOL    HW114642   0.637   1.664   3.757 -1.9891 -0.0580  1.3233
 1060SOL    HW214643   0.662   1.516   3.765 -1.6863 -0.9616  0.2956
 1061SOL     OW14644   2.410   0.847   9.056  0.4622  0.1460  0.2466
 1061SOL    HW114645   2.412   0.943   9.052 -1.8039  0.2213  0.5510
 1061SOL    HW214646   2.320   0.825   9.082  0.5126 -0.3203  0.0126
 1062SOL     OW14647   3.606   0.282  13.392 -0.1325  0.3429 -0.7099
 1062SOL    HW114648   3.675   0.327  13.343  0.9445  0.8376  1.2375
 1062SOL    HW214649   3.643   0.193  13.387 -1.8688 -0.3228 -1.5106
 1063SOL     OW14650   2.174   3.226   3.565 -0.4761  0.3497 -0.2140
 1063SOL    HW114651   2.104   3.291   3.565 -0.4820  0.3447 -1.7163
 1063SOL    HW214652   2.251   3.265   3.524  0.7649 -2.0447 -0.2000
 1064SOL     OW14653   1.130   0.671   9.269  0.3638  0.2868 -0.1230
 1064SOL    HW114654   1.118   0.674   9.364 -0.7015  0.7231 -0.2756
 1064SOL    HW214655   1.037   0.674   9.246  0.9480 -0.0670 -2.5853
 1065SOL     OW14656   0.773   0.126  11.389  0.1861  0.4296 -0.0012
 1065SOL    HW114657   0.685   0.162  11.383  0.7586  2.1269  1.6284
 1065SOL    HW214658   0.807   0.179  11.462  0.4160 -0.8238  0.8038
 1066SOL     OW14659   1.076   1.417   7.578 -0.1547 -0.3059  0.2603
 1066SOL    HW114660   1.108   1.425   7.489 -0.5940 -0.2750  0.1079
 1066SOL    HW214661   1.149   1.385   7.632  0.2059  1.0708  0.5907
 1067SOL     OW14662   4.370   1.032   9.500 -0.4041  0.0359  0.5469
 1067SOL    HW114663   4.441   0.969   9.489  0.0765  1.0898 -2.3994
 1067SOL    HW214664   4.382   1.087   9.423  3.9216  1.0109  1.9305
 1068SOL     OW14665   1.407   0.584  15.447 -0.0196  0.0150  0.7207
 1068SOL    HW114666   1.385   0.588  15.354 -0.5137 -1.1654  0.7855
 1068SOL    HW214667   1.393   0.676  15.467  0.9945  0.3184  0.0242
 1069SOL     OW14668   1.650   0.612   1.332 -0.3875 -0.5325  0.5681
 1069SOL    HW114669   1.613   0.689   1.376 -1.0530  0.8765 -2.4552
 1069SOL    HW214670   1.709   0.657   1.272 -0.4465 -1.1860  0.0248
 1070SOL     OW14671   2.588   2.620   3.767 -0.1017 -0.1711  0.0582
 1070SOL    HW114672   2.625   2.683   3.829 -1.9270 -0.4475  1.4027
 1070SOL    HW214673   2.624   2.649   3.683  0.3757  4.5166  1.8847
 1071SOL     OW14674   4.280   4.085  11.118  0.1377  0.0901  0.2399
 1071SOL    HW114675   4.348   4.067  11.183  0.3066 -0.8572 -0.2035
 1071SOL    HW214676   4.216   4.027  11.160  0.4817  0.6557  1.5387
 1072SOL     OW14677   3.619   3.540   4.015 -0.2279  0.5580 -0.4471
 1072SOL    HW114678   3.530   3.528   4.046  0.3668 -2.4660  0.0247
 1072SOL    HW214679   3.639   3.449   3.995 -4.1845  0.3297 -3.3931
 1073SOL     OW14680   4.333   3.026   7.907  0.7052 -0.1500  0.0640
 1073SOL    HW114681   4.390   3.103   7.903  0.9801 -0.2972  1.0713
 1073SOL    HW214682   4.339   2.997   7.816 -0.0265 -0.1844  0.0294
 1074SOL     OW14683   1.035   2.223  16.768  0.0316  0.2453 -0.0658
 1074SOL    HW114684   1.012   2.289  16.703  0.4962 -0.4838 -0.9552
 1074SOL    HW214685   0.967   2.247  16.831  0.9363 -1.2183  1.4763
 1075SOL     OW14686   3.001   4.026   8.117 -0.4052  0.3562 -0.0853
 1075SOL    HW114687   3.003   3.944   8.066  2.1635 -0.6757  1.6542
 1075SOL    HW214688   3.038   3.998   8.201  1.0881 -0.6063 -1.0538
 1076SOL     OW14689   4.250   1.111   9.979 -0.1467  0.0490 -0.0334
 1076SOL    HW114690   4.344   1.112   9.965 -0.0922 -1.3166  0.2098
 1076SOL    HW214691   4.226   1.193   9.937  0.2901  0.8237  1.2371
 1077SOL     OW14692   2.948   1.582   8.756  0.0588 -0.2320 -0.1878
 1077SOL    HW114693   2.857   1.560   8.776  0.5817 -0.0413  2.4489
 1077SOL    HW214694   3.000   1.502   8.761  0.7117  0.0021 -3.3106
 1078SOL     OW14695   0.365   4.304   6.101 -0.4146 -0.6300  0.7106
 1078SOL    HW114696   0.407   4.388   6.086  1.1424 -2.1295 -3.2431
 1078SOL    HW214697   0.405   4.267   6.022 -1.2199  0.3539 -0.1688
 1079SOL     OW14698   3.441   3.967  11.424 -0.0989  0.0912 -0.2202
 1079SOL    HW114699   3.525   3.924  11.413  0.3750  0.7414  0.9003
 1079SOL    HW214700   3.460   4.032  11.491 -2.0330  0.6267 -0.1944
 1080SOL     OW14701   2.249   2.830  17.521  0.1177 -0.1008 -0.1286
 1080SOL    HW114702   2.204   2.864  17.443 -0.6548 -0.1705  0.2899
 1080SOL    HW214703   2.171   2.804  17.571  1.1317 -1.5299  0.6993
 1081SOL     OW14704   1.843   1.671   4.706 -0.3057  0.1129  0.1709
 1081SOL    HW114705   1.808   1.660   4.617  1.8684  1.0172 -0.8020
 1081SOL    HW214706   1.816   1.588   4.747  2.8103 -0.6088  0.7393
 1082SOL     OW14707   2.532   1.347   6.993  0.1493  0.0507  0.0572
 1082SOL    HW114708   2.522   1.280   7.061 -0.6370  0.4642  0.3461
 1082SOL    HW214709   2.579   1.295   6.928 -0.7506 -1.3249  0.4968
 1083SOL     OW14710   2.966   3.219   7.539 -0.0289 -0.2461 -0.5028
 1083SOL    HW114711   3.036   3.266   7.494 -0.3238  0.8156  0.1457
 1083SOL    HW214712   2.912   3.185   7.467 -0.6480 -0.8778  0.2647
 1084SOL     OW14713   2.801   0.851   8.313  0.7195  0.0477 -0.1052
 1084SOL    HW114714   2.832   0.846   8.222  0.2001 -1.5877 -0.1949
 1084SOL    HW214715   2.706   0.841   8.306  0.5674  1.4357  0.1373
 1085SOL     OW14716   3.609   2.282  12.388  0.3443 -0.2670  0.2578
 1085SOL    HW114717   3.586   2.367  12.351  0.3588  0.1471  1.2087
 1085SOL    HW214718   3.635   2.313  12.475 -1.0936  1.4508  0.0899
 1086SOL     OW14719   1.557   1.782  13.210 -0.1689 -0.1197  0.5555
 1086SOL    HW114720   1.586   1.864  13.169 -0.8862  1.2725  2.8350
 1086SOL    HW214721   1.581   1.809  13.299  0.2098 -2.2397  1.0828
 1087SOL     OW14722   4.211   2.028  10.107  0.2391  0.1978 -0.2976
 1087SOL    HW114723   4.294   2.058  10.145  0.7149  0.5142 -1.5900
 1087SOL    HW214724   4.148   2.029  10.179  0.1291  0.6936 -0.4006
 1088SOL     OW14725   4.541   0.801   6.579 -0.5119 -0.3286 -0.3005
 1088SOL    HW114726   4.609   0.800   6.645 -1.9254 -1.0570  1.1451
 1088SOL    HW214727   4.524   0.895   6.571 -0.0088 -0.3307 -1.3233
 1089SOL     OW14728   1.236   2.377   6.472  0.4879 -0.3978  0.3138
 1089SOL    HW114729   1.256   2.380   6.378 -0.4874 -1.4427  0.0851
 1089SOL    HW214730   1.308   2.316   6.488  0.2585 -1.1618 -1.5772
 1090SOL     OW14731   0.680   4.115   4.897 -0.3173 -0.2726 -0.1664
 1090SOL    HW114732   0.638   4.029   4.906  0.7237 -0.6665  0.8861
 1090SOL    HW214733   0.661   4.154   4.983  2.9843 -0.4280  0.6210
 1091SOL     OW14734   1.280   3.330   5.002  0.1137  0.0321  0.9974
 1091SOL    HW114735   1.368   3.306   4.972 -1.0481 -1.5315 -1.1914
 1091SOL    HW214736   1.289   3.424   4.991  0.9874 -0.2621 -0.7995
 1092SOL     OW14737   1.835   2.940  11.450  0.4765  0.4516 -0.5416
 1092SOL    HW114738   1.782   3.013  11.484  2.9878  2.6971 -1.4011
 1092SOL    HW214739   1.877   2.917  11.533 -0.8219 -0.2492 -0.0862
 1093SOL     OW14740   0.508   1.185   2.565  0.2350 -0.5554  0.0902
 1093SOL    HW114741   0.567   1.242   2.614  0.5675 -1.3934  0.6636
 1093SOL    HW214742   0.422   1.224   2.576  0.7168  0.0942  1.4588
 1094SOL     OW14743   4.134   1.969   5.820 -0.1645 -0.3167  0.1718
 1094SOL    HW114744   4.220   1.940   5.852  0.5246 -0.0106 -1.4032
 1094SOL    HW214745   4.077   1.912   5.872  0.3877 -1.4841 -0.5148
 1095SOL     OW14746   1.203   1.640   9.395  0.1709  0.0575  0.0121
 1095SOL    HW114747   1.250   1.575   9.448  1.1433  0.7697  0.0252
 1095SOL    HW214748   1.225   1.613   9.306 -1.6816  1.5724 -0.8994
 1096SOL     OW14749   4.334   3.062   4.639 -0.3928  1.2398  0.0385
 1096SOL    HW114750   4.376   3.026   4.561 -1.9236 -0.3396 -0.0503
 1096SOL    HW214751   4.362   3.154   4.632 -1.6876  1.5214 -1.6458
 1097SOL     OW14752   2.408   1.289  13.358 -0.0630 -0.4266  0.4916
 1097SOL    HW114753   2.355   1.360  13.395  0.6951 -0.4608  1.6639
 1097SOL    HW214754   2.451   1.344  13.293 -3.0171  1.1917 -0.0803
 1098SOL     OW14755   1.083   3.556   6.067 -0.2985 -0.0363 -0.0682
 1098SOL    HW114756   1.146   3.594   6.128 -1.8053 -1.0373  2.1230
 1098SOL    HW214757   1.079   3.631   6.007 -0.4988  0.6576  0.8156
 1099SOL     OW14758   3.355   1.484  12.353 -0.3101  0.1315 -0.0364
 1099SOL    HW114759   3.401   1.439  12.283  0.7749  1.1449  0.0467
 1099SOL    HW214760   3.293   1.416  12.382 -0.7527  1.2823  1.7105
 1100SOL     OW14761   0.807   1.868   2.993  0.6174  0.7899 -0.2726
 1100SOL    HW114762   0.775   1.779   3.006  2.9189 -0.0479 -0.3588
 1100SOL    HW214763   0.901   1.852   3.000  0.6348  0.8734 -0.3093
 1101SOL     OW14764   0.052   3.084   9.145 -0.2472  0.2561  0.0050
 1101SOL    HW114765   0.025   2.998   9.113  0.3579 -0.4788  1.4740
 1101SOL    HW214766   0.085   3.123   9.064  0.9554  0.9810  0.8436
 1102SOL     OW14767   4.134   2.419   2.686  0.3708  0.1455  0.1871
 1102SOL    HW114768   4.226   2.445   2.688  0.7627 -1.5123  3.4333
 1102SOL    HW214769   4.091   2.482   2.745 -0.3412  1.3886 -1.6752
 1103SOL     OW14770   2.440   3.793   8.505 -0.3515 -0.1701 -0.6609
 1103SOL    HW114771   2.345   3.801   8.503 -0.3119  0.4504  0.1453
 1103SOL    HW214772   2.455   3.804   8.599  2.0494  2.0495 -1.2935
 1104SOL     OW14773   0.685   0.944  11.072  0.2195  0.1139 -0.1729
 1104SOL    HW114774   0.764   0.998  11.077 -0.4889  0.9652  1.6692
 1104SOL    HW214775   0.703   0.876  11.138 -0.1697 -0.5568 -0.7592
 1105SOL     OW14776   1.180   0.332  17.410  0.4677 -0.0880 -0.2054
 1105SOL    HW114777   1.249   0.269  17.429  1.0139  0.4200 -0.4798
 1105SOL    HW214778   1.206   0.401  17.472  2.4320 -1.3596  0.4007
 1106SOL     OW14779   3.254   2.348  16.601  0.2449  0.3168  0.7124
 1106SOL    HW114780   3.266   2.433  16.644  1.2535  1.1322 -1.1831
 1106SOL    HW214781   3.237   2.373  16.510  1.6134 -1.9457 -0.1553
 1107SOL     OW14782   3.477   2.845   6.754 -0.0831 -0.5649 -0.3837
 1107SOL    HW114783   3.556   2.849   6.701 -0.6147 -1.3494 -1.2399
 1107SOL    HW214784   3.501   2.872   6.843  0.5678 -1.8722 -0.1513
 1108SOL     OW14785   4.203   1.606   2.965 -0.2060 -0.5310  0.1128
 1108SOL    HW114786   4.209   1.577   3.056 -0.5122  0.8820  0.5868
 1108SOL    HW214787   4.287   1.650   2.951 -1.4599  1.4237 -1.3696
 1109SOL     OW14788   0.520   1.512   8.359  0.0355 -0.0550 -0.4408
 1109SOL    HW114789   0.471   1.590   8.334  0.3061 -0.4277 -2.1128
 1109SOL    HW214790   0.549   1.483   8.273  0.4427  0.9145 -0.6215
 1110SOL     OW14791   4.173   2.940  10.570 -0.2726  0.3951 -0.6092
 1110SOL    HW114792   4.186   3.015  10.511 -0.9620 -1.4887 -3.1606
 1110SOL    HW214793   4.154   3.000  10.642  2.8442 -0.4947  0.9321
 1111SOL     OW14794   1.958   0.940   8.165  0.0807  0.5899  0.4782
 1111SOL    HW114795   1.973   1.022   8.117 -0.1945  0.9186  0.9577
 1111SOL    HW214796   1.965   0.875   8.095 -1.0228 -0.1996  1.0909
 1112SOL     OW14797   1.446   1.525   9.873  0.3442  0.6329  0.6700
 1112SOL    HW114798   1.379   1.496   9.935 -0.4388  0.8390 -0.0763
 1112SOL    HW214799   1.489   1.439   9.867 -1.0568 -0.0327  0.3045
 1113SOL     OW14800   3.534   1.999  16.937  0.4145  0.1504 -0.1885
 1113SOL    HW114801   3.550   2.089  16.906 -0.2980 -0.7601 -3.2162
 1113SOL    HW214802   3.592   1.946  16.883  0.8602 -1.5115  1.9544
 1114SOL     OW14803   3.898   3.622  11.516 -0.2716  0.2705 -0.5651
 1114SOL    HW114804   3.983   3.606  11.476  0.3741  1.0115  0.4863
 1114SOL    HW214805   3.898   3.544  11.571 -0.4976  1.9512  1.8750
 1115SOL     OW14806   3.752   3.084   7.343 -0.3921 -0.1343 -0.6211
 1115SOL    HW114807   3.690   3.015   7.365  1.1928 -1.4835 -0.3939
 1115SOL    HW214808   3.838   3.042   7.350 -0.1179  0.6665  0.8477
 1116SOL     OW14809   2.753   2.435   7.453 -0.5708  0.2590 -0.0402
 1116SOL    HW114810   2.668   2.403   7.485 -0.1551 -1.4862 -0.6910
 1116SOL    HW214811   2.726   2.524   7.432  0.7277  1.1011  1.8941
 1117SOL     OW14812   4.608   1.846   6.246 -0.2715 -0.0292  0.2039
 1117SOL    HW114813   4.616   1.851   6.151 -0.9955  1.6406  0.2341
 1117SOL    HW214814   4.632   1.754   6.255  1.4062  0.2548 -1.4145
 1118SOL     OW14815   3.800   2.817  12.567 -0.0629 -0.1092  0.0068
 1118SOL    HW114816   3.849   2.899  12.560 -0.4461 -0.0250 -1.5650
 1118SOL    HW214817   3.714   2.838  12.605 -0.0030 -1.8735  1.1025
 1119SOL     OW14818   0.516   3.477   7.518 -0.4692 -0.3702 -0.2157
 1119SOL    HW114819   0.461   3.401   7.538  0.8462 -1.3244 -0.2215
 1119SOL    HW214820   0.489   3.491   7.427  0.3609  0.4152 -0.3488
 1120SOL     OW14821   2.010   4.381  17.037 -0.0885  0.3151  0.5097
 1120SOL    HW114822   2.014   4.404  16.944  0.9645  1.3120  0.8050
 1120SOL    HW214823   2.096   4.340  17.049  1.1387  2.1574 -2.0493
 1121SOL     OW14824   1.796   3.733   2.583 -0.3329 -0.1970  0.2489
 1121SOL    HW114825   1.760   3.748   2.671 -1.4888  0.0758 -0.2765
 1121SOL    HW214826   1.889   3.716   2.598 -0.5571 -1.0471  0.7202
 1122SOL     OW14827   4.059   1.801   9.270  1.0773 -0.1106  0.0122
 1122SOL    HW114828   4.019   1.888   9.275  2.9105  0.6695  1.4411
 1122SOL    HW214829   4.032   1.758   9.189 -1.0533 -1.1870  1.3039
 1123SOL     OW14830   2.599   3.734  12.144  0.8282 -0.1565 -0.5057
 1123SOL    HW114831   2.517   3.727  12.192  2.2556  3.0557  2.5087
 1123SOL    HW214832   2.576   3.792  12.071  2.8268  1.0757 -0.1819
 1124SOL     OW14833   2.563   1.024   5.366 -0.4540  0.2820 -0.0859
 1124SOL    HW114834   2.597   1.111   5.343 -0.9211  0.2667 -0.8054
 1124SOL    HW214835   2.469   1.039   5.362 -0.7363 -2.3754 -2.7401
 1125SOL     OW14836   2.462   0.844  10.648 -0.5173  0.2445 -0.4046
 1125SOL    HW114837   2.524   0.896  10.699 -0.2324 -0.4746 -0.0071
 1125SOL    HW214838   2.509   0.848  10.564  0.0016 -0.2994 -0.1442
 1126SOL     OW14839   1.881   2.420  16.776  0.0446  0.0071  0.0651
 1126SOL    HW114840   1.974   2.409  16.795  0.1187 -0.7055 -0.6963
 1126SOL    HW214841   1.841   2.426  16.863 -1.0705 -2.4661 -0.2664
 1127SOL     OW14842   1.257   2.619   1.459 -0.0211  0.4644 -0.4725
 1127SOL    HW114843   1.195   2.555   1.493  1.4488 -0.0911  1.2093
 1127SOL    HW214844   1.211   2.651   1.382 -1.2512 -0.5947 -0.1772
 1128SOL     OW14845   4.565   4.408   4.545  0.3217  0.5543 -0.3370
 1128SOL    HW114846   4.587   4.481   4.487  0.0597 -0.8993 -2.2651
 1128SOL    HW214847   4.505   4.460   4.598 -2.3389 -1.8803 -1.0143
 1129SOL     OW14848   4.369   3.842   3.752 -0.5030 -0.6015  0.2379
 1129SOL    HW114849   4.463   3.857   3.756 -1.0610  3.4970 -2.3631
 1129SOL    HW214850   4.348   3.824   3.844 -1.3653  1.0815  0.3649
 1130SOL     OW14851   0.339   4.139   4.451  0.4935 -0.6736  0.6000
 1130SOL    HW114852   0.260   4.140   4.399  1.0588  0.1338 -0.2389
 1130SOL    HW214853   0.305   4.138   4.541  0.9251 -1.2513  0.7554
 1131SOL     OW14854   0.925   4.167  11.849 -0.0880 -0.2880  0.0084
 1131SOL    HW114855   1.016   4.187  11.828  0.1401  1.4077  2.6473
 1131SOL    HW214856   0.885   4.242  11.804  0.5859  0.4489  0.6393
 1132SOL     OW14857   1.707   0.514   9.003 -0.3753  0.1895  0.7529
 1132SOL    HW114858   1.773   0.561   9.054  0.3336 -0.8273  0.7636
 1132SOL    HW214859   1.677   0.578   8.939  0.4573 -0.5809 -0.3915
 1133SOL     OW14860   1.282   0.845   7.243 -0.4634 -0.1673  0.0570
 1133SOL    HW114861   1.188   0.850   7.225 -0.1363 -0.7634 -1.7934
 1133SOL    HW214862   1.305   0.771   7.187 -2.4994 -0.8343  0.1228
 1134SOL     OW14863   2.835   2.300  17.228  0.0363 -0.4772 -0.1801
 1134SOL    HW114864   2.818   2.249  17.149  0.3309  1.3622 -1.4315
 1134SOL    HW214865   2.795   2.386  17.217 -2.7417 -1.6945  0.2202
 1135SOL     OW14866   0.485   4.043  17.281  0.5522 -0.0402  0.0187
 1135SOL    HW114867   0.537   3.985  17.337 -1.6810 -1.7218  0.3761
 1135SOL    HW214868   0.513   4.132  17.302  1.7859 -0.3650 -0.2406
 1136SOL     OW14869   3.989   1.026  13.874 -0.3726 -0.3703 -0.1611
 1136SOL    HW114870   4.048   0.987  13.939 -1.7457 -3.0551 -0.5074
 1136SOL    HW214871   4.020   1.116  13.883 -1.1981 -0.3043  1.8253
 1137SOL     OW14872   1.494   3.054   7.588 -0.7082  0.1045  0.0803
 1137SOL    HW114873   1.469   3.143   7.564 -1.2017  0.7133  2.9427
 1137SOL    HW214874   1.472   3.060   7.680 -3.0602  0.1326 -0.4843
 1138SOL     OW14875   3.440   4.450   3.840 -0.6119  0.2950  0.0068
 1138SOL    HW114876   3.365   4.457   3.899 -0.5875 -0.0843  0.0821
 1138SOL    HW214877   3.495   4.389   3.890 -0.1654  1.3865  0.8399
 1139SOL     OW14878   4.624   4.368  11.485  0.4017  0.0592  0.1066
 1139SOL    HW114879   4.661   4.430  11.548 -1.7043  0.2743  1.1093
 1139SOL    HW214880   4.560   4.421  11.438  0.4165 -2.2865 -2.5436
 1140SOL     OW14881   2.234   1.214  11.858  0.2047  0.1784 -0.4128
 1140SOL    HW114882   2.311   1.267  11.839 -0.9608  1.8085 -0.6104
 1140SOL    HW214883   2.216   1.160  11.781 -1.1404  0.5946 -0.3794
 1141SOL     OW14884   4.102   0.024   8.746  0.6030  0.1413 -1.0950
 1141SOL    HW114885   4.134   4.710   8.828  3.9848  0.0253 -2.4722
 1141SOL    HW214886   4.131   4.697   8.670  2.6641 -0.0218 -0.1970
 1142SOL     OW14887   0.963   0.328   7.098  0.3826 -0.2092  0.3769
 1142SOL    HW114888   1.022   0.318   7.173  1.0232  0.5431 -0.0274
 1142SOL    HW214889   0.956   0.423   7.088 -0.1842 -0.3766 -0.7879
 1143SOL     OW14890   4.194   2.115   3.488 -0.0814  0.5296 -0.7184
 1143SOL    HW114891   4.166   2.103   3.398  2.0691  0.4966 -1.3925
 1143SOL    HW214892   4.115   2.102   3.540  0.8348  1.0070  0.7981
 1144SOL     OW14893   2.910   1.469  15.193  0.2620  0.2439  0.3982
 1144SOL    HW114894   2.988   1.417  15.211 -1.2730 -1.6522  1.4206
 1144SOL    HW214895   2.954   1.549  15.223 -2.1765  0.5146  3.1661
 1145SOL     OW14896   0.397   0.929   2.941  0.8081  0.0239 -0.2773
 1145SOL    HW114897   0.441   0.868   2.881 -1.4069  1.5797 -3.5056
 1145SOL    HW214898   0.417   1.012   2.896 -0.2454  0.0979 -0.6102
 1146SOL     OW14899   3.144   2.474  11.308  0.9925 -0.0131  0.3610
 1146SOL    HW114900   3.124   2.386  11.276  0.4786  0.9778 -2.0902
 1146SOL    HW214901   3.126   2.459  11.401 -0.6609  0.0379  0.0492
 1147SOL     OW14902   2.369   0.750   1.221  0.8704 -0.4359  0.4356
 1147SOL    HW114903   2.358   0.758   1.316  2.7673  2.6908  0.3849
 1147SOL    HW214904   2.430   0.819   1.194  1.1847 -0.8271  0.1505
 1148SOL     OW14905   3.228   2.597  16.712 -0.2022  0.6511  0.1842
 1148SOL    HW114906   3.181   2.680  16.709 -1.4157 -0.1162 -1.3385
 1148SOL    HW214907   3.173   2.560  16.781  0.2427 -0.8670 -0.2880
 1149SOL     OW14908   3.307   4.547   7.360 -0.2690 -0.2675 -0.4119
 1149SOL    HW114909   3.279   4.635   7.333 -0.1805  0.0476  0.5420
 1149SOL    HW214910   3.252   4.532   7.437 -1.5941  1.2676 -1.0535
 1150SOL     OW14911   1.893   1.991   7.640  0.8945 -0.5671  0.4213
 1150SOL    HW114912   1.864   2.016   7.552  2.6523  1.6237  0.4407
 1150SOL    HW214913   1.823   1.933   7.669 -0.2021 -0.1171 -1.3512
 1151SOL     OW14914   3.087   1.761   6.005 -0.0971 -0.1290  0.1448
 1151SOL    HW114915   3.148   1.742   5.933 -0.5588 -1.0661  0.0115
 1151SOL    HW214916   3.093   1.857   6.012  1.3708 -0.1942 -0.1689
 1152SOL     OW14917   1.667   0.739   8.779 -0.5482 -0.1944  0.3743
 1152SOL    HW114918   1.718   0.814   8.810 -3.2140  2.0682 -0.6618
 1152SOL    HW214919   1.609   0.737   8.855  0.5869  0.3295  1.2596
 1153SOL     OW14920   1.869   3.629   0.226  0.1773  0.4231 -0.2613
 1153SOL    HW114921   1.806   3.698   0.247 -0.5444  0.2286 -1.7723
 1153SOL    HW214922   1.894   3.656   0.138 -1.7382 -0.2589 -1.0341
 1154SOL     OW14923   1.329   2.324   4.520  0.3992  0.5513 -0.3955
 1154SOL    HW114924   1.382   2.364   4.589 -0.3403 -1.1578  1.1576
 1154SOL    HW214925   1.400   2.293   4.464  1.0794  2.1835 -0.4388
 1155SOL     OW14926   4.455   1.871  10.012 -0.2034  0.1628  0.3668
 1155SOL    HW114927   4.465   1.923  10.092 -2.2153  0.7194  0.2793
 1155SOL    HW214928   4.543   1.838   9.999  0.6196  3.2430 -1.8328
 1156SOL     OW14929   2.116   2.676   7.788  0.0932 -0.0172 -0.4662
 1156SOL    HW114930   2.188   2.626   7.750 -0.9113 -2.2449  0.5100
 1156SOL    HW214931   2.137   2.652   7.879 -0.6796 -1.8880 -0.7717
 1157SOL     OW14932   0.389   4.474   4.882  0.1127  0.4006  0.0816
 1157SOL    HW114933   0.382   4.569   4.874  0.4919  0.4476  0.3104
 1157SOL    HW214934   0.483   4.463   4.868  0.1744  1.6879 -0.5001
 1158SOL     OW14935   3.846   0.208   7.032 -0.1629 -0.3382  0.2354
 1158SOL    HW114936   3.926   0.247   7.068  0.2746  0.3022 -1.3842
 1158SOL    HW214937   3.773   0.257   7.069 -1.8881 -2.4160 -0.4565
 1159SOL     OW14938   3.999   0.951   7.329 -0.4226  0.1628 -0.3177
 1159SOL    HW114939   3.913   0.988   7.310 -1.2597 -2.7146 -2.1317
 1159SOL    HW214940   3.981   0.862   7.299 -2.6033 -0.0415  1.5862
 1160SOL     OW14941   2.801   0.691   8.814  0.2525 -0.2569  0.1240
 1160SOL    HW114942   2.721   0.742   8.829  0.3824  0.0786 -0.3244
 1160SOL    HW214943   2.752   0.613   8.788  2.3391 -1.2361 -0.8272
 1161SOL     OW14944   4.013   3.005  13.889  0.3101 -0.0958  0.3106
 1161SOL    HW114945   3.940   2.987  13.949  0.9976 -1.6055  0.6781
 1161SOL    HW214946   4.025   3.096  13.917 -1.0890  0.8936 -2.2585
 1162SOL     OW14947   2.456   2.962   5.271 -0.1284 -0.1316 -0.0603
 1162SOL    HW114948   2.550   2.976   5.284  0.1737 -2.5418  0.4084
 1162SOL    HW214949   2.457   2.928   5.182  2.1197 -2.9832  1.0343
 1163SOL     OW14950   1.010   4.397  11.606 -0.4370  0.3622  0.0510
 1163SOL    HW114951   1.072   4.388  11.678 -0.3962 -0.6247 -0.1100
 1163SOL    HW214952   0.936   4.430  11.658  0.6823 -0.0076  1.8654
 1164SOL     OW14953   0.940   1.314   2.622  0.2225  0.0422  0.4857
 1164SOL    HW114954   0.924   1.291   2.531 -0.6608  2.5693  0.0031
 1164SOL    HW214955   1.022   1.267   2.637 -1.2725 -2.7597 -0.0297
 1165SOL     OW14956   4.438   1.752  15.523  0.0028 -0.2371 -0.0910
 1165SOL    HW114957   4.385   1.822  15.485  0.2014 -0.2775 -0.4440
 1165SOL    HW214958   4.373   1.728  15.589 -1.2890  0.8772 -0.9404
 1166SOL     OW14959   1.475   2.857   6.773 -0.3644 -0.4695  0.5807
 1166SOL    HW114960   1.530   2.798   6.825  1.8506  1.9451  0.9455
 1166SOL    HW214961   1.551   2.902   6.736  0.5168 -2.4833 -0.0417
 1167SOL     OW14962   0.033   1.056   7.513  0.2397 -0.2931  0.3775
 1167SOL    HW114963   4.708   1.053   7.430 -0.0865 -1.5058  0.6220
 1167SOL    HW214964   0.046   0.964   7.536  1.2377 -0.3219 -0.2835
 1168SOL     OW14965   2.021   3.449   8.944  0.3921 -0.3763 -0.5759
 1168SOL    HW114966   2.104   3.495   8.962  1.0520 -1.9378  0.4277
 1168SOL    HW214967   1.992   3.455   9.035  1.6337 -0.3608 -0.1760
 1169SOL     OW14968   0.168   2.442  11.134 -0.6319 -0.4530  0.3455
 1169SOL    HW114969   0.185   2.523  11.182 -1.4076 -0.0873 -0.0030
 1169SOL    HW214970   0.253   2.413  11.100 -0.6665 -1.5672  1.2340
 1170SOL     OW14971   2.543   1.849  14.700  0.0718 -0.0269 -0.1973
 1170SOL    HW114972   2.629   1.886  14.679 -0.4442 -0.2458 -2.7889
 1170SOL    HW214973   2.562   1.763  14.737 -1.1800  0.7287  2.1544
 1171SOL     OW14974   3.777   1.529   3.745  0.1456 -0.3882  0.1064
 1171SOL    HW114975   3.804   1.620   3.748 -0.3856 -0.2602  0.9661
 1171SOL    HW214976   3.696   1.540   3.694  1.8214  1.4031 -2.1180
 1172SOL     OW14977   1.465   2.015   7.856 -0.1936  0.0880 -0.6937
 1172SOL    HW114978   1.509   1.990   7.774  3.3121 -0.2999  1.3269
 1172SOL    HW214979   1.377   2.037   7.824 -1.6865 -2.7596  1.4386
 1173SOL     OW14980   2.625   4.660  14.444  0.1491  0.0033  0.6145
 1173SOL    HW114981   2.683   4.586  14.461 -0.3891 -0.5504  0.0655
 1173SOL    HW214982   2.671   4.719  14.504 -0.2202  1.0697 -0.1281
 1174SOL     OW14983   2.735   1.658   4.777  0.3848  0.8049 -0.1273
 1174SOL    HW114984   2.679   1.678   4.702 -0.0874 -2.5040 -0.6636
 1174SOL    HW214985   2.672   1.649   4.848  0.4736  1.2786  0.0091
 1175SOL     OW14986   1.870   1.851   7.255  0.1379 -0.2034 -0.7127
 1175SOL    HW114987   1.871   1.947   7.254 -1.9067 -0.1731 -0.0248
 1175SOL    HW214988   1.789   1.820   7.295 -1.1419  1.6675 -1.8238
 1176SOL     OW14989   4.676   1.147   9.262 -0.0102  0.1607 -0.1413
 1176SOL    HW114990   0.002   1.075   9.221 -0.0186 -0.5892  1.1637
 1176SOL    HW214991   0.029   1.186   9.305  1.4748  0.3947 -2.9900
 1177SOL     OW14992   0.815   2.615   4.523 -0.1109  0.3883  0.3151
 1177SOL    HW114993   0.892   2.599   4.578 -0.1983  0.8479  0.5732
 1177SOL    HW214994   0.855   2.656   4.446  0.1905 -2.0470 -0.8100
 1178SOL     OW14995   0.625   0.475   6.514 -0.2958  0.7641  0.2453
 1178SOL    HW114996   0.583   0.555   6.482 -1.0810  0.4585  0.5025
 1178SOL    HW214997   0.558   0.441   6.574 -0.1437  2.1013  1.1688
 1179SOL     OW14998   0.424   2.337  16.974 -0.5627 -0.8143  0.4742
 1179SOL    HW114999   0.439   2.267  16.911 -0.6595 -0.0349 -0.4190
 1179SOL    HW215000   0.500   2.330  17.031  0.1884  1.2188 -0.2760
 1180SOL     OW15001   4.370   3.143   5.299 -0.2365 -0.4523 -0.1441
 1180SOL    HW115002   4.357   3.127   5.393  1.9189 -1.3081 -0.0172
 1180SOL    HW215003   4.463   3.162   5.304 -0.3387 -0.0230  0.2425
 1181SOL     OW15004   1.186   1.843   5.043  0.1440 -0.1990 -0.3297
 1181SOL    HW115005   1.215   1.845   4.952 -1.9474 -0.5204 -1.0117
 1181SOL    HW215006   1.091   1.844   5.029  0.0127 -1.5260  0.4307
 1182SOL     OW15007   2.743   3.997   5.457 -0.0432  0.0128 -0.0332
 1182SOL    HW115008   2.650   4.012   5.442 -0.2202 -1.1455 -0.1331
 1182SOL    HW215009   2.737   3.905   5.486  0.4504  0.3804  1.2463
 1183SOL     OW15010   4.186   0.845   5.702  0.1393 -0.3674 -0.4760
 1183SOL    HW115011   4.270   0.860   5.659  0.3090 -2.5745 -0.9239
 1183SOL    HW215012   4.194   0.910   5.772  3.2494 -2.0006  0.7097
 1184SOL     OW15013   4.038   3.310  13.338  0.4886  0.5553 -0.4253
 1184SOL    HW115014   3.955   3.340  13.301  0.1936 -0.6384 -0.7573
 1184SOL    HW215015   4.083   3.391  13.360 -0.8203  0.3492  3.0079
 1185SOL     OW15016   0.409   4.426  10.723  0.5577  0.5112  0.0755
 1185SOL    HW115017   0.423   4.363  10.653  0.5597 -0.4168  0.9079
 1185SOL    HW215018   0.407   4.510  10.677 -0.6804  1.5578  2.0322
 1186SOL     OW15019   0.351   0.865   6.570  0.2824 -0.8778  0.2070
 1186SOL    HW115020   0.292   0.790   6.557  0.3482 -0.9810  0.5183
 1186SOL    HW215021   0.422   0.842   6.510 -1.3907 -1.9815 -1.3869
 1187SOL     OW15022   3.785   2.619  16.303  0.0508 -0.3370  0.7603
 1187SOL    HW115023   3.733   2.698  16.321  0.5691 -0.1597  1.4771
 1187SOL    HW215024   3.733   2.576  16.236 -0.4019  0.0970  0.8310
 1188SOL     OW15025   2.997   2.489   2.909  0.1197  0.4096  0.2695
 1188SOL    HW115026   3.063   2.528   2.851  1.6699 -2.6999 -0.1016
 1188SOL    HW215027   3.035   2.401   2.913 -1.6590 -0.3033  1.1386
 1189SOL     OW15028   0.248   4.047   7.825  0.6734  0.2329 -0.1384
 1189SOL    HW115029   0.209   3.961   7.841  1.7459 -0.2281 -0.0610
 1189SOL    HW215030   0.276   4.026   7.736 -0.1195 -0.9717 -0.1067
 1190SOL     OW15031   4.022   4.359   3.345 -0.0060 -0.1367  0.5868
 1190SOL    HW115032   4.057   4.282   3.389  0.5243  0.0813  0.5415
 1190SOL    HW215033   3.945   4.373   3.401  0.1528 -1.0983  1.0503
 1191SOL     OW15034   1.931   1.646   6.625 -0.0868  0.3691  0.4367
 1191SOL    HW115035   1.968   1.581   6.685 -0.0740  1.4925  1.6204
 1191SOL    HW215036   1.931   1.727   6.675 -2.3532 -0.3414  1.5721
 1192SOL     OW15037   0.540   4.335   4.060  0.2580 -0.0299  0.4611
 1192SOL    HW115038   0.523   4.342   4.154  0.7113  0.7053  0.4911
 1192SOL    HW215039   0.507   4.247   4.040  0.2752  0.4468 -1.6741
 1193SOL     OW15040   3.563   2.193   5.627 -0.1483 -0.4932 -0.4243
 1193SOL    HW115041   3.493   2.251   5.657  0.5178  0.5284 -0.8377
 1193SOL    HW215042   3.635   2.256   5.632 -1.0617  0.6167 -1.1877
 1194SOL     OW15043   2.569   0.233   1.805 -0.1307 -0.1441 -0.1877
 1194SOL    HW115044   2.554   0.148   1.847  0.0379 -0.0931 -0.0238
 1194SOL    HW215045   2.484   0.265   1.774 -0.6530 -2.1604 -0.8601
 1195SOL     OW15046   2.641   1.283   5.340  0.3695 -0.0372 -0.2061
 1195SOL    HW115047   2.584   1.359   5.354  1.7453  1.0977 -0.6883
 1195SOL    HW215048   2.721   1.329   5.315  0.1355 -0.5397 -1.8453
 1196SOL     OW15049   2.250   0.642   8.442 -0.2481  0.3900  0.1292
 1196SOL    HW115050   2.165   0.655   8.483  1.5923  0.2754  4.0283
 1196SOL    HW215051   2.249   0.550   8.416 -2.3474  0.5045 -0.1682
 1197SOL     OW15052   1.201   4.300   3.916 -0.2197 -0.7403 -0.0896
 1197SOL    HW115053   1.188   4.252   3.997  2.2295 -0.4927  0.4600
 1197SOL    HW215054   1.174   4.234   3.852 -0.5235 -2.0753  1.4469
 1198SOL     OW15055   0.157   0.600   6.065  0.0356  0.6045 -0.0113
 1198SOL    HW115056   0.190   0.616   5.977 -1.6985 -2.6042 -1.2410
 1198SOL    HW215057   0.104   0.679   6.070 -0.6214  0.2295 -1.0672
 1199SOL     OW15058   0.810   0.820   4.183  0.0691  0.3768  0.1664
 1199SOL    HW115059   0.905   0.833   4.186  0.2736 -0.9910 -0.6076
 1199SOL    HW215060   0.782   0.816   4.091  1.2422  1.8362 -0.2653
 1200SOL     OW15061   0.118   2.822   7.009  0.5190  0.4310 -0.0962
 1200SOL    HW115062   0.136   2.796   6.918 -0.3570  0.2197 -0.2165
 1200SOL    HW215063   0.187   2.886   7.027  0.6222  0.6795 -1.3405
 1201SOL     OW15064   0.356   1.564   4.653 -0.2792 -0.0107  0.2067
 1201SOL    HW115065   0.418   1.493   4.639 -0.8994 -0.8906  1.9864
 1201SOL    HW215066   0.293   1.557   4.581  1.4529 -0.0263 -1.3148
 1202SOL     OW15067   2.761   1.273  13.005 -0.3750  0.0675  0.2528
 1202SOL    HW115068   2.717   1.303  13.084 -0.4546  1.2095 -0.2154
 1202SOL    HW215069   2.694   1.282  12.937  1.6759  3.1100 -1.4166
 1203SOL     OW15070   3.638   2.377   5.301 -0.0398 -0.6291 -0.0542
 1203SOL    HW115071   3.597   2.384   5.387  1.5653  0.6729  0.6054
 1203SOL    HW215072   3.624   2.284   5.282 -0.6574 -0.3341 -1.0161
 1204SOL     OW15073   3.410   0.809   5.793 -0.3655  0.4212  0.2433
 1204SOL    HW115074   3.354   0.883   5.814 -1.5371 -0.7249  1.0961
 1204SOL    HW215075   3.351   0.736   5.808 -0.7354  0.8276  0.7949
 1205SOL     OW15076   3.361   4.565  12.381  0.2747  0.0984 -0.1169
 1205SOL    HW115077   3.380   4.509  12.305  0.2451 -1.0054  0.6949
 1205SOL    HW215078   3.338   4.494  12.441 -0.0823  2.3409  2.3659
 1206SOL     OW15079   2.247   2.330   7.047 -0.6133 -0.2546  0.2157
 1206SOL    HW115080   2.297   2.397   7.001 -1.0301  0.9773  1.5716
 1206SOL    HW215081   2.188   2.288   6.983  0.5815 -0.1014 -0.9849
 1207SOL     OW15082   1.071   2.697  17.364  0.4543  0.1569 -0.1179
 1207SOL    HW115083   1.022   2.772  17.331 -0.1973 -1.1645 -2.1605
 1207SOL    HW215084   1.000   2.635  17.379 -0.7674  1.5302 -0.1419
 1208SOL     OW15085   2.785   2.380   5.702  0.3959  0.2414 -0.2847
 1208SOL    HW115086   2.795   2.410   5.793 -0.6243  2.3284 -0.8634
 1208SOL    HW215087   2.702   2.425   5.687 -1.7877 -2.3538  3.7509
 1209SOL     OW15088   3.976   0.235  15.217 -0.0144  0.0603  0.0031
 1209SOL    HW115089   3.972   0.319  15.261  2.0802  0.2265 -0.1329
 1209SOL    HW215090   4.057   0.195  15.248 -0.9495 -1.1141  0.9099
 1210SOL     OW15091   3.975   0.559  12.548  0.2629 -0.2421 -0.2716
 1210SOL    HW115092   3.886   0.585  12.574  0.3724 -0.3700  0.2195
 1210SOL    HW215093   4.010   0.515  12.625  1.3336  2.6218  0.8920
 1211SOL     OW15094   0.845   1.506   9.718 -0.2249 -0.2424  0.7587
 1211SOL    HW115095   0.870   1.436   9.778 -1.1395 -0.9606  0.2893
 1211SOL    HW215096   0.933   1.543   9.710 -0.3493 -0.0929  0.1295
 1212SOL     OW15097   4.557   3.783  13.855  0.1861 -0.8046  0.0650
 1212SOL    HW115098   4.622   3.839  13.814  0.4030 -3.2602 -2.9570
 1212SOL    HW215099   4.529   3.734  13.778 -1.9248 -0.6266  0.7167
 1213SOL     OW15100   4.370   0.736  15.814 -0.3634  0.1062  0.1557
 1213SOL    HW115101   4.335   0.754  15.727 -0.0544  2.8278  0.5958
 1213SOL    HW215102   4.447   0.793  15.818 -0.4454  0.2517 -0.4611
 1214SOL     OW15103   1.800   3.389   2.887  0.3110  0.0665  0.0189
 1214SOL    HW115104   1.804   3.338   2.806 -0.4762 -0.0533  0.0625
 1214SOL    HW215105   1.708   3.394   2.910  0.7475  0.8540  1.5748
 1215SOL     OW15106   1.411   0.276   7.507 -0.4102  0.3126 -1.1244
 1215SOL    HW115107   1.476   0.335   7.546  1.5425 -2.4015 -0.2762
 1215SOL    HW215108   1.465   0.209   7.467  1.0402  1.0781 -0.4468
 1216SOL     OW15109   1.891   0.790  11.418 -0.2398  0.0921 -0.2494
 1216SOL    HW115110   1.825   0.721  11.428 -1.9366  1.7804  0.1551
 1216SOL    HW215111   1.847   0.869  11.447  1.3777 -0.3353  3.3413
 1217SOL     OW15112   0.352   0.527   9.071 -0.0320 -0.1386 -0.1447
 1217SOL    HW115113   0.303   0.467   9.127  0.1116  0.3696  0.5295
 1217SOL    HW215114   0.384   0.586   9.139  0.2950  1.6597 -1.8421
 1218SOL     OW15115   0.388   0.435   1.732  0.2718 -0.4715  0.5040
 1218SOL    HW115116   0.474   0.396   1.744  0.6353  0.1216 -0.1879
 1218SOL    HW215117   0.357   0.387   1.655  2.4033  0.5205 -0.9669
 1219SOL     OW15118   0.783   2.833   8.933  0.5094 -0.1880  0.2897
 1219SOL    HW115119   0.835   2.842   9.013  1.4631 -0.5707 -0.2938
 1219SOL    HW215120   0.771   2.739   8.944  1.9963 -0.4731 -0.4894
 1220SOL     OW15121   0.450   0.292   5.449 -0.1250  0.1879 -0.2953
 1220SOL    HW115122   0.431   0.301   5.542  1.7493  1.1115  0.0054
 1220SOL    HW215123   0.461   0.199   5.435  0.6920  0.3751 -0.8800
 1221SOL     OW15124   3.109   3.593  14.935 -0.4961  0.7924 -0.5490
 1221SOL    HW115125   3.075   3.561  15.019 -0.2172  1.2899 -0.2435
 1221SOL    HW215126   3.117   3.513  14.884 -0.4402  0.7316 -0.4458
 1222SOL     OW15127   0.856   0.813   5.900  0.2043  0.0315 -0.7498
 1222SOL    HW115128   0.937   0.766   5.917  0.8908  0.7291 -2.1441
 1222SOL    HW215129   0.851   0.892   5.954 -1.9856 -0.8531  0.3726
 1223SOL     OW15130   3.455   4.542   8.872  0.1114 -0.4287  0.0660
 1223SOL    HW115131   3.365   4.524   8.845 -0.1326  1.2270 -0.2104
 1223SOL    HW215132   3.466   4.501   8.957 -1.8071  0.2137  0.6347
 1224SOL     OW15133   3.822   0.972   7.599 -0.1116 -0.0136 -0.3427
 1224SOL    HW115134   3.916   0.984   7.611  0.1568 -1.9575 -0.5108
 1224SOL    HW215135   3.814   0.877   7.601 -0.1685  0.0249  1.0049
 1225SOL     OW15136   3.625   2.778   4.774  0.0317 -0.4852 -0.0036
 1225SOL    HW115137   3.639   2.746   4.685  3.4158 -0.8079  0.6202
 1225SOL    HW215138   3.577   2.709   4.821  2.0442  0.1878  3.0888
 1226SOL     OW15139   1.090   2.649   8.850  0.2395 -0.0604  0.2038
 1226SOL    HW115140   1.043   2.570   8.824 -2.6465  1.5805  0.3555
 1226SOL    HW215141   1.082   2.706   8.773 -0.9057  0.5152  0.7344
 1227SOL     OW15142   2.911   0.626   9.636  0.2335 -0.1153  0.3626
 1227SOL    HW115143   2.871   0.592   9.556  1.1406 -0.4066  0.0344
 1227SOL    HW215144   2.929   0.554   9.696 -2.0448 -0.3816  0.7347
 1228SOL     OW15145   1.194   1.593   7.048  0.3488  0.0873 -0.3827
 1228SOL    HW115146   1.278   1.575   7.089  0.9260  1.3201 -1.0233
 1228SOL    HW215147   1.226   1.634   6.968  1.5720 -1.4020 -0.6288
 1229SOL     OW15148   0.028   0.908   9.524  0.0403  0.0422 -0.4238
 1229SOL    HW115149   4.666   0.869   9.502 -0.4375 -0.6261  2.5798
 1229SOL    HW215150   0.015   1.003   9.513  0.5459  0.1194 -0.3250
 1230SOL     OW15151   2.410   1.439  15.465 -0.7252 -0.2920 -0.1419
 1230SOL    HW115152   2.476   1.371  15.454  0.4353  0.7710  0.1223
 1230SOL    HW215153   2.431   1.495  15.390 -1.8968 -2.1583 -1.8551
 1231SOL     OW15154   2.991   3.694   7.758  0.0138 -0.5050  0.5598
 1231SOL    HW115155   2.953   3.623   7.706 -0.6475  0.2520  0.0187
 1231SOL    HW215156   3.077   3.660   7.783  0.0491  0.5192  1.8353
 1232SOL     OW15157   2.524   2.192  15.895 -0.1463 -0.2191 -0.1069
 1232SOL    HW115158   2.573   2.180  15.814 -0.3709  0.1050 -0.2913
 1232SOL    HW215159   2.493   2.106  15.922 -1.3381  0.0353 -0.6919
 1233SOL     OW15160   2.239   1.005   8.048 -0.0835  0.4069 -0.0711
 1233SOL    HW115161   2.250   0.910   8.062  3.8878  0.6965 -1.1531
 1233SOL    HW215162   2.304   1.028   7.982 -0.0961 -0.7522 -0.5003
 1234SOL     OW15163   3.633   2.048   0.609  0.8045  0.4135  0.1235
 1234SOL    HW115164   3.685   2.031   0.687  0.9292  0.0482 -0.0407
 1234SOL    HW215165   3.570   1.976   0.607 -0.1123  1.2480 -1.3260
 1235SOL     OW15166   3.220   2.577   8.159 -0.0650  0.1100 -0.4914
 1235SOL    HW115167   3.192   2.601   8.071 -3.8339  1.7344  1.1817
 1235SOL    HW215168   3.221   2.481   8.160 -0.9669  0.1039 -0.6351
 1236SOL     OW15169   0.936   0.993   3.484  0.4453 -0.5543  0.3208
 1236SOL    HW115170   0.949   0.912   3.435 -0.8115  0.2708 -1.3809
 1236SOL    HW215171   0.899   0.963   3.568 -1.1741  1.7053  0.4356
 1237SOL     OW15172   1.720   2.259   5.655  0.0379 -0.2368  0.9553
 1237SOL    HW115173   1.738   2.352   5.668 -0.1129 -0.3975  2.3592
 1237SOL    HW215174   1.646   2.240   5.712 -0.4173  1.0344  0.7935
 1238SOL     OW15175   0.928   0.670   5.598  0.3277 -0.1921 -0.4308
 1238SOL    HW115176   0.992   0.658   5.668 -1.2646  0.1578  1.1064
 1238SOL    HW215177   0.842   0.678   5.641 -0.0196 -1.2086 -0.9314
 1239SOL     OW15178   1.914   4.029   3.361  0.0401 -0.5007  0.1431
 1239SOL    HW115179   1.889   3.975   3.286 -1.0258 -2.2706  1.7569
 1239SOL    HW215180   1.981   3.973   3.401 -0.5261 -1.4585 -0.2489
 1240SOL     OW15181   1.970   2.409   7.892 -0.3756  0.0763  0.2881
 1240SOL    HW115182   1.978   2.341   7.825 -0.7891  0.3058  0.0086
 1240SOL    HW215183   2.016   2.485   7.858  0.1976 -0.4157 -0.0377
 1241SOL     OW15184   2.446   0.461   7.877  0.5809  0.0691 -0.0829
 1241SOL    HW115185   2.386   0.467   7.951  2.3184  2.3758  1.1091
 1241SOL    HW215186   2.472   0.369   7.882  1.4027  0.1892 -2.1798
 1242SOL     OW15187   3.394   1.109   4.393  0.4173  0.2934 -0.0997
 1242SOL    HW115188   3.337   1.081   4.464  2.1907 -0.3698  1.0661
 1242SOL    HW215189   3.339   1.174   4.351 -1.5570 -0.5311  1.2181
 1243SOL     OW15190   0.461   2.046   3.173  0.0987  0.2946  0.1849
 1243SOL    HW115191   0.506   1.970   3.136  0.5519  0.8197 -0.3510
 1243SOL    HW215192   0.373   2.017   3.198  1.0977 -2.2906  0.7724
 1244SOL     OW15193   0.114   0.425   6.665 -0.2566 -0.1831  0.1649
 1244SOL    HW115194   0.107   0.335   6.697  1.0811  0.2756  1.7140
 1244SOL    HW215195   0.190   0.462   6.710 -0.7835 -0.0730  0.9625
 1245SOL     OW15196   1.420   4.334  10.591 -1.0025 -0.4451 -0.4485
 1245SOL    HW115197   1.428   4.430  10.594 -0.7466 -0.4592 -0.7580
 1245SOL    HW215198   1.396   4.327  10.499  0.1453  1.6611 -0.9294
 1246SOL     OW15199   1.673   4.689   7.022  0.0265 -0.1785 -0.1697
 1246SOL    HW115200   1.763   4.659   7.034  0.5967  1.1115 -1.1898
 1246SOL    HW215201   1.628   4.670   7.104 -0.1063 -0.9415 -0.4228
 1247SOL     OW15202   3.889   2.648   3.207 -0.3910  0.3080  0.1370
 1247SOL    HW115203   3.837   2.652   3.287 -0.0256  0.5331  0.3653
 1247SOL    HW215204   3.824   2.667   3.140  0.1895  3.7662  0.5423
 1248SOL     OW15205   0.299   1.079   7.624  0.9651  0.2909 -0.1142
 1248SOL    HW115206   0.217   1.096   7.578  1.6180 -2.6010 -2.3376
 1248SOL    HW215207   0.279   1.127   7.704  0.0492 -1.3173  0.6204
 1249SOL     OW15208   3.532   3.463  15.887  0.4034 -0.3907 -0.0618
 1249SOL    HW115209   3.532   3.447  15.981 -2.2223 -2.4463 -0.3996
 1249SOL    HW215210   3.578   3.395  15.838  0.2740 -0.5512  0.0400
 1250SOL     OW15211   1.078   2.830   0.881  0.5798 -0.1275  0.0882
 1250SOL    HW115212   1.116   2.744   0.898 -1.5435 -0.5352  2.9486
 1250SOL    HW215213   0.986   2.814   0.863  0.4556  0.2270  0.3953
 1251SOL     OW15214   1.394   3.925  14.860 -0.0043  0.2265  0.7228
 1251SOL    HW115215   1.451   3.887  14.793  0.0129  0.5328  0.5635
 1251SOL    HW215216   1.314   3.876  14.843 -1.3267  2.2084  1.3131
 1252SOL     OW15217   0.026   1.256  12.963 -0.5436 -0.1578 -0.0321
 1252SOL    HW115218   4.659   1.282  12.984 -0.4114  1.0811 -0.9611
 1252SOL    HW215219   0.021   1.200  12.885 -0.6125 -1.2314  0.7391
 1253SOL     OW15220   4.466   2.153  13.029  0.1862 -0.4175 -0.3474
 1253SOL    HW115221   4.474   2.068  12.985  1.1157  0.0650 -1.1067
 1253SOL    HW215222   4.383   2.182  12.993  2.1927  1.8897 -3.1102
 1254SOL     OW15223   2.656   0.889  17.057  0.2078  0.1658 -0.0231
 1254SOL    HW115224   2.730   0.834  17.084  0.5297  0.5446 -0.1423
 1254SOL    HW215225   2.708   0.968  17.048  1.1319 -0.2944  1.2455
 1255SOL     OW15226   0.396   0.164   3.783  0.0568  0.1700 -0.2681
 1255SOL    HW115227   0.426   0.114   3.707  0.1552 -1.1664  0.6441
 1255SOL    HW215228   0.375   0.093   3.844  0.6325  0.1447 -0.0966
 1256SOL     OW15229   1.254   3.161  15.812 -0.9232 -0.0470  0.1464
 1256SOL    HW115230   1.319   3.200  15.870 -0.1499 -0.0224 -0.7217
 1256SOL    HW215231   1.297   3.075  15.809 -2.8565 -0.9721 -0.7452
 1257SOL     OW15232   3.237   2.439   4.495  0.1555 -0.5135 -0.3495
 1257SOL    HW115233   3.237   2.496   4.418  1.5250 -0.2253 -0.1281
 1257SOL    HW215234   3.320   2.453   4.541  0.5474 -0.9290 -0.9327
 1258SOL     OW15235   2.784   0.886   2.244  0.1604  0.7285  0.0950
 1258SOL    HW115236   2.719   0.920   2.305 -1.5345 -1.7521 -0.3825
 1258SOL    HW215237   2.849   0.953   2.266  0.5452  0.2272  0.4742
 1259SOL     OW15238   1.201   1.123   7.490  0.2206 -0.0510 -0.4450
 1259SOL    HW115239   1.229   1.033   7.505 -0.3654 -0.4441 -1.7619
 1259SOL    HW215240   1.117   1.112   7.447  0.8347 -1.5498 -1.2393
 1260SOL     OW15241   0.228   1.547   9.579 -0.0265  0.1947  0.2061
 1260SOL    HW115242   0.163   1.557   9.509 -0.5716  0.0471  0.6892
 1260SOL    HW215243   0.311   1.551   9.531 -1.0398  0.1546 -1.5414
 1261SOL     OW15244   3.603   3.758   2.294 -0.4108  0.0204 -0.5968
 1261SOL    HW115245   3.610   3.668   2.261 -0.9845  0.2383 -1.3241
 1261SOL    HW215246   3.537   3.791   2.233 -2.0418  0.2099  1.2952
 1262SOL     OW15247   2.271   4.065   5.313 -0.1533 -0.0742  0.4674
 1262SOL    HW115248   2.349   4.034   5.360  0.4313  1.4782  0.5201
 1262SOL    HW215249   2.201   4.002   5.332 -1.4861  1.1857 -0.2470
 1263SOL     OW15250   2.582   3.127   3.292  0.4672  0.7317 -0.2006
 1263SOL    HW115251   2.513   3.061   3.300 -1.1357  2.2429 -1.5495
 1263SOL    HW215252   2.577   3.176   3.374  1.0111  0.2681  0.1091
 1264SOL     OW15253   1.146   2.370   2.823 -0.8591 -0.0570  0.4006
 1264SOL    HW115254   1.126   2.285   2.863  0.0576 -0.6626 -0.4172
 1264SOL    HW215255   1.198   2.412   2.891  1.5911 -2.6268  0.1265
 1265SOL     OW15256   2.129   2.188   2.936  0.3182  0.2529  0.7301
 1265SOL    HW115257   2.049   2.199   2.988  0.0911  1.3786  0.1302
 1265SOL    HW215258   2.121   2.108   2.884 -0.5842  1.8379 -1.5731
 1266SOL     OW15259   2.248   0.104  13.695  0.0920 -0.0035 -0.1670
 1266SOL    HW115260   2.156   0.090  13.672  0.1133 -2.3397  1.1887
 1266SOL    HW215261   2.306   0.074  13.625  2.2583  2.4837  0.5934
 1267SOL     OW15262   4.206   0.136   0.782 -0.0628 -0.3222 -0.4934
 1267SOL    HW115263   4.269   0.205   0.803 -0.8714  0.5825 -0.9936
 1267SOL    HW215264   4.185   0.110   0.872  1.0370  0.3413 -0.0398
 1268SOL     OW15265   4.235   2.599   3.296 -0.0911 -0.1790 -0.6397
 1268SOL    HW115266   4.310   2.578   3.241  1.2307  1.6991  0.4394
 1268SOL    HW215267   4.225   2.521   3.351 -1.3124 -0.0363 -0.6503
 1269SOL     OW15268   0.759   0.098   7.675  0.1366  0.0993  0.0363
 1269SOL    HW115269   0.713   0.024   7.714  1.3983  0.2639  1.8233
 1269SOL    HW215270   0.688   0.160   7.658  0.9517  0.3941 -2.4077
 1270SOL     OW15271   3.897   2.964   6.584 -0.4115  0.3938  0.4295
 1270SOL    HW115272   3.865   2.995   6.499 -1.6498  1.2435  1.2042
 1270SOL    HW215273   3.988   2.993   6.586 -0.3007 -0.0362  1.3978
 1271SOL     OW15274   3.637   0.588   3.989  0.1246  0.0223 -0.3733
 1271SOL    HW115275   3.683   0.658   3.942 -1.1343 -0.6384 -2.6195
 1271SOL    HW215276   3.710   0.526   3.980  0.7200  1.1551 -3.3665
 1272SOL     OW15277   3.139   2.069   2.361 -0.4210 -0.4971 -0.5257
 1272SOL    HW115278   3.171   2.110   2.442 -1.9427 -0.3148 -0.0167
 1272SOL    HW215279   3.068   2.130   2.344 -0.1554  0.3130  1.1847
 1273SOL     OW15280   2.451   2.544  12.190 -0.1269 -0.1973 -0.2287
 1273SOL    HW115281   2.433   2.568  12.100  0.8525  0.4440 -0.2583
 1273SOL    HW215282   2.428   2.626  12.234  1.2207  0.1124 -0.0785
 1274SOL     OW15283   3.570   4.388  14.582  0.3995 -0.2315 -0.7057
 1274SOL    HW115284   3.598   4.471  14.545 -1.3734  0.2647 -0.9306
 1274SOL    HW215285   3.528   4.352  14.503  0.0495 -0.6046 -0.3544
 1275SOL     OW15286   0.959   2.493   8.446  0.2695  0.2726  0.1045
 1275SOL    HW115287   0.998   2.427   8.504 -1.3731  0.3106  1.2587
 1275SOL    HW215288   1.031   2.493   8.384  1.3431  2.1696  1.3409
 1276SOL     OW15289   3.307   2.732   5.953  0.5028  0.4389 -0.5857
 1276SOL    HW115290   3.392   2.770   5.932  1.7573 -0.7799  2.2984
 1276SOL    HW215291   3.248   2.807   5.959  0.4516  0.4855 -1.6391
 1277SOL     OW15292   0.522   1.332   4.622  0.5856  0.4161 -0.6356
 1277SOL    HW115293   0.598   1.320   4.680  0.0984  2.4472  0.4302
 1277SOL    HW215294   0.563   1.347   4.536  0.4617 -1.2888 -0.9799
 1278SOL     OW15295   1.624   4.118   7.996 -0.3429 -0.5931 -0.3540
 1278SOL    HW115296   1.672   4.191   7.957  0.5431 -0.1868  1.5113
 1278SOL    HW215297   1.550   4.160   8.041 -1.1345 -1.0967 -1.1767
 1279SOL     OW15298   3.319   3.376   0.242  0.2461 -0.7501  0.1704
 1279SOL    HW115299   3.385   3.432   0.201  0.8716 -1.2398  0.5032
 1279SOL    HW215300   3.324   3.295   0.191  0.6066  1.4525 -3.2197
 1280SOL     OW15301   0.226   2.240   6.792  0.2872 -0.2604 -0.3971
 1280SOL    HW115302   0.176   2.322   6.791  3.9451  1.9449 -1.5757
 1280SOL    HW215303   0.307   2.269   6.751  1.5264  0.0817  2.3120
 1281SOL     OW15304   2.018   2.407   5.530 -0.2140 -0.1299 -0.6524
 1281SOL    HW115305   2.017   2.360   5.447 -1.1339 -0.8897 -0.2103
 1281SOL    HW215306   1.936   2.380   5.571 -0.9926  1.3859 -1.2324
 1282SOL     OW15307   3.970   2.451   0.599  0.1989 -0.0427 -0.0201
 1282SOL    HW115308   4.027   2.465   0.675 -1.2629 -0.8177  1.2182
 1282SOL    HW215309   3.906   2.522   0.603  0.7571  0.4682 -0.0124
 1283SOL     OW15310   0.817   4.410   8.782  0.4042  0.2383  0.2053
 1283SOL    HW115311   0.732   4.445   8.808  0.5563  2.2623 -2.0673
 1283SOL    HW215312   0.808   4.406   8.687  1.4308 -0.8636  0.1385
 1284SOL     OW15313   2.503   2.159   2.315  0.1201 -0.3976  0.3656
 1284SOL    HW115314   2.511   2.117   2.401 -1.8839  2.7648  2.1218
 1284SOL    HW215315   2.580   2.216   2.315 -0.0622 -0.1497  0.4470
 1285SOL     OW15316   1.719   0.500   5.963 -0.3632  0.8975  0.4203
 1285SOL    HW115317   1.805   0.533   5.936  0.2680 -1.1981 -0.1290
 1285SOL    HW215318   1.707   0.451   5.882  1.8438 -0.2850  0.7966
 1286SOL     OW15319   0.956   1.758  15.729  0.5879 -0.6224 -0.2665
 1286SOL    HW115320   0.866   1.787  15.717  0.0244 -1.0619  2.7454
 1286SOL    HW215321   0.973   1.795  15.816  0.2619  1.0219 -0.9188
 1287SOL     OW15322   0.292   4.352  17.078 -0.2408 -0.1690  0.2159
 1287SOL    HW115323   0.383   4.338  17.102 -0.1533  2.3085  1.2918
 1287SOL    HW215324   0.291   4.283  17.011 -0.4069  0.6315 -0.6071
 1288SOL     OW15325   2.158   0.332  15.472  0.4820  1.2962  0.2781
 1288SOL    HW115326   2.112   0.254  15.503  0.3900  0.0786 -2.8853
 1288SOL    HW215327   2.081   0.385  15.455 -0.5504 -0.2004  0.2783
 1289SOL     OW15328   2.310   0.901   6.101 -0.5030  0.6079 -0.3519
 1289SOL    HW115329   2.347   0.870   6.018 -0.2136  0.0736 -0.0240
 1289SOL    HW215330   2.294   0.816   6.143  1.3950 -0.6093 -2.0770
 1290SOL     OW15331   2.483   4.194   6.935  0.3461 -0.1623 -0.0087
 1290SOL    HW115332   2.396   4.207   6.897  0.0345  1.4295  1.2494
 1290SOL    HW215333   2.484   4.098   6.946  0.8772 -0.4744 -2.9618
 1291SOL     OW15334   3.178   3.858  11.381 -0.3925 -0.5006 -0.6415
 1291SOL    HW115335   3.256   3.909  11.403 -1.8843  0.7649  1.8080
 1291SOL    HW215336   3.152   3.822  11.466  2.0380 -1.0027 -0.1022
 1292SOL     OW15337   0.118   3.783   9.458  0.1831  0.0325 -0.3717
 1292SOL    HW115338   0.031   3.744   9.449 -0.5301  1.5736 -0.1662
 1292SOL    HW215339   0.109   3.864   9.409  1.9592 -0.1533 -1.0215
 1293SOL     OW15340   2.568   2.539  16.863  0.2047  0.1814  0.2925
 1293SOL    HW115341   2.596   2.498  16.945 -0.4150 -1.5883 -0.3737
 1293SOL    HW215342   2.549   2.625  16.899  0.2802  0.9241 -1.4322
 1294SOL     OW15343   4.087   0.296  10.345  0.3339 -0.2551  0.4113
 1294SOL    HW115344   4.171   0.279  10.301 -0.1120 -0.8214 -0.2282
 1294SOL    HW215345   4.028   0.250  10.286  1.2450  0.2544 -0.9092
 1295SOL     OW15346   1.307   0.450   1.552 -0.6139  0.1895 -0.2737
 1295SOL    HW115347   1.379   0.478   1.609 -1.3536 -0.5482  1.0326
 1295SOL    HW215348   1.350   0.398   1.485 -1.2037 -1.3460  0.5433
 1296SOL     OW15349   1.574   0.583   6.305 -0.5813  0.0795  0.1443
 1296SOL    HW115350   1.602   0.501   6.264 -0.0783  0.1861  0.2656
 1296SOL    HW215351   1.611   0.649   6.247 -0.0211 -1.0594 -0.8032
 1297SOL     OW15352   1.024   3.554   4.550  0.5770  0.2070 -0.4736
 1297SOL    HW115353   1.027   3.556   4.454  0.7085  0.1785 -0.4711
 1297SOL    HW215354   1.115   3.579   4.566  0.6496  0.3908 -1.1785
 1298SOL     OW15355   4.626   4.256   2.745  0.5314 -0.4053  0.3398
 1298SOL    HW115356   4.619   4.337   2.695 -1.9972 -2.0716 -2.0234
 1298SOL    HW215357   4.630   4.196   2.670  0.7116  1.6198 -1.2569
 1299SOL     OW15358   0.624   3.279  11.194  0.7030 -0.1350 -0.1083
 1299SOL    HW115359   0.694   3.344  11.192 -0.5634  1.1444 -2.5052
 1299SOL    HW215360   0.620   3.248  11.284  2.3707 -0.8281 -0.2741
 1300SOL     OW15361   2.738   3.926   8.658 -0.3617  0.0285  0.6364
 1300SOL    HW115362   2.742   3.839   8.699  1.6688  0.7620  1.9913
 1300SOL    HW215363   2.724   3.989   8.728  0.3878 -1.2988  2.0013
 1301SOL     OW15364   2.834   4.697   0.351  0.4621  0.0589 -0.0503
 1301SOL    HW115365   2.853   4.603   0.348  0.7904  0.0741  1.8252
 1301SOL    HW215366   2.920   0.015   0.349 -0.2802  1.7223  1.6562
 1302SOL     OW15367   0.908   4.653   5.706  0.1217 -0.1175 -0.3821
 1302SOL    HW115368   0.936   4.562   5.703  0.0984 -0.1030 -1.1296
 1302SOL    HW215369   0.983   4.696   5.665  0.9867 -0.5514  0.7701
 1303SOL     OW15370   1.032   4.414   5.061  0.1853 -0.0580  0.4709
 1303SOL    HW115371   1.087   4.481   5.103 -0.6047  2.4968 -2.5838
 1303SOL    HW215372   1.045   4.437   4.969 -2.6307 -0.0889  0.0913
 1304SOL     OW15373   0.620   1.191   3.834 -0.4601  0.1417 -0.3043
 1304SOL    HW115374   0.688   1.257   3.819 -0.3296  0.0237 -0.2357
 1304SOL    HW215375   0.565   1.225   3.904 -2.8788 -0.7206 -1.7720
 1305SOL     OW15376   2.010   0.416   1.404  0.0997 -0.1974 -0.1144
 1305SOL    HW115377   2.033   0.326   1.428  0.6014 -0.2212 -0.6725
 1305SOL    HW215378   2.090   0.436   1.354 -0.1709  3.2253  0.8247
 1306SOL     OW15379   1.628   3.367   4.042  0.0975 -0.0236 -0.0798
 1306SOL    HW115380   1.684   3.303   4.088  0.5029 -1.1599 -2.1523
 1306SOL    HW215381   1.681   3.368   3.962  0.3925 -2.9512  0.0722
 1307SOL     OW15382   4.314   4.162   5.702  0.4503  0.5329  0.2542
 1307SOL    HW115383   4.346   4.127   5.620  0.3181 -0.0581  0.4581
 1307SOL    HW215384   4.312   4.258   5.696 -0.2651  0.4820 -0.2434
 1308SOL     OW15385   4.070   3.357   7.547 -0.0514 -0.3993  0.1517
 1308SOL    HW115386   4.041   3.379   7.635  0.0558 -1.5744  0.4755
 1308SOL    HW215387   4.043   3.266   7.535  2.1646 -1.3432  2.3344
 1309SOL     OW15388   3.661   1.066   7.079 -0.9395 -0.1289  0.0239
 1309SOL    HW115389   3.640   0.972   7.082  0.1337 -0.3700  0.1875
 1309SOL    HW215390   3.653   1.091   6.988 -1.3459  0.3761  0.2050
 1310SOL     OW15391   1.036   0.782   5.130  0.9980 -0.1540  0.7042
 1310SOL    HW115392   1.007   0.863   5.172  2.9503  0.3140  1.1332
 1310SOL    HW215393   1.069   0.732   5.205  1.8403  1.3248  1.3273
 1311SOL     OW15394   3.344   2.535   6.143 -0.4871 -0.1362 -0.1559
 1311SOL    HW115395   3.310   2.607   6.089  1.3940  0.0614 -1.0997
 1311SOL    HW215396   3.433   2.567   6.161 -0.1993  0.7374 -3.0070
 1312SOL     OW15397   4.690   1.739   2.329  0.3104 -0.5496  0.0794
 1312SOL    HW115398   0.015   1.666   2.369  1.9245 -0.0157 -0.9152
 1312SOL    HW215399   4.655   1.783   2.407  0.3311 -0.1207 -0.1549
 1313SOL     OW15400   3.803   0.930   9.034  0.1587  0.1474  0.5678
 1313SOL    HW115401   3.838   0.939   9.123  2.4073  0.6295 -0.3649
 1313SOL    HW215402   3.722   0.886   9.060  0.1359 -0.0593  0.1430
 1314SOL     OW15403   0.513   2.279   3.357 -0.6629  0.5026 -0.5165
 1314SOL    HW115404   0.476   2.218   3.293 -1.5841  0.6391 -0.1066
 1314SOL    HW215405   0.438   2.279   3.415 -0.3462  1.8532 -0.1053
 1315SOL     OW15406   0.110   4.503  10.642  0.4915  0.2820  0.0274
 1315SOL    HW115407   0.095   4.441  10.570 -2.2320  1.8271 -0.7397
 1315SOL    HW215408   0.194   4.474  10.677  0.0203 -0.9180  0.1741
 1316SOL     OW15409   4.635   1.915   3.412  0.5096 -0.0922  0.2846
 1316SOL    HW115410   4.562   1.860   3.439  0.2575 -0.0343 -0.2945
 1316SOL    HW215411   4.600   1.956   3.333  1.2004  0.8472  0.4554
 1317SOL     OW15412   2.174   0.833   0.732 -0.6773  0.2937  0.4442
 1317SOL    HW115413   2.147   0.827   0.823 -1.4332  0.0269  0.1988
 1317SOL    HW215414   2.252   0.779   0.719  0.5201  1.2440  3.6779
 1318SOL     OW15415   2.173   3.217   6.162  0.0982  0.0466  0.1463
 1318SOL    HW115416   2.192   3.129   6.194  0.0476 -0.5635 -1.5510
 1318SOL    HW215417   2.140   3.210   6.073 -0.9091 -1.1503  0.6066
 1319SOL     OW15418   3.356   3.856  13.434 -0.3392 -0.2742  0.1783
 1319SOL    HW115419   3.356   3.774  13.385  0.4360  1.8370 -3.4438
 1319SOL    HW215420   3.263   3.857  13.455 -0.4957  0.1290 -0.5167
 1320SOL     OW15421   4.609   2.709   5.893 -0.0754  0.3577  0.5281
 1320SOL    HW115422   4.518   2.703   5.922 -0.2477  2.8485  0.5560
 1320SOL    HW215423   4.633   2.801   5.904  2.4250  0.0543 -2.3146
 1321SOL     OW15424   0.222   3.969  17.369 -0.0872 -0.0763 -0.4845
 1321SOL    HW115425   0.267   3.889  17.396  0.0507 -0.3108 -1.4147
 1321SOL    HW215426   0.291   4.019  17.326 -0.8382  1.1262 -0.3056
 1322SOL     OW15427   3.696   1.286   3.252  0.3972  0.2156 -0.3657
 1322SOL    HW115428   3.700   1.206   3.200  1.1738  0.0563 -0.0501
 1322SOL    HW215429   3.777   1.282   3.303 -0.3578 -1.2813  0.7346
 1323SOL     OW15430   1.167   1.129   8.943 -0.0130  0.0908 -0.5879
 1323SOL    HW115431   1.135   1.157   8.857 -1.9436 -0.0875  0.0817
 1323SOL    HW215432   1.125   1.043   8.943 -0.9692  0.5771 -1.8739
 1324SOL     OW15433   1.830   3.854  17.396 -0.3735  0.2369 -0.2473
 1324SOL    HW115434   1.769   3.911  17.350  1.1694 -1.5093 -4.4944
 1324SOL    HW215435   1.877   3.913  17.455  0.1092  1.5399 -1.9267
 1325SOL     OW15436   0.288   1.472   8.746  0.3341 -0.3094 -0.1025
 1325SOL    HW115437   0.328   1.419   8.676  1.4419 -2.3088  2.0292
 1325SOL    HW215438   0.317   1.560   8.722 -0.5801 -0.0010 -0.0749
 1326SOL     OW15439   0.301   2.413   8.253  0.0566 -0.1269 -0.0460
 1326SOL    HW115440   0.379   2.435   8.303 -1.2551  0.8264  1.5747
 1326SOL    HW215441   0.226   2.427   8.310 -0.1860 -0.0523 -0.3804
 1327SOL     OW15442   3.606   2.225   8.827  0.1494 -0.0707  0.3589
 1327SOL    HW115443   3.672   2.160   8.851  1.1787  0.6126 -0.6401
 1327SOL    HW215444   3.590   2.281   8.903 -0.8411 -0.2197  0.2552
 1328SOL     OW15445   1.538   0.966  12.694 -0.2374  0.2821 -0.1610
 1328SOL    HW115446   1.578   0.952  12.608  0.8950 -3.7287  1.0212
 1328SOL    HW215447   1.543   0.881  12.737 -0.3070 -0.7514 -2.2333
 1329SOL     OW15448   4.672   3.673   4.692 -0.6449 -0.7767 -0.0323
 1329SOL    HW115449   0.015   3.663   4.623 -1.2021 -0.2930 -0.6387
 1329SOL    HW215450   4.605   3.613   4.660 -0.7134 -1.0373  0.6022
 1330SOL     OW15451   2.955   3.053  12.041  0.5628 -0.2160 -0.2090
 1330SOL    HW115452   2.867   3.040  12.006  0.1929  0.0026  0.6404
 1330SOL    HW215453   3.002   3.060  11.958 -0.6479 -0.9121 -0.9541
 1331SOL     OW15454   2.188   0.692   5.755 -0.2016  0.1669 -0.1797
 1331SOL    HW115455   2.138   0.701   5.674 -0.2151 -0.4570 -0.2419
 1331SOL    HW215456   2.138   0.755   5.807 -0.2404  0.2138 -0.2737
 1332SOL     OW15457   2.726   1.878   3.439  0.2006  0.0542 -0.3798
 1332SOL    HW115458   2.697   1.789   3.421  2.4615 -0.1840 -2.9861
 1332SOL    HW215459   2.734   1.882   3.534  1.9419 -1.4628 -0.4628
 1333SOL     OW15460   0.074   2.108  17.183  1.2341  0.2565  0.1926
 1333SOL    HW115461   0.007   2.054  17.227  1.0663  0.7168  0.5012
 1333SOL    HW215462   0.021   2.180  17.149 -0.9156 -1.1869  0.4422
 1334SOL     OW15463   0.437   1.896   0.769 -0.7707  0.1618 -0.0357
 1334SOL    HW115464   0.467   1.986   0.773  0.2229 -0.1972  0.5759
 1334SOL    HW215465   0.506   1.854   0.718 -1.7350 -2.1301  0.5340
 1335SOL     OW15466   2.017   0.448   8.173  0.4335  0.1290  0.1407
 1335SOL    HW115467   1.992   0.357   8.158  2.0083 -0.5055  1.2851
 1335SOL    HW215468   2.002   0.450   8.268  1.4047  0.1991  0.3041
 1336SOL     OW15469   4.348   0.488   5.600  0.1120  0.2669  0.3420
 1336SOL    HW115470   4.417   0.444   5.650 -2.3191 -2.2442  1.4945
 1336SOL    HW215471   4.276   0.426   5.615 -0.5385  0.4606 -1.9325
 1337SOL     OW15472   0.249   0.869   2.664  0.1698 -0.5516 -0.1389
 1337SOL    HW115473   0.274   0.896   2.576  0.6977  0.4038  0.2941
 1337SOL    HW215474   0.336   0.841   2.694  2.0146  2.6052 -2.5055
 1338SOL     OW15475   3.752   2.605   5.580  0.0196 -0.2273  0.9920
 1338SOL    HW115476   3.773   2.519   5.617  1.7188  0.1963  1.0178
 1338SOL    HW215477   3.666   2.610   5.622  0.0302  0.1613  0.9599
 1339SOL     OW15478   0.377   1.890   3.589 -0.1355 -0.1269  0.5610
 1339SOL    HW115479   0.407   1.979   3.605  1.0020 -0.2695 -0.7902
 1339SOL    HW215480   0.369   1.863   3.681  0.7632 -2.2222  0.0172
 1340SOL     OW15481   0.323   3.840   6.979 -0.3799 -0.0398  0.7293
 1340SOL    HW115482   0.371   3.766   6.941 -0.8940  0.9911 -1.9310
 1340SOL    HW215483   0.387   3.909   6.967  0.2108 -0.6839  0.1680
 1341SOL     OW15484   2.083   0.976   8.398  0.0580 -1.0101 -0.2139
 1341SOL    HW115485   2.106   0.967   8.306  5.0298 -0.3121  0.9570
 1341SOL    HW215486   1.994   1.009   8.407  1.7178  3.3185  0.6697
 1342SOL     OW15487   4.171   3.659   0.924 -0.5880  0.1611  0.1751
 1342SOL    HW115488   4.126   3.575   0.913 -2.0993  0.8640  0.9789
 1342SOL    HW215489   4.190   3.690   0.835 -0.1421 -0.7888 -0.0566
 1343SOL     OW15490   4.010   1.724   4.164  0.0923  0.2035  0.3601
 1343SOL    HW115491   4.011   1.728   4.260 -1.8656 -1.0749  0.4240
 1343SOL    HW215492   3.924   1.686   4.153  0.7212 -1.0293 -0.2259
 1344SOL     OW15493   2.398   4.021  11.574 -0.3524 -0.2726  0.1393
 1344SOL    HW115494   2.401   4.020  11.478 -0.1917  0.1044  0.1387
 1344SOL    HW215495   2.492   4.017  11.594 -0.0511 -2.1965 -1.6896
 1345SOL     OW15496   2.867   0.302   8.569  0.2174  0.5733  0.2866
 1345SOL    HW115497   2.805   0.253   8.622  0.3533  0.2440  0.1446
 1345SOL    HW215498   2.900   0.370   8.628  3.2487  0.7546 -1.5709
 1346SOL     OW15499   3.859   0.764   6.054  0.0073  0.3300 -0.0666
 1346SOL    HW115500   3.853   0.747   5.960 -1.1845 -0.4580  0.1513
 1346SOL    HW215501   3.896   0.852   6.052 -2.1651  1.1927 -2.3079
 1347SOL     OW15502   3.907   4.438   5.145 -0.0689  0.2282 -0.1342
 1347SOL    HW115503   3.931   4.455   5.054 -1.8753  0.8169 -0.5072
 1347SOL    HW215504   3.812   4.424   5.145 -0.4785  2.8930 -2.2587
 1348SOL     OW15505   1.621   3.063   1.556 -0.4545  0.1314  0.1548
 1348SOL    HW115506   1.569   3.106   1.624  1.3857 -0.3668  1.8498
 1348SOL    HW215507   1.665   3.004   1.617  1.0874  2.7612  1.6076
 1349SOL     OW15508   3.568   3.174   5.222 -0.0454  0.1542  0.2564
 1349SOL    HW115509   3.546   3.202   5.132  2.4458  0.1955 -0.3261
 1349SOL    HW215510   3.588   3.261   5.256 -0.1342  0.2723  0.0083
 1350SOL     OW15511   0.076   2.552   8.410  0.1195  0.5778 -0.3522
 1350SOL    HW115512   0.109   2.582   8.495 -0.7464  0.2356  0.1097
 1350SOL    HW215513   0.045   2.466   8.440  2.7185 -0.1798  0.1471
 1351SOL     OW15514   4.332   2.003  15.502  0.8146  0.1632  0.1760
 1351SOL    HW115515   4.301   2.072  15.560 -0.3009  0.3894 -0.6948
 1351SOL    HW215516   4.255   1.979  15.451  0.6806 -0.2766  0.5755
 1352SOL     OW15517   3.013   0.659   2.916  0.3147 -0.6868  0.0002
 1352SOL    HW115518   3.016   0.712   2.836  0.1298 -1.2074 -0.3532
 1352SOL    HW215519   2.973   0.729   2.968 -0.0597  0.5197 -1.8992
 1353SOL     OW15520   0.063   1.462   2.810  0.4667  0.4299  0.4282
 1353SOL    HW115521   0.027   1.474   2.722 -1.2750 -0.9877  0.9378
 1353SOL    HW215522   4.714   1.428   2.864  0.3755  2.6748  1.7043
 1354SOL     OW15523   1.486   3.156   2.400  0.0230  0.2591  0.4852
 1354SOL    HW115524   1.462   3.232   2.346  0.1550  1.4700  2.1208
 1354SOL    HW215525   1.563   3.133   2.349 -0.1993 -3.0376  1.6638
 1355SOL     OW15526   0.762   1.781   1.441 -0.4000 -0.6282 -0.7225
 1355SOL    HW115527   0.813   1.764   1.362  1.2603  0.0291  0.2197
 1355SOL    HW215528   0.790   1.734   1.519 -1.3339  2.2520  1.3701
 1356SOL     OW15529   1.943   1.297  16.109  0.4691  0.6037 -0.2427
 1356SOL    HW115530   2.016   1.315  16.050 -0.0411 -0.4122 -1.1592
 1356SOL    HW215531   1.987   1.279  16.193 -1.3967 -2.4785  0.0669
 1357SOL     OW15532   3.366   3.111   0.103 -0.2964 -0.7450  0.5552
 1357SOL    HW115533   3.443   3.064   0.073  0.5108  0.4327  0.7836
 1357SOL    HW215534   3.296   3.080   0.045 -1.0313  0.6636  0.6576
 1358SOL     OW15535   0.834   0.143   0.112 -0.4097  0.6538 -0.7098
 1358SOL    HW115536   0.863   0.167   0.024 -2.5205  2.2720 -0.9658
 1358SOL    HW215537   0.896   0.201   0.157 -2.4739  2.3308 -0.0285
 1359SOL     OW15538   4.297   3.989   4.015 -0.0783 -0.4650 -0.4643
 1359SOL    HW115539   4.224   3.996   3.953  1.1339  1.1940 -1.7165
 1359SOL    HW215540   4.292   4.064   4.074  3.5348 -1.2960  0.8714
 1360SOL     OW15541   0.085   1.896   5.634  0.1949 -0.0836  0.1850
 1360SOL    HW115542   0.038   1.976   5.659 -0.1756 -0.4634  0.7071
 1360SOL    HW215543   0.153   1.901   5.702  0.2091  0.4698  0.1316
 1361SOL     OW15544   3.930   2.663   5.381 -0.1468 -0.0817 -0.1516
 1361SOL    HW115545   3.863   2.641   5.446  0.3043 -0.6605  0.1203
 1361SOL    HW215546   3.938   2.571   5.354 -0.3224  0.2074 -1.2040
 1362SOL     OW15547   1.677   0.138  14.151 -0.2492  0.2893 -0.1693
 1362SOL    HW115548   1.615   0.102  14.214  0.4430  1.4450  1.1531
 1362SOL    HW215549   1.732   0.187  14.212  0.5460  0.4839 -1.0457
 1363SOL     OW15550   3.495   1.501   9.000 -0.5489  0.4925 -0.4362
 1363SOL    HW115551   3.514   1.413   9.032  0.2793  0.7184 -0.3198
 1363SOL    HW215552   3.556   1.543   9.060 -0.1279 -1.0998  0.2455
 1364SOL     OW15553   3.321   1.819   8.314  0.3121 -0.0104  0.4413
 1364SOL    HW115554   3.377   1.897   8.307  0.9060 -0.4279  0.5990
 1364SOL    HW215555   3.374   1.756   8.266 -1.5665  0.6867 -2.5363
 1365SOL     OW15556   0.117   0.853  15.965  0.2906 -0.4885  0.4550
 1365SOL    HW115557   0.153   0.926  15.915 -1.5726  0.5188  0.5783
 1365SOL    HW215558   0.197   0.826  16.010 -0.7039 -0.5416  2.1778
 1366SOL     OW15559   3.985   1.254   4.533  0.3971 -0.0430 -0.3525
 1366SOL    HW115560   3.976   1.168   4.493 -2.8352  0.0732  0.1352
 1366SOL    HW215561   3.928   1.310   4.480 -1.1271 -3.4768 -2.3233
 1367SOL     OW15562   4.450   1.508   9.531  0.0233 -0.6918 -0.1431
 1367SOL    HW115563   4.423   1.428   9.487 -1.9390  1.1151 -2.1962
 1367SOL    HW215564   4.396   1.517   9.610 -0.6076 -0.2760 -0.6231
 1368SOL     OW15565   0.456   0.619  11.464 -0.3645  0.2037  0.1666
 1368SOL    HW115566   0.495   0.662  11.540 -0.1756  0.2782  0.0291
 1368SOL    HW215567   0.450   0.530  11.497 -0.3674  0.6222  1.2881
 1369SOL     OW15568   4.432   2.964   8.853 -0.0827 -0.5031  0.1911
 1369SOL    HW115569   4.404   3.015   8.778  0.6337 -0.3423  0.0396
 1369SOL    HW215570   4.356   2.980   8.909  1.1106  1.9988  1.0645
 1370SOL     OW15571   4.578   1.924  12.306  0.2132  0.0149  0.5087
 1370SOL    HW115572   4.509   1.859  12.299 -0.9993  1.1524  2.0297
 1370SOL    HW215573   4.574   1.941  12.400  0.3210 -0.3607  0.5817
 1371SOL     OW15574   0.470   0.680   6.972 -0.1518  0.3753 -0.1199
 1371SOL    HW115575   0.433   0.764   6.946  1.1756  0.9853 -0.0117
 1371SOL    HW215576   0.511   0.697   7.057  0.7943 -1.6479 -0.1698
 1372SOL     OW15577   2.488   0.030   6.112 -0.0656  0.2452 -0.3932
 1372SOL    HW115578   2.537   0.010   6.192  0.3091 -0.2738 -0.7509
 1372SOL    HW215579   2.554   0.069   6.053  0.4101  0.4867  0.3011
 1373SOL     OW15580   1.767   3.854   8.003  0.4161  0.2996 -0.2131
 1373SOL    HW115581   1.862   3.859   8.008  0.3682  1.3081 -0.2499
 1373SOL    HW215582   1.737   3.945   8.007  0.1868  0.2631 -1.0958
 1374SOL     OW15583   0.185   4.128  12.226 -0.5890  0.1446 -0.1831
 1374SOL    HW115584   0.240   4.068  12.176  0.3537  0.5596  0.3567
 1374SOL    HW215585   0.223   4.215  12.214 -3.2627  1.7170  2.8413
 1375SOL     OW15586   1.098   2.075   5.266 -0.6853  0.3542  0.6778
 1375SOL    HW115587   1.051   2.044   5.189 -0.8972 -1.1964  1.4199
 1375SOL    HW215588   1.192   2.066   5.249 -1.0992 -1.9414 -0.3867
 1376SOL     OW15589   1.693   2.957   6.039 -0.7406 -0.3078  0.2643
 1376SOL    HW115590   1.697   3.048   6.067 -0.4733  0.3741 -1.9714
 1376SOL    HW215591   1.721   2.963   5.948 -1.4055 -1.8676 -0.0486
 1377SOL     OW15592   0.953   3.424  12.612 -0.3448  0.6376 -0.1504
 1377SOL    HW115593   0.983   3.514  12.603  1.2723  0.2516  1.2670
 1377SOL    HW215594   0.907   3.413  12.529 -1.4411  0.1236  0.5231
 1378SOL     OW15595   2.353   4.176   2.113 -0.6985  0.8932 -0.4549
 1378SOL    HW115596   2.358   4.157   2.207 -2.2375 -0.8651 -0.7287
 1378SOL    HW215597   2.426   4.237   2.100  1.5358 -1.8906 -1.2112
 1379SOL     OW15598   1.907   0.648  12.586 -0.5717  0.0799  0.2585
 1379SOL    HW115599   1.980   0.586  12.587 -1.1819 -0.5936  1.8830
 1379SOL    HW215600   1.825   0.600  12.580 -0.4566 -0.0176 -0.5267
 1380SOL     OW15601   2.750   4.352   1.967  0.1160  0.2817  0.5712
 1380SOL    HW115602   2.762   4.380   1.876 -0.8277 -0.3585  0.2519
 1380SOL    HW215603   2.834   4.383   2.002 -0.6931  1.1244  1.7745
 1381SOL     OW15604   4.516   2.193   2.301 -0.4006 -0.0281  0.2811
 1381SOL    HW115605   4.479   2.105   2.300 -0.3026 -0.0643 -0.3588
 1381SOL    HW215606   4.526   2.209   2.395 -1.2140 -2.2006  0.7370
 1382SOL     OW15607   2.917   4.323  11.486 -0.3593  0.0225  0.1682
 1382SOL    HW115608   2.989   4.262  11.470 -0.4138 -0.3040  1.1505
 1382SOL    HW215609   2.917   4.361  11.398 -0.4822  1.7256  0.9144
 1383SOL     OW15610   3.298   2.739   4.739 -0.3528 -0.4104 -0.5004
 1383SOL    HW115611   3.211   2.710   4.766  0.1356 -2.2793 -0.8966
 1383SOL    HW215612   3.348   2.676   4.790  1.1274 -0.4429 -1.9701
 1384SOL     OW15613   0.133   1.416   0.911  0.1981 -0.5873  0.1920
 1384SOL    HW115614   0.180   1.500   0.918 -0.1191 -0.5253  1.6783
 1384SOL    HW215615   0.050   1.450   0.879  1.1100 -0.6738 -2.3004
 1385SOL     OW15616   4.087   1.305  10.597  0.2907 -0.4495  0.3241
 1385SOL    HW115617   4.166   1.258  10.624  1.2802  0.7563 -0.4308
 1385SOL    HW215618   4.104   1.400  10.598  0.8657 -0.5664  1.4352
 1386SOL     OW15619   1.098   0.649   5.393  0.2832 -0.1730 -0.9395
 1386SOL    HW115620   1.029   0.654   5.460 -0.4361  0.0148 -1.6962
 1386SOL    HW215621   1.124   0.557   5.386  4.0429  0.7712  0.8669
 1387SOL     OW15622   0.541   3.346  10.542 -0.4881 -0.0254 -0.3872
 1387SOL    HW115623   0.468   3.285  10.548 -0.1668 -0.3387  0.2934
 1387SOL    HW215624   0.618   3.289  10.550  0.5760  1.5914  0.9485
 1388SOL     OW15625   4.514   0.575   1.132  0.0130 -0.1569  0.4396
 1388SOL    HW115626   4.441   0.529   1.092 -1.8820  1.4765  1.9893
 1388SOL    HW215627   4.480   0.665   1.138 -0.8021 -0.3898 -0.8443
 1389SOL     OW15628   0.730   3.829   3.499  0.1960  0.2139  0.0091
 1389SOL    HW115629   0.768   3.916   3.488  0.0568  0.4863  1.6042
 1389SOL    HW215630   0.774   3.774   3.435  0.7408  0.5135  0.1278
 1390SOL     OW15631   1.360   1.112  12.230 -0.1665  0.0213 -0.1470
 1390SOL    HW115632   1.438   1.064  12.203 -0.8597 -2.2149  1.8186
 1390SOL    HW215633   1.303   1.094  12.156  0.9387 -0.3716 -0.9143
 1391SOL     OW15634   1.223   3.015   0.410 -0.3732  0.3513 -0.0042
 1391SOL    HW115635   1.218   2.922   0.386  0.6649  0.4127 -0.4516
 1391SOL    HW215636   1.184   3.003   0.497  0.1441  1.5196  0.3832
 1392SOL     OW15637   3.072   4.709   6.169 -0.4247  0.1110 -0.3822
 1392SOL    HW115638   3.160   4.671   6.172 -1.1794 -1.7775 -2.6197
 1392SOL    HW215639   3.072   0.050   6.241  1.3441  1.2277 -1.3709
 1393SOL     OW15640   4.200   1.348   2.835  0.1166  0.4504 -0.1984
 1393SOL    HW115641   4.165   1.437   2.841 -1.1262 -0.0350 -0.2559
 1393SOL    HW215642   4.131   1.312   2.779 -0.7021 -1.1163  1.8106
 1394SOL     OW15643   0.983   1.346   4.794 -0.2805  0.4767 -0.3257
 1394SOL    HW115644   0.936   1.393   4.725  0.7341  3.2874  0.8916
 1394SOL    HW215645   1.059   1.319   4.743 -1.2239  0.3946 -1.7038
 1395SOL     OW15646   4.603   1.443   3.824 -0.2738  0.2919  0.3254
 1395SOL    HW115647   4.683   1.474   3.867 -1.1611  0.5333  1.8229
 1395SOL    HW215648   4.635   1.439   3.734 -0.0819 -2.0661  0.4887
 1396SOL     OW15649   1.313   2.317   7.969 -0.5264  0.1655  0.2559
 1396SOL    HW115650   1.353   2.295   7.885  1.3756 -2.2264  1.7824
 1396SOL    HW215651   1.369   2.388   8.000  0.5662 -0.3335 -0.5861
 1397SOL     OW15652   4.031   3.389   0.459 -0.1150  0.3354 -0.4972
 1397SOL    HW115653   4.121   3.368   0.485 -1.0521 -1.4004  1.3027
 1397SOL    HW215654   4.037   3.477   0.420 -0.8705 -0.2717 -1.9891
 1398SOL     OW15655   1.459   1.529   1.355 -0.3158  0.4235 -0.1158
 1398SOL    HW115656   1.520   1.461   1.383  0.6794  0.6913 -1.6203
 1398SOL    HW215657   1.420   1.480   1.282 -2.1997  1.8511 -0.0797
 1399SOL     OW15658   1.703   0.483  14.284  0.0361  0.0007  0.4639
 1399SOL    HW115659   1.731   0.572  14.264 -2.6661  0.1069 -2.8372
 1399SOL    HW215660   1.783   0.439  14.313  0.5686 -0.7533 -2.1081
 1400SOL     OW15661   4.665   2.394  17.139  0.7343 -0.5885  0.8320
 1400SOL    HW115662   0.028   2.429  17.165  0.7763 -0.7268  0.8849
 1400SOL    HW215663   4.663   2.414  17.046 -0.2831 -1.3459  0.6934
 1401SOL     OW15664   3.982   3.426   8.790 -0.0084 -0.5961 -0.3983
 1401SOL    HW115665   4.059   3.384   8.830 -1.0947 -1.7546  0.4649
 1401SOL    HW215666   4.011   3.516   8.804  0.9241 -0.8589 -0.5734
 1402SOL     OW15667   2.966   2.884   8.807  0.1804 -0.0108  0.0553
 1402SOL    HW115668   2.977   2.789   8.812  0.8954 -0.0337 -2.0883
 1402SOL    HW215669   3.000   2.910   8.722 -0.8779  0.8144 -0.1186
 1403SOL     OW15670   1.584   2.461   6.223 -0.3798 -0.0466 -0.6263
 1403SOL    HW115671   1.491   2.486   6.227 -0.4740 -0.5106  0.0783
 1403SOL    HW215672   1.622   2.548   6.225  0.0718 -0.2725  0.4471
 1404SOL     OW15673   4.636   3.988  11.136  0.7090  0.3836  0.0713
 1404SOL    HW115674   4.662   4.060  11.079 -0.8268  0.3862 -0.6249
 1404SOL    HW215675   4.599   4.037  11.209 -1.7981  0.1337 -1.0355
 1405SOL     OW15676   4.675   4.284   4.949  0.0594  0.0065 -0.2096
 1405SOL    HW115677   4.669   4.352   4.883 -2.3992  0.5299  0.5681
 1405SOL    HW215678   0.046   4.298   4.965  0.0164 -0.0508  0.0923
 1406SOL     OW15679   0.063   2.475   6.796 -0.1760  0.1302  0.0969
 1406SOL    HW115680   0.098   2.549   6.845 -0.7476 -0.0772  0.8244
 1406SOL    HW215681   0.013   2.524   6.730 -1.1506 -0.5516  0.3212
 1407SOL     OW15682   0.035   3.513   8.637 -0.0396 -0.2532  0.3522
 1407SOL    HW115683   0.047   3.419   8.628  0.2054 -0.3880  2.1603
 1407SOL    HW215684   0.078   3.538   8.555  0.2746  0.1819  0.6496
 1408SOL     OW15685   3.542   1.038   7.396  0.2439 -0.6006  0.9372
 1408SOL    HW115686   3.540   0.943   7.385  1.2456 -0.4222 -0.7985
 1408SOL    HW215687   3.461   1.070   7.435 -0.3593 -1.3494  0.2983
 1409SOL     OW15688   2.842   1.843  13.225  0.4172  0.2089 -0.7345
 1409SOL    HW115689   2.849   1.854  13.131 -1.8951  0.4425 -0.8858
 1409SOL    HW215690   2.933   1.820  13.245  0.8478  2.4274 -0.2137
 1410SOL     OW15691   1.879   0.622   6.926 -0.1236 -0.2257  0.1902
 1410SOL    HW115692   1.841   0.661   7.005 -0.2507 -0.3686  0.2018
 1410SOL    HW215693   1.889   0.694   6.864  3.5539 -0.4250  0.5528
 1411SOL     OW15694   4.281   4.657  12.114 -0.2404 -0.2036 -0.9442
 1411SOL    HW115695   4.293   4.566  12.086  1.2619  0.2537 -1.7353
 1411SOL    HW215696   4.192   4.661  12.078 -0.6426 -0.6289 -0.0075
 1412SOL     OW15697   1.256   3.001   1.839 -0.0461 -0.2967 -0.4147
 1412SOL    HW115698   1.210   3.046   1.769  1.2804  0.8604 -0.5169
 1412SOL    HW215699   1.229   2.910   1.823 -2.3239  0.3272 -0.0795
 1413SOL     OW15700   3.034   0.496  12.682 -0.4772 -0.5964  0.2288
 1413SOL    HW115701   2.985   0.512  12.763  0.4872 -0.5222  0.7889
 1413SOL    HW215702   2.971   0.493  12.610 -2.2705  0.2456  1.7634
 1414SOL     OW15703   4.267   2.335  10.177  0.3582  0.0230  0.1044
 1414SOL    HW115704   4.305   2.367  10.259 -1.4339  0.5618  0.7299
 1414SOL    HW215705   4.177   2.312  10.201  0.1579  1.1969  0.4840
 1415SOL     OW15706   3.187   2.843   5.634  0.1156  0.1933  0.3084
 1415SOL    HW115707   3.161   2.770   5.579 -2.1217  0.0109  1.6004
 1415SOL    HW215708   3.098   2.879   5.641 -0.8251 -1.9965 -0.6961
 1416SOL     OW15709   3.204   0.045   7.211  0.0410  0.1834  0.0999
 1416SOL    HW115710   3.203   0.107   7.284  1.5035  2.1825 -1.5971
 1416SOL    HW215711   3.280   0.083   7.166  0.2133 -0.1558  0.1033
 1417SOL     OW15712   0.808   0.117   8.982 -0.2850 -0.3045 -0.5077
 1417SOL    HW115713   0.854   0.062   9.045 -0.0751  2.4967  1.7460
 1417SOL    HW215714   0.885   0.169   8.957 -0.6731  0.3571 -0.3251
 1418SOL     OW15715   1.750   3.427   3.300 -0.1190 -0.0124 -0.1665
 1418SOL    HW115716   1.666   3.472   3.285 -0.3466  0.3097  2.0573
 1418SOL    HW215717   1.781   3.451   3.387 -0.6688 -2.6235  0.7585
 1419SOL     OW15718   4.366   1.989   6.285  0.7687 -0.0900  0.1090
 1419SOL    HW115719   4.459   1.968   6.296  0.1130 -2.6676  0.7080
 1419SOL    HW215720   4.322   1.929   6.345  2.9442 -2.3523 -0.5777
 1420SOL     OW15721   3.546   1.396  17.316  0.2227 -0.4155 -0.2669
 1420SOL    HW115722   3.545   1.317  17.371 -1.2043  0.8903  1.5813
 1420SOL    HW215723   3.454   1.417  17.305  0.4865  1.7360  1.6788
 1421SOL     OW15724   1.388   0.521   8.725 -0.3411  0.0061 -0.2503
 1421SOL    HW115725   1.418   0.484   8.809 -0.2682 -0.3453 -0.4281
 1421SOL    HW215726   1.360   0.442   8.679  0.5715 -1.6279  1.9372
 1422SOL     OW15727   0.277   1.049   1.514  0.6074  0.1449 -0.6285
 1422SOL    HW115728   0.291   1.081   1.603  1.1894 -4.6522  1.0242
 1422SOL    HW215729   0.358   1.053   1.462  2.2363 -0.0755  1.8867
 1423SOL     OW15730   3.226   1.130  16.885  0.8646  0.4248 -0.3053
 1423SOL    HW115731   3.240   1.111  16.792 -0.6371  0.7670 -0.5956
 1423SOL    HW215732   3.178   1.213  16.883  3.3533  1.8824  0.2711
 1424SOL     OW15733   2.961   3.949   2.912  0.2606  0.1606  0.4470
 1424SOL    HW115734   3.004   3.881   2.964  0.2533 -0.9884 -1.0550
 1424SOL    HW215735   2.996   4.029   2.950  4.1905 -0.6131 -1.6060
 1425SOL     OW15736   1.878   3.936   0.455  0.2074  0.6693 -0.4703
 1425SOL    HW115737   1.897   4.019   0.500 -0.8635  0.9659 -0.5647
 1425SOL    HW215738   1.895   3.874   0.525 -0.9805  0.1499 -0.6342
 1426SOL     OW15739   4.008   3.039   7.096 -0.2258  0.0136  0.3632
 1426SOL    HW115740   4.099   3.026   7.070 -0.1485  0.2621  0.5107
 1426SOL    HW215741   4.006   3.032   7.191  0.0328  0.3605  0.3969
 1427SOL     OW15742   2.145   2.060   7.436 -0.2309 -0.0777 -0.6772
 1427SOL    HW115743   2.056   2.045   7.406 -0.7235 -3.5142  2.6284
 1427SOL    HW215744   2.124   2.139   7.486 -1.0400 -0.4086 -0.5013
 1428SOL     OW15745   1.238   0.996   0.900 -1.0262 -0.0285 -0.5189
 1428SOL    HW115746   1.152   0.962   0.924 -0.7990 -0.7249 -0.7098
 1428SOL    HW215747   1.254   0.956   0.815  0.1976 -0.5460 -0.0568
 1429SOL     OW15748   2.978   1.083   5.963  0.3476  0.0629 -0.2116
 1429SOL    HW115749   2.986   1.178   5.970 -0.4848  0.0114  1.4571
 1429SOL    HW215750   2.884   1.071   5.974  0.3283  2.4362  2.2590
 1430SOL     OW15751   2.628   3.162   4.115  0.0265 -0.4056 -0.1610
 1430SOL    HW115752   2.714   3.128   4.088  0.0058 -0.0471 -0.6776
 1430SOL    HW215753   2.621   3.230   4.048 -2.8596  0.6006  1.1597
 1431SOL     OW15754   2.661   0.525  12.861  0.1866 -0.5407  0.1885
 1431SOL    HW115755   2.617   0.460  12.916 -0.7213 -1.2156 -1.3351
 1431SOL    HW215756   2.749   0.528  12.898  0.0587  0.4348  0.4143
 1432SOL     OW15757   1.029   2.984   9.679 -0.6376  0.0316  0.4676
 1432SOL    HW115758   1.019   2.917   9.747 -2.0759 -0.6857 -0.4652
 1432SOL    HW215759   1.020   3.067   9.725 -4.5208 -0.1621  0.0162
 1433SOL     OW15760   3.852   0.422   1.633  0.0787  0.5732 -0.4991
 1433SOL    HW115761   3.803   0.465   1.562  1.8164  1.7818 -0.9586
 1433SOL    HW215762   3.900   0.498   1.664  3.6572 -1.4798 -0.9755
 1434SOL     OW15763   2.898   1.632  10.852  0.1988  0.0646 -0.1455
 1434SOL    HW115764   2.818   1.609  10.804  0.1483 -0.6457  0.2654
 1434SOL    HW215765   2.869   1.624  10.943 -2.1237 -1.8354 -1.0313
 1435SOL     OW15766   2.327   4.440  16.360 -0.3554  0.1534 -0.4276
 1435SOL    HW115767   2.388   4.444  16.434 -1.5242 -0.0419  0.5410
 1435SOL    HW215768   2.244   4.454  16.404  0.5443 -0.0654  1.3401
 1436SOL     OW15769   1.524   4.392   5.011 -0.3609 -0.0109 -0.3158
 1436SOL    HW115770   1.516   4.299   4.989  0.3739  0.0305 -0.7652
 1436SOL    HW215771   1.596   4.404   5.072  1.9242  0.5568 -3.0984
 1437SOL     OW15772   2.220   4.282   2.766  0.2648 -0.7001  0.1335
 1437SOL    HW115773   2.219   4.319   2.677 -1.5842  0.1679  0.5129
 1437SOL    HW215774   2.299   4.229   2.765  0.7972  0.1135 -2.6442
 1438SOL     OW15775   0.447   2.372   4.725 -0.2359 -0.7080 -0.2964
 1438SOL    HW115776   0.386   2.332   4.663 -1.2022  0.4758 -0.1131
 1438SOL    HW215777   0.517   2.396   4.665 -0.4657 -2.8846 -1.4224
 1439SOL     OW15778   0.582   3.976   3.771 -0.5853 -0.3804  0.1810
 1439SOL    HW115779   0.626   4.050   3.728  0.0562 -0.3187  0.9489
 1439SOL    HW215780   0.654   3.931   3.814 -1.1357 -1.6137 -0.1873
 1440SOL     OW15781   0.282   4.210   5.292 -0.0510  0.5164 -0.2989
 1440SOL    HW115782   0.298   4.136   5.350 -0.6418 -1.2856 -2.4429
 1440SOL    HW215783   0.282   4.283   5.354  1.2329  0.1152  0.1657
 1441SOL     OW15784   0.697   1.385   8.630  0.0861 -0.3378 -0.1973
 1441SOL    HW115785   0.650   1.303   8.613  1.2150 -1.3725  1.6825
 1441SOL    HW215786   0.688   1.433   8.548  1.2847  2.3788  1.2601
 1442SOL     OW15787   2.448   3.183  14.306  0.6041 -0.2576 -0.2342
 1442SOL    HW115788   2.365   3.175  14.353 -0.0623  2.0186 -1.0556
 1442SOL    HW215789   2.473   3.091  14.309  0.0613 -0.3825  0.5187
 1443SOL     OW15790   1.579   4.323  11.022 -0.6079 -0.3868  0.5510
 1443SOL    HW115791   1.490   4.315  10.988 -0.6251  0.5740  0.3747
 1443SOL    HW215792   1.561   4.377  11.099 -3.0755  1.1780 -1.1173
 1444SOL     OW15793   4.609   3.137   0.917 -0.4384  0.5493 -0.8246
 1444SOL    HW115794   4.699   3.163   0.898 -0.3552 -0.5498 -1.8963
 1444SOL    HW215795   4.580   3.216   0.962  0.1561  0.4210 -0.2200
 1445SOL     OW15796   2.567   0.026   0.135 -0.1453  0.3239  0.1032
 1445SOL    HW115797   2.531   4.684   0.075  1.3758 -0.0016 -0.4718
 1445SOL    HW215798   2.655   0.045   0.100  0.3090  0.7954  1.5054
 1446SOL     OW15799   4.688   2.459   6.040 -0.5635 -0.0251  0.0840
 1446SOL    HW115800   4.708   2.393   5.974  1.1341  0.7803 -0.2089
 1446SOL    HW215801   4.686   2.536   5.983 -1.5487 -0.0827  0.0467
 1447SOL     OW15802   0.991   1.090   4.850 -0.4923  0.0733 -0.0157
 1447SOL    HW115803   0.959   1.060   4.765 -1.1748  1.4412 -0.2343
 1447SOL    HW215804   0.990   1.184   4.837  0.6953 -0.2666 -2.5846
 1448SOL     OW15805   1.722   3.011   8.178  0.4776  0.4337  0.0382
 1448SOL    HW115806   1.701   2.920   8.199  0.1648  0.5572  0.2649
 1448SOL    HW215807   1.634   3.049   8.178 -0.1121 -0.9248  2.8397
 1449SOL     OW15808   2.001   2.758  17.607 -0.2650  0.1159 -0.2895
 1449SOL    HW115809   1.984   2.686  17.667 -1.3938  1.5872  1.1344
 1449SOL    HW215810   1.915   2.771  17.567 -0.1569  1.9676  0.0600
 1450SOL     OW15811   0.994   2.128   7.047 -0.9347 -0.0875  0.0549
 1450SOL    HW115812   0.984   2.190   6.976 -1.3542 -0.9264 -0.6204
 1450SOL    HW215813   1.077   2.086   7.022  0.3774 -0.0870  4.2801
 1451SOL     OW15814   4.051   4.127   0.715 -0.0809 -0.2101 -0.3902
 1451SOL    HW115815   4.068   4.221   0.718 -1.4092 -0.0638  1.8489
 1451SOL    HW215816   3.959   4.123   0.739  0.4007  2.8589  2.0124
 1452SOL     OW15817   0.530   2.030   4.667 -0.5052  0.3610 -0.3830
 1452SOL    HW115818   0.458   2.086   4.638 -0.1257  1.4196  0.7002
 1452SOL    HW215819   0.492   1.942   4.662  1.3768 -0.4205 -0.8208
 1453SOL     OW15820   0.617   0.040  14.251 -0.1377 -0.2317  0.6350
 1453SOL    HW115821   0.662   0.124  14.246  0.5685 -0.8073 -2.6336
 1453SOL    HW215822   0.531   0.081  14.247  0.1691  0.5358  1.8884
 1454SOL     OW15823   4.164   4.197   9.667 -0.4048  0.1080  0.7226
 1454SOL    HW115824   4.170   4.180   9.573  0.4864 -0.9776  0.9826
 1454SOL    HW215825   4.220   4.274   9.672  1.6622 -1.2201 -1.9844
 1455SOL     OW15826   4.016   2.255  15.956 -0.5075  0.0962 -0.1988
 1455SOL    HW115827   4.065   2.232  16.035 -1.4671 -1.9848 -0.2284
 1455SOL    HW215828   4.050   2.344  15.943 -0.9472  0.4986  1.4669
 1456SOL     OW15829   4.167   2.412   0.440 -0.1357  0.5565 -0.4027
 1456SOL    HW115830   4.118   2.393   0.360 -0.5263 -0.2369  0.0277
 1456SOL    HW215831   4.087   2.407   0.493 -0.9258  1.9039 -1.4770
 1457SOL     OW15832   0.082   1.932   5.349  0.5639 -0.3065 -0.2608
 1457SOL    HW115833   0.005   1.979   5.319  1.4660  1.1646 -0.2808
 1457SOL    HW215834   0.076   1.936   5.445  1.7761 -2.0789 -0.1114
 1458SOL     OW15835   1.018   1.446   8.088  0.5124  0.3183  0.1411
 1458SOL    HW115836   0.973   1.489   8.160  2.0275 -0.0188  1.2972
 1458SOL    HW215837   1.067   1.378   8.136 -0.2299 -1.1996 -1.2555
 1459SOL     OW15838   2.452   4.410  13.796  0.4718  0.9712 -0.0605
 1459SOL    HW115839   2.502   4.435  13.718  1.6724 -2.6474 -0.4449
 1459SOL    HW215840   2.370   4.381  13.756  0.8573  1.4894 -1.2112
 1460SOL     OW15841   3.826   4.225   9.448 -0.7406  0.1308  0.2050
 1460SOL    HW115842   3.819   4.146   9.503  1.0766 -0.0892  0.1473
 1460SOL    HW215843   3.777   4.290   9.498  0.9969  4.3424 -3.6589
 1461SOL     OW15844   1.182   3.851  15.862  0.3995 -0.1054 -0.1643
 1461SOL    HW115845   1.096   3.811  15.851 -0.4384  2.1604 -2.0646
 1461SOL    HW215846   1.190   3.842  15.957  1.5205  1.0468 -0.1400
 1462SOL     OW15847   0.553   1.522   9.767  0.2109 -0.2442  0.0922
 1462SOL    HW115848   0.505   1.440   9.756  0.6377 -0.7173  1.6903
 1462SOL    HW215849   0.643   1.494   9.752 -0.3011 -1.2939 -1.0257
 1463SOL     OW15850   3.320   2.017  11.689  0.8274 -0.2032 -0.6258
 1463SOL    HW115851   3.232   2.036  11.655 -0.3798  1.8486  3.7420
 1463SOL    HW215852   3.339   2.109  11.708 -1.0143  0.0794 -0.1978
 1464SOL     OW15853   1.317   2.482  12.258 -0.0765  0.0808 -0.2719
 1464SOL    HW115854   1.311   2.502  12.351 -0.8198  1.5704 -0.6273
 1464SOL    HW215855   1.309   2.387  12.245  0.3013 -0.0019  0.1165
 1465SOL     OW15856   2.920   4.466   7.898 -0.5202 -0.1987 -0.0410
 1465SOL    HW115857   2.974   4.394   7.930 -1.9829 -0.8219  1.0494
 1465SOL    HW215858   2.835   4.438   7.932 -0.7969  1.4813  0.6759
 1466SOL     OW15859   2.924   3.028   5.547  0.6301  0.0652  0.0339
 1466SOL    HW115860   2.960   2.964   5.486  2.1466  1.7148 -0.7700
 1466SOL    HW215861   2.989   3.058   5.610  0.2025  0.8352  0.1094
 1467SOL     OW15862   1.044   1.366   1.863  0.7338  0.6611  0.1196
 1467SOL    HW115863   1.068   1.404   1.778  0.0145  0.5906 -0.1135
 1467SOL    HW215864   0.948   1.367   1.862  0.7262  2.6221  1.5472
 1468SOL     OW15865   2.014   1.321   8.503  0.0877 -0.1012  0.1228
 1468SOL    HW115866   2.006   1.416   8.512  0.3254 -0.0010 -0.7479
 1468SOL    HW215867   2.038   1.321   8.410 -3.3656  3.0190 -0.7517
 1469SOL     OW15868   3.892   4.331   7.850 -0.6488 -0.4683  0.2308
 1469SOL    HW115869   3.913   4.417   7.813 -2.4461  0.2482  0.8470
 1469SOL    HW215870   3.865   4.355   7.938  2.5254  2.2565  0.4583
 1470SOL     OW15871   4.620   0.884   7.065 -0.3009 -0.2554 -0.4587
 1470SOL    HW115872   4.610   0.803   7.114  0.5992  0.9802  1.7834
 1470SOL    HW215873   4.619   0.861   6.972  0.4488 -0.7948 -0.3335
 1471SOL     OW15874   0.107   3.818   8.362 -0.4319  1.1749  0.1462
 1471SOL    HW115875   0.172   3.823   8.292 -0.5900 -0.1213 -0.0842
 1471SOL    HW215876   0.063   3.738   8.333  0.0416 -0.5855  4.2138
 1472SOL     OW15877   3.492   2.611  14.558 -0.4121 -0.0848  0.0453
 1472SOL    HW115878   3.459   2.548  14.493  0.2696 -0.2453 -0.1447
 1472SOL    HW215879   3.453   2.694  14.529  0.0686  0.0562 -0.2133
 1473SOL     OW15880   1.894   2.810   2.896 -0.2662 -0.5416 -0.3326
 1473SOL    HW115881   1.814   2.810   2.844  0.3960 -1.6333 -1.3561
 1473SOL    HW215882   1.912   2.716   2.906  1.0885 -0.1801  0.6832
 1474SOL     OW15883   3.715   0.091  12.237 -0.2530  0.1478 -0.0864
 1474SOL    HW115884   3.650   0.074  12.304  1.2207 -1.1899  1.0117
 1474SOL    HW215885   3.724   0.187  12.239 -2.4643  0.3216  0.9213
 1475SOL     OW15886   0.723   0.569   3.484 -1.4329  0.5834  0.5740
 1475SOL    HW115887   0.797   0.509   3.474 -0.2027  1.8936  1.6153
 1475SOL    HW215888   0.722   0.623   3.404 -0.3878 -0.2028  0.0248
 1476SOL     OW15889   0.410   0.304   2.503 -0.2771 -0.6508  0.9775
 1476SOL    HW115890   0.329   0.334   2.545  0.5860  0.4854  1.8457
 1476SOL    HW215891   0.447   0.389   2.477 -0.6365 -1.6020 -2.5343
 1477SOL     OW15892   3.047   2.115  17.309 -0.0175  0.3466  0.2331
 1477SOL    HW115893   2.979   2.180  17.290 -1.4314 -0.1651  3.4985
 1477SOL    HW215894   3.012   2.058  17.378  2.8233 -0.3804  1.0808
 1478SOL     OW15895   0.333   2.874   8.298 -0.4854 -0.4966 -0.0208
 1478SOL    HW115896   0.393   2.946   8.276 -0.5902 -0.9941 -1.9139
 1478SOL    HW215897   0.396   2.802   8.290  1.7964  1.2231  2.5407
 1479SOL     OW15898   3.280   2.284   8.789 -0.0623 -0.1358 -0.2326
 1479SOL    HW115899   3.299   2.219   8.722  0.5344 -0.1908 -0.0058
 1479SOL    HW215900   3.365   2.328   8.790 -1.7985  3.2828 -3.4220
 1480SOL     OW15901   1.256   3.770  10.258  0.6243 -0.3418 -0.1615
 1480SOL    HW115902   1.301   3.738  10.336  0.4422 -1.8458 -0.6683
 1480SOL    HW215903   1.227   3.687  10.218  1.1107 -1.3612  1.6061
 1481SOL     OW15904   2.280   2.565  13.779  0.2142 -0.0222 -0.1331
 1481SOL    HW115905   2.254   2.657  13.784  0.0563  0.0215 -1.6783
 1481SOL    HW215906   2.218   2.534  13.712  0.1399  1.1936 -0.6312
 1482SOL     OW15907   4.637   0.971   0.004 -0.3416  0.1294  0.3963
 1482SOL    HW115908   0.008   0.987   0.015 -0.6245  2.0822 -0.1025
 1482SOL    HW215909   4.604   1.060   0.010 -0.5800  0.0946 -0.4913
 1483SOL     OW15910   1.277   3.071   6.784  0.0857  0.0596  0.1807
 1483SOL    HW115911   1.352   3.013   6.772  0.2164 -0.0544  1.5158
 1483SOL    HW215912   1.211   3.002   6.782  0.5227 -0.3168 -0.9836
 1484SOL     OW15913   3.407   2.684   2.849  0.3603  0.0854  0.2720
 1484SOL    HW115914   3.448   2.686   2.762  1.8550  1.5338  1.0077
 1484SOL    HW215915   3.322   2.651   2.821  0.4105  0.2905 -0.1331
 1485SOL     OW15916   4.436   4.201   0.647 -0.0912  0.7688  0.0784
 1485SOL    HW115917   4.430   4.292   0.676  1.2961  0.4645  1.3296
 1485SOL    HW215918   4.518   4.209   0.598  1.3817 -0.7102  2.2866
 1486SOL     OW15919   0.841   1.245   7.160 -0.4278  0.2125 -0.1227
 1486SOL    HW115920   0.926   1.290   7.170 -0.7798  0.6670  0.8443
 1486SOL    HW215921   0.813   1.229   7.250 -1.1129 -2.9865 -0.9091
 1487SOL     OW15922   3.783   3.805   1.876  0.1073 -0.3679  0.3241
 1487SOL    HW115923   3.694   3.839   1.879  0.3840  0.3475  0.2981
 1487SOL    HW215924   3.803   3.814   1.783  0.1600 -2.0541  0.1681
 1488SOL     OW15925   1.536   3.190  13.233  0.4278  0.4750  0.0581
 1488SOL    HW115926   1.558   3.220  13.321 -4.6895  2.7483  0.5736
 1488SOL    HW215927   1.441   3.184  13.245  0.6537  2.1892  2.6985
 1489SOL     OW15928   4.499   2.197   7.040  0.7283 -0.0594 -0.1860
 1489SOL    HW115929   4.470   2.137   6.971 -2.1668  1.4742 -0.3112
 1489SOL    HW215930   4.555   2.257   6.992 -1.1851  1.2160 -0.8178
 1490SOL     OW15931   4.125   2.775   3.071  0.2323 -0.6948  0.3025
 1490SOL    HW115932   4.067   2.836   3.117  0.8370 -0.6991  1.0751
 1490SOL    HW215933   4.142   2.707   3.136 -1.5934  0.2536  1.7478
 1491SOL     OW15934   4.446   1.747  11.318  0.0899 -0.3032  0.1813
 1491SOL    HW115935   4.468   1.664  11.358  1.3777  0.2295  0.5729
 1491SOL    HW215936   4.438   1.715  11.228 -1.0583  0.6673 -0.0789
 1492SOL     OW15937   0.742   2.441   4.897 -0.2755  0.3588  0.4315
 1492SOL    HW115938   0.757   2.404   4.811 -1.6893 -2.9734  1.6277
 1492SOL    HW215939   0.813   2.504   4.906 -0.9482  1.1636  0.1020
 1493SOL     OW15940   3.637   3.242   9.063 -0.0626  0.2060  0.0185
 1493SOL    HW115941   3.699   3.253   9.134 -0.7716  2.5467  0.2934
 1493SOL    HW215942   3.666   3.313   9.006  0.1970  0.0999  0.0190
 1494SOL     OW15943   0.878   3.192  13.912 -0.5757 -0.0091  0.6715
 1494SOL    HW115944   0.971   3.199  13.892 -1.1304 -1.1078 -2.2695
 1494SOL    HW215945   0.861   3.115  13.858 -0.2013  0.9296 -0.8072
 1495SOL     OW15946   1.675   0.670   8.084  0.5457  0.0087  0.2591
 1495SOL    HW115947   1.731   0.736   8.043  1.4348 -0.6702  0.3765
 1495SOL    HW215948   1.613   0.723   8.133  0.0664  0.8652 -1.2904
 1496SOL     OW15949   3.168   3.651   5.352  0.3377  0.1648 -0.0405
 1496SOL    HW115950   3.224   3.728   5.366  1.7417 -1.1304  1.5336
 1496SOL    HW215951   3.179   3.633   5.258  4.2369 -1.0572  0.6361
 1497SOL     OW15952   1.521   2.126   9.198 -0.7248 -0.6307 -0.0441
 1497SOL    HW115953   1.566   2.070   9.261  1.2821  0.1987 -0.7503
 1497SOL    HW215954   1.483   2.191   9.257  0.0104  1.7482 -2.2294
 1498SOL     OW15955   1.854   4.493  11.063 -0.1487 -0.5110  0.4189
 1498SOL    HW115956   1.805   4.518  11.140  0.3566 -2.5785  1.4037
 1498SOL    HW215957   1.938   4.471  11.103 -0.7321  0.9459  2.4655
 1499SOL     OW15958   2.098   4.205   0.367  0.3109  0.8548 -0.4271
 1499SOL    HW115959   2.075   4.193   0.459 -1.6377 -1.1391 -1.1681
 1499SOL    HW215960   2.131   4.294   0.377  0.6538  0.7741 -0.8532
 1500SOL     OW15961   3.070   3.282   2.760  1.1361 -0.1610 -0.4298
 1500SOL    HW115962   3.003   3.215   2.748  2.0098 -1.0874 -0.2158
 1500SOL    HW215963   3.133   3.256   2.692  1.3498 -0.6303 -0.0553
 1501SOL     OW15964   0.207   0.057   1.211 -0.0838 -0.0340 -0.0405
 1501SOL    HW115965   0.252   0.131   1.172 -2.0036  0.8477 -0.5755
 1501SOL    HW215966   0.258   4.703   1.186 -0.9248 -0.7359  0.3934
 1502SOL     OW15967   0.117   0.641  10.316  0.3849  0.3883 -0.0950
 1502SOL    HW115968   0.104   0.569  10.378  0.1646 -1.6375 -2.5177
 1502SOL    HW215969   0.169   0.690  10.380 -1.1889  0.9592  0.7383
 1503SOL     OW15970   3.303   0.249   2.056 -0.1703  0.0385 -0.0968
 1503SOL    HW115971   3.334   0.340   2.047 -2.1235  0.8083  1.0191
 1503SOL    HW215972   3.384   0.208   2.087  0.3570  1.3998  0.3237
 1504SOL     OW15973   1.739   0.437  10.214 -0.7469 -0.3148  0.5044
 1504SOL    HW115974   1.663   0.380  10.225  0.4727 -1.3085  3.6350
 1504SOL    HW215975   1.700   0.524  10.214  0.4227  0.2153  0.7519
 1505SOL     OW15976   0.295   4.203   0.596 -0.4994  0.5189  0.3914
 1505SOL    HW115977   0.376   4.254   0.600  0.5855 -1.2682  1.0425
 1505SOL    HW215978   0.322   4.112   0.611 -0.2907  1.1578  4.0634
 1506SOL     OW15979   4.335   4.063   2.780  0.1531  0.2308 -0.2582
 1506SOL    HW115980   4.246   4.043   2.751 -0.3349 -0.1881  1.5503
 1506SOL    HW215981   4.343   4.157   2.764  1.7275  0.2828  0.7476
 1507SOL     OW15982   4.165   4.710  12.385 -0.3884 -0.5445  0.2506
 1507SOL    HW115983   4.233   0.037  12.430 -1.5107  1.3656 -0.1843
 1507SOL    HW215984   4.216   4.664  12.319 -1.9837 -1.1486 -0.5714
 1508SOL     OW15985   1.859   4.358   7.156 -0.2526 -0.0294  0.0454
 1508SOL    HW115986   1.899   4.279   7.190  1.3773  0.3453 -1.0216
 1508SOL    HW215987   1.837   4.320   7.071  1.6521 -0.4938 -0.2305
 1509SOL     OW15988   3.709   1.286   5.161 -0.5304  0.0174 -0.3168
 1509SOL    HW115989   3.771   1.325   5.100 -1.1127  0.9855 -0.3068
 1509SOL    HW215990   3.713   1.194   5.137 -0.7764 -0.2934  0.8062
 1510SOL     OW15991   3.731   0.883   9.480  0.0983 -0.7271 -0.1287
 1510SOL    HW115992   3.809   0.832   9.458 -1.0317 -2.2247 -0.7358
 1510SOL    HW215993   3.753   0.943   9.409  0.3028  0.2047  0.7366
 1511SOL     OW15994   1.863   4.352   4.269 -0.8702 -0.5080 -0.0856
 1511SOL    HW115995   1.827   4.326   4.184 -2.1216 -0.5499  0.4616
 1511SOL    HW215996   1.804   4.416   4.309  0.7517  1.4439 -0.8041
 1512SOL     OW15997   0.034   2.493   3.930  0.5622  0.0001  0.1625
 1512SOL    HW115998   0.032   2.570   3.874 -1.2072 -1.1126 -1.2978
 1512SOL    HW215999   0.114   2.510   3.981  0.2416  1.6479  0.1238
 1513SOL     OW16000   3.974   3.895   4.227  0.5955  0.3193  0.4112
 1513SOL    HW116001   4.066   3.887   4.199  0.0332 -1.7178 -0.8091
 1513SOL    HW216002   3.987   3.867   4.318 -0.1851 -0.4434  0.2852
 1514SOL     OW16003   3.091   2.703   7.669 -0.1911 -0.1030 -0.5277
 1514SOL    HW116004   3.038   2.758   7.611  0.2814  0.6245 -0.2668
 1514SOL    HW216005   3.089   2.624   7.615 -1.1045 -0.8763  0.6459
 1515SOL     OW16006   1.047   4.521   7.689 -0.3710  0.2283 -0.0648
 1515SOL    HW116007   0.987   4.593   7.709  1.0032  1.2244  0.4575
 1515SOL    HW216008   1.123   4.549   7.739 -0.2348 -0.4138  0.0842
 1516SOL     OW16009   4.046   0.355   4.802 -0.1159 -0.3410  0.4510
 1516SOL    HW116010   4.091   0.438   4.793 -1.2400  0.0214 -1.7534
 1516SOL    HW216011   4.067   0.337   4.894 -0.3284  0.8905  0.7440
 1517SOL     OW16012   3.744   1.838  13.789 -0.2960 -0.3493  0.2444
 1517SOL    HW116013   3.763   1.886  13.708 -1.0344  0.2027  0.3965
 1517SOL    HW216014   3.649   1.823  13.788 -0.6563  1.9573 -0.3572
 1518SOL     OW16015   3.839   4.601   7.737  0.0432  0.3810 -0.3866
 1518SOL    HW116016   3.905   4.664   7.710  0.6642  0.7550  2.0611
 1518SOL    HW216017   3.778   4.662   7.778  0.3852  0.7327 -0.4101
 1519SOL     OW16018   3.387   4.085   3.299  0.1243  0.3097  0.3986
 1519SOL    HW116019   3.439   4.045   3.368  1.1757  0.5292 -0.2770
 1519SOL    HW216020   3.419   4.038   3.222  0.9477  1.1076  0.2561
 1520SOL     OW16021   2.429   0.721  15.265  0.4097 -0.7163 -0.2214
 1520SOL    HW116022   2.355   0.665  15.288  1.4450 -1.9559  0.1126
 1520SOL    HW216023   2.493   0.658  15.231  1.1054 -0.5229  0.7080
 1521SOL     OW16024   0.765   3.303   2.462 -0.1587  0.0006 -0.3350
 1521SOL    HW116025   0.696   3.250   2.501 -2.4288  2.0793 -1.5329
 1521SOL    HW216026   0.742   3.387   2.502  0.4736  0.2284 -0.4444
 1522SOL     OW16027   1.606   2.948  10.399  0.2518  0.2329 -0.0466
 1522SOL    HW116028   1.618   2.966  10.492 -0.6959  0.1585  0.0901
 1522SOL    HW216029   1.575   3.030  10.361  0.0891  0.4122  0.4702
 1523SOL     OW16030   1.962   2.684   5.779  0.6323  0.4045  0.5133
 1523SOL    HW116031   2.038   2.658   5.728  1.0751  1.3038  0.7201
 1523SOL    HW216032   1.959   2.778   5.762 -0.0358  0.0678 -1.2730
 1524SOL     OW16033   1.933   4.240   6.259  0.1773  0.7460  0.1809
 1524SOL    HW116034   1.909   4.170   6.198  0.5067 -0.3366  1.2892
 1524SOL    HW216035   2.018   4.274   6.231 -0.6210  1.2516 -1.6439
 1525SOL     OW16036   1.851   3.009  13.850 -0.2137 -0.8424  0.1372
 1525SOL    HW116037   1.901   3.032  13.772 -1.9743 -0.5252 -0.9025
 1525SOL    HW216038   1.786   3.079  13.852  0.0738 -0.6209  1.5231
 1526SOL     OW16039   3.920   2.742   3.548 -0.2928  0.1723 -0.4227
 1526SOL    HW116040   3.951   2.830   3.526 -1.3995  0.3706 -1.1885
 1526SOL    HW216041   3.830   2.738   3.515 -0.3352  1.9177 -0.5234
 1527SOL     OW16042   0.202   0.469   2.245  0.0633 -0.3203 -0.3652
 1527SOL    HW116043   0.163   0.389   2.281  1.7346 -0.7905  0.4494
 1527SOL    HW216044   0.225   0.442   2.156  0.5130  0.4607 -0.4893
 1528SOL     OW16045   1.492   3.577   6.432 -0.6291  0.2383 -0.7464
 1528SOL    HW116046   1.575   3.577   6.480 -1.3887 -1.5806  0.5740
 1528SOL    HW216047   1.455   3.624   6.506 -0.1525 -1.5090  0.5984
 1529SOL     OW16048   4.029   1.914   7.039 -0.0581  0.0718 -0.0039
 1529SOL    HW116049   4.028   1.857   7.115 -3.9601  0.7863  0.4359
 1529SOL    HW216050   3.995   1.998   7.070  0.9955 -0.2330  1.9767
 1530SOL     OW16051   3.586   0.747  17.268  0.8484  0.7652  0.1912
 1530SOL    HW116052   3.663   0.731  17.323  0.1746 -2.9542  0.0708
 1530SOL    HW216053   3.617   0.707  17.187  0.8453 -1.3846  1.2482
 1531SOL     OW16054   2.819   3.612   8.719 -0.0477 -0.8471 -0.2455
 1531SOL    HW116055   2.891   3.624   8.781 -0.5273 -1.3560  0.4041
 1531SOL    HW216056   2.865   3.573   8.644  1.8379 -0.2887  0.6215
 1532SOL     OW16057   4.275   1.174   1.336 -0.1718 -0.0676  0.1459
 1532SOL    HW116058   4.341   1.202   1.399 -0.1727 -2.4231  1.1817
 1532SOL    HW216059   4.280   1.242   1.270 -0.5910  0.6238  0.8261
 1533SOL     OW16060   4.379   2.033   5.663 -0.6501 -0.1272  0.0897
 1533SOL    HW116061   4.348   1.944   5.684 -0.1706 -0.0730  1.0834
 1533SOL    HW216062   4.335   2.088   5.728  0.1192  1.1212 -0.4486
 1534SOL     OW16063   3.025   2.809   9.557 -0.0521  0.3613  0.4216
 1534SOL    HW116064   3.105   2.758   9.552 -0.6934 -0.5629 -0.3696
 1534SOL    HW216065   2.969   2.745   9.513 -0.0295  2.2355 -2.3007
 1535SOL     OW16066   4.654   2.070   5.837  0.3027  0.2524  1.0344
 1535SOL    HW116067   4.595   2.135   5.798 -0.0007 -0.5462  0.1725
 1535SOL    HW216068   4.685   2.120   5.913  0.1857  0.7261  0.7762
 1536SOL     OW16069   1.360   4.094   7.412  0.1351  0.1696  0.6241
 1536SOL    HW116070   1.330   4.040   7.339  1.8521 -0.2389  0.2212
 1536SOL    HW216071   1.288   4.076   7.473 -1.1770  1.1222 -0.6357
 1537SOL     OW16072   1.112   4.079   7.928 -0.0695 -0.4968 -0.3881
 1537SOL    HW116073   1.087   3.998   7.972  0.0841 -1.2397 -1.6764
 1537SOL    HW216074   1.124   4.138   8.003  0.7325 -0.3829 -0.5984
 1538SOL     OW16075   4.050   3.987   9.814  0.1104 -0.3925 -0.8283
 1538SOL    HW116076   4.093   4.041   9.747  0.0747  1.1544  0.3960
 1538SOL    HW216077   4.060   3.899   9.779  0.0409 -0.7743  0.1389
 1539SOL     OW16078   3.774   1.002   4.898 -1.1912 -0.1566  0.4289
 1539SOL    HW116079   3.771   0.908   4.912  0.6307 -0.1016  1.1890
 1539SOL    HW216080   3.711   1.018   4.827 -0.2263  0.8273 -0.2163
 1540SOL     OW16081   0.451   4.548   3.147 -0.4815 -0.0051  0.4884
 1540SOL    HW116082   0.420   4.637   3.133  1.8119  0.8389  0.7058
 1540SOL    HW216083   0.407   4.494   3.082 -1.3188  1.1570  0.0884
 1541SOL     OW16084   4.097   2.972   5.038  0.4027 -0.1936  0.0788
 1541SOL    HW116085   4.079   2.903   5.102  2.5313  1.3800  2.3896
 1541SOL    HW216086   4.100   2.925   4.954  1.9974 -1.1360  0.6717
 1542SOL     OW16087   1.211   0.412   5.287  0.0779  0.3839 -0.1489
 1542SOL    HW116088   1.158   0.392   5.210 -0.9125 -0.0313  0.6396
 1542SOL    HW216089   1.275   0.342   5.271  0.4587  0.9904 -1.2398
 1543SOL     OW16090   1.026   2.391   3.815  0.0440 -0.3448  0.0798
 1543SOL    HW116091   1.036   2.355   3.727  3.1328  3.3387 -1.0681
 1543SOL    HW216092   1.103   2.359   3.864  2.3252  0.6338 -2.9213
 1544SOL     OW16093   3.514   2.111   2.117 -0.8066 -0.0444 -0.2473
 1544SOL    HW116094   3.527   2.028   2.071  0.0949 -1.9276  3.4097
 1544SOL    HW216095   3.565   2.093   2.197 -0.2170  0.4529 -0.5137
 1545SOL     OW16096   1.795   4.271  11.803  0.2079 -0.5824 -0.2540
 1545SOL    HW116097   1.833   4.355  11.828 -1.6086  0.3864 -0.7239
 1545SOL    HW216098   1.827   4.200  11.859  1.6576  1.0785  1.0111
 1546SOL     OW16099   3.868   3.883   9.075  0.1547 -0.3198 -0.0778
 1546SOL    HW116100   3.817   3.826   9.018 -0.1219 -0.5024  0.3533
 1546SOL    HW216101   3.856   3.968   9.033 -0.5058 -0.9773 -1.2136
 1547SOL     OW16102   3.941   0.298   4.465  0.5580  0.2341 -0.2669
 1547SOL    HW116103   3.893   0.348   4.399  1.3996 -1.4623 -2.1491
 1547SOL    HW216104   4.034   0.318   4.456  0.7400 -0.5679 -0.1598
 1548SOL     OW16105   4.334   0.332  15.197  0.1718  0.1224 -0.1701
 1548SOL    HW116106   4.339   0.338  15.101 -2.8008 -1.2829 -0.3923
 1548SOL    HW216107   4.289   0.249  15.211  0.6614 -0.2200 -0.5919
 1549SOL     OW16108   3.848   0.228  12.820 -0.5733 -0.0847  0.1643
 1549SOL    HW116109   3.935   0.211  12.856  0.8714  1.3510 -2.6025
 1549SOL    HW216110   3.873   0.196  12.733 -0.2745 -1.3173  0.7109
 1550SOL     OW16111   1.746   4.617   2.838  0.4649  0.1341  0.0761
 1550SOL    HW116112   1.681   4.681   2.868 -0.8405 -2.3935  2.6080
 1550SOL    HW216113   1.715   4.583   2.754 -1.0482  0.6740  0.4086
 1551SOL     OW16114   4.505   1.060  12.940  0.2862  0.0028 -0.2585
 1551SOL    HW116115   4.577   1.108  12.900  0.6361 -0.1793  0.1622
 1551SOL    HW216116   4.471   1.120  13.007 -0.7187  0.2909 -1.0099
 1552SOL     OW16117   2.497   4.031   8.348 -0.1907  0.5699 -0.0336
 1552SOL    HW116118   2.585   4.012   8.378 -0.6754 -1.9482 -0.2227
 1552SOL    HW216119   2.449   3.954   8.379  0.4957  0.1507 -0.0054
 1553SOL     OW16120   2.702   4.264  12.429 -0.3308  0.7854 -0.2037
 1553SOL    HW116121   2.773   4.203  12.449  0.3923  1.9643  0.8851
 1553SOL    HW216122   2.696   4.250  12.335  1.5822 -0.7723 -0.0990
 1554SOL     OW16123   1.145   4.676   5.552 -0.3030 -0.0313  0.3517
 1554SOL    HW116124   1.151   4.650   5.460  0.8883 -0.1147  0.4598
 1554SOL    HW216125   1.239   4.689   5.557 -0.1390 -0.5454 -1.4448
 1555SOL     OW16126   1.137   3.832   5.223  0.1601 -0.1378 -0.3058
 1555SOL    HW116127   1.143   3.737   5.217  0.6930 -0.0161 -1.8918
 1555SOL    HW216128   1.053   3.844   5.178 -0.7812 -0.2806  1.4374
 1556SOL     OW16129   4.168   3.853   0.248  0.2807 -0.2821  0.3607
 1556SOL    HW116130   4.148   3.900   0.328  2.1241  2.0110 -0.5308
 1556SOL    HW216131   4.236   3.900   0.199  0.3380 -0.2725  0.4485
 1557SOL     OW16132   2.816   0.537   5.422 -0.3747 -0.5800 -0.1229
 1557SOL    HW116133   2.875   0.547   5.347 -1.5014  0.3744 -0.8859
 1557SOL    HW216134   2.762   0.464   5.393 -1.2411 -0.1616  0.4453
 1558SOL     OW16135   2.690   0.914   2.803  0.0430  0.2019 -0.3298
 1558SOL    HW116136   2.716   0.928   2.894 -2.3638 -2.3035  0.7678
 1558SOL    HW216137   2.752   0.976   2.765  1.2986 -0.6009  0.3986
 1559SOL     OW16138   0.409   1.297   9.745 -0.2858 -0.9806  0.1661
 1559SOL    HW116139   0.452   1.264   9.824  3.2866 -1.1265 -1.8392
 1559SOL    HW216140   0.390   1.213   9.704  0.9829 -0.9594 -0.4558
 1560SOL     OW16141   1.381   1.682   2.910 -0.1705 -0.0296  0.1672
 1560SOL    HW116142   1.460   1.652   2.865  0.5151  1.2329  0.5517
 1560SOL    HW216143   1.321   1.685   2.836 -1.3700  1.7083  1.2029
 1561SOL     OW16144   0.731   3.637  12.421  0.1108 -0.4663  0.1540
 1561SOL    HW116145   0.814   3.672  12.454  0.3843  1.2129 -2.3119
 1561SOL    HW216146   0.767   3.557  12.383 -0.9302 -0.3984 -0.9633
 1562SOL     OW16147   0.788   2.162   8.761 -0.5208 -0.0140 -0.5887
 1562SOL    HW116148   0.796   2.151   8.856  0.9643 -0.0217 -0.7199
 1562SOL    HW216149   0.708   2.115   8.737 -0.1690 -0.9678  0.1085
 1563SOL     OW16150   4.329   4.540   4.957  0.6919  0.5120  0.3237
 1563SOL    HW116151   4.370   4.500   4.880 -0.7283 -0.6473  0.1534
 1563SOL    HW216152   4.322   4.464   5.014  0.9043  0.1600 -0.1176
 1564SOL     OW16153   2.263   0.601   8.796  0.0066  0.0579 -0.4796
 1564SOL    HW116154   2.170   0.614   8.780  0.0985  1.0886 -0.2061
 1564SOL    HW216155   2.301   0.611   8.708 -0.7435 -1.8908 -1.0246
 1565SOL     OW16156   0.754   1.557  13.244  0.0807  0.3529  0.0111
 1565SOL    HW116157   0.846   1.572  13.267  0.3742 -0.4778 -0.6042
 1565SOL    HW216158   0.767   1.465  13.220 -1.1363  0.0512  0.5188
 1566SOL     OW16159   0.076   2.463   5.067  0.0232 -0.4326  0.3088
 1566SOL    HW116160   0.100   2.373   5.086  1.4081 -0.4103 -1.2718
 1566SOL    HW216161   0.096   2.473   4.974 -2.0322  2.8342  0.2100
 1567SOL     OW16162   0.396   4.121   6.568  0.5537 -0.2139 -0.2943
 1567SOL    HW116163   0.324   4.078   6.613  1.5299 -0.2271  1.2449
 1567SOL    HW216164   0.365   4.123   6.478 -1.2564  1.1707  0.3719
 1568SOL     OW16165   2.857   3.985   4.805 -0.6496 -0.6633 -0.3266
 1568SOL    HW116166   2.832   4.030   4.725 -0.3433  1.6289  0.8717
 1568SOL    HW216167   2.772   3.950   4.832  0.3810 -1.9583  1.2540
 1569SOL     OW16168   1.512   1.727   4.930  0.2719  0.4999  0.6490
 1569SOL    HW116169   1.571   1.788   4.886  1.3559  0.2539  1.7515
 1569SOL    HW216170   1.555   1.726   5.016 -0.2437 -0.9776  0.8904
 1570SOL     OW16171   0.207   2.622   1.677  0.0000 -0.2343  0.1662
 1570SOL    HW116172   0.190   2.677   1.754  0.3346  0.9174 -0.5844
 1570SOL    HW216173   0.223   2.697   1.620  0.3143 -0.2582  0.2223
 1571SOL     OW16174   3.071   4.248   4.637 -0.3831 -0.2049  0.3091
 1571SOL    HW116175   3.104   4.337   4.625  0.7908 -0.6149  0.5333
 1571SOL    HW216176   2.988   4.254   4.589  0.7109 -0.3376 -1.5906
 1572SOL     OW16177   3.635   0.039   2.881  0.2391 -0.4451 -0.4260
 1572SOL    HW116178   3.579   4.711   2.823 -0.2911  1.2683 -1.4023
 1572SOL    HW216179   3.657   0.114   2.825  0.7158  0.1213  0.5142
 1573SOL     OW16180   3.647   2.799  17.307 -0.2773  0.2215 -0.6005
 1573SOL    HW116181   3.709   2.866  17.336  0.3081 -0.4112 -0.3867
 1573SOL    HW216182   3.596   2.783  17.386  1.3702 -3.0303 -0.2091
 1574SOL     OW16183   4.639   1.673   5.676  0.4045  0.5611  0.0709
 1574SOL    HW116184   4.548   1.700   5.670 -0.0224 -1.7294 -3.4811
 1574SOL    HW216185   4.685   1.746   5.633  0.8950 -1.2966 -2.5374
 1575SOL     OW16186   2.056   2.201   3.944 -0.3285  0.5675 -0.6907
 1575SOL    HW116187   2.080   2.242   3.861  3.6927 -0.7723 -0.1785
 1575SOL    HW216188   2.066   2.280   3.997  2.2190 -0.5361  0.4363
 1576SOL     OW16189   3.272   3.111   1.664  0.4869 -0.0909 -0.0247
 1576SOL    HW116190   3.331   3.173   1.621  0.7743 -0.8747 -0.7732
 1576SOL    HW216191   3.227   3.162   1.731  0.1026 -2.3384  1.4110
 1577SOL     OW16192   3.677   2.662   3.441 -0.2326  0.6256  0.0105
 1577SOL    HW116193   3.624   2.611   3.380 -1.1611 -0.2653  1.5624
 1577SOL    HW216194   3.609   2.711   3.488 -0.0014  0.0971  0.9074
 1578SOL     OW16195   0.667   4.209  15.820  0.3011 -0.4936  0.3086
 1578SOL    HW116196   0.755   4.172  15.830  0.6655  0.4766  0.6817
 1578SOL    HW216197   0.680   4.287  15.873  1.5926 -1.3332  1.2496
 1579SOL     OW16198   0.414   2.402   6.686  0.3513 -0.0995  0.4651
 1579SOL    HW116199   0.457   2.484   6.713  1.0476 -0.0881 -0.6593
 1579SOL    HW216200   0.399   2.430   6.595  0.7434 -0.2374  0.3550
 1580SOL     OW16201   2.905   0.348   7.193 -0.0327 -0.3770 -0.2435
 1580SOL    HW116202   2.831   0.360   7.253  0.0792  0.6395 -0.3075
 1580SOL    HW216203   2.977   0.364   7.255 -0.0682 -0.5998 -0.1434
 1581SOL     OW16204   4.515   4.437   3.205  0.5096 -0.3006  0.3857
 1581SOL    HW116205   4.588   4.459   3.147  0.6597  0.7825  0.9865
 1581SOL    HW216206   4.440   4.437   3.146  0.2240 -1.2802  0.7546
 1582SOL     OW16207   2.872   3.240   0.800  0.4848 -0.0542 -0.7534
 1582SOL    HW116208   2.868   3.182   0.876 -0.2777 -0.2514 -0.9506
 1582SOL    HW216209   2.853   3.322   0.845 -0.2922 -0.3210 -0.6040
 1583SOL     OW16210   4.050   2.412   8.211  0.8943  0.1993  0.2571
 1583SOL    HW116211   4.039   2.496   8.257  1.4972 -0.2912  1.2956
 1583SOL    HW216212   4.091   2.440   8.129  0.5496 -2.9462 -0.9648
 1584SOL     OW16213   1.261   2.084  15.716  0.4604  1.0716  0.6575
 1584SOL    HW116214   1.245   1.997  15.680  0.5960  1.3832 -0.1408
 1584SOL    HW216215   1.338   2.077  15.773  2.8390  1.6896 -2.5102
 1585SOL     OW16216   4.181   0.540   6.529 -0.5558 -0.2957  0.1470
 1585SOL    HW116217   4.263   0.568   6.487 -0.5207  0.0255  0.4270
 1585SOL    HW216218   4.143   0.625   6.550  1.8049  0.8621 -0.2502
 1586SOL     OW16219   1.209   1.180   9.450  0.8033  0.7035  0.6610
 1586SOL    HW116220   1.257   1.174   9.532  0.0022  2.9169  1.2991
 1586SOL    HW216221   1.123   1.207   9.483  0.1126 -1.5487  0.7066
 1587SOL     OW16222   2.792   1.040   3.478 -0.1593 -0.2362  0.3993
 1587SOL    HW116223   2.789   1.134   3.496  2.1295 -0.3794  1.5997
 1587SOL    HW216224   2.887   1.029   3.480 -0.5976 -4.0515 -1.0408
 1588SOL     OW16225   1.622   1.689   6.310  0.2825 -0.2288  0.9973
 1588SOL    HW116226   1.552   1.744   6.345  1.3346  0.9985  1.1551
 1588SOL    HW216227   1.690   1.739   6.354  2.2029 -0.9990 -1.1058
 1589SOL     OW16228   2.795   2.997  17.384  0.0679  0.0435  0.3964
 1589SOL    HW116229   2.730   2.953  17.438  0.1911  0.7541  1.1156
 1589SOL    HW216230   2.745   3.056  17.326  2.6939 -0.5788 -2.5183
 1590SOL     OW16231   1.660   0.629  13.570 -0.0673  0.1146  0.0069
 1590SOL    HW116232   1.583   0.676  13.601 -0.6712 -2.0973  1.8033
 1590SOL    HW216233   1.671   0.675  13.486  0.8103  0.0064  0.0660
 1591SOL     OW16234   0.220   4.130  11.679 -0.1387  0.0724  0.3313
 1591SOL    HW116235   0.240   4.168  11.765 -0.6526  1.3525 -0.1100
 1591SOL    HW216236   0.262   4.197  11.625 -0.7793 -0.3055 -0.6274
 1592SOL     OW16237   4.646   0.371   7.402  0.0754 -0.2683  0.0831
 1592SOL    HW116238   4.560   0.364   7.360  0.1206  0.1199 -0.0792
 1592SOL    HW216239   4.685   0.286   7.382 -0.2999 -0.3182 -0.4480
 1593SOL     OW16240   1.470   2.234  14.882  0.4978 -0.3378  0.0236
 1593SOL    HW116241   1.384   2.249  14.844  0.4558 -1.9925 -0.5327
 1593SOL    HW216242   1.476   2.138  14.875 -0.8626 -0.5049  1.0269
 1594SOL     OW16243   0.046   3.427   5.467 -0.7999 -1.0836 -0.2717
 1594SOL    HW116244   0.112   3.396   5.405  0.1744  0.3638  0.0318
 1594SOL    HW216245   0.037   3.354   5.528  1.6122 -0.0657  1.2830
 1595SOL     OW16246   0.877   0.034   3.653  0.3681  0.0456  0.4801
 1595SOL    HW116247   0.973   0.027   3.652  0.3527 -0.0589 -1.3570
 1595SOL    HW216248   0.848   4.684   3.598  0.4017 -1.4963  2.5394
 1596SOL     OW16249   1.352   2.667   4.803  0.2498 -0.0821  0.0194
 1596SOL    HW116250   1.379   2.589   4.756  0.2627 -0.6108  0.9108
 1596SOL    HW216251   1.437   2.711   4.806 -0.5771  1.5801 -0.5742
 1597SOL     OW16252   2.140   3.376   2.396 -0.0269 -0.1471 -1.0731
 1597SOL    HW116253   2.101   3.378   2.309  1.7152 -2.5524 -1.9147
 1597SOL    HW216254   2.228   3.339   2.384 -0.1841 -0.2422 -1.9518
 1598SOL     OW16255   2.790   2.007   0.626  0.3353  0.1776 -0.6202
 1598SOL    HW116256   2.753   2.094   0.610 -0.9345 -0.1613  0.4843
 1598SOL    HW216257   2.783   1.959   0.543 -4.3735  0.4042 -0.3569
 1599SOL     OW16258   3.296   2.353   4.808 -0.2343 -0.0509 -0.2275
 1599SOL    HW116259   3.219   2.389   4.764  0.1394 -1.3268 -1.9420
 1599SOL    HW216260   3.259   2.280   4.857 -0.8964  1.1158  1.0234
 1600SOL     OW16261   3.107   1.088   6.970  0.2276  0.4692 -0.1609
 1600SOL    HW116262   3.201   1.098   6.961  0.1106  0.8946 -0.9554
 1600SOL    HW216263   3.081   1.180   6.975  0.6138  0.6158 -0.8174
 1601SOL     OW16264   1.002   1.000   9.232  0.3497  0.3459  0.6540
 1601SOL    HW116265   0.973   0.953   9.311  1.1752 -1.1649  0.0589
 1601SOL    HW216266   1.064   1.062   9.272 -1.5409  1.3811  1.9743
 1602SOL     OW16267   2.744   0.400  11.033 -0.0557 -0.3210  0.7563
 1602SOL    HW116268   2.831   0.439  11.024  0.6958 -2.3131 -0.5107
 1602SOL    HW216269   2.715   0.392  10.942  0.6877  1.3148  0.3676
 1603SOL     OW16270   1.879   0.552   7.696 -0.6725  0.5939  0.7270
 1603SOL    HW116271   1.872   0.542   7.601 -2.3267  3.0727  0.5962
 1603SOL    HW216272   1.808   0.610   7.724 -0.3773  1.2486  0.0906
 1604SOL     OW16273   4.383   2.301   7.844  0.2558 -0.3686  0.5447
 1604SOL    HW116274   4.471   2.338   7.858  1.1533 -1.7617 -1.5024
 1604SOL    HW216275   4.347   2.329   7.928 -0.8238 -0.4684  0.1072
 1605SOL     OW16276   3.058   0.857   7.411 -0.2782 -0.1959 -0.4074
 1605SOL    HW116277   2.995   0.794   7.446 -0.2575 -0.0479 -0.1015
 1605SOL    HW216278   3.083   0.902   7.492 -1.1750  2.3284 -1.5242
 1606SOL     OW16279   2.057   0.934  11.909 -0.0813  0.3364  0.0745
 1606SOL    HW116280   2.022   0.992  11.842  0.2369  1.0924  0.5540
 1606SOL    HW216281   2.068   0.861  11.849  0.4798 -0.6577  1.3957
 1607SOL     OW16282   4.052   2.095   7.762  0.3779 -0.7475 -0.2043
 1607SOL    HW116283   4.046   2.120   7.854  3.4010 -1.9241  0.3267
 1607SOL    HW216284   4.142   2.125   7.747  0.6518 -1.1446  0.6793
 1608SOL     OW16285   1.358   2.472   7.314 -0.1708 -0.0630 -0.0778
 1608SOL    HW116286   1.372   2.492   7.407 -0.1082 -3.1533  0.5860
 1608SOL    HW216287   1.263   2.484   7.322 -0.0506 -0.2012  1.6685
 1609SOL     OW16288   4.443   1.072  14.189 -0.2022  0.0607 -0.6289
 1609SOL    HW116289   4.454   1.153  14.138 -1.6520  0.5342 -0.1889
 1609SOL    HW216290   4.373   1.103  14.247  1.9402  1.6078  1.1051
 1610SOL     OW16291   1.266   1.248  10.391  0.0963  0.3606  0.3703
 1610SOL    HW116292   1.241   1.331  10.351 -1.4341  0.2098  1.0175
 1610SOL    HW216293   1.338   1.222  10.334 -0.4850  3.0313 -1.5593
 1611SOL     OW16294   2.306   4.495   8.076 -0.2607 -0.6738  0.3297
 1611SOL    HW116295   2.291   4.403   8.098 -2.7978 -0.4241 -0.3508
 1611SOL    HW216296   2.345   4.519   8.160 -0.5644 -0.4158  0.3968
 1612SOL     OW16297   3.958   4.689   9.140  0.2135  0.6455 -0.3391
 1612SOL    HW116298   3.958   4.605   9.187 -0.3222  1.0874  0.4613
 1612SOL    HW216299   3.902   4.664   9.066 -1.2798  1.0584  0.6319
 1613SOL     OW16300   3.370   2.673   3.592  0.4220 -0.4457  0.1027
 1613SOL    HW116301   3.404   2.586   3.568  0.4028 -0.0063 -1.5389
 1613SOL    HW216302   3.420   2.699   3.669 -1.6050  0.8515  0.9480
 1614SOL     OW16303   2.102   3.847   2.969 -0.1479 -0.2667  0.2042
 1614SOL    HW116304   2.159   3.801   2.907 -0.8091 -0.8808  0.0536
 1614SOL    HW216305   2.169   3.912   2.991 -1.4770  1.8631 -2.0965
 1615SOL     OW16306   1.624   0.969  14.843  0.3035 -0.0055 -0.1793
 1615SOL    HW116307   1.541   0.930  14.872 -0.1451  0.5926 -0.6630
 1615SOL    HW216308   1.685   0.905  14.879 -1.2468 -1.4089 -0.0074
 1616SOL     OW16309   3.328   0.070   1.268  0.0854 -0.4760  0.3764
 1616SOL    HW116310   3.277   0.039   1.193  1.5992  2.9971 -2.1436
 1616SOL    HW216311   3.417   0.062   1.232 -0.3065  0.7100 -0.8796
 1617SOL     OW16312   4.482   3.652   0.246  0.7157  0.4987  0.4542
 1617SOL    HW116313   4.509   3.710   0.317  0.9210  0.1958  0.6273
 1617SOL    HW216314   4.555   3.590   0.238  0.2890  0.0289  0.1934
 1618SOL     OW16315   3.173   3.858   4.977  0.3555  0.5527 -0.0179
 1618SOL    HW116316   3.157   3.951   4.966  1.2861  0.5882 -1.0430
 1618SOL    HW216317   3.082   3.831   4.993  0.9896 -0.1354  2.5424
 1619SOL     OW16318   3.462   3.387   3.616  0.0878  0.1478  0.3260
 1619SOL    HW116319   3.458   3.482   3.625 -0.1136  0.1496  0.2253
 1619SOL    HW216320   3.474   3.379   3.522  0.3492  1.4201  0.2548
 1620SOL     OW16321   0.212   0.221   6.241 -0.0906  0.1798  0.3135
 1620SOL    HW116322   0.224   0.170   6.161  1.5213 -3.1006  2.6637
 1620SOL    HW216323   0.295   0.207   6.287 -0.6043  1.4488  1.6449
 1621SOL     OW16324   4.349   2.876  11.019 -0.2563 -0.4210 -0.2359
 1621SOL    HW116325   4.380   2.787  11.038  0.9710 -0.0963 -0.7276
 1621SOL    HW216326   4.419   2.928  11.059 -0.8692  1.0276 -1.0489
 1622SOL     OW16327   1.019   3.327   5.852 -0.2035  0.1782  0.0550
 1622SOL    HW116328   1.057   3.381   5.921  0.3052 -0.2623  0.1172
 1622SOL    HW216329   0.929   3.359   5.844 -0.5440 -0.5078  1.1270
 1623SOL     OW16330   0.196   2.827   3.881 -0.1162 -0.4475 -0.0571
 1623SOL    HW116331   0.215   2.744   3.838  2.2114  0.7214 -1.2972
 1623SOL    HW216332   0.205   2.884   3.804 -0.5358  0.5927  0.6691
 1624SOL     OW16333   3.269   2.158   3.913 -0.2756 -0.3283 -0.3671
 1624SOL    HW116334   3.301   2.068   3.910  0.6547 -0.0946  2.2881
 1624SOL    HW216335   3.195   2.139   3.969 -0.0415 -0.3715 -0.0739
 1625SOL     OW16336   1.934   0.093   8.938 -0.2295 -0.2228 -0.0056
 1625SOL    HW116337   2.010   0.140   8.974  1.0291 -2.1080 -0.1783
 1625SOL    HW216338   1.861   0.116   8.994  0.4740 -0.0564  0.8450
 1626SOL     OW16339   1.601   0.949   8.567 -0.5363 -0.0154  0.3202
 1626SOL    HW116340   1.527   0.889   8.564  0.3796 -1.2067  1.6112
 1626SOL    HW216341   1.665   0.893   8.610  0.8989 -0.8614 -2.8552
 1627SOL     OW16342   1.487   2.920   9.213 -0.0481  0.0599 -0.6229
 1627SOL    HW116343   1.397   2.891   9.201  0.1571 -0.7686 -0.1608
 1627SOL    HW216344   1.497   2.892   9.304 -1.4018  1.1536 -0.1415
 1628SOL     OW16345   4.595   3.244   8.482  0.0998 -0.3566  0.5610
 1628SOL    HW116346   4.627   3.261   8.394 -0.8736 -0.2335  0.2322
 1628SOL    HW216347   4.678   3.240   8.530 -0.3440  0.6231  1.4118
 1629SOL     OW16348   2.748   0.174  17.056 -0.0886 -0.1820 -0.3403
 1629SOL    HW116349   2.823   0.115  17.055  1.5204  1.8513  0.8532
 1629SOL    HW216350   2.795   0.244  17.101  1.3400 -0.4368 -1.4347
 1630SOL     OW16351   4.537   4.509  13.892 -0.0268  0.0953 -0.1740
 1630SOL    HW116352   4.501   4.578  13.947  2.3314 -0.3537  1.8945
 1630SOL    HW216353   4.510   4.441  13.954 -1.2450  0.7192 -0.0212
 1631SOL     OW16354   1.027   1.306   6.037  0.2243 -0.0026 -0.1492
 1631SOL    HW116355   1.116   1.303   6.001 -0.2848 -1.8353 -1.2890
 1631SOL    HW216356   1.049   1.300   6.129  1.0622 -0.2729 -0.3661
 1632SOL     OW16357   2.564   1.102   8.347 -0.5634  0.3024  0.3470
 1632SOL    HW116358   2.471   1.118   8.333  0.2738  2.6325 -2.6758
 1632SOL    HW216359   2.575   1.009   8.327  0.0400  0.4772 -0.1266
 1633SOL     OW16360   3.679   3.963  11.618 -0.5699  0.5282  0.3141
 1633SOL    HW116361   3.716   4.035  11.565 -2.7471  0.0147 -1.8760
 1633SOL    HW216362   3.760   3.914  11.634 -0.7175  0.7870  1.7978
 1634SOL     OW16363   1.535   0.261  17.233 -0.5371 -0.5565  0.2298
 1634SOL    HW116364   1.506   0.300  17.316 -0.1821 -0.2789  0.2230
 1634SOL    HW216365   1.519   0.168  17.248  1.5516 -0.6844  1.6887
 1635SOL     OW16366   1.553   2.504  14.426  0.2325 -0.3058  0.6508
 1635SOL    HW116367   1.643   2.473  14.434  0.5280  0.0384 -1.1771
 1635SOL    HW216368   1.506   2.442  14.482 -1.4618 -0.4214 -0.8679
 1636SOL     OW16369   3.277   2.901   7.647 -0.2431  0.0373  0.0480
 1636SOL    HW116370   3.212   2.830   7.650 -0.9370  0.7090  1.1940
 1636SOL    HW216371   3.326   2.875   7.724 -0.5584  0.0021  0.2371
 1637SOL     OW16372   3.489   4.589   4.992  0.0649 -0.4024 -0.0465
 1637SOL    HW116373   3.394   4.579   5.000 -0.0593  2.3650  1.8748
 1637SOL    HW216374   3.497   4.538   4.912  0.3003  1.8310 -1.4497
 1638SOL     OW16375   2.028   1.672   7.561 -0.1094 -0.4569  0.0332
 1638SOL    HW116376   2.085   1.601   7.592  2.0464  1.1547 -0.2505
 1638SOL    HW216377   2.095   1.729   7.523 -1.1162  0.8473  0.2210
 1639SOL     OW16378   3.512   1.821   6.793 -0.3062  0.0247 -0.0371
 1639SOL    HW116379   3.567   1.892   6.827 -0.8685 -0.9326  2.9083
 1639SOL    HW216380   3.470   1.785   6.872  0.3211 -0.6683 -0.0178
 1640SOL     OW16381   3.962   3.802   0.012 -0.2601  0.0178 -0.6283
 1640SOL    HW116382   4.052   3.792  17.674 -0.9355 -1.1981 -2.1745
 1640SOL    HW216383   3.964   3.851   0.095  2.4062  0.4571 -0.9457
 1641SOL     OW16384   1.028   2.004   2.058 -0.8728  0.1112 -0.4829
 1641SOL    HW116385   0.949   1.956   2.034 -2.0397  1.7573  0.0502
 1641SOL    HW216386   1.103   1.959   2.018 -0.3471 -1.1963  1.9981
 1642SOL     OW16387   3.379   4.531   0.429 -0.3075  0.5504  0.4485
 1642SOL    HW116388   3.405   4.457   0.483  1.1270 -0.7642 -2.0596
 1642SOL    HW216389   3.358   4.494   0.344  0.0726  2.2517 -0.4030
 1643SOL     OW16390   3.445   0.265  15.932  0.0567  0.0516 -0.3808
 1643SOL    HW116391   3.445   0.202  15.860 -2.8798  0.0381 -0.3409
 1643SOL    HW216392   3.355   0.260  15.963 -0.1771  0.0949 -1.0519
 1644SOL     OW16393   1.190   3.340   7.850  0.5193  0.0871 -0.5455
 1644SOL    HW116394   1.146   3.303   7.773 -0.7630 -1.2542  0.8255
 1644SOL    HW216395   1.173   3.431   7.828 -1.4931 -0.1410 -0.0195
 1645SOL     OW16396   3.178   4.613   3.197  0.2637  0.4255 -0.4146
 1645SOL    HW116397   3.168   4.673   3.271 -0.2073  1.1860 -1.0949
 1645SOL    HW216398   3.156   4.525   3.227  2.3604 -0.1338 -0.5444
 1646SOL     OW16399   0.247   2.843  13.962  0.6898  0.2967  0.2905
 1646SOL    HW116400   0.166   2.794  13.953  3.3812 -4.3242  1.3049
 1646SOL    HW216401   0.288   2.796  14.035 -1.1010  0.0662  1.1454
 1647SOL     OW16402   1.775   3.969  10.442 -0.3977  0.0375  0.0380
 1647SOL    HW116403   1.735   3.998  10.523  2.0346 -0.9333  1.5781
 1647SOL    HW216404   1.809   4.053  10.411  0.5366 -0.2586  0.2633
 1648SOL     OW16405   1.897   4.080  11.981 -0.4433 -0.2976  0.2429
 1648SOL    HW116406   1.897   4.140  12.056 -0.2125 -0.0048  0.0072
 1648SOL    HW216407   1.820   4.028  12.004 -0.7638  0.1889  0.2684
 1649SOL     OW16408   2.331   4.247   8.155 -0.3068  0.2066  0.2078
 1649SOL    HW116409   2.301   4.210   8.237 -0.9959 -0.7654 -0.4801
 1649SOL    HW216410   2.308   4.181   8.089  1.2568  0.4356 -0.5829
 1650SOL     OW16411   4.313   3.877   6.208 -0.4520 -0.1831  0.2095
 1650SOL    HW116412   4.327   3.963   6.169 -3.3217 -0.2772 -1.0763
 1650SOL    HW216413   4.373   3.821   6.158  1.4186  1.5508  0.5521
 1651SOL     OW16414   3.637   3.993  12.398 -0.0157 -0.3297 -0.2170
 1651SOL    HW116415   3.665   4.008  12.307  0.1421  1.4440  0.1205
 1651SOL    HW216416   3.581   4.070  12.411 -1.5759 -1.0421 -2.4970
 1652SOL     OW16417   4.179   3.801   2.217  0.2640  0.0087 -0.2817
 1652SOL    HW116418   4.184   3.884   2.171  2.3901  0.5143  0.8706
 1652SOL    HW216419   4.153   3.741   2.147 -1.7420  1.1773 -0.5372
 1653SOL     OW16420   4.182   0.042  14.557  0.1760 -0.0171  0.3470
 1653SOL    HW116421   4.174   0.135  14.538 -0.5913  0.1520  1.5393
 1653SOL    HW216422   4.246   0.016  14.490 -0.2175 -1.9545  0.7136
 1654SOL     OW16423   3.883   2.356  13.973  0.0337 -0.1406 -0.2596
 1654SOL    HW116424   3.851   2.347  14.063 -1.0873  0.9902 -0.5374
 1654SOL    HW216425   3.959   2.298  13.974 -0.1192 -0.3257  0.8682
 1655SOL     OW16426   2.745   2.850   4.415 -0.6795 -0.3229 -0.2351
 1655SOL    HW116427   2.840   2.858   4.406 -0.6603 -1.0581 -0.6830
 1655SOL    HW216428   2.737   2.772   4.470  1.1578  0.2662  0.8380
 1656SOL     OW16429   0.782   2.970   8.204  0.1221  0.2124  0.2108
 1656SOL    HW116430   0.854   2.954   8.143  1.6581 -1.0980  2.3923
 1656SOL    HW216431   0.781   2.894   8.262  1.5659 -1.0357 -1.3979
 1657SOL     OW16432   0.268   1.030  15.808 -0.7725 -0.0636  0.2753
 1657SOL    HW116433   0.212   1.009  15.733  0.3415 -0.7282 -0.3781
 1657SOL    HW216434   0.252   1.124  15.810 -1.9289 -0.2743  0.4236
 1658SOL     OW16435   2.226   4.178  10.284 -0.2512 -0.1992 -0.4830
 1658SOL    HW116436   2.272   4.237  10.224  2.2430 -0.3632  1.2493
 1658SOL    HW216437   2.147   4.159  10.234 -1.4537  3.0042  0.2101
 1659SOL     OW16438   3.668   1.174  15.565  0.0826  0.1264  0.1375
 1659SOL    HW116439   3.587   1.149  15.609 -0.5744  2.2978  0.1770
 1659SOL    HW216440   3.637   1.169  15.475 -1.0482  1.0539  0.4839
 1660SOL     OW16441   4.529   0.912  12.548  0.1814 -0.1310 -0.5355
 1660SOL    HW116442   4.574   0.963  12.481 -1.5457  2.1524  0.0638
 1660SOL    HW216443   4.446   0.957  12.563 -1.0431 -3.1388  1.8379
 1661SOL     OW16444   4.119   0.423   0.779 -0.4752 -0.1241 -0.6194
 1661SOL    HW116445   4.181   0.496   0.789 -0.5705  0.1917 -2.2997
 1661SOL    HW216446   4.163   0.358   0.834 -2.0412 -1.1817 -0.6217
 1662SOL     OW16447   4.339   2.383   4.305 -0.1788  0.3557 -0.0334
 1662SOL    HW116448   4.394   2.387   4.227 -2.0437  0.9395 -1.3220
 1662SOL    HW216449   4.298   2.296   4.308  1.2867 -0.3676 -0.7646
 1663SOL     OW16450   0.105   2.953  11.612  0.1472 -0.3206 -0.5575
 1663SOL    HW116451   0.032   2.892  11.620 -0.1157  0.1124  0.3174
 1663SOL    HW216452   0.134   2.915  11.529  1.0267  0.2160 -0.4959
 1664SOL     OW16453   0.661   3.042  11.750  0.0115  0.0794  0.7702
 1664SOL    HW116454   0.607   3.020  11.675  1.1144 -2.4448  0.7110
 1664SOL    HW216455   0.729   2.976  11.737 -1.2675 -1.2914  1.0300
 1665SOL     OW16456   0.359   3.686   5.761  0.0724 -0.0119 -0.5750
 1665SOL    HW116457   0.370   3.612   5.822  0.4474 -0.3041 -0.9957
 1665SOL    HW216458   0.430   3.742   5.793 -1.6824  1.3913  0.8119
 1666SOL     OW16459   4.399   0.318  12.447  0.2212 -0.3387 -0.0070
 1666SOL    HW116460   4.308   0.345  12.454  0.2866 -0.1922  0.2463
 1666SOL    HW216461   4.391   0.242  12.390  2.7969 -0.7465  0.1495
 1667SOL     OW16462   1.895   3.226   1.068  0.3018  0.2208  0.0683
 1667SOL    HW116463   1.893   3.137   1.031 -1.3250 -0.7765  2.5287
 1667SOL    HW216464   1.807   3.237   1.104  0.6808  2.4611  0.2501
 1668SOL     OW16465   4.085   3.772   8.565 -0.0027  0.8172 -0.0211
 1668SOL    HW116466   4.115   3.860   8.543  0.1988  0.0032 -3.0071
 1668SOL    HW216467   4.099   3.775   8.659  0.2784 -1.6990  0.0033
 1669SOL     OW16468   2.946   3.463  11.744 -0.0751  0.1008 -0.0245
 1669SOL    HW116469   3.018   3.470  11.806 -0.3351  0.8137  0.1961
 1669SOL    HW216470   2.898   3.385  11.772  1.6097 -1.4128 -1.3457
 1670SOL     OW16471   0.688   2.170  12.534 -0.8358 -0.2902 -0.0340
 1670SOL    HW116472   0.690   2.228  12.610 -1.0525  0.6520 -0.7378
 1670SOL    HW216473   0.596   2.183  12.510 -1.1051 -1.1358  0.5526
 1671SOL     OW16474   0.802   1.577   4.053  0.1464 -0.5866 -0.0433
 1671SOL    HW116475   0.809   1.662   4.097  1.2147 -1.3364  1.2446
 1671SOL    HW216476   0.855   1.515   4.104 -0.7843  0.9004  2.7644
 1672SOL     OW16477   4.046   1.818  11.046  0.2447 -0.0473  0.3142
 1672SOL    HW116478   4.091   1.900  11.066  2.0413 -0.0293 -3.6947
 1672SOL    HW216479   3.977   1.812  11.112 -0.2563 -0.1523 -0.2174
 1673SOL     OW16480   2.801   2.743   5.524  0.1329  0.0891  0.1721
 1673SOL    HW116481   2.825   2.727   5.615 -0.1646 -2.4249 -0.1824
 1673SOL    HW216482   2.707   2.754   5.542 -0.2403  1.7805 -2.7367
 1674SOL     OW16483   0.418   3.787   8.655 -0.3707 -0.1597  0.7293
 1674SOL    HW116484   0.428   3.692   8.663  0.4436 -0.0662  0.7877
 1674SOL    HW216485   0.498   3.832   8.683 -0.7318 -0.6911  2.5884
 1675SOL     OW16486   3.691   2.400   2.342  0.4488  0.3815 -0.2448
 1675SOL    HW116487   3.605   2.365   2.364  1.9741 -1.1676  3.2628
 1675SOL    HW216488   3.748   2.373   2.415 -1.2988 -0.2170  0.8971
 1676SOL     OW16489   4.210   0.014   9.031 -0.0937  0.7798 -0.2479
 1676SOL    HW116490   4.259   4.654   9.031 -0.7280  0.4029  1.1254
 1676SOL    HW216491   4.126   4.701   9.060  0.3776  1.0538  1.4620
 1677SOL     OW16492   3.296   0.501   2.311 -0.0095  0.0115  0.2457
 1677SOL    HW116493   3.391   0.510   2.304 -0.0496  0.2965  0.0199
 1677SOL    HW216494   3.273   0.585   2.270  0.7394  0.1462  0.1027
 1678SOL     OW16495   3.768   4.658  13.119  0.4534 -0.3279 -0.3592
 1678SOL    HW116496   3.770   4.564  13.105  2.3577 -0.2084 -0.8418
 1678SOL    HW216497   3.863   4.671  13.116  0.1964  1.4677 -0.9556
 1679SOL     OW16498   3.681   3.476  12.003  0.0334 -0.0288 -0.5885
 1679SOL    HW116499   3.747   3.413  11.974  0.3151 -0.2001  0.4218
 1679SOL    HW216500   3.602   3.453  11.954 -0.7204  0.1241  0.5599
 1680SOL     OW16501   1.433   2.770  16.528  0.0544  0.7180  0.0281
 1680SOL    HW116502   1.446   2.825  16.450 -0.4748  0.2643 -0.3795
 1680SOL    HW216503   1.383   2.696  16.495  1.3672  0.3082 -1.0305
 1681SOL     OW16504   4.127   4.277  16.993 -0.4057  0.3969  0.2007
 1681SOL    HW116505   4.098   4.248  16.906 -0.3823  0.7289  0.0819
 1681SOL    HW216506   4.089   4.213  17.054  1.9300  0.0026  1.2214
 1682SOL     OW16507   1.613   1.043  12.180 -0.5575 -0.0801 -0.4558
 1682SOL    HW116508   1.705   1.053  12.202 -0.8210 -1.5466  1.3019
 1682SOL    HW216509   1.613   1.003  12.093  2.3124  0.1880 -0.5697
 1683SOL     OW16510   0.277   4.065   5.522 -0.6646 -0.0010  0.1106
 1683SOL    HW116511   0.232   3.981   5.534  1.6501 -1.0700  1.1582
 1683SOL    HW216512   0.269   4.113   5.605  0.2688 -0.0076  0.2020
 1684SOL     OW16513   0.167   1.535   2.345 -0.5193  0.5350  0.1395
 1684SOL    HW116514   0.236   1.601   2.339 -1.6703  2.0107  2.8187
 1684SOL    HW216515   0.186   1.502   2.258 -0.5142  1.0093 -0.0383
 1685SOL     OW16516   1.442   0.992   8.880  1.1906  0.7103 -0.2198
 1685SOL    HW116517   1.368   0.991   8.941  2.4066 -1.1010  1.2194
 1685SOL    HW216518   1.494   0.914   8.895 -1.3491 -1.4475 -2.3996
 1686SOL     OW16519   0.980   2.231   8.566  0.0674  0.2216  0.6944
 1686SOL    HW116520   1.008   2.174   8.638 -1.1117  0.3980  1.2867
 1686SOL    HW216521   0.889   2.204   8.564  0.2381 -0.4336  1.6395
 1687SOL     OW16522   4.088   3.931   2.757  0.1128 -0.0388  0.3144
 1687SOL    HW116523   4.089   3.897   2.668  2.4039  0.6367  0.0664
 1687SOL    HW216524   4.148   3.871   2.803 -0.1666  1.7057  2.9947
 1688SOL     OW16525   2.291   0.309   1.058  0.0118 -0.3938  0.0786
 1688SOL    HW116526   2.252   0.226   1.034  1.0145 -1.5966  2.6150
 1688SOL    HW216527   2.324   0.338   0.973  0.5047  1.5775  0.9157
 1689SOL     OW16528   2.003   0.541   5.908  0.0383 -0.1616  0.2093
 1689SOL    HW116529   2.077   0.576   5.858 -0.8453  1.7156  0.2508
 1689SOL    HW216530   2.049   0.514   5.988  0.6324 -0.2267 -0.1552
 1690SOL     OW16531   0.584   4.630   4.653 -0.1276  0.3986 -0.0621
 1690SOL    HW116532   0.513   4.616   4.590 -0.4751  1.4043  0.1008
 1690SOL    HW216533   0.560   4.710   4.701 -1.5654 -0.6050  0.8851
 1691SOL     OW16534   0.872   2.540   6.717 -0.2544 -0.7037 -0.6447
 1691SOL    HW116535   0.871   2.569   6.808  0.1751 -1.6590 -0.3399
 1691SOL    HW216536   0.957   2.568   6.683 -0.4306  1.1946  0.4859
 1692SOL     OW16537   2.115   2.057   2.222  0.4213 -0.3411  0.6805
 1692SOL    HW116538   2.201   2.014   2.218 -0.7229 -2.4929 -0.6247
 1692SOL    HW216539   2.098   2.037   2.130 -2.0838 -0.9817  1.2723
 1693SOL     OW16540   3.928   1.081   6.769  0.3717  0.2964 -0.0182
 1693SOL    HW116541   3.896   0.996   6.801  2.2279 -1.4778 -2.8567
 1693SOL    HW216542   3.916   1.138   6.845  2.4926 -1.8424  1.9254
 1694SOL     OW16543   0.657   0.148   5.234 -0.0109 -0.6191 -0.7961
 1694SOL    HW116544   0.623   0.237   5.243  0.0875 -0.5470 -1.1745
 1694SOL    HW216545   0.725   0.144   5.301  0.2825  1.1781 -1.0085
 1695SOL     OW16546   3.989   0.882   5.383 -0.1466 -0.1496 -0.6043
 1695SOL    HW116547   3.959   0.901   5.472 -0.2702  0.1628 -0.7093
 1695SOL    HW216548   3.937   0.950   5.339  0.2907  1.8348  1.9473
 1696SOL     OW16549   0.938   2.360  16.993  0.1340  0.3937  0.0842
 1696SOL    HW116550   1.020   2.408  17.009  0.2185 -0.2148  1.5331
 1696SOL    HW216551   0.882   2.424  16.949 -1.8427 -2.1444 -1.0338
 1697SOL     OW16552   0.791   2.542  14.338  0.3752 -1.3499  0.7800
 1697SOL    HW116553   0.805   2.451  14.310  0.2684 -1.1837  0.1958
 1697SOL    HW216554   0.755   2.519  14.424 -1.3102 -0.4571  0.3256
 1698SOL     OW16555   4.183   0.407   4.457 -0.0685  0.1446  0.1391
 1698SOL    HW116556   4.240   0.484   4.460  1.8189 -1.2956  1.1321
 1698SOL    HW216557   4.206   0.373   4.543  1.0142  1.0992  0.2356
 1699SOL     OW16558   3.072   2.345   5.678  0.7150  0.4808 -0.1444
 1699SOL    HW116559   2.977   2.355   5.670  0.7533 -0.0243 -1.2552
 1699SOL    HW216560   3.107   2.423   5.721  1.1920  0.2922 -0.1911
 1700SOL     OW16561   1.540   0.637   6.585  0.2604 -0.7647  0.1230
 1700SOL    HW116562   1.450   0.666   6.602  0.9549  1.2540  0.4073
 1700SOL    HW216563   1.532   0.614   6.492 -2.2288 -0.2573  0.2008
 1701SOL     OW16564   3.623   2.214  16.084  0.1109  0.3702 -0.5252
 1701SOL    HW116565   3.667   2.287  16.040  1.1432  1.8413  2.8965
 1701SOL    HW216566   3.665   2.135  16.051 -0.8208 -1.1419  1.9167
 1702SOL     OW16567   4.358   0.571  15.366 -0.1800 -0.2212  0.0971
 1702SOL    HW116568   4.293   0.541  15.429  1.0658  0.2461  1.6017
 1702SOL    HW216569   4.370   0.498  15.306  2.2105 -1.3395  1.9499
 1703SOL     OW16570   1.171   1.701   4.524 -0.3910 -0.1232  0.4025
 1703SOL    HW116571   1.257   1.743   4.524 -0.7874  0.6947  0.1986
 1703SOL    HW216572   1.137   1.723   4.610 -0.3105  0.2699  0.3314
 1704SOL     OW16573   1.665   2.504   5.008  0.4613 -0.0475 -0.0031
 1704SOL    HW116574   1.625   2.580   4.967  0.4217 -0.0074  0.1104
 1704SOL    HW216575   1.758   2.528   5.013  0.4143 -0.3034  2.0279
 1705SOL     OW16576   3.332   0.078   6.401  0.6011  0.4993 -0.0896
 1705SOL    HW116577   3.319   4.707   6.390 -1.3794  0.8722 -0.9944
 1705SOL    HW216578   3.245   0.114   6.383 -0.5647 -1.6423  1.3522
 1706SOL     OW16579   1.288   1.473   9.606  0.0019 -0.1168  0.4232
 1706SOL    HW116580   1.280   1.380   9.628 -1.3345 -0.2840 -0.7941
 1706SOL    HW216581   1.352   1.505   9.670 -0.3692  0.9889  0.2358
 1707SOL     OW16582   4.303   4.510   2.449 -0.0777  0.2689 -0.1391
 1707SOL    HW116583   4.382   4.559   2.473  1.6418 -3.7460  2.3264
 1707SOL    HW216584   4.234   4.567   2.483 -0.6017 -1.9311  2.4697
 1708SOL     OW16585   3.204   4.564  15.796  0.0970 -0.2075  0.1067
 1708SOL    HW116586   3.255   4.562  15.877  2.0836  0.6490 -1.1399
 1708SOL    HW216587   3.119   4.588  15.834  0.0520 -1.2075  0.6553
 1709SOL     OW16588   0.343   3.299   3.535  0.6271 -0.1639 -0.3777
 1709SOL    HW116589   0.352   3.242   3.612 -0.5661 -2.5285 -2.0114
 1709SOL    HW216590   0.400   3.263   3.468  1.1144 -0.1315  0.0160
 1710SOL     OW16591   1.833   2.144   2.642 -0.1087  0.6715  0.3118
 1710SOL    HW116592   1.861   2.060   2.680  1.2564  0.8733 -0.2693
 1710SOL    HW216593   1.844   2.130   2.548 -0.9387 -1.7025  0.5600
 1711SOL     OW16594   0.241   3.658   6.651  0.0612  0.6392  0.4187
 1711SOL    HW116595   0.235   3.672   6.556  0.0785 -1.1821  0.1435
 1711SOL    HW216596   0.325   3.697   6.674  0.4315  0.9282 -1.4430
 1712SOL     OW16597   1.296   4.083   3.728  0.0439  0.8893 -0.3781
 1712SOL    HW116598   1.336   4.052   3.647  0.4745  0.0085  0.1701
 1712SOL    HW216599   1.221   4.026   3.742  2.1411 -1.8350 -0.2816
 1713SOL     OW16600   0.427   1.090  12.531 -0.1644 -0.4149 -0.3796
 1713SOL    HW116601   0.510   1.110  12.488  0.1981 -0.5116  0.2736
 1713SOL    HW216602   0.408   1.013  12.477 -0.0868 -0.6498 -0.0701
 1714SOL     OW16603   1.758   1.554  16.345  0.0749  0.1265 -0.2850
 1714SOL    HW116604   1.725   1.481  16.293 -1.2874  0.6121 -0.0861
 1714SOL    HW216605   1.837   1.509  16.376 -0.2981  0.7118  1.4947
 1715SOL     OW16606   3.714   4.699  11.997 -0.3411  0.4961  0.0018
 1715SOL    HW116607   3.713   0.019  12.083  1.9969 -1.0318  0.8054
 1715SOL    HW216608   3.725   0.056  11.945  1.0837  0.6030  0.4689
 1716SOL     OW16609   2.329   2.291  15.060  0.2951 -0.0990 -0.3098
 1716SOL    HW116610   2.398   2.238  15.020  0.8238  1.5489 -1.5517
 1716SOL    HW216611   2.256   2.246  15.017 -2.6757  3.9129  0.5015
 1717SOL     OW16612   2.948   1.756  16.396 -0.2891 -0.4683 -0.3248
 1717SOL    HW116613   3.008   1.817  16.352 -1.3187  2.1072  1.8044
 1717SOL    HW216614   2.969   1.774  16.488  2.0522 -0.4110 -0.8694
 1718SOL     OW16615   3.494   2.368   7.659 -0.0746 -0.1290 -0.1161
 1718SOL    HW116616   3.508   2.313   7.736  0.4751 -2.0674 -1.6107
 1718SOL    HW216617   3.450   2.445   7.695  0.8160  0.0254  0.6199
 1719SOL     OW16618   2.574   1.749  17.214  0.5735  0.6183 -0.4831
 1719SOL    HW116619   2.546   1.689  17.145 -1.3886 -0.5181  1.2993
 1719SOL    HW216620   2.532   1.829  17.182  0.2326  0.1666 -1.1935
 1720SOL     OW16621   3.737   2.758  16.597  0.1195  0.1356  0.2716
 1720SOL    HW116622   3.709   2.796  16.514  0.9607  0.7527  0.2727
 1720SOL    HW216623   3.688   2.820  16.651 -0.7394  0.0703 -0.4325
 1721SOL     OW16624   1.785   0.946   3.118 -0.2045 -0.6396 -0.1542
 1721SOL    HW116625   1.748   1.015   3.172 -1.5696 -1.2514 -0.3244
 1721SOL    HW216626   1.880   0.962   3.123 -0.0617 -1.2679 -0.8280
 1722SOL     OW16627   3.545   1.930   4.175  0.0061  0.3424  0.6453
 1722SOL    HW116628   3.637   1.954   4.173 -0.6202  2.6874  0.2915
 1722SOL    HW216629   3.534   1.862   4.242  0.1329  0.0526  0.3736
 1723SOL     OW16630   1.772   4.105   8.489  0.3191  0.4967  0.6365
 1723SOL    HW116631   1.813   4.140   8.410 -1.1991 -0.1100 -0.4181
 1723SOL    HW216632   1.681   4.125   8.466  0.1497 -1.8029 -0.6067
 1724SOL     OW16633   2.328   0.238  11.056  0.4887 -0.5727  0.3168
 1724SOL    HW116634   2.240   0.202  11.061  0.7041 -0.6417  3.3486
 1724SOL    HW216635   2.378   0.156  11.055  0.1092 -0.8028 -1.2400
 1725SOL     OW16636   2.130   4.163   8.839 -1.0894  0.1456  0.1253
 1725SOL    HW116637   2.120   4.248   8.883 -1.4101 -0.0427  0.4154
 1725SOL    HW216638   2.038   4.145   8.819 -1.9635  1.9947  2.4575
 1726SOL     OW16639   0.150   4.676   3.533  0.2243 -0.3797  0.2012
 1726SOL    HW116640   0.074   0.009   3.546 -0.7475 -1.6851  0.1797
 1726SOL    HW216641   0.108   4.590   3.535  0.6373 -0.5587  1.3968
 1727SOL     OW16642   4.362   1.901   8.356 -0.2637 -0.9555  0.2493
 1727SOL    HW116643   4.336   1.814   8.388 -1.2745 -0.7337  0.0427
 1727SOL    HW216644   4.281   1.925   8.312  0.5591  0.8449 -0.2883
 1728SOL     OW16645   3.090   2.290   8.986 -0.2913 -0.2937  0.1949
 1728SOL    HW116646   3.158   2.255   8.930 -0.6975  0.6384 -0.8775
 1728SOL    HW216647   3.010   2.297   8.933  1.4911  0.6183 -2.3584
 1729SOL     OW16648   2.472   1.974  17.117  0.0765 -0.0869  0.0650
 1729SOL    HW116649   2.563   2.001  17.107  0.5995 -2.0823 -0.6832
 1729SOL    HW216650   2.460   1.955  17.024 -1.8091 -0.0916  0.2989
 1730SOL     OW16651   1.422   0.578   0.909 -0.4328 -0.4974  0.0387
 1730SOL    HW116652   1.399   0.520   0.982  1.0315 -2.7867 -1.2949
 1730SOL    HW216653   1.486   0.636   0.951 -1.6702 -0.7893  2.3344
 1731SOL     OW16654   3.619   3.912   8.816  0.2692  0.0877  0.0152
 1731SOL    HW116655   3.604   3.948   8.729  0.0822  1.3723  0.5709
 1731SOL    HW216656   3.628   3.985   8.878 -2.0227  0.1324  0.3029
 1732SOL     OW16657   4.685   1.907   8.651  0.3768  0.1585 -0.2550
 1732SOL    HW116658   0.029   1.959   8.695 -2.5266  1.5952  2.4556
 1732SOL    HW216659   4.618   1.975   8.650  2.0566  1.8110  0.8013
 1733SOL     OW16660   2.843   4.114   6.965 -0.2829  0.1406 -0.5499
 1733SOL    HW116661   2.884   4.200   6.974 -1.7159  0.8774 -0.9533
 1733SOL    HW216662   2.783   4.131   6.892 -0.2662  0.9665 -0.3752
 1734SOL     OW16663   2.141   4.186  15.606 -0.4528 -0.0890  0.4507
 1734SOL    HW116664   2.104   4.155  15.689  1.8025 -1.5048  0.9260
 1734SOL    HW216665   2.164   4.278  15.618  1.0425 -0.5906  1.4093
 1735SOL     OW16666   4.064   3.530   5.820  0.5694  0.2942 -0.5205
 1735SOL    HW116667   3.996   3.597   5.833  0.9354  0.5127  0.2828
 1735SOL    HW216668   4.053   3.526   5.725  0.8793 -1.6702 -0.4759
 1736SOL     OW16669   0.942   0.622   7.957 -0.4833  0.2660 -0.3967
 1736SOL    HW116670   1.001   0.589   8.025  0.5093 -0.3554 -1.5603
 1736SOL    HW216671   0.963   0.547   7.902  3.0197 -0.4224  1.8489
 1737SOL     OW16672   0.799   1.871   2.719  0.0436 -0.4690  0.3460
 1737SOL    HW116673   0.780   1.893   2.811  1.8079  0.4081  0.4973
 1737SOL    HW216674   0.857   1.796   2.727  0.9047  0.2047  0.3588
 1738SOL     OW16675   2.556   3.364   0.855  0.3457 -0.5689  0.3171
 1738SOL    HW116676   2.497   3.306   0.905 -1.7849  0.1942 -1.2962
 1738SOL    HW216677   2.642   3.334   0.885  1.2568  0.9846 -0.7859
 1739SOL     OW16678   3.658   3.293  10.245 -0.7555  0.0590 -0.2900
 1739SOL    HW116679   3.725   3.360  10.254 -1.8035  1.2007 -1.0858
 1739SOL    HW216680   3.596   3.318  10.312  0.8658 -0.4800  1.4198
 1740SOL     OW16681   1.362   3.706   5.697 -0.0814 -0.1389  0.3201
 1740SOL    HW116682   1.407   3.623   5.684  0.3159  0.3372 -1.3279
 1740SOL    HW216683   1.367   3.749   5.611  0.7483  0.0622  0.4610
 1741SOL     OW16684   0.729   0.682   6.827  0.1448 -0.2866  0.1822
 1741SOL    HW116685   0.715   0.599   6.873  0.8871 -0.8141 -0.5256
 1741SOL    HW216686   0.655   0.728   6.866 -1.5943 -0.3797 -2.9946
 1742SOL     OW16687   3.199   4.440   8.873  0.1815 -0.2232  0.1675
 1742SOL    HW116688   3.106   4.463   8.880  1.0100  3.0462  0.6020
 1742SOL    HW216689   3.214   4.393   8.955 -1.4688  0.0413  0.6196
 1743SOL     OW16690   3.519   4.707   9.516 -0.3545 -0.1453 -0.0623
 1743SOL    HW116691   3.545   0.048   9.449 -0.5930  1.2998  1.2218
 1743SOL    HW216692   3.428   4.693   9.490  0.2941 -0.3879 -2.2164
 1744SOL     OW16693   3.098   0.631   8.708 -0.0285  0.1739 -0.2805
 1744SOL    HW116694   3.154   0.623   8.785 -1.3579 -0.0804  0.6513
 1744SOL    HW216695   3.032   0.694   8.736 -0.4666  0.0562 -1.0438
 1745SOL     OW16696   0.606   4.051  13.789 -0.4063 -0.3822  0.2780
 1745SOL    HW116697   0.650   4.129  13.824 -0.6862  0.0998 -0.4520
 1745SOL    HW216698   0.679   3.990  13.781  0.9410  1.3800 -0.7537
 1746SOL     OW16699   1.516   2.590   9.606  0.3339 -0.3813  0.5678
 1746SOL    HW116700   1.492   2.528   9.675  0.2251 -0.9934 -0.0147
 1746SOL    HW216701   1.521   2.670   9.659 -2.5605 -0.6667  1.2943
 1747SOL     OW16702   0.905   1.779   4.995 -0.1254  0.0851 -0.3655
 1747SOL    HW116703   0.823   1.817   4.965 -1.8284 -1.1265  2.7556
 1747SOL    HW216704   0.879   1.723   5.068  3.2832 -1.7492 -0.5830
 1748SOL     OW16705   0.888   0.603  12.071 -0.0615  0.1428  0.6251
 1748SOL    HW116706   0.906   0.509  12.067  1.0240  0.4437 -1.2201
 1748SOL    HW216707   0.818   0.603  12.138 -1.1402  0.7667 -0.4985
 1749SOL     OW16708   1.454   1.323  12.112 -0.4710  0.8763  0.0880
 1749SOL    HW116709   1.417   1.252  12.166 -1.6040  2.5556  1.5312
 1749SOL    HW216710   1.454   1.278  12.028 -0.1490 -3.1322  2.1993
 1750SOL     OW16711   2.767   0.072   8.078  0.4087 -0.3280  0.1128
 1750SOL    HW116712   2.754   0.166   8.069  2.9119  0.0905  0.7597
 1750SOL    HW216713   2.855   0.055   8.045  1.1987  0.6261  1.7105
 1751SOL     OW16714   2.584   4.397  17.452 -0.4402  0.0314 -0.0248
 1751SOL    HW116715   2.638   4.447  17.513 -1.2864 -0.9325  1.5443
 1751SOL    HW216716   2.651   4.341  17.413  0.6244  0.7165  0.8043
 1752SOL     OW16717   1.575   2.627  12.233  0.2658  0.4637  0.0899
 1752SOL    HW116718   1.492   2.581  12.245 -1.5256  3.0450 -2.5651
 1752SOL    HW216719   1.625   2.568  12.178  1.4927  1.4009  0.1940
 1753SOL     OW16720   2.346   2.471   4.443  0.4769 -0.0842  0.1444
 1753SOL    HW116721   2.374   2.498   4.530  0.1546  1.3686 -0.1962
 1753SOL    HW216722   2.417   2.411   4.420 -0.2239 -1.2246  0.9856
 1754SOL     OW16723   2.635   0.154   2.104  0.2735 -0.4590  0.1644
 1754SOL    HW116724   2.730   0.163   2.100  0.0290  2.2997  0.7783
 1754SOL    HW216725   2.617   0.225   2.165 -1.6446 -2.1586  1.5736
 1755SOL     OW16726   3.265   0.569   7.856 -0.1821  0.3266 -0.5306
 1755SOL    HW116727   3.339   0.532   7.904 -2.4784 -2.9260  0.4842
 1755SOL    HW216728   3.315   0.609   7.785 -1.5086 -0.8779 -2.1513
 1756SOL     OW16729   1.522   1.972   3.201  0.0770 -0.1295  0.1247
 1756SOL    HW116730   1.588   1.992   3.267  0.9999 -0.1284 -0.7951
 1756SOL    HW216731   1.582   1.930   3.138  0.9778 -0.9572  1.5463
 1757SOL     OW16732   3.104   0.149   8.503  0.0153  0.0312 -0.0319
 1757SOL    HW116733   3.099   0.098   8.422  1.2416 -0.2271  0.0581
 1757SOL    HW216734   3.014   0.183   8.508 -1.4562 -3.8720 -0.0447
 1758SOL     OW16735   4.225   0.895  14.010 -0.5725 -0.9852  0.6937
 1758SOL    HW116736   4.251   0.900  13.918  0.9197 -0.6472  1.1326
 1758SOL    HW216737   4.291   0.834  14.045  0.1777 -0.1426  0.7613
 1759SOL     OW16738   0.678   0.381   0.447 -0.1382 -0.3912 -0.6605
 1759SOL    HW116739   0.667   0.396   0.541  0.9181  1.4841 -0.8334
 1759SOL    HW216740   0.728   0.458   0.419 -1.6067  1.0315  0.6142
 1760SOL     OW16741   4.341   4.553  17.266 -0.1260  0.0094  0.1329
 1760SOL    HW116742   4.287   4.604  17.206 -0.1927  1.8796  1.7538
 1760SOL    HW216743   4.292   4.471  17.265  1.0692 -0.6531 -2.1611
 1761SOL     OW16744   3.926   3.300   5.028 -0.5883 -0.4294  0.0873
 1761SOL    HW116745   4.016   3.330   5.039 -0.9781  1.3740 -1.6238
 1761SOL    HW216746   3.883   3.371   4.980  0.7332  0.1054 -0.2946
 1762SOL     OW16747   3.847   4.610   8.333  0.1652 -0.4683 -0.1059
 1762SOL    HW116748   3.837   4.553   8.410  0.1437 -1.7718 -1.0622
 1762SOL    HW216749   3.830   4.700   8.361 -1.5492 -0.0231 -2.5204
 1763SOL     OW16750   3.433   1.530  11.776 -0.0833 -0.3664 -0.3140
 1763SOL    HW116751   3.382   1.606  11.804  0.1377 -0.4444  0.3025
 1763SOL    HW216752   3.490   1.567  11.709  0.4215  1.0028  0.8862
 1764SOL     OW16753   2.332   0.547   0.356  0.6785  0.5486  0.1894
 1764SOL    HW116754   2.305   0.530   0.265 -1.0055 -1.3403  1.0531
 1764SOL    HW216755   2.323   0.461   0.396  0.5586  0.7711  0.6413
 1765SOL     OW16756   1.381   4.231   1.378  0.0995 -0.6449  0.0181
 1765SOL    HW116757   1.442   4.180   1.324  0.3480  0.5247 -0.8035
 1765SOL    HW216758   1.395   4.185   1.460 -0.6261 -0.8078  0.0450
 1766SOL     OW16759   3.937   1.850  16.999 -0.4517  0.4214 -0.0530
 1766SOL    HW116760   3.858   1.848  17.053 -0.6813 -1.3502 -0.4811
 1766SOL    HW216761   3.962   1.758  16.997  0.0034  0.5536 -0.3480
 1767SOL     OW16762   2.827   1.829   4.495 -0.5748 -0.8013 -0.0010
 1767SOL    HW116763   2.893   1.888   4.458 -2.8009  1.0519 -1.0725
 1767SOL    HW216764   2.857   1.743   4.468 -1.4679 -1.5119  1.2701
 1768SOL     OW16765   0.759   1.037  10.145  0.5211  0.2592 -0.2706
 1768SOL    HW116766   0.755   1.132  10.138 -1.0288  0.1739 -0.5504
 1768SOL    HW216767   0.714   1.034  10.229  1.6690 -0.1664  0.3291
 1769SOL     OW16768   0.463   2.717   5.432  0.4333 -0.0834  0.1304
 1769SOL    HW116769   0.518   2.677   5.499  0.8223 -0.2700 -0.3012
 1769SOL    HW216770   0.526   2.730   5.361  2.7472 -1.5564  1.9373
 1770SOL     OW16771   1.023   3.920   8.125 -0.6633  0.0866 -0.1974
 1770SOL    HW116772   1.097   3.919   8.186 -0.1867  3.3986 -0.7137
 1770SOL    HW216773   0.971   3.860   8.177 -0.4111 -0.9289 -1.1244
 1771SOL     OW16774   2.649   1.261   6.215 -0.4129  0.3561 -0.2462
 1771SOL    HW116775   2.576   1.200   6.207  0.4226 -0.9030  2.0493
 1771SOL    HW216776   2.717   1.215   6.264  1.3648 -0.8691 -3.8692
 1772SOL     OW16777   1.408   4.252   6.221 -0.1980 -0.4735 -0.2756
 1772SOL    HW116778   1.497   4.233   6.252  0.0485 -0.2425 -0.8280
 1772SOL    HW216779   1.391   4.330   6.272 -0.8934 -0.8255  0.0185
 1773SOL     OW16780   2.053   3.846   2.237 -0.4200  0.4806  0.1285
 1773SOL    HW116781   2.080   3.909   2.304 -0.9353 -0.8211  1.5696
 1773SOL    HW216782   2.025   3.910   2.171 -0.7405 -0.5442 -0.7205
 1774SOL     OW16783   2.985   4.662   7.733 -0.3896  0.0187 -0.0162
 1774SOL    HW116784   2.935   4.635   7.656 -0.8070 -1.0627  0.6277
 1774SOL    HW216785   2.961   4.595   7.797 -0.1092  1.3730  1.5012
 1775SOL     OW16786   4.562   2.050   4.623  0.0136 -0.1409 -0.1729
 1775SOL    HW116787   4.591   2.063   4.714 -0.5687 -2.6910  0.3980
 1775SOL    HW216788   4.508   1.972   4.637  0.3294 -0.2361  0.5407
 1776SOL     OW16789   3.012   0.598   6.612 -0.2709  0.4832  0.2004
 1776SOL    HW116790   2.955   0.525   6.637 -1.4677  1.2272 -0.4047
 1776SOL    HW216791   3.094   0.554   6.587  0.4439  0.4271  2.6303
 1777SOL     OW16792   2.407   0.993   4.143 -0.6067  0.1069  0.0816
 1777SOL    HW116793   2.338   0.933   4.117 -0.3198 -0.0670 -0.2759
 1777SOL    HW216794   2.369   1.037   4.219  1.4748 -0.8151  1.6510
 1778SOL     OW16795   1.884   1.296   3.935  0.6434 -0.1382 -0.0563
 1778SOL    HW116796   1.944   1.221   3.934 -1.3256 -1.7095  0.3621
 1778SOL    HW216797   1.812   1.265   3.990  0.1730 -0.1703 -0.6984
 1779SOL     OW16798   4.218   2.372   4.659  0.1911  0.1145  0.4899
 1779SOL    HW116799   4.314   2.370   4.667 -0.0959 -0.1820  4.1230
 1779SOL    HW216800   4.194   2.462   4.682 -4.8177 -1.4202  1.2136
 1780SOL     OW16801   0.304   4.201   8.391 -0.3333 -0.0966 -0.0127
 1780SOL    HW116802   0.288   4.250   8.311 -4.4587 -2.0410 -0.3419
 1780SOL    HW216803   0.229   4.226   8.444  0.1672  0.3406  0.4973
 1781SOL     OW16804   2.782   4.168   7.823  0.0644  0.2092  0.2166
 1781SOL    HW116805   2.760   4.221   7.899 -2.6199  2.2163 -1.9609
 1781SOL    HW216806   2.860   4.203   7.779  0.7311 -2.3212 -0.5691
 1782SOL     OW16807   3.393   0.730   1.177  0.6240 -0.5496  0.5885
 1782SOL    HW116808   3.337   0.665   1.219 -2.9845  1.2654 -1.4931
 1782SOL    HW216809   3.483   0.701   1.196  1.2603  0.7750 -0.3864
 1783SOL     OW16810   2.318   4.030  11.303  0.6037  0.1351 -0.2096
 1783SOL    HW116811   2.346   4.102  11.246  0.5052  1.1581  1.0354
 1783SOL    HW216812   2.307   3.956  11.244 -0.7318 -0.1431  0.3900
 1784SOL     OW16813   3.684   4.057  15.399 -0.3600  0.4505  0.0484
 1784SOL    HW116814   3.669   3.966  15.425  1.2958  0.2718  0.3720
 1784SOL    HW216815   3.761   4.046  15.343  0.0383  1.5010  0.3842
 1785SOL     OW16816   2.261   4.015  13.721  0.3181 -0.0002  0.1466
 1785SOL    HW116817   2.259   4.008  13.816 -2.4757  1.9776  0.2212
 1785SOL    HW216818   2.263   4.110  13.707 -0.6277 -0.0387 -0.2144
 1786SOL     OW16819   4.604   0.890  10.702  0.3923  0.0980  1.0257
 1786SOL    HW116820   4.691   0.850  10.709  0.7300  0.1804 -2.7212
 1786SOL    HW216821   4.563   0.850  10.778 -0.6789 -0.1796  0.3024
 1787SOL     OW16822   2.261   3.611   2.817  0.6779 -0.0946 -0.0296
 1787SOL    HW116823   2.290   3.625   2.726  0.7158  1.5324  0.2285
 1787SOL    HW216824   2.217   3.526   2.815  0.3212  0.0895  0.2095
 1788SOL     OW16825   0.822   4.240   7.833  0.0065 -0.1769  0.0980
 1788SOL    HW116826   0.748   4.270   7.782  1.9804  2.6203 -1.1297
 1788SOL    HW216827   0.809   4.148   7.855 -0.2189 -0.7922 -2.6399
 1789SOL     OW16828   3.017   4.541  15.299 -0.1954  0.1800 -0.0331
 1789SOL    HW116829   3.085   4.473  15.303 -0.7570 -0.6152 -3.9580
 1789SOL    HW216830   2.949   4.490  15.255 -0.9988  1.7656 -0.6266
 1790SOL     OW16831   3.882   2.228  15.392  0.0228  0.2033 -0.5097
 1790SOL    HW116832   3.948   2.234  15.461  0.8244  1.9260 -1.3923
 1790SOL    HW216833   3.920   2.153  15.347  0.0075 -0.4546  0.5964
 1791SOL     OW16834   4.287   2.864   6.725  0.1538  0.9379 -0.4368
 1791SOL    HW116835   4.240   2.787   6.758  1.4736  0.3514  0.0803
 1791SOL    HW216836   4.302   2.907   6.810  0.2420 -0.0547  0.0493
 1792SOL     OW16837   2.368   2.214   7.814 -0.3178  0.4353 -0.7957
 1792SOL    HW116838   2.425   2.145   7.847 -0.4053  0.8616  0.2561
 1792SOL    HW216839   2.292   2.204   7.870  0.8356 -4.0120 -0.0621
 1793SOL     OW16840   0.809   1.344   5.077 -0.5199  0.0967 -0.0555
 1793SOL    HW116841   0.781   1.433   5.054 -0.4027  0.6645  1.9572
 1793SOL    HW216842   0.727   1.304   5.104 -1.6055  0.8738 -2.2048
 1794SOL     OW16843   3.782   2.670  16.895 -1.2656 -0.7578  0.3271
 1794SOL    HW116844   3.860   2.622  16.922 -1.0635 -0.5108  0.1762
 1794SOL    HW216845   3.773   2.641  16.804 -0.6245  1.1720 -0.3482
 1795SOL     OW16846   4.541   1.052   2.672 -0.0423 -0.3297  0.3193
 1795SOL    HW116847   4.547   1.144   2.646  1.5646 -0.7241 -0.7024
 1795SOL    HW216848   4.501   1.019   2.592 -0.6741 -1.9542  1.2895
 1796SOL     OW16849   3.511   4.123   1.705  0.0011 -0.5857 -0.3292
 1796SOL    HW116850   3.583   4.068   1.736  0.7640  1.1253  0.9977
 1796SOL    HW216851   3.440   4.109   1.768  0.6213 -1.9341  0.0818
 1797SOL     OW16852   0.886   3.112   7.521 -0.3122 -0.1651  0.0380
 1797SOL    HW116853   0.794   3.092   7.538 -0.2825  0.2129  0.6456
 1797SOL    HW216854   0.930   3.035   7.557  0.7375  0.1269 -0.6210
 1798SOL     OW16855   3.049   0.759   5.895 -0.0294  0.1542 -0.1591
 1798SOL    HW116856   3.024   0.680   5.846 -0.6545 -0.6301  1.4114
 1798SOL    HW216857   2.971   0.766   5.950  0.8647  1.4594  0.9706
 1799SOL     OW16858   2.899   1.867   7.143  0.4176  0.0477  0.2870
 1799SOL    HW116859   2.961   1.938   7.126 -0.6755  0.4547 -1.9660
 1799SOL    HW216860   2.863   1.875   7.231 -0.6827 -0.1263 -0.1419
 1800SOL     OW16861   0.592   1.507   1.971  0.2105  0.2567 -0.1675
 1800SOL    HW116862   0.598   1.583   1.913  1.9738 -0.1854 -0.5709
 1800SOL    HW216863   0.601   1.551   2.055 -0.7876 -1.3468  0.7698
 1801SOL     OW16864   1.252   1.504   0.133 -0.4630  0.0611 -0.6082
 1801SOL    HW116865   1.335   1.500   0.180 -1.6570 -1.8183  1.3036
 1801SOL    HW216866   1.268   1.535   0.043  0.9856  1.0134 -0.0249
 1802SOL     OW16867   2.172   0.993   7.333 -0.4178  0.4077  0.1165
 1802SOL    HW116868   2.242   0.929   7.318 -0.6410  0.6170 -1.8749
 1802SOL    HW216869   2.089   0.953   7.306 -1.1460  1.8114  0.2989
 1803SOL     OW16870   0.507   4.690   7.753 -0.5980 -0.1533 -0.3694
 1803SOL    HW116871   0.431   4.713   7.807 -0.5708  1.3047 -0.9494
 1803SOL    HW216872   0.469   4.651   7.674 -0.1512 -2.6697  0.6632
 1804SOL     OW16873   2.153   2.914   4.547  0.2309 -0.3637  0.4658
 1804SOL    HW116874   2.172   2.828   4.584  3.5381 -0.4350 -1.3646
 1804SOL    HW216875   2.074   2.895   4.496 -1.1178  0.5559  2.2012
 1805SOL     OW16876   0.761   0.616   8.217 -0.2463  0.2375 -0.1451
 1805SOL    HW116877   0.808   0.541   8.255 -0.9971 -0.9543 -1.5733
 1805SOL    HW216878   0.817   0.628   8.141 -1.1549  0.3014 -0.8017
 1806SOL     OW16879   0.076   1.172   3.740  0.5798 -0.2316 -0.4869
 1806SOL    HW116880   0.129   1.093   3.733 -1.5227 -1.7114  0.1176
 1806SOL    HW216881   0.039   1.150   3.825 -0.5237  0.9023 -0.6651
 1807SOL     OW16882   4.155   3.982  15.686 -0.1402  0.5613 -0.0518
 1807SOL    HW116883   4.158   4.078  15.691  0.0136  0.4851  1.3144
 1807SOL    HW216884   4.117   3.984  15.598 -2.8554  0.7699  1.1217
 1808SOL     OW16885   1.878   1.829   3.779 -0.9104  0.1130  0.8820
 1808SOL    HW116886   1.867   1.785   3.863 -0.9686 -1.2667  0.1481
 1808SOL    HW216887   1.786   1.830   3.754 -0.5270 -1.7879 -0.5519
 1809SOL     OW16888   2.452   0.501   3.156 -0.0757  0.1327 -0.0576
 1809SOL    HW116889   2.406   0.441   3.097  1.5182 -0.4853 -0.6791
 1809SOL    HW216890   2.536   0.460   3.175  0.2634  1.2420  0.8698
 1810SOL     OW16891   4.086   2.817  17.451  0.0219  0.5829 -0.6436
 1810SOL    HW116892   4.079   2.819  17.356  0.8696  1.2211 -0.6900
 1810SOL    HW216893   4.140   2.740  17.468  0.3370  0.6962 -1.1458
 1811SOL     OW16894   3.002   1.837   2.443  0.1018 -0.0504  0.4852
 1811SOL    HW116895   3.041   1.916   2.407  0.6248 -0.4561  0.1581
 1811SOL    HW216896   3.068   1.769   2.426 -1.2262 -1.1173 -0.4068
 1812SOL     OW16897   1.168   4.373   8.181 -0.1394  0.7508  0.4886
 1812SOL    HW116898   1.106   4.365   8.109 -0.2657  1.6738  0.4903
 1812SOL    HW216899   1.175   4.468   8.188 -2.5803  0.9169  0.7415
 1813SOL     OW16900   4.362   2.432  10.417  0.1135 -0.3313  0.3385
 1813SOL    HW116901   4.441   2.453  10.467  1.1406 -2.1131 -0.5282
 1813SOL    HW216902   4.300   2.398  10.481  1.8330 -2.1324  1.0587
 1814SOL     OW16903   0.993   3.508   7.019 -0.1030  0.1135 -0.1607
 1814SOL    HW116904   1.052   3.446   7.064 -2.4869 -3.3100 -1.7388
 1814SOL    HW216905   0.904   3.475   7.030 -1.1466  3.2600  0.6414
 1815SOL     OW16906   1.468   0.669  17.400 -0.5710 -0.2493 -0.2904
 1815SOL    HW116907   1.406   0.623  17.343  0.1723 -1.4554 -0.1211
 1815SOL    HW216908   1.478   0.613  17.477 -2.9978 -1.5841 -0.9529
 1816SOL     OW16909   1.964   3.584  16.637 -0.7082 -0.3749  0.1881
 1816SOL    HW116910   1.914   3.521  16.689 -2.6964  1.7393  0.8413
 1816SOL    HW216911   1.888   3.630  16.600  1.2568  3.6853  1.1963
 1817SOL     OW16912   3.118   4.014   3.279 -0.0332  0.3629  0.0328
 1817SOL    HW116913   3.211   4.035   3.278 -0.0140  0.2643 -0.1593
 1817SOL    HW216914   3.086   4.079   3.216 -3.0472 -0.6743  0.4667
 1818SOL     OW16915   4.006   1.002   2.755 -0.5506 -0.2659 -0.6317
 1818SOL    HW116916   3.990   1.096   2.749 -1.4787 -0.4026 -0.2781
 1818SOL    HW216917   3.964   0.980   2.672 -0.4100  0.5320 -0.9152
 1819SOL     OW16918   2.674   4.282   5.850  0.0899  0.2144  0.5353
 1819SOL    HW116919   2.719   4.246   5.926 -0.0102 -0.4102  0.2921
 1819SOL    HW216920   2.609   4.334   5.898 -0.1441 -0.6876  1.1922
 1820SOL     OW16921   2.306   3.560   4.467 -0.1419 -0.1841  0.1706
 1820SOL    HW116922   2.264   3.639   4.435 -1.2356 -0.9519 -0.2747
 1820SOL    HW216923   2.393   3.572   4.427 -1.3090 -1.0296 -2.5977
 1821SOL     OW16924   3.251   0.897   8.056 -0.2444 -0.0979 -0.2501
 1821SOL    HW116925   3.325   0.953   8.080 -0.5424  0.1909 -0.0171
 1821SOL    HW216926   3.236   0.849   8.138  0.4825  0.1506  0.0350
 1822SOL     OW16927   4.553   4.395  17.238  0.0223 -0.0635 -0.2192
 1822SOL    HW116928   4.514   4.350  17.163  2.9863  0.2046 -1.9150
 1822SOL    HW216929   4.482   4.458  17.251 -0.5519 -0.5472 -1.0375
 1823SOL     OW16930   2.655   2.227  16.143 -0.0298 -0.2178  0.2422
 1823SOL    HW116931   2.650   2.221  16.047 -1.2907 -2.4362  0.4381
 1823SOL    HW216932   2.612   2.147  16.174  0.3412 -0.0932  1.0734
 1824SOL     OW16933   1.457   2.509   8.160 -0.1559  0.2330 -0.1604
 1824SOL    HW116934   1.531   2.535   8.105  1.3416 -1.6216  0.9874
 1824SOL    HW216935   1.464   2.551   8.245  0.4276 -0.8423  0.3176
 1825SOL     OW16936   3.780   3.924   9.819 -0.0867  0.4635  0.3544
 1825SOL    HW116937   3.767   3.929   9.724  0.1330  1.0615  0.3608
 1825SOL    HW216938   3.872   3.949   9.825 -0.2186  0.6875  1.3268
 1826SOL     OW16939   4.468   3.088   5.580 -0.2611 -0.8072 -0.0426
 1826SOL    HW116940   4.457   3.085   5.675 -2.6157 -1.5898 -0.3407
 1826SOL    HW216941   4.549   3.139   5.579 -0.8409  0.1031 -1.2857
 1827SOL     OW16942   1.306   3.492  12.077 -0.3301 -0.1476  0.2742
 1827SOL    HW116943   1.351   3.436  12.141  0.3417 -2.0245 -1.8512
 1827SOL    HW216944   1.256   3.423  12.032 -1.7144  0.5060  0.7901
 1828SOL     OW16945   2.443   3.469  14.493  0.0714  0.1057  0.4544
 1828SOL    HW116946   2.490   3.475  14.410 -2.9674 -1.4195 -1.3869
 1828SOL    HW216947   2.520   3.459  14.548  0.2730  1.7554  0.4671
 1829SOL     OW16948   0.567   2.702   7.048  1.1096  0.3117  0.1446
 1829SOL    HW116949   0.476   2.694   7.076  0.8612 -1.3288 -1.1839
 1829SOL    HW216950   0.611   2.652   7.117 -0.0242  2.2003  2.2203
 1830SOL     OW16951   1.381   1.594   7.446 -0.0756 -0.0875 -0.0564
 1830SOL    HW116952   1.300   1.638   7.421 -1.1835 -2.2469 -0.3087
 1830SOL    HW216953   1.365   1.502   7.424 -0.8430  0.1183 -0.3884
 1831SOL     OW16954   0.388   3.065  13.964  0.2271  0.6622 -0.3451
 1831SOL    HW116955   0.329   2.991  13.951  0.3016  0.6842 -0.8101
 1831SOL    HW216956   0.431   3.035  14.044  0.3660 -3.0843 -1.8679
 1832SOL     OW16957   2.044   4.358   2.309  0.2164 -0.0037 -0.2720
 1832SOL    HW116958   2.080   4.400   2.232  1.1992  1.2014  0.8539
 1832SOL    HW216959   1.974   4.422   2.321  0.3564  0.4913 -2.2426
 1833SOL     OW16960   3.972   1.395  15.957 -0.2609  0.0797 -0.0473
 1833SOL    HW116961   3.993   1.377  16.049  2.6972 -0.0596 -0.7682
 1833SOL    HW216962   4.045   1.356  15.909 -0.1080 -1.0034  1.0616
 1834SOL     OW16963   4.057   1.340   5.179  0.5516 -0.6261 -0.2523
 1834SOL    HW116964   4.139   1.303   5.147  0.2353  0.5262 -2.3452
 1834SOL    HW216965   4.006   1.363   5.102  2.3160  3.2738 -0.2787
 1835SOL     OW16966   3.782   3.242   9.333  0.1223 -0.3068 -0.1329
 1835SOL    HW116967   3.727   3.186   9.388 -1.0693  1.1334  0.1287
 1835SOL    HW216968   3.860   3.186   9.334 -0.3814 -1.0108 -0.0519
 1836SOL     OW16969   2.664   0.487   4.030  0.4771  0.1444 -0.3047
 1836SOL    HW116970   2.569   0.483   4.043  0.5955 -0.0436  0.4994
 1836SOL    HW216971   2.691   0.396   4.043 -2.0992 -0.6524 -0.5772
 1837SOL     OW16972   4.386   1.180   9.287 -0.0446 -0.2792  0.1216
 1837SOL    HW116973   4.359   1.221   9.205  0.5746  0.8507  0.4748
 1837SOL    HW216974   4.470   1.140   9.265 -0.3250 -0.4843 -0.5743
 1838SOL     OW16975   1.469   2.306   8.503 -0.4950 -0.8393  0.0092
 1838SOL    HW116976   1.538   2.329   8.441  0.5093 -1.8662  0.7500
 1838SOL    HW216977   1.462   2.212   8.484  1.1587 -1.0255  0.3339
 1839SOL     OW16978   0.468   0.775   5.909 -0.2278 -0.1693 -0.4054
 1839SOL    HW116979   0.512   0.730   5.981 -1.3209 -0.3210  0.1616
 1839SOL    HW216980   0.464   0.864   5.944 -1.9022 -0.5602  0.4107
 1840SOL     OW16981   3.881   0.472   5.072 -0.2722 -0.2234  0.2508
 1840SOL    HW116982   3.867   0.561   5.104  0.9945  0.1619 -0.2778
 1840SOL    HW216983   3.803   0.467   5.017 -1.3247  0.2346  1.6920
 1841SOL     OW16984   4.256   3.532   7.530 -0.1981  0.4087 -0.2689
 1841SOL    HW116985   4.205   3.610   7.509  0.0184  0.2775 -1.2883
 1841SOL    HW216986   4.194   3.458   7.532 -1.4916  1.4934 -0.2064
 1842SOL     OW16987   3.631   2.324   9.415 -0.0623 -0.5427  0.5233
 1842SOL    HW116988   3.692   2.398   9.416 -0.8825  0.1557 -0.9467
 1842SOL    HW216989   3.630   2.300   9.508  1.0396 -0.0367  0.6614
 1843SOL     OW16990   2.429   4.539   5.264 -0.0089  0.1764 -0.4428
 1843SOL    HW116991   2.437   4.527   5.169  0.3105 -0.4813 -0.3313
 1843SOL    HW216992   2.356   4.480   5.282 -0.1617  0.2376 -0.8494
 1844SOL     OW16993   0.165   1.815  10.177 -0.0623 -0.0876 -0.1849
 1844SOL    HW116994   0.258   1.831  10.187 -0.0744  0.7663 -1.3746
 1844SOL    HW216995   0.143   1.756  10.249  0.7035  0.8279  0.7949
 1845SOL     OW16996   3.759   2.901  11.814  0.4816 -0.0590  0.3097
 1845SOL    HW116997   3.794   2.954  11.742 -0.7778 -1.2021 -1.1291
 1845SOL    HW216998   3.833   2.843  11.831  1.2535  0.7543 -0.2784
 1846SOL     OW16999   0.481   3.319   8.100  0.1762  0.1301 -0.1554
 1846SOL    HW117000   0.519   3.255   8.161 -1.1018  1.8448  2.4168
 1846SOL    HW217001   0.531   3.399   8.116 -1.8496  1.6414 -1.4808
 1847SOL     OW17002   1.646   3.244  13.865 -0.1743 -0.4626 -0.0230
 1847SOL    HW117003   1.671   3.334  13.846  0.8462 -0.8660 -0.5872
 1847SOL    HW217004   1.557   3.254  13.900 -0.3095 -1.8813  0.0352
 1848SOL     OW17005   1.543   1.652   1.866 -0.3393 -0.1387  0.1702
 1848SOL    HW117006   1.584   1.688   1.787 -0.2117  0.1038  0.3443
 1848SOL    HW217007   1.613   1.656   1.931  3.8537 -1.3220 -4.2424
 1849SOL     OW17008   3.964   2.748  10.725  0.2727  0.0555  0.8373
 1849SOL    HW117009   4.051   2.724  10.758 -0.2296 -3.8680 -0.6120
 1849SOL    HW217010   3.980   2.746  10.631 -1.7588 -0.4020  0.4938
 1850SOL     OW17011   3.607   4.276   8.790  0.4280  0.1502 -0.1857
 1850SOL    HW117012   3.513   4.256   8.786  0.6877 -0.8615 -1.3808
 1850SOL    HW217013   3.598   4.368   8.765  0.3965  0.5134  1.1385
 1851SOL     OW17014   1.666   0.800  14.191 -0.3514  0.8114 -0.4559
 1851SOL    HW117015   1.657   0.784  14.285  0.7935 -2.4171 -0.9080
 1851SOL    HW217016   1.662   0.896  14.192 -1.8018  0.7399 -0.0093
 1852SOL     OW17017   1.837   4.613  17.641  0.0876 -0.5854 -0.8595
 1852SOL    HW117018   1.867   4.645  17.556 -1.2374 -0.0872 -1.1398
 1852SOL    HW217019   1.918   4.578  17.677 -0.9062 -1.1654  0.8188
 1853SOL     OW17020   3.797   0.481   4.720  0.3740  0.0164  0.0030
 1853SOL    HW117021   3.743   0.458   4.795 -2.3819  4.2077 -0.7194
 1853SOL    HW217022   3.871   0.424   4.742  0.2495  0.2140  0.8981
 1854SOL     OW17023   2.713   3.752   0.676  0.2055  0.1348  0.5156
 1854SOL    HW117024   2.655   3.772   0.750  1.1352 -0.2388  1.3366
 1854SOL    HW217025   2.737   3.659   0.677  2.3232  0.6810 -0.3268
 1855SOL     OW17026   3.619   2.269   6.315 -0.1093  0.3893 -0.9108
 1855SOL    HW117027   3.636   2.184   6.275  2.1478  0.3709  0.0750
 1855SOL    HW217028   3.660   2.248   6.399 -1.4162  0.1782 -0.3187
 1856SOL     OW17029   3.100   3.375   0.986  0.7457  0.0641 -0.0723
 1856SOL    HW117030   3.175   3.318   1.004 -0.0903 -0.1021  2.7664
 1856SOL    HW217031   3.105   3.370   0.890  2.5769 -1.3750  0.1054
 1857SOL     OW17032   2.003   0.357   4.528 -0.3109 -0.1377  0.3124
 1857SOL    HW117033   1.959   0.441   4.545 -1.5643 -0.9723  1.1355
 1857SOL    HW217034   1.934   0.296   4.554 -1.3747  0.3469 -1.3772
 1858SOL     OW17035   2.153   0.253   7.670  0.3475  0.4141 -0.3994
 1858SOL    HW117036   2.124   0.263   7.760  0.1631  0.0128 -0.4137
 1858SOL    HW217037   2.118   0.166   7.653 -0.3147  0.5605  0.2103
 1859SOL     OW17038   3.377   1.124  12.979  0.1533 -0.4498  0.4461
 1859SOL    HW117039   3.445   1.190  12.992 -1.1989  0.9656  0.2301
 1859SOL    HW217040   3.406   1.061  12.912 -1.1837  1.5300 -1.9947
 1860SOL     OW17041   1.384   0.300   1.795  0.0162 -0.4533  0.4793
 1860SOL    HW117042   1.369   0.286   1.702  2.1299  0.2671  0.0189
 1860SOL    HW217043   1.427   0.386   1.795  0.5970 -0.7456 -0.8817
 1861SOL     OW17044   0.676   2.696  15.482  0.0959 -0.1482  0.5602
 1861SOL    HW117045   0.650   2.616  15.528 -1.4610 -1.7504 -3.0635
 1861SOL    HW217046   0.734   2.732  15.548 -1.0490 -1.1547  2.1306
 1862SOL     OW17047   0.367   3.118   0.752 -0.2907  0.2167 -0.1384
 1862SOL    HW117048   0.342   3.073   0.833 -0.3622  4.0497  1.9708
 1862SOL    HW217049   0.392   3.041   0.701 -0.2489 -0.5753  1.0499
 1863SOL     OW17050   0.504   0.162   2.768  0.2626  0.4308 -0.8048
 1863SOL    HW117051   0.520   0.172   2.861  1.8093  3.9162 -1.4294
 1863SOL    HW217052   0.487   0.254   2.746 -1.4645  0.4479  0.5952
 1864SOL     OW17053   4.341   0.079  12.579 -0.2501  0.2607 -0.2711
 1864SOL    HW117054   4.324   0.057  12.670  0.5205  2.7236  0.4739
 1864SOL    HW217055   4.364   0.172  12.585 -0.0976  0.2516 -0.6938
 1865SOL     OW17056   2.797   1.730   3.161 -0.1987 -0.2409  0.8202
 1865SOL    HW117057   2.743   1.809   3.157  1.2950  0.9175  3.0118
 1865SOL    HW217058   2.852   1.734   3.083 -0.4938  0.4886  0.6486
 1866SOL     OW17059   3.708   3.403   5.283  0.6122  0.8678  0.0580
 1866SOL    HW117060   3.751   3.408   5.198 -0.2556  1.3335 -0.3524
 1866SOL    HW217061   3.788   3.404   5.336  0.5860  1.2319  0.0950
 1867SOL     OW17062   3.252   0.582   2.568  0.5920  0.1976  0.3677
 1867SOL    HW117063   3.266   0.538   2.485 -0.6182  0.3508  0.0802
 1867SOL    HW217064   3.166   0.546   2.587  0.0810  1.4784  0.5051
 1868SOL     OW17065   2.143   0.668   3.555 -0.0158 -0.2632 -0.2383
 1868SOL    HW117066   2.090   0.653   3.477  0.0092  0.0964 -0.3199
 1868SOL    HW217067   2.230   0.666   3.514  0.8298  2.0041  1.4721
 1869SOL     OW17068   1.265   1.875   8.107 -0.3442 -0.7409  0.0058
 1869SOL    HW117069   1.321   1.807   8.070  0.2825 -2.2802  3.7644
 1869SOL    HW217070   1.257   1.863   8.201  1.6863  0.3310  0.3057
 1870SOL     OW17071   3.462   0.252  15.513 -0.5352  0.6592 -0.0137
 1870SOL    HW117072   3.418   0.293  15.439  0.3833  2.4241  0.4063
 1870SOL    HW217073   3.391   0.243  15.577  0.9430  2.1160  1.8573
 1871SOL     OW17074   3.528   0.003   8.320 -0.0721  0.4079 -0.7050
 1871SOL    HW117075   3.551   4.691   8.234 -1.3794 -2.4406  0.1239
 1871SOL    HW217076   3.468   4.656   8.346  1.9834 -0.3900  1.8239
 1872SOL     OW17077   3.564   0.918   7.957 -0.4144 -0.0697  0.4845
 1872SOL    HW117078   3.525   0.978   8.020 -0.8444 -0.2450  0.3858
 1872SOL    HW217079   3.587   0.967   7.879 -0.7115  0.2358  0.5905
 1873SOL     OW17080   1.878   2.856   0.675  0.4182  0.6591  0.9724
 1873SOL    HW117081   1.875   2.871   0.770 -1.9366  1.7263  0.7290
 1873SOL    HW217082   1.811   2.923   0.665 -0.9139 -0.8931 -0.3953
 1874SOL     OW17083   4.058   4.433   7.295  0.3376  0.0570  0.6182
 1874SOL    HW117084   3.994   4.499   7.323 -0.8005 -0.6301 -0.3631
 1874SOL    HW217085   4.015   4.388   7.223 -1.1540  0.3137  1.3541
 1875SOL     OW17086   3.607   1.490   8.754 -0.4125 -0.1597 -0.2999
 1875SOL    HW117087   3.620   1.585   8.757 -1.0967 -0.0866  0.6079
 1875SOL    HW217088   3.557   1.478   8.835 -0.5901  2.6506  0.0157
 1876SOL     OW17089   1.188   0.416  16.918 -0.0395 -0.1087 -0.5717
 1876SOL    HW117090   1.158   0.360  16.989  0.5882  0.2962  0.0113
 1876SOL    HW217091   1.171   0.502  16.956  0.4838 -0.6425  0.8708
 1877SOL     OW17092   4.153   1.690  11.622  0.2353 -0.7304  0.3772
 1877SOL    HW117093   4.193   1.774  11.602  1.9709 -0.9825  2.7396
 1877SOL    HW217094   4.061   1.717  11.623  0.6338  0.6662 -0.3846
 1878SOL     OW17095   4.085   0.949   7.589  0.5431 -0.2538 -0.2182
 1878SOL    HW117096   4.073   0.952   7.494  0.3426 -3.6455 -0.3060
 1878SOL    HW217097   4.159   0.891   7.604  0.5912  0.7190  3.2737
 1879SOL     OW17098   0.046   3.134   4.527  0.0132 -0.0407 -0.7355
 1879SOL    HW117099   0.061   3.078   4.603 -4.8889 -0.7092 -0.3120
 1879SOL    HW217100   0.094   3.217   4.538 -1.1650  0.5756 -0.2779
 1880SOL     OW17101   1.568   1.697   8.351 -0.1610  0.2230  0.2482
 1880SOL    HW117102   1.509   1.690   8.275  1.4432 -1.5072 -0.8267
 1880SOL    HW217103   1.556   1.610   8.389  1.1849  0.2187  0.6343
 1881SOL     OW17104   4.036   3.243   9.857 -0.0759  0.2222 -0.3463
 1881SOL    HW117105   3.997   3.288   9.782 -1.0842  0.3242  0.2456
 1881SOL    HW217106   4.119   3.219   9.815 -0.8423 -0.7995 -1.2772
 1882SOL     OW17107   3.210   4.698   5.758 -0.2772 -0.5209  0.2648
 1882SOL    HW117108   3.116   4.712   5.742 -0.2522 -1.5771 -0.7983
 1882SOL    HW217109   3.216   4.689   5.853 -2.1813  2.9932  0.6990
 1883SOL     OW17110   4.596   0.822   4.054  0.0345 -0.1012 -0.0481
 1883SOL    HW117111   4.595   0.808   4.149 -1.0586 -2.6993 -0.4431
 1883SOL    HW217112   4.506   0.800   4.030 -0.0108 -0.4023  0.3998
 1884SOL     OW17113   2.820   4.034  11.989 -0.0660  0.5739  0.0425
 1884SOL    HW117114   2.817   4.068  11.899 -0.2568  2.7901  0.8979
 1884SOL    HW217115   2.838   3.940  11.977 -0.1386  0.3958  1.3495
 1885SOL     OW17116   1.889   2.591   8.194  0.4816  0.1044  0.6009
 1885SOL    HW117117   1.940   2.512   8.213  2.2780  1.3721  1.0045
 1885SOL    HW217118   1.884   2.592   8.098  3.0727  3.0462  0.4946
 1886SOL     OW17119   0.836   2.141   3.051 -0.5030  0.0432 -0.1307
 1886SOL    HW117120   0.822   2.047   3.040 -1.2049  0.2356 -0.9027
 1886SOL    HW217121   0.924   2.158   3.015 -0.6343 -0.3301 -0.6345
 1887SOL     OW17122   3.991   2.714   8.912 -0.8863 -0.4808 -0.4444
 1887SOL    HW117123   3.972   2.745   8.824 -0.3949 -0.0739 -0.4100
 1887SOL    HW217124   4.040   2.791   8.942 -0.8363 -0.4842 -0.5188
 1888SOL     OW17125   1.918   1.747   6.094 -0.2933  0.7185 -0.1466
 1888SOL    HW117126   1.906   1.680   6.027  0.2841  2.2751 -1.8182
 1888SOL    HW217127   2.009   1.730   6.121 -0.2846  1.4954  0.3168
 1889SOL     OW17128   1.599   2.744   3.435  0.2899 -0.1203 -0.0432
 1889SOL    HW117129   1.667   2.739   3.368 -0.1320 -0.8730 -0.4116
 1889SOL    HW217130   1.541   2.675   3.402  0.2323 -0.9019  1.7290
 1890SOL     OW17131   2.641   3.945   9.794 -0.5327 -0.2190 -0.4465
 1890SOL    HW117132   2.550   3.940   9.765 -0.2344 -0.0234 -1.4118
 1890SOL    HW217133   2.642   4.025   9.847  0.6663  0.8874 -2.1356
 1891SOL     OW17134   2.420   4.556  17.271  0.1650  0.1786  0.2929
 1891SOL    HW117135   2.459   4.549  17.184 -0.1971 -1.8526  0.3014
 1891SOL    HW217136   2.480   4.503  17.323 -0.9008 -1.1081  0.2097
 1892SOL     OW17137   4.273   0.860   4.370 -0.2635 -0.2662 -0.5436
 1892SOL    HW117138   4.254   0.942   4.416  0.3684  0.1115 -0.9674
 1892SOL    HW217139   4.192   0.808   4.376 -0.3329 -0.0026  0.7639
 1893SOL     OW17140   3.252   1.697  11.477  0.0798 -0.2302 -0.2490
 1893SOL    HW117141   3.217   1.693  11.388  0.2440  0.9371 -0.3625
 1893SOL    HW217142   3.324   1.757  11.460 -0.1398  0.0522 -0.1928
 1894SOL     OW17143   2.546   2.071  15.006  0.1280 -0.0593  0.4346
 1894SOL    HW117144   2.601   2.121  15.066 -1.4006  0.7014  1.2235
 1894SOL    HW217145   2.615   2.046  14.944 -0.4323 -0.3842 -0.0584
 1895SOL     OW17146   2.386   0.932  14.392 -0.3166 -0.9616 -0.2684
 1895SOL    HW117147   2.456   0.867  14.396  3.6271  3.2116 -2.2397
 1895SOL    HW217148   2.389   0.959  14.300  0.9454  0.4651  0.1929
 1896SOL     OW17149   4.225   0.177   6.829  0.2076  0.5096 -0.0410
 1896SOL    HW117150   4.167   0.249   6.804 -2.2501 -1.7378 -0.8122
 1896SOL    HW217151   4.164   0.125   6.882  0.9961 -0.4394 -0.0631
 1897SOL     OW17152   3.595   2.169   4.867 -0.2511 -0.1065 -0.1368
 1897SOL    HW117153   3.586   2.250   4.919 -0.7101  0.6285 -1.3591
 1897SOL    HW217154   3.545   2.112   4.925  1.5088 -1.1027  0.3655
 1898SOL     OW17155   1.585   3.112   2.647  0.0701 -0.0119  0.1668
 1898SOL    HW117156   1.531   3.138   2.573 -1.7342  0.5751  1.6979
 1898SOL    HW217157   1.664   3.161   2.624  0.9438 -0.7811  1.5504
 1899SOL     OW17158   1.104   2.406   0.945 -0.1944 -0.4301 -0.1149
 1899SOL    HW117159   1.147   2.491   0.951 -1.4488  0.0593  1.9951
 1899SOL    HW217160   1.100   2.385   0.852  1.0912 -0.8608 -0.0682
 1900SOL     OW17161   1.225   3.683  10.599 -0.4304 -1.1659 -0.1096
 1900SOL    HW117162   1.187   3.633  10.671 -0.2520  2.7639  2.6561
 1900SOL    HW217163   1.316   3.653  10.597 -0.2386 -0.7143  2.2836
 1901SOL     OW17164   3.164   3.539   9.676  0.4429  0.8754 -0.0896
 1901SOL    HW117165   3.115   3.475   9.728  0.4451 -0.1420 -1.3264
 1901SOL    HW217166   3.097   3.593   9.635 -0.2397  0.3702  0.3602
 1902SOL     OW17167   2.765   2.996  11.059  0.6616  0.3735 -0.1156
 1902SOL    HW117168   2.794   3.024  10.972  0.0740  1.1303 -0.0674
 1902SOL    HW217169   2.735   3.079  11.097  0.0214  0.3461 -0.5562
 1903SOL     OW17170   3.227   1.930   8.970 -0.1081 -0.1275  0.2145
 1903SOL    HW117171   3.253   1.838   8.963  2.0436  0.4721  0.4081
 1903SOL    HW217172   3.133   1.916   8.981  0.0841 -0.9088  0.7909
 1904SOL     OW17173   1.862   3.864   8.619  0.2944 -0.4079 -0.3366
 1904SOL    HW117174   1.919   3.913   8.679 -1.7289  2.2944 -0.6399
 1904SOL    HW217175   1.819   3.936   8.573 -0.0878 -0.7425 -0.5019
 1905SOL     OW17176   1.404   0.288   2.905  0.0355 -0.8489 -0.3626
 1905SOL    HW117177   1.411   0.369   2.956 -1.0592  0.7408 -2.7161
 1905SOL    HW217178   1.314   0.289   2.871 -0.1260 -0.8195  0.0651
 1906SOL     OW17179   2.450   3.313   6.282  0.2222 -0.0640 -0.0375
 1906SOL    HW117180   2.526   3.279   6.234  1.3255 -0.9426  2.3200
 1906SOL    HW217181   2.380   3.288   6.221  1.3460 -0.4158 -1.1886
 1907SOL     OW17182   4.157   0.445   6.232  0.1840  0.1722 -0.5192
 1907SOL    HW117183   4.069   0.416   6.209 -0.7144  0.5398  2.4778
 1907SOL    HW217184   4.161   0.444   6.327 -1.7296  0.1525 -0.4356
 1908SOL     OW17185   3.285   3.565  13.522  0.8849 -0.3166  0.4042
 1908SOL    HW117186   3.246   3.518  13.449  2.1056  2.3931 -1.9923
 1908SOL    HW217187   3.374   3.563  13.490  0.0563 -0.0766 -1.8804
 1909SOL     OW17188   4.470   0.422   1.482  0.0065 -0.2304 -0.2224
 1909SOL    HW117189   4.512   0.357   1.424  0.0629  0.0291 -0.4697
 1909SOL    HW217190   4.481   0.507   1.440 -0.1825 -0.3104 -0.4327
 1910SOL     OW17191   2.768   2.415   2.804 -0.2733  0.3005  0.8037
 1910SOL    HW117192   2.820   2.463   2.868 -0.0996  1.1785  0.0024
 1910SOL    HW217193   2.825   2.415   2.727  0.7914  1.3976  1.6043
 1911SOL     OW17194   2.323   1.212   2.232 -0.2275  0.3540  0.6578
 1911SOL    HW117195   2.368   1.296   2.218 -0.8663  0.5816 -0.0246
 1911SOL    HW217196   2.236   1.235   2.199 -0.4556  0.7376  1.5134
 1912SOL     OW17197   3.262   4.168   6.618 -0.0802 -0.4554  0.2227
 1912SOL    HW117198   3.260   4.227   6.693  1.2490 -0.0353 -0.0845
 1912SOL    HW217199   3.351   4.135   6.604 -0.3484  0.7468 -4.2811
 1913SOL     OW17200   1.794   0.986   9.121 -0.3438 -0.5301 -0.2254
 1913SOL    HW117201   1.709   1.004   9.162  0.9034  1.7436  1.3755
 1913SOL    HW217202   1.840   0.965   9.202 -0.5456 -1.0297 -0.2404
 1914SOL     OW17203   1.268   3.851   6.838  0.1881  0.0961 -0.1799
 1914SOL    HW117204   1.197   3.840   6.902 -0.4581 -0.0236 -0.9093
 1914SOL    HW217205   1.234   3.918   6.779  0.2297 -0.8326 -1.2533
 1915SOL     OW17206   1.990   4.520   3.230 -0.4123 -0.2183  0.4330
 1915SOL    HW117207   1.896   4.508   3.240 -0.5095 -0.0198 -0.2802
 1915SOL    HW217208   2.012   4.470   3.152  0.4278  1.2122 -0.2345
 1916SOL     OW17209   4.090   3.666   6.881  0.2224  0.5856  0.1604
 1916SOL    HW117210   4.133   3.699   6.802  2.0032 -1.8106  0.1645
 1916SOL    HW217211   4.149   3.699   6.949  1.5154 -0.0983 -0.6399
 1917SOL     OW17212   1.124   4.503  10.428 -0.3740 -0.4168 -0.2797
 1917SOL    HW117213   1.106   4.571  10.363 -1.0770 -1.1681 -0.8743
 1917SOL    HW217214   1.071   4.538  10.500  0.0456  0.5651 -0.4472
 1918SOL     OW17215   3.914   4.355   9.688 -0.2782 -0.9086 -0.6010
 1918SOL    HW117216   3.984   4.318   9.633  1.4739  1.8478 -0.2380
 1918SOL    HW217217   3.927   4.448   9.672 -2.2915 -0.9645 -2.5291
 1919SOL     OW17218   1.879   1.504  15.005  0.2961 -0.5457 -0.4924
 1919SOL    HW117219   1.918   1.492  14.919 -2.0994 -2.3676 -1.3240
 1919SOL    HW217220   1.792   1.475  14.979 -0.1482 -0.4917  0.9073
 1920SOL     OW17221   4.245   4.673   0.139 -0.2474 -0.0281  0.2852
 1920SOL    HW117222   4.242   4.605   0.207 -0.4474  0.0406  0.3467
 1920SOL    HW217223   4.159   4.663   0.099 -0.3882  0.9022  0.3546
 1921SOL     OW17224   3.581   3.090   8.057  0.7125 -0.4902  0.0550
 1921SOL    HW117225   3.619   3.140   8.129  1.2933  0.3104 -0.8080
 1921SOL    HW217226   3.493   3.069   8.087  0.1551 -0.2308 -1.3913
 1922SOL     OW17227   2.361   4.616  14.354 -0.2438  0.0343 -0.1696
 1922SOL    HW117228   2.445   4.648  14.388 -0.2305  0.3325 -0.4816
 1922SOL    HW217229   2.362   4.655  14.266  0.2981 -2.9748 -1.4852
 1923SOL     OW17230   2.881   0.869   8.575 -0.4929 -0.2645 -0.1132
 1923SOL    HW117231   2.797   0.890   8.614 -0.1353  0.8296  0.0653
 1923SOL    HW217232   2.858   0.853   8.483  2.3784  3.7171 -1.5090
 1924SOL     OW17233   4.583   3.299  13.146  0.7322  0.1827 -0.2094
 1924SOL    HW117234   4.500   3.333  13.180  1.9912  1.4311  1.6665
 1924SOL    HW217235   4.560   3.207  13.133  1.8336 -0.0914 -0.2802
 1925SOL     OW17236   2.556   3.798  14.245 -0.8546  0.5687 -0.2804
 1925SOL    HW117237   2.542   3.774  14.154  0.4351 -1.0921 -0.0439
 1925SOL    HW217238   2.476   3.848  14.262 -1.0531 -0.2403  1.1141
 1926SOL     OW17239   2.778   4.520   3.662 -0.0906  0.4737 -0.0909
 1926SOL    HW117240   2.721   4.587   3.624 -1.2666 -0.1018  0.6618
 1926SOL    HW217241   2.741   4.455   3.603  0.3152 -0.3413  0.5658
 1927SOL     OW17242   2.775   1.236   6.778  0.3285 -0.5969 -0.1077
 1927SOL    HW117243   2.871   1.235   6.783  0.2796 -0.6773  0.8250
 1927SOL    HW217244   2.745   1.152   6.814  0.9204 -0.3312  1.0200
 1928SOL     OW17245   1.966   3.845  14.847  0.3611 -0.6813  0.3109
 1928SOL    HW117246   2.026   3.808  14.782  0.8001  0.2075  0.2107
 1928SOL    HW217247   2.029   3.902  14.890 -0.8015  0.2597  0.7415
 1929SOL     OW17248   0.875   4.354   6.513  0.5490 -0.0114  0.0992
 1929SOL    HW117249   0.970   4.364   6.500  0.3270 -0.9511 -2.2275
 1929SOL    HW217250   0.875   4.327   6.605 -0.2413 -0.4127 -0.0198
 1930SOL     OW17251   1.405   1.609   0.345 -0.8647  0.5206 -0.5335
 1930SOL    HW117252   1.379   1.701   0.353  0.0532  0.7734 -0.4459
 1930SOL    HW217253   1.463   1.603   0.421 -2.1047 -1.3985  0.2722
 1931SOL     OW17254   1.871   4.411   7.417 -0.1893  0.4349 -0.3576
 1931SOL    HW117255   1.852   4.396   7.324 -1.9244  1.1633 -0.1236
 1931SOL    HW217256   1.862   4.326   7.460 -0.1280  1.0943  0.9536
 1932SOL     OW17257   3.848   1.266   7.593 -0.2134 -0.1429  0.3399
 1932SOL    HW117258   3.817   1.206   7.661 -2.6526  2.1469  1.2501
 1932SOL    HW217259   3.867   1.194   7.533  0.2535  1.0550 -0.9404
 1933SOL     OW17260   2.644   4.078   1.935 -0.6633 -0.3612  0.3995
 1933SOL    HW117261   2.684   4.164   1.948  1.4312 -1.3456  0.4387
 1933SOL    HW217262   2.725   4.031   1.915  0.5696  2.0362 -0.2160
 1934SOL     OW17263   3.199   0.982   5.821  0.0187  0.1729  0.4190
 1934SOL    HW117264   3.154   0.899   5.838 -0.2504 -0.2034 -2.1400
 1934SOL    HW217265   3.145   1.038   5.877 -1.1616 -0.3618 -0.1824
 1935SOL     OW17266   3.641   1.806   8.447 -0.7379 -0.9824  0.0661
 1935SOL    HW117267   3.662   1.897   8.469  1.1161 -1.1532 -0.9787
 1935SOL    HW217268   3.670   1.808   8.356 -1.0910  1.6178  0.0061
 1936SOL     OW17269   2.261   3.724   6.693 -0.0396 -0.2134 -0.2459
 1936SOL    HW117270   2.353   3.723   6.722  0.1614  2.8687 -0.7657
 1936SOL    HW217271   2.223   3.782   6.759 -1.4393 -0.8057 -0.5504
 1937SOL     OW17272   1.394   3.187   3.691  0.0990 -0.3385  0.2222
 1937SOL    HW117273   1.398   3.258   3.627  1.1662 -0.5432  0.0537
 1937SOL    HW217274   1.477   3.145   3.668  0.8337  0.4503  1.4457
 1938SOL     OW17275   1.897   4.655   5.427 -0.1699 -0.5496  0.1027
 1938SOL    HW117276   1.940   4.577   5.392  1.5733  0.3947  0.1438
 1938SOL    HW217277   1.956   4.722   5.393 -1.0682  2.2259  3.9941
 1939SOL     OW17278   3.436   1.632   3.840  0.3841 -0.0534  0.2265
 1939SOL    HW117279   3.453   1.618   3.747  0.9528 -0.6299  0.4210
 1939SOL    HW217280   3.456   1.542   3.866  1.1412  0.5503  1.7321
 1940SOL     OW17281   2.878   0.505   6.178  0.3484  0.0911 -0.2668
 1940SOL    HW117282   2.883   0.595   6.145  3.2222 -0.5927 -1.7701
 1940SOL    HW217283   2.884   0.519   6.272  0.7839  1.3711 -0.4734
 1941SOL     OW17284   1.452   1.896   6.090 -0.1351  0.0994 -0.0109
 1941SOL    HW117285   1.531   1.927   6.046  0.4669 -0.0814  0.9324
 1941SOL    HW217286   1.424   1.830   6.027  0.2484  0.7118 -0.8268
 1942SOL     OW17287   3.485   1.114   3.631  0.1145 -0.2338 -1.1262
 1942SOL    HW117288   3.518   1.024   3.633  1.6088  0.3255 -0.5086
 1942SOL    HW217289   3.467   1.127   3.725  0.4091  2.3155 -1.4268
 1943SOL     OW17290   2.065   2.757   3.203  0.2436  0.5204 -0.0712
 1943SOL    HW117291   2.100   2.746   3.114  0.9704  0.5809  0.2043
 1943SOL    HW217292   2.066   2.852   3.192  0.4436  0.2409 -2.5736
 1944SOL     OW17293   2.489   2.482   5.750 -0.0728  0.7179 -0.0085
 1944SOL    HW117294   2.394   2.468   5.747 -0.3098  2.3236 -0.2780
 1944SOL    HW217295   2.512   2.389   5.747  0.3386  0.8037  0.5863
 1945SOL     OW17296   2.272   4.235  11.766 -0.1791 -0.4286  0.4855
 1945SOL    HW117297   2.334   4.219  11.695 -0.1682  1.2489  0.1011
 1945SOL    HW217298   2.194   4.202  11.722  0.6341 -0.6811 -0.7719
 1946SOL     OW17299   0.098   0.266   0.878 -0.0041  0.1800  0.2247
 1946SOL    HW117300   0.153   0.290   0.804  1.0144 -1.0792  0.5730
 1946SOL    HW217301   0.159   0.248   0.950  1.0528  0.1080 -0.6783
 1947SOL     OW17302   2.803   3.226  11.815  0.3905  0.0936 -0.0262
 1947SOL    HW117303   2.745   3.206  11.742 -1.2708  1.4310  0.9373
 1947SOL    HW217304   2.769   3.163  11.879  1.4184 -0.1455  0.2903
 1948SOL     OW17305   1.900   4.391   1.103 -0.2059 -0.4470 -0.2965
 1948SOL    HW117306   1.864   4.319   1.051  0.7095  0.2435 -1.8884
 1948SOL    HW217307   1.879   4.469   1.052 -0.9614 -0.5454 -0.1376
 1949SOL     OW17308   4.600   1.170  10.734 -0.1011 -0.4405 -0.1467
 1949SOL    HW117309   4.590   1.076  10.724 -1.2667 -0.3853  0.4362
 1949SOL    HW217310   4.618   1.171  10.828  1.4501  2.5942 -0.4837
 1950SOL     OW17311   1.505   3.658   2.145  0.2927  0.8322  0.0814
 1950SOL    HW117312   1.563   3.584   2.164 -0.2943 -0.1581 -2.0646
 1950SOL    HW217313   1.469   3.675   2.232 -0.2757 -1.3567  0.2606
 1951SOL     OW17314   4.705   2.444   1.754  0.0501  0.0354  0.0192
 1951SOL    HW117315   0.066   2.479   1.724  0.9750 -1.5241  0.8215
 1951SOL    HW217316   4.694   2.375   1.688  1.7410 -0.4418  0.2400
 1952SOL     OW17317   1.674   2.737   6.178 -0.0280  0.1087  0.8421
 1952SOL    HW117318   1.702   2.808   6.121 -0.5658 -0.3017  0.0531
 1952SOL    HW217319   1.582   2.758   6.162 -0.1338 -0.5693  0.5122
 1953SOL     OW17320   0.982   3.701  12.510  0.4925 -0.4356 -0.3948
 1953SOL    HW117321   1.072   3.731  12.521  0.9090 -2.1483  0.9847
 1953SOL    HW217322   0.938   3.775  12.552  1.0396 -0.3389  0.0073
 1954SOL     OW17323   1.644   3.126   9.252 -0.0211  0.2515 -0.3530
 1954SOL    HW117324   1.655   3.156   9.162  0.2471  0.2562 -0.3183
 1954SOL    HW217325   1.587   3.049   9.244  1.8655 -0.8431 -3.3205
 1955SOL     OW17326   1.978   1.085  10.419 -0.6034  0.0839  0.0198
 1955SOL    HW117327   1.936   1.152  10.474  2.6730  1.5088  0.7914
 1955SOL    HW217328   2.012   1.021  10.482  1.0386  0.9645  0.0170
 1956SOL     OW17329   2.352   2.713  14.131  0.4155 -0.2187 -0.0713
 1956SOL    HW117330   2.294   2.654  14.084  0.8855 -0.8771  0.1756
 1956SOL    HW217331   2.434   2.668  14.113 -0.5351 -0.6811 -3.1940
 1957SOL     OW17332   0.151   0.833   8.753  0.7256 -0.3750 -0.2104
 1957SOL    HW117333   0.104   0.870   8.827  0.9369 -1.0547  0.2543
 1957SOL    HW217334   0.230   0.887   8.750  0.0950  0.5430 -0.3232
 1958SOL     OW17335   2.699   2.347   2.279  0.0100 -0.2843  0.3597
 1958SOL    HW117336   2.635   2.332   2.210 -2.3085 -0.8833  2.6717
 1958SOL    HW217337   2.701   2.443   2.276 -1.5659 -0.2520  0.3563
 1959SOL     OW17338   0.640   3.969   9.786 -0.5371 -0.2060  0.2530
 1959SOL    HW117339   0.686   3.948   9.868 -0.5431 -0.5377  0.1691
 1959SOL    HW217340   0.556   3.992   9.826  0.1398  3.0349 -0.1484
 1960SOL     OW17341   2.890   3.345   5.627  0.0692 -0.6566 -0.2945
 1960SOL    HW117342   2.888   3.431   5.584  0.5709  0.3191  1.6421
 1960SOL    HW217343   2.983   3.323   5.632 -0.0727 -1.0331  0.6482
 1961SOL     OW17344   2.281   3.439   4.117  0.1601  0.6138 -0.4234
 1961SOL    HW117345   2.354   3.490   4.083  0.2991  0.1317 -0.8490
 1961SOL    HW217346   2.322   3.393   4.191  0.9447  2.5979  0.3681
 1962SOL     OW17347   0.453   2.555  15.278  0.3820 -0.5623  0.3839
 1962SOL    HW117348   0.402   2.508  15.212  1.8454  1.4516 -2.1807
 1962SOL    HW217349   0.414   2.505  15.350  0.1970 -1.3374 -0.2606
 1963SOL     OW17350   1.798   3.405   8.027  0.1057  0.1197 -0.0441
 1963SOL    HW117351   1.809   3.500   8.031 -1.2371  0.2787  0.0629
 1963SOL    HW217352   1.741   3.408   8.103  0.5738 -0.2727  0.3212
 1964SOL     OW17353   4.315   1.819   7.995 -0.3890 -0.4526 -0.0536
 1964SOL    HW117354   4.323   1.733   8.035  2.2416  0.5570  1.5514
 1964SOL    HW217355   4.393   1.832   7.942 -1.1433 -0.7494 -1.2398
 1965SOL     OW17356   0.887   1.716  16.035  0.1918 -0.0368 -0.1766
 1965SOL    HW117357   0.970   1.670  16.021 -0.4555 -0.8218 -1.4115
 1965SOL    HW217358   0.895   1.811  16.025 -0.2315  0.2864  2.5253
 1966SOL     OW17359   4.156   0.098   7.259  0.1634 -0.2150 -0.4293
 1966SOL    HW117360   4.134   0.178   7.211  0.1372  2.2864  3.7270
 1966SOL    HW217361   4.231   0.125   7.313  0.4941 -0.2900 -0.8535
 1967SOL     OW17362   1.094   1.436   1.620  0.4080 -0.4121 -0.1781
 1967SOL    HW117363   1.070   1.479   1.538  1.3105 -3.2241 -1.8796
 1967SOL    HW217364   1.150   1.375   1.572 -0.7342 -1.9049  0.3760
 1968SOL     OW17365   2.621   0.289  12.447 -0.1197 -1.1368  0.1301
 1968SOL    HW117366   2.628   0.206  12.494  0.2714 -2.0679 -1.5585
 1968SOL    HW217367   2.712   0.321  12.446  0.4221 -2.7064 -1.1849
 1969SOL     OW17368   2.470   3.010   8.349 -0.3544  0.0442 -0.4231
 1969SOL    HW117369   2.434   2.955   8.279  0.4267  0.4912 -1.1704
 1969SOL    HW217370   2.424   2.993   8.431 -0.4661 -3.4757 -1.2313
 1970SOL     OW17371   3.467   2.095  13.294 -0.3082 -0.1208  0.2018
 1970SOL    HW117372   3.420   2.029  13.242 -1.3401 -0.1806  1.2218
 1970SOL    HW217373   3.523   2.046  13.354  0.0673  0.4508  0.3093
 1971SOL     OW17374   1.520   2.626   6.472  0.1426  0.7062  0.0992
 1971SOL    HW117375   1.494   2.635   6.563  0.1808  0.6959  0.1109
 1971SOL    HW217376   1.608   2.589   6.478 -0.1825  0.1750  1.6523
 1972SOL     OW17377   1.879   3.671  17.641 -0.3083 -0.3690  0.4816
 1972SOL    HW117378   1.897   3.752  17.594  2.1408  1.0282  3.8353
 1972SOL    HW217379   1.829   3.628  17.572  0.6649  0.4506 -0.7425
 1973SOL     OW17380   1.925   1.346   2.767  0.2702  0.0603  0.0900
 1973SOL    HW117381   1.850   1.384   2.813  0.5908  0.2948  0.4226
 1973SOL    HW217382   1.921   1.262   2.812 -2.4402  1.3857  2.3697
 1974SOL     OW17383   0.268   1.244   6.951  0.0922  0.3350  0.1161
 1974SOL    HW117384   0.258   1.231   7.046 -1.2658  2.0924  0.2016
 1974SOL    HW217385   0.232   1.163   6.917  1.8506  0.9057 -3.0583
 1975SOL     OW17386   1.134   4.253   5.943  0.3115 -0.0470  0.9448
 1975SOL    HW117387   1.161   4.197   6.015  0.6799 -1.4897 -0.3193
 1975SOL    HW217388   1.190   4.330   5.951  0.3186  0.2733 -2.1313
 1976SOL     OW17389   0.947   3.433   1.658  0.4181  0.7146  0.0331
 1976SOL    HW117390   0.936   3.354   1.604 -1.3338  2.4580 -2.1857
 1976SOL    HW217391   1.031   3.471   1.633  1.3714  0.0073  2.1874
 1977SOL     OW17392   3.424   3.719   8.760  0.2331  0.3490 -0.3757
 1977SOL    HW117393   3.383   3.721   8.847 -0.4570  0.4200 -0.6973
 1977SOL    HW217394   3.479   3.796   8.754  0.3913  0.1516 -1.4488
 1978SOL     OW17395   3.271   3.072   0.371  0.2386 -0.0019 -0.2024
 1978SOL    HW117396   3.311   3.084   0.285  1.8861 -1.3673  0.3630
 1978SOL    HW217397   3.272   2.978   0.392  0.9608  0.0453 -0.0233
 1979SOL     OW17398   2.827   2.725   0.767  0.2860 -0.7020  0.4041
 1979SOL    HW117399   2.904   2.710   0.822  1.8570 -0.7883 -1.8303
 1979SOL    HW217400   2.822   2.632   0.745  1.1651 -0.2110 -1.9011
 1980SOL     OW17401   1.439   0.787  11.560 -0.1946 -0.0366 -0.4021
 1980SOL    HW117402   1.364   0.813  11.612  0.3899  0.0247  0.4005
 1980SOL    HW217403   1.458   0.871  11.519  0.8041  0.0181  0.1652
 1981SOL     OW17404   4.146   4.205   4.694  0.7046 -0.2177 -0.0072
 1981SOL    HW117405   4.176   4.155   4.769 -0.6655  0.6709  1.1204
 1981SOL    HW217406   4.203   4.169   4.626  0.2875  1.8498 -1.4692
 1982SOL     OW17407   3.933   2.370   3.350  0.1753 -0.6393 -0.1584
 1982SOL    HW117408   4.005   2.363   3.412  0.1428 -2.7427 -0.3447
 1982SOL    HW217409   3.940   2.459   3.318  1.0171 -0.4109  0.6794
 1983SOL     OW17410   4.189   0.557   7.018  0.0919  0.3208 -0.2357
 1983SOL    HW117411   4.164   0.514   6.936  0.8057 -1.0667  0.2719
 1983SOL    HW217412   4.135   0.636   7.013 -0.7664 -0.2566 -0.1710
 1984SOL     OW17413   1.838   1.959  10.375 -0.2921 -0.1010  0.0022
 1984SOL    HW117414   1.817   1.888  10.435  1.2128 -0.6690 -0.1347
 1984SOL    HW217415   1.907   1.913  10.326  1.2501  2.2504 -0.0211
 1985SOL     OW17416   2.288   3.053   4.293 -0.0528  0.0475 -0.8628
 1985SOL    HW117417   2.340   2.994   4.239  0.5511 -0.3479  0.1420
 1985SOL    HW217418   2.268   2.999   4.369 -1.9833  2.2514  0.2075
 1986SOL     OW17419   0.307   0.850   0.126  0.0900 -0.0430  0.2173
 1986SOL    HW117420   0.332   0.840   0.034  3.0812  2.6631  0.7098
 1986SOL    HW217421   0.253   0.929   0.118 -1.2641 -1.0094 -0.0747
 1987SOL     OW17422   1.353   2.855   4.103  0.4094 -0.7585  0.5863
 1987SOL    HW117423   1.323   2.764   4.099  2.1546 -1.2464 -1.7062
 1987SOL    HW217424   1.409   2.865   4.026  0.8185 -1.4264  0.7989
 1988SOL     OW17425   1.662   4.247  10.715 -0.2307 -0.2046 -0.2641
 1988SOL    HW117426   1.589   4.304  10.692  0.6230  0.9294 -0.1594
 1988SOL    HW217427   1.646   4.163  10.673  2.8433  0.2549 -2.4028
 1989SOL     OW17428   0.544   3.987   4.385 -0.2241 -0.6300 -0.0562
 1989SOL    HW117429   0.595   3.963   4.463 -1.7188  0.4181  1.2328
 1989SOL    HW217430   0.462   4.023   4.418  0.8117 -0.2417  2.1475
 1990SOL     OW17431   3.407   0.906   4.831 -0.1818 -0.7869 -0.0835
 1990SOL    HW117432   3.444   0.820   4.814 -1.3012 -0.8695 -2.1005
 1990SOL    HW217433   3.323   0.878   4.793 -1.1347  2.4554 -0.4183
 1991SOL     OW17434   1.570   1.394  11.086  0.4982  0.1995 -0.1403
 1991SOL    HW117435   1.532   1.475  11.119  1.0461  0.3701  0.0724
 1991SOL    HW217436   1.572   1.407  10.991  2.4695 -1.9680 -0.3967
 1992SOL     OW17437   2.799   0.396   1.831 -0.2668  0.0691 -0.2949
 1992SOL    HW117438   2.713   0.359   1.813  0.8148 -2.2287 -0.6948
 1992SOL    HW217439   2.778   0.468   1.892 -0.6963  0.3663 -0.7927
 1993SOL     OW17440   2.401   2.130   4.914  0.7337  0.2601  0.4931
 1993SOL    HW117441   2.470   2.183   4.954  0.0253  1.5903 -0.0476
 1993SOL    HW217442   2.336   2.125   4.984  0.6812  0.6812  0.4742
 1994SOL     OW17443   3.408   3.485  10.018 -0.0664  0.2736  0.1765
 1994SOL    HW117444   3.333   3.505  10.073 -1.6451  0.3072 -1.9758
 1994SOL    HW217445   3.364   3.435   9.949  2.0094 -1.7239  0.2891
 1995SOL     OW17446   3.060   2.101  13.294 -0.0611  0.3290 -0.6849
 1995SOL    HW117447   3.114   2.180  13.307  2.5877 -1.4566 -0.8433
 1995SOL    HW217448   3.109   2.042  13.352 -0.5142  1.4847  0.8718
 1996SOL     OW17449   3.617   0.992  11.500 -0.4839 -0.3187  0.0329
 1996SOL    HW117450   3.651   0.935  11.432  0.6802  0.3889  0.0208
 1996SOL    HW217451   3.616   0.920  11.563  0.0879  0.6074  1.1139
 1997SOL     OW17452   0.867   3.345   4.438 -0.1776 -0.5287  0.4541
 1997SOL    HW117453   0.834   3.255   4.434 -0.7574 -0.2691 -0.6207
 1997SOL    HW217454   0.933   3.338   4.506 -2.6599  0.1356  2.9082
 1998SOL     OW17455   0.440   2.177   1.814  0.0945  0.0555  0.3726
 1998SOL    HW117456   0.428   2.272   1.815 -1.3873 -0.1492  1.4551
 1998SOL    HW217457   0.424   2.143   1.902 -0.4245  0.4637  0.4390
 1999SOL     OW17458   2.431   1.128   7.907 -0.3779 -0.4833 -0.7562
 1999SOL    HW117459   2.507   1.166   7.951 -1.9426  0.9298  0.7042
 1999SOL    HW217460   2.470   1.075   7.837 -3.5779 -2.3265 -1.1593
 2000SOL     OW17461   4.236   1.436  16.377  0.1437  0.0711 -0.4505
 2000SOL    HW117462   4.210   1.511  16.431  2.3088 -0.2189  0.9996
 2000SOL    HW217463   4.324   1.462  16.348  0.4240  1.0484  1.2734
 2001SOL     OW17464   1.199   2.256   9.017  0.3640  0.2202 -0.1914
 2001SOL    HW117465   1.204   2.181   9.076 -1.3893  0.0190 -0.3196
 2001SOL    HW217466   1.267   2.313   9.052  1.3027 -0.6470 -0.5674
 2002SOL     OW17467   0.771   2.542  12.500  0.5312 -0.2338 -0.2803
 2002SOL    HW117468   0.860   2.574  12.481  0.7390 -0.3649  0.4816
 2002SOL    HW217469   0.735   2.560  12.413  1.0593 -0.9174 -0.6491
 2003SOL     OW17470   4.242   2.287  17.095 -0.3971  0.4010 -0.0514
 2003SOL    HW117471   4.269   2.301  17.005 -0.8751 -0.0712 -0.2715
 2003SOL    HW217472   4.169   2.227  17.078 -0.9530  0.2034  3.0544
 2004SOL     OW17473   4.271   4.694  16.618  0.5660  0.2314  0.2779
 2004SOL    HW117474   4.275   0.060  16.582 -0.7247  0.6660  1.2049
 2004SOL    HW217475   4.310   4.654  16.541  0.3436  1.8670 -0.6931
 2005SOL     OW17476   3.275   2.979   3.486 -0.3958 -0.0898  0.1401
 2005SOL    HW117477   3.327   2.900   3.478  0.7130  0.3839  2.9143
 2005SOL    HW217478   3.312   3.040   3.422  2.1769 -1.1756  0.6044
 2006SOL     OW17479   2.643   3.504  11.000 -0.2628 -0.5079  0.1781
 2006SOL    HW117480   2.569   3.493  11.060  0.0586 -1.1381  0.4687
 2006SOL    HW217481   2.601   3.502  10.915  1.7459 -2.6708 -0.7806
 2007SOL     OW17482   2.322   0.331   1.781  0.4955 -0.2185  0.4424
 2007SOL    HW117483   2.248   0.270   1.776  0.9548 -0.6256 -1.4200
 2007SOL    HW217484   2.304   0.396   1.714 -0.2772 -1.7262 -0.8277
 2008SOL     OW17485   0.198   3.673   3.071  0.1164  0.1186 -0.0484
 2008SOL    HW117486   0.130   3.729   3.034  0.1768  1.0467  1.2509
 2008SOL    HW217487   0.288   3.696   3.045  0.2030 -0.1460  0.0134
 2009SOL     OW17488   3.731   2.736   6.599 -0.1064 -0.4034  0.1734
 2009SOL    HW117489   3.800   2.800   6.581 -1.7010  1.3294  0.1635
 2009SOL    HW217490   3.753   2.694   6.682  0.4242  0.8422  0.6712
 2010SOL     OW17491   3.546   4.192  12.030 -0.3646 -0.0572 -1.0893
 2010SOL    HW117492   3.590   4.108  12.041 -0.7248 -0.2047 -0.7559
 2010SOL    HW217493   3.609   4.253  11.992  0.6770 -0.8375 -0.6230
 2011SOL     OW17494   2.529   0.377  14.049 -0.5060  0.3429 -0.1504
 2011SOL    HW117495   2.528   0.472  14.054 -2.5446  0.2705  0.8530
 2011SOL    HW217496   2.542   0.352  13.957 -0.0485  3.1917 -0.8448
 2012SOL     OW17497   1.040   4.069  13.809 -0.4939  0.1263 -0.4441
 2012SOL    HW117498   0.963   4.056  13.865  1.0928 -0.9380  1.4767
 2012SOL    HW217499   1.017   4.010  13.737  0.1105  1.2227 -1.5355
 2013SOL     OW17500   3.471   0.006  15.829 -0.6675  0.0588  0.0710
 2013SOL    HW117501   3.397   4.670  15.820 -0.0195 -0.6247 -0.8344
 2013SOL    HW217502   3.546   4.670  15.842 -0.6607  0.3092  1.1483
 2014SOL     OW17503   3.872   2.914  16.992 -0.4432  0.5418 -0.1804
 2014SOL    HW117504   3.906   2.895  17.079 -2.9482 -0.1803  0.6381
 2014SOL    HW217505   3.820   2.840  16.961  0.5640 -0.3855  0.3227
 2015SOL     OW17506   2.326   2.037  13.097  0.4462 -0.1218  0.4955
 2015SOL    HW117507   2.393   2.030  13.164  1.2102 -0.8019 -0.3367
 2015SOL    HW217508   2.376   2.061  13.019 -0.7671  1.1846  0.1214
 2016SOL     OW17509   4.158   0.455   2.147  0.4457  0.3167  0.1216
 2016SOL    HW117510   4.224   0.389   2.169  2.9869  3.2621  1.3812
 2016SOL    HW217511   4.150   0.429   2.056 -0.2055 -1.3252  0.6422
 2017SOL     OW17512   1.540   1.197   3.862 -0.1591  0.7464  0.6827
 2017SOL    HW117513   1.504   1.193   3.951  0.4101  0.3156  0.9004
 2017SOL    HW217514   1.541   1.287   3.830 -0.5315  1.0421  1.4997
 2018SOL     OW17515   3.041   3.196   3.505 -0.1081  0.1558 -0.0145
 2018SOL    HW117516   3.119   3.235   3.545 -0.7581  1.2934  0.1382
 2018SOL    HW217517   3.003   3.277   3.471  2.2342  2.0989  1.9587
 2019SOL     OW17518   2.368   1.122  16.169  0.3351  0.0121 -0.8220
 2019SOL    HW117519   2.456   1.159  16.159  1.0975 -2.0321 -1.6735
 2019SOL    HW217520   2.344   1.140  16.078 -0.3007 -2.0525 -1.0604
 2020SOL     OW17521   2.918   0.904  15.350 -0.0713 -0.0732 -0.0497
 2020SOL    HW117522   2.831   0.930  15.321  1.1882  2.8282 -1.2706
 2020SOL    HW217523   2.929   0.950  15.434 -2.4963  0.8814 -0.2547
 2021SOL     OW17524   2.941   0.461   2.123  0.0005 -0.8648 -0.4785
 2021SOL    HW117525   2.980   0.392   2.177 -0.0979  1.7132  2.8423
 2021SOL    HW217526   2.853   0.425   2.117 -1.5420  3.3345 -2.6977
 2022SOL     OW17527   4.104   0.642  13.983 -0.3249 -0.5338  0.0950
 2022SOL    HW117528   4.126   0.720  14.034  1.9231 -0.2008 -1.3787
 2022SOL    HW217529   4.016   0.664  13.953 -0.0544 -2.5504 -2.1992
 2023SOL     OW17530   0.940   4.668  15.834  0.0928  0.5686 -0.2854
 2023SOL    HW117531   0.850   4.650  15.808  0.2381  0.0696 -0.4486
 2023SOL    HW217532   0.932   4.657  15.929 -0.6657  1.3210 -0.2650
 2024SOL     OW17533   4.006   4.440   0.994  0.7500 -0.3285 -0.4236
 2024SOL    HW117534   4.098   4.462   1.002  0.8485  0.0316 -2.6004
 2024SOL    HW217535   3.971   4.510   1.050  3.0231 -1.3831  2.2896
 2025SOL     OW17536   2.914   3.672   1.483 -0.3063  0.0021  0.0170
 2025SOL    HW117537   2.921   3.642   1.573  1.3821  2.9370  0.8387
 2025SOL    HW217538   2.915   3.766   1.502  1.0808 -0.5228  2.4763
 2026SOL     OW17539   1.382   2.919   3.376 -0.7190 -0.1622  0.5163
 2026SOL    HW117540   1.464   2.870   3.383 -1.0596 -0.8376 -0.2950
 2026SOL    HW217541   1.418   3.008   3.380 -1.7393  0.2981 -0.4881
 2027SOL     OW17542   2.631   1.485   3.727 -0.4218  0.5171 -0.2161
 2027SOL    HW117543   2.625   1.393   3.751 -0.7653  0.4188 -0.6636
 2027SOL    HW217544   2.718   1.478   3.687  0.3861  0.1570  1.6293
 2028SOL     OW17545   1.227   3.871   3.425 -0.5157 -0.2122  0.0360
 2028SOL    HW117546   1.267   3.943   3.378 -1.0376  1.1885  1.7300
 2028SOL    HW217547   1.243   3.792   3.374 -1.7187 -1.7667  2.0488
 2029SOL     OW17548   1.267   2.138   2.458 -0.2732  0.3598  0.2384
 2029SOL    HW117549   1.248   2.219   2.412 -0.5552  0.5680  0.7171
 2029SOL    HW217550   1.181   2.107   2.485  0.1139 -0.0611  1.0057
 2030SOL     OW17551   1.963   2.693  10.661 -0.0044  0.0970 -0.1664
 2030SOL    HW117552   2.056   2.713  10.674  0.1174  1.5305 -3.1922
 2030SOL    HW217553   1.919   2.772  10.630  1.5969  0.7222 -0.8656
 2031SOL     OW17554   1.904   1.761   8.289 -0.2351  0.0592  0.2083
 2031SOL    HW117555   1.836   1.818   8.324 -0.9713 -1.3383  1.0438
 2031SOL    HW217556   1.986   1.799   8.320  0.8615 -1.0759 -1.2935
 2032SOL     OW17557   1.387   3.702  12.388 -0.3984  0.7128 -0.0040
 2032SOL    HW117558   1.321   3.718  12.456 -1.8879  0.4210 -1.3835
 2032SOL    HW217559   1.351   3.635  12.330 -0.2430 -0.0455  0.7740
 2033SOL     OW17560   0.283   2.752   4.952 -0.2030 -0.2264 -0.1973
 2033SOL    HW117561   0.250   2.679   4.899 -1.8328  1.6115 -1.7227
 2033SOL    HW217562   0.373   2.723   4.967  0.1220  2.3905  2.8343
 2034SOL     OW17563   3.431   1.996   6.466 -0.2217 -0.1464  0.9146
 2034SOL    HW117564   3.421   2.069   6.527  0.0346 -0.6981  1.6062
 2034SOL    HW217565   3.340   1.989   6.438  0.2365  0.0364 -0.6214
 2035SOL     OW17566   2.563   1.634   8.230 -0.0814  0.0863 -0.1419
 2035SOL    HW117567   2.652   1.629   8.266 -0.6800  0.5696  1.4073
 2035SOL    HW217568   2.514   1.656   8.309  0.5832 -1.8637  0.8063
 2036SOL     OW17569   0.745   3.391   2.905  0.0521 -0.0391 -0.1349
 2036SOL    HW117570   0.733   3.297   2.892 -1.6930  0.3106 -1.0085
 2036SOL    HW217571   0.791   3.386   2.989  1.3483 -2.1330 -0.9585
 2037SOL     OW17572   4.145   3.495   4.471  0.6699 -0.4352 -0.4390
 2037SOL    HW117573   4.121   3.477   4.380 -0.6617  0.9121 -0.3684
 2037SOL    HW217574   4.092   3.434   4.523 -0.3060  1.3320  0.6327
 2038SOL     OW17575   0.784   3.797   9.614 -0.0422  0.3797  0.2373
 2038SOL    HW117576   0.866   3.846   9.606 -0.5019  1.1636  0.2803
 2038SOL    HW217577   0.736   3.854   9.674  1.2104  0.6231  0.9898
 2039SOL     OW17578   3.578   0.053  12.473 -0.2046 -0.2171  0.2847
 2039SOL    HW117579   3.516   4.714  12.435  0.5986 -1.9019  1.7646
 2039SOL    HW217580   3.526   0.119  12.519 -1.0337 -0.9994  0.4483
 2040SOL     OW17581   4.420   2.813   3.296  0.0989 -0.1710 -0.3461
 2040SOL    HW117582   4.433   2.825   3.202 -0.2521 -1.9547 -0.6409
 2040SOL    HW217583   4.353   2.745   3.287  0.0281 -0.2882  1.0769
 2041SOL     OW17584   3.209   0.745   3.737  0.0630 -0.2161  0.2392
 2041SOL    HW117585   3.241   0.697   3.661  1.2068  1.0241 -0.0541
 2041SOL    HW217586   3.278   0.718   3.798  1.2023  1.1358 -0.4733
 2042SOL     OW17587   3.876   0.792  12.005  0.0531 -0.2953  0.7541
 2042SOL    HW117588   3.909   0.881  12.014 -2.7616  0.6902  1.3247
 2042SOL    HW217589   3.899   0.767  12.095  1.3170 -0.9024  0.2536
 2043SOL     OW17590   2.945   4.440   0.375  0.1466 -0.1436  0.3282
 2043SOL    HW117591   2.947   4.388   0.455  1.4463 -1.0801 -0.3020
 2043SOL    HW217592   2.934   4.372   0.309  0.3671  1.7297 -1.6417
 2044SOL     OW17593   4.118   2.085  16.962  0.5490  0.0419 -0.2803
 2044SOL    HW117594   4.027   2.060  16.951  0.4561  1.0784 -1.8281
 2044SOL    HW217595   4.164   2.002  16.974 -1.1440 -0.6965  1.0243
 2045SOL     OW17596   1.869   3.181   6.566 -0.0760  0.4782  0.4655
 2045SOL    HW117597   1.942   3.212   6.620 -0.2744  1.3774  0.2197
 2045SOL    HW217598   1.917   3.129   6.502 -4.3139 -3.3877  0.4175
 2046SOL     OW17599   3.911   4.111   1.513  0.2997 -0.2687  0.0392
 2046SOL    HW117600   3.905   4.199   1.476  0.8456  0.6869  2.2154
 2046SOL    HW217601   3.983   4.069   1.466  0.8303  0.8310 -0.1217
 2047SOL     OW17602   2.916   4.397   3.163  0.3244 -0.1312 -0.4281
 2047SOL    HW117603   2.981   4.364   3.225  0.0859  1.6746  0.7976
 2047SOL    HW217604   2.892   4.488   3.183  0.9435  0.8114 -3.9896
 2048SOL     OW17605   1.136   4.428   8.912  0.6144 -0.1927 -0.3931
 2048SOL    HW117606   1.071   4.480   8.960  1.7532  1.2254 -0.3920
 2048SOL    HW217607   1.217   4.466   8.945 -0.5210  0.1876  2.0111
 2049SOL     OW17608   4.104   3.067  17.537 -0.9727  0.3651 -0.2857
 2049SOL    HW117609   4.126   2.988  17.487 -4.2102 -0.8369  0.1307
 2049SOL    HW217610   4.121   3.033  17.624 -1.7045  1.3826  0.2522
 2050SOL     OW17611   0.939   4.340   7.217 -0.4158 -0.4219 -0.1266
 2050SOL    HW117612   0.979   4.396   7.284 -1.3167  2.9528 -2.4511
 2050SOL    HW217613   1.020   4.305   7.180 -0.6911  0.1140 -1.2031
 2051SOL     OW17614   1.153   2.199  12.859 -0.2034  0.1143 -0.2014
 2051SOL    HW117615   1.228   2.219  12.915  0.2520  2.0627 -1.4785
 2051SOL    HW217616   1.104   2.160  12.931 -0.8754  1.0874 -0.1296
 2052SOL     OW17617   0.346   1.429   4.268 -0.1546 -0.1084 -0.3654
 2052SOL    HW117618   0.404   1.504   4.274 -0.2468 -0.1176  0.5287
 2052SOL    HW217619   0.276   1.471   4.316  0.2731 -0.4597  0.5633
 2053SOL     OW17620   4.081   2.524   7.969 -0.8744 -0.2724 -0.4378
 2053SOL    HW117621   4.121   2.609   7.950 -2.3296  0.4938 -0.0833
 2053SOL    HW217622   3.996   2.537   7.926 -1.1028  1.2194  0.4715
 2054SOL     OW17623   3.813   1.987   4.122 -0.6317 -0.4595  0.6716
 2054SOL    HW117624   3.826   2.045   4.197  1.4588 -1.6409  1.2134
 2054SOL    HW217625   3.776   2.040   4.052 -1.3257  1.7927  2.7565
 2055SOL     OW17626   0.299   2.759  17.541  0.2007  0.2667  0.4312
 2055SOL    HW117627   0.243   2.711  17.480  0.5905 -0.0749  0.3368
 2055SOL    HW217628   0.365   2.795  17.481  0.6122  1.1955  1.4445
 2056SOL     OW17629   0.517   0.306  10.986 -0.4943 -0.4846  0.0920
 2056SOL    HW117630   0.429   0.292  10.950 -0.0152 -2.5217 -0.2993
 2056SOL    HW217631   0.573   0.255  10.927  2.0804  0.3386  1.8256
 2057SOL     OW17632   3.255   4.065   3.726  0.4720 -0.3504 -0.2140
 2057SOL    HW117633   3.184   4.105   3.676 -0.0341 -2.1234 -0.9048
 2057SOL    HW217634   3.216   3.994   3.777 -0.2541 -0.4067 -0.8400
 2058SOL     OW17635   1.342   0.104   9.614  0.2542  0.4457 -0.0531
 2058SOL    HW117636   1.324   0.186   9.569  0.2545 -0.2796 -1.3829
 2058SOL    HW217637   1.275   0.096   9.681 -1.4188 -0.5469 -1.8392
 2059SOL     OW17638   1.726   0.140   0.788  0.1194  0.3350  0.5611
 2059SOL    HW117639   1.776   0.217   0.817 -0.4430  0.5770  0.8837
 2059SOL    HW217640   1.725   0.093   0.871  2.4686  0.7836  0.8501
 2060SOL     OW17641   3.192   0.129   7.714 -0.0280 -0.0259  0.2172
 2060SOL    HW117642   3.127   0.060   7.705  0.2794 -0.2138 -0.4691
 2060SOL    HW217643   3.148   0.197   7.766 -0.6657 -1.1345  1.1108
 2061SOL     OW17644   2.153   2.662   2.950 -0.1264 -0.1152  0.1442
 2061SOL    HW117645   2.104   2.581   2.957  0.6967 -0.6224 -0.0389
 2061SOL    HW217646   2.181   2.669   2.859  1.1590 -0.4199  0.5213
 2062SOL     OW17647   4.128   1.214   8.623  0.8009  0.1939  0.3223
 2062SOL    HW117648   4.067   1.171   8.683  1.2921 -1.3134 -0.2634
 2062SOL    HW217649   4.218   1.209   8.655  0.6962 -1.2413  0.3706
 2063SOL     OW17650   1.237   0.397  15.587 -0.0755  0.2926 -0.0754
 2063SOL    HW117651   1.308   0.443  15.541 -0.7873  1.4303 -0.0213
 2063SOL    HW217652   1.249   0.437  15.673  0.8485  0.8976 -0.4750
 2064SOL     OW17653   2.733   2.379   7.152  0.0729 -0.2684 -0.1493
 2064SOL    HW117654   2.676   2.309   7.122  0.6891 -0.9808  0.3508
 2064SOL    HW217655   2.724   2.379   7.248  2.3642 -1.1719  0.0577
 2065SOL     OW17656   1.159   3.653   9.252  0.2998  0.4037  0.0204
 2065SOL    HW117657   1.171   3.577   9.309 -0.1398  0.3908  0.0955
 2065SOL    HW217658   1.087   3.689   9.303 -0.2770 -2.4102  1.2135
 2066SOL     OW17659   1.141   2.788   3.390 -0.5777 -0.6272  0.3273
 2066SOL    HW117660   1.143   2.773   3.295 -0.9346 -0.6257  0.3190
 2066SOL    HW217661   1.218   2.841   3.408 -0.8551 -0.9644  2.5211
 2067SOL     OW17662   3.827   1.197   0.891 -0.2610 -0.1191 -0.4203
 2067SOL    HW117663   3.817   1.291   0.872 -1.1597 -0.2640 -0.6396
 2067SOL    HW217664   3.853   1.209   0.983  0.0055 -0.4804 -0.4472
 2068SOL     OW17665   3.664   4.378  10.796  0.2479 -0.0977  1.3203
 2068SOL    HW117666   3.750   4.421  10.791  0.5978 -0.8599  0.6009
 2068SOL    HW217667   3.687   4.293  10.834 -1.3630 -1.0628  0.1719
 2069SOL     OW17668   0.822   1.592   5.558 -0.0977  0.4269 -0.1445
 2069SOL    HW117669   0.770   1.571   5.636 -0.9219  0.4128 -0.6977
 2069SOL    HW217670   0.912   1.596   5.592  0.3199  2.8273 -1.5104
 2070SOL     OW17671   3.414   0.111   3.867  0.3338 -0.0964  0.2382
 2070SOL    HW117672   3.439   0.203   3.875 -0.2660  0.2463 -1.8525
 2070SOL    HW217673   3.348   0.130   3.801 -2.1029 -1.0161  2.3927
 2071SOL     OW17674   2.408   0.317   9.359 -0.0757 -0.2609 -0.0314
 2071SOL    HW117675   2.349   0.296   9.432 -1.0771  2.6120 -0.0156
 2071SOL    HW217676   2.336   0.315   9.296  0.6921 -0.2311 -0.9029
 2072SOL     OW17677   4.628   3.722  12.711  0.3052 -0.1240 -0.1400
 2072SOL    HW117678   4.584   3.801  12.678 -0.7245 -0.4259  0.5401
 2072SOL    HW217679   4.704   3.722  12.653 -0.8948  1.2153 -1.7247
 2073SOL     OW17680   0.929   2.400  16.602  0.2634  0.2873 -0.4690
 2073SOL    HW117681   0.905   2.449  16.523 -1.8846  0.1827  0.1159
 2073SOL    HW217682   0.907   2.466  16.667 -3.2523 -0.0992 -1.2604
 2074SOL     OW17683   4.486   4.340   8.224  0.1812 -0.2207  0.2843
 2074SOL    HW117684   4.552   4.340   8.155  0.7431 -0.4566  0.8209
 2074SOL    HW217685   4.415   4.377   8.171 -0.8117  0.1293  1.8451
 2075SOL     OW17686   2.346   1.073   7.027 -0.1979  0.0651  0.2108
 2075SOL    HW117687   2.378   1.116   7.106 -0.9467  2.0169 -0.5377
 2075SOL    HW217688   2.395   0.991   7.030 -0.8501 -0.4249 -2.2112
 2076SOL     OW17689   1.907   1.358  10.877  0.1313 -0.3789 -0.2428
 2076SOL    HW117690   1.972   1.309  10.929 -2.2126  0.5085  3.5569
 2076SOL    HW217691   1.888   1.427  10.941 -1.2008 -1.6041  0.6988
 2077SOL     OW17692   4.157   1.891  15.979 -0.0171  0.4435  0.1411
 2077SOL    HW117693   4.239   1.849  16.004  0.5563  1.2582 -0.3751
 2077SOL    HW217694   4.102   1.813  15.971 -0.9386  0.9872  1.0337
 2078SOL     OW17695   4.411   1.195   1.026  0.2720  0.8020 -0.1909
 2078SOL    HW117696   4.390   1.275   1.074 -1.4853 -0.6253  1.3889
 2078SOL    HW217697   4.335   1.142   1.048  0.6251  1.0672  1.6531
 2079SOL     OW17698   0.007   1.244   4.269 -0.0362  0.4220  0.5287
 2079SOL    HW117699   4.691   1.181   4.209  0.7624 -0.2919  0.7672
 2079SOL    HW217700   0.090   1.200   4.287  0.9355  2.2046  0.4003
 2080SOL     OW17701   2.839   0.365  17.232 -0.9314  0.4909 -0.3934
 2080SOL    HW117702   2.795   0.396  17.311 -1.8009  2.2607 -1.5702
 2080SOL    HW217703   2.827   0.430  17.163 -3.2541 -0.5952 -1.0076
 2081SOL     OW17704   3.173   4.286   0.718 -0.0681  0.3564 -0.1857
 2081SOL    HW117705   3.094   4.307   0.669  0.7552  2.3657 -0.6525
 2081SOL    HW217706   3.146   4.335   0.796 -2.5020  0.3623 -1.0355
 2082SOL     OW17707   2.437   4.556   7.103 -0.4622 -0.1506 -0.1341
 2082SOL    HW117708   2.422   4.598   7.187 -1.3185 -0.1915 -0.2667
 2082SOL    HW217709   2.394   4.475   7.129 -0.3970  0.0834  0.7094
 2083SOL     OW17710   2.089   2.964   3.649  0.1927 -0.4203 -0.1576
 2083SOL    HW117711   2.019   2.948   3.586 -1.1381  0.0661  1.1810
 2083SOL    HW217712   2.121   3.046   3.611  0.0023 -0.6266 -0.7504
 2084SOL     OW17713   2.569   4.057   3.349  0.2801  0.1466 -0.1190
 2084SOL    HW117714   2.575   4.015   3.263 -1.0337 -1.3708  0.5054
 2084SOL    HW217715   2.482   4.090   3.324  0.1461  1.5190  2.1862
 2085SOL     OW17716   1.221   2.814  11.445 -0.3662  0.5246  0.0086
 2085SOL    HW117717   1.147   2.843  11.498 -1.1458 -0.8626 -0.3227
 2085SOL    HW217718   1.282   2.836  11.516  0.3798 -0.5420 -0.2903
 2086SOL     OW17719   3.702   1.350   8.171 -0.3702 -0.3451 -0.3766
 2086SOL    HW117720   3.613   1.342   8.137  0.2401  0.3983 -2.1245
 2086SOL    HW217721   3.697   1.291   8.247  1.3801 -0.5586 -0.4266
 2087SOL     OW17722   2.514   0.383   7.417  0.7726  0.0755  0.5510
 2087SOL    HW117723   2.471   0.462   7.385 -1.3547 -0.5119  2.0256
 2087SOL    HW217724   2.438   0.328   7.401 -0.4143  1.7415  0.4071
 2088SOL     OW17725   0.807   2.782   6.968 -0.0499  0.8861  0.4396
 2088SOL    HW117726   0.796   2.866   6.923  0.4516  0.3486 -0.7087
 2088SOL    HW217727   0.719   2.766   7.003  0.1598  0.9795  1.0006
 2089SOL     OW17728   0.874   1.093   8.884  0.0553  0.4115  0.3294
 2089SOL    HW117729   0.896   1.099   8.791 -0.3321 -0.2203  0.1946
 2089SOL    HW217730   0.842   1.003   8.896  0.2097  0.3993  0.6559
 2090SOL     OW17731   1.039   2.930   8.016  0.3638  0.3481 -0.0642
 2090SOL    HW117732   1.078   2.878   8.086 -1.3429  0.1874  0.7462
 2090SOL    HW217733   1.106   2.999   8.014  0.6889 -0.0002 -1.3899
 2091SOL     OW17734   2.842   4.574  11.643  0.2763 -0.1382 -0.1102
 2091SOL    HW117735   2.865   4.488  11.607 -0.4380 -0.6417  0.6333
 2091SOL    HW217736   2.923   4.621  11.662 -0.2823  0.2538  1.2751
 2092SOL     OW17737   1.250   3.979   4.251  0.0415  0.4548 -0.5174
 2092SOL    HW117738   1.243   3.906   4.190 -1.4745  0.2788 -0.1212
 2092SOL    HW217739   1.182   3.956   4.315  0.5705  1.8726  0.5524
 2093SOL     OW17740   4.689   1.451   4.672 -0.7449 -0.1184  0.4081
 2093SOL    HW117741   4.638   1.393   4.616 -2.0209  1.4426 -0.0530
 2093SOL    HW217742   0.022   1.381   4.705  0.9278  1.4757  0.9790
 2094SOL     OW17743   2.202   4.558   5.723 -0.0183  0.6018 -0.1952
 2094SOL    HW117744   2.267   4.608   5.773 -1.3230  0.0161  2.0860
 2094SOL    HW217745   2.132   4.623   5.729 -2.6267 -2.1919 -0.7050
 2095SOL     OW17746   2.482   3.655   7.574 -0.2998 -0.4612 -0.2185
 2095SOL    HW117747   2.489   3.563   7.599  0.0964 -0.3090  0.2301
 2095SOL    HW217748   2.416   3.650   7.506  1.2054  2.4787 -1.9098
 2096SOL     OW17749   3.407   2.093   9.078  0.2305  0.2573 -0.7422
 2096SOL    HW117750   3.329   2.046   9.050 -0.6419  2.0883 -1.3779
 2096SOL    HW217751   3.467   2.026   9.045  0.7327 -0.4305  1.5688
 2097SOL     OW17752   3.846   0.226   5.817  0.4176 -0.0326 -0.0113
 2097SOL    HW117753   3.872   0.165   5.748 -2.2451 -0.6577 -0.4403
 2097SOL    HW217754   3.861   0.309   5.772  0.8121  0.2496  0.6276
 2098SOL     OW17755   0.082   1.576   3.654  0.2294  0.5152 -0.3829
 2098SOL    HW117756   0.031   1.516   3.599 -1.8917  0.7062  1.3818
 2098SOL    HW217757   0.140   1.513   3.697  0.7344  1.3184  0.1176
 2099SOL     OW17758   2.361   0.344  15.006  0.6658  0.2016  0.1277
 2099SOL    HW117759   2.435   0.296  15.044  0.1087  0.1522  1.1358
 2099SOL    HW217760   2.391   0.344  14.915  0.5449 -0.1737  0.0865
 2100SOL     OW17761   0.769   2.493   6.224 -0.7119  0.2580  0.1076
 2100SOL    HW117762   0.728   2.434   6.161  0.4358  0.0054 -0.4005
 2100SOL    HW217763   0.788   2.569   6.170  3.1310 -1.3742 -0.8661
 2101SOL     OW17764   4.449   3.136   6.782 -0.4450  0.4912 -0.0065
 2101SOL    HW117765   4.544   3.145   6.774 -0.3636  2.1550  2.6184
 2101SOL    HW217766   4.427   3.192   6.857 -0.0258 -1.3830  1.5185
 2102SOL     OW17767   4.298   3.027   7.016 -0.5524 -0.6165 -0.1459
 2102SOL    HW117768   4.347   2.945   7.010  2.2288  1.1448 -1.3599
 2102SOL    HW217769   4.364   3.092   7.041 -0.8143 -0.6798  0.7018
 2103SOL     OW17770   0.290   3.644   2.241 -0.3324 -1.3218  0.0672
 2103SOL    HW117771   0.197   3.643   2.265 -0.4645 -0.3682 -0.4224
 2103SOL    HW217772   0.285   3.631   2.146  1.1752 -0.4025 -0.1346
 2104SOL     OW17773   3.944   0.658  16.936 -0.3499  0.4835  0.1707
 2104SOL    HW117774   4.005   0.662  17.010  1.0837  1.6713 -1.0672
 2104SOL    HW217775   3.895   0.733  16.967 -1.1177  0.4440 -0.9432
 2105SOL     OW17776   1.681   2.311   3.432  0.0668  0.1208 -0.3100
 2105SOL    HW117777   1.725   2.384   3.476  0.4925 -0.9095  0.9363
 2105SOL    HW217778   1.607   2.301   3.492  0.4694  0.2621  0.2006
 2106SOL     OW17779   2.158   2.909   7.235 -0.2307 -0.3180 -0.1039
 2106SOL    HW117780   2.212   2.986   7.252 -0.3365 -0.4899  0.9849
 2106SOL    HW217781   2.098   2.934   7.164 -0.5669  0.8270  0.5920
 2107SOL     OW17782   0.635   0.713   3.264 -0.1095 -0.0272 -0.0200
 2107SOL    HW117783   0.542   0.732   3.276  0.9218  2.6758  3.7926
 2107SOL    HW217784   0.672   0.786   3.314 -1.9411  1.5165 -0.9145
 2108SOL     OW17785   0.029   3.059  13.488 -0.0784  0.6123  0.5528
 2108SOL    HW117786   0.076   3.063  13.572 -0.7452  0.0533  0.9573
 2108SOL    HW217787   4.662   3.079  13.516  0.6456  0.9872  2.6368
 2109SOL     OW17788   4.213   1.171   7.703  0.0007 -0.0260 -0.0396
 2109SOL    HW117789   4.231   1.129   7.787 -0.5424  0.9224  0.5539
 2109SOL    HW217790   4.150   1.112   7.661 -1.0109  1.9821 -1.3679
 2110SOL     OW17791   3.640   2.766   8.020 -0.1877 -0.2921  0.3913
 2110SOL    HW117792   3.663   2.675   8.036  2.4864  0.3320  0.0157
 2110SOL    HW217793   3.698   2.802   8.088  2.3981 -2.9725 -0.3958
 2111SOL     OW17794   1.541   1.852   7.010  0.3625 -0.6147  0.2247
 2111SOL    HW117795   1.475   1.847   6.940 -1.9615  0.1387  2.3929
 2111SOL    HW217796   1.562   1.760   7.024  0.2669 -0.4539  1.3714
 2112SOL     OW17797   1.465   2.235   6.010  0.4713  0.4027  0.0144
 2112SOL    HW117798   1.531   2.166   6.006 -0.4213 -0.5772  2.0435
 2112SOL    HW217799   1.477   2.266   5.921  2.9441  0.4437  0.3577
 2113SOL     OW17800   2.101   0.067   6.364  0.0100 -0.2034 -0.0840
 2113SOL    HW117801   2.054   0.133   6.415  0.9940  0.1802  0.3193
 2113SOL    HW217802   2.150   0.124   6.304  0.9422 -1.1755 -0.2369
 2114SOL     OW17803   2.637   0.633   8.032  0.1682 -0.0590 -0.3998
 2114SOL    HW117804   2.616   0.594   8.117  0.0377 -2.5993 -1.5779
 2114SOL    HW217805   2.587   0.567   7.984  0.1942  0.1963 -0.7780
 2115SOL     OW17806   4.485   1.283  13.127 -0.2996  0.2352  0.6177
 2115SOL    HW117807   4.556   1.277  13.191  0.5714 -0.1658 -0.4004
 2115SOL    HW217808   4.442   1.360  13.164 -1.1569  0.0633 -0.0219
 2116SOL     OW17809   1.388   0.326   0.310 -0.2159  0.4432 -0.1268
 2116SOL    HW117810   1.351   0.242   0.282  1.4294  0.0284 -1.0373
 2116SOL    HW217811   1.420   0.295   0.395  0.8778  0.3135 -0.5849
 2117SOL     OW17812   2.880   0.640   4.347 -0.6291 -0.5613  0.3140
 2117SOL    HW117813   2.887   0.547   4.327  0.3714 -0.3712 -0.1944
 2117SOL    HW217814   2.787   0.645   4.367 -0.5572  0.0052  0.5301
 2118SOL     OW17815   3.820   1.237   7.941  0.3991  0.2690  0.0576
 2118SOL    HW117816   3.798   1.289   8.018  2.4883 -1.4749  1.8494
 2118SOL    HW217817   3.738   1.192   7.920  0.9578 -0.3532 -0.8060
 2119SOL     OW17818   3.122   1.405   9.023  0.2621  0.0601 -0.3346
 2119SOL    HW117819   3.158   1.338   9.080 -0.1787 -0.4966 -0.7107
 2119SOL    HW217820   3.139   1.362   8.939 -1.6479 -1.2483 -0.0516
 2120SOL     OW17821   1.396   0.535   3.081  0.2541 -0.0696  0.1952
 2120SOL    HW117822   1.335   0.557   3.151 -1.0301  1.4859 -1.4149
 2120SOL    HW217823   1.415   0.624   3.052 -0.4967 -0.3809 -1.2492
 2121SOL     OW17824   1.882   2.066  13.487  0.2513  0.1236  0.0787
 2121SOL    HW117825   1.911   2.034  13.573 -0.3265  0.3201  0.3425
 2121SOL    HW217826   1.958   2.121  13.467  1.3143 -1.1418  0.6534
 2122SOL     OW17827   2.883   0.091   2.783  0.2088 -0.2328  0.1104
 2122SOL    HW117828   2.955   0.058   2.836  0.2445 -0.6566 -0.1949
 2122SOL    HW217829   2.928   0.126   2.706  2.1494  0.0662  1.4088
 2123SOL     OW17830   3.829   3.504  10.253  0.5752 -0.3422  0.3558
 2123SOL    HW117831   3.882   3.462  10.185 -2.1610  1.3514 -2.7947
 2123SOL    HW217832   3.883   3.582  10.266  0.2595  0.2951 -2.1791
 2124SOL     OW17833   2.731   0.339  10.678 -0.2919  0.5192 -0.7196
 2124SOL    HW117834   2.776   0.281  10.740 -0.8746  1.9993  1.0736
 2124SOL    HW217835   2.651   0.355  10.728 -0.0537  0.5904 -0.3582
 2125SOL     OW17836   2.208   4.493   1.689 -0.0075 -0.2523 -0.1977
 2125SOL    HW117837   2.267   4.568   1.681 -1.2127  0.6315 -0.6628
 2125SOL    HW217838   2.130   4.518   1.640  1.0781 -2.0065 -2.8501
 2126SOL     OW17839   2.236   2.862   2.414 -0.1070 -0.2217  0.4584
 2126SOL    HW117840   2.200   2.943   2.377 -0.6781 -0.6601  0.0473
 2126SOL    HW217841   2.156   2.810   2.424  0.7670 -2.0443 -2.2187
 2127SOL     OW17842   2.413   2.591   9.664  0.1130 -0.1936  0.5761
 2127SOL    HW117843   2.507   2.603   9.650  0.4079 -2.6512  0.5088
 2127SOL    HW217844   2.398   2.625   9.752 -0.9031  1.5961 -0.2844
 2128SOL     OW17845   0.702   2.095   8.415  0.6701 -0.1532 -0.3321
 2128SOL    HW117846   0.612   2.103   8.449 -0.0149  2.5008 -2.6962
 2128SOL    HW217847   0.720   2.185   8.389 -0.9690  0.1862 -0.3243
 2129SOL     OW17848   4.033   3.475   2.235  0.2248 -0.4599  0.1778
 2129SOL    HW117849   4.076   3.518   2.161  0.5520  0.3933  0.8584
 2129SOL    HW217850   4.053   3.383   2.218 -2.9644 -0.7004 -2.2858
 2130SOL     OW17851   2.626   3.273   8.455  0.3868 -0.4137  0.0989
 2130SOL    HW117852   2.632   3.186   8.416 -1.2915 -0.3590 -0.2385
 2130SOL    HW217853   2.580   3.248   8.535  0.1253  0.9699  0.3778
 2131SOL     OW17854   1.951   0.877   7.204  0.3372  0.1224 -0.7197
 2131SOL    HW117855   1.899   0.839   7.275 -0.6725  1.4919 -0.7364
 2131SOL    HW217856   1.877   0.906   7.150 -0.9912 -1.8781  0.0348
 2132SOL     OW17857   3.930   4.487   4.225  0.1039 -0.7394  0.1204
 2132SOL    HW117858   3.931   4.582   4.234 -1.2245 -0.9204  2.2676
 2132SOL    HW217859   3.948   4.483   4.131  1.3444 -1.5242  0.3859
 2133SOL     OW17860   1.228   1.527   8.590 -0.5125 -0.4156 -0.5349
 2133SOL    HW117861   1.150   1.545   8.538  0.0602  2.5887 -0.3609
 2133SOL    HW217862   1.250   1.610   8.632 -1.4008 -0.7377  0.5788
 2134SOL     OW17863   0.738   4.172  16.199 -0.1170  0.4694 -0.0425
 2134SOL    HW117864   0.807   4.175  16.132  0.3476 -3.7966  0.2357
 2134SOL    HW217865   0.666   4.219  16.158 -0.5005 -0.3029 -0.2524
 2135SOL     OW17866   4.404   1.522  11.527 -0.2710 -0.6282 -1.0211
 2135SOL    HW117867   4.361   1.500  11.444 -0.0016 -0.0311 -1.3203
 2135SOL    HW217868   4.319   1.530  11.570  0.2398  0.2471 -0.1787
 2136SOL     OW17869   1.258   1.424   2.629 -0.0426 -0.1281 -0.3799
 2136SOL    HW117870   1.301   1.378   2.557  3.0611  4.0950 -1.2748
 2136SOL    HW217871   1.243   1.355   2.693 -0.5981  1.6462  1.3976
 2137SOL     OW17872   2.417   2.271   2.969 -0.1036 -0.1662  0.0277
 2137SOL    HW117873   2.410   2.320   3.051 -1.0095 -1.1307  0.5411
 2137SOL    HW217874   2.334   2.224   2.975 -0.4454  0.9562  4.0082
 2138SOL     OW17875   3.353   0.826   2.175 -0.0513  0.1109  0.0794
 2138SOL    HW117876   3.397   0.803   2.093  1.9391  0.3837  1.0672
 2138SOL    HW217877   3.259   0.818   2.158  0.1829 -1.7679 -0.4070
 2139SOL     OW17878   3.081   4.695   8.004  0.0648  0.5285  0.2572
 2139SOL    HW117879   3.156   4.673   7.949 -0.4254  2.0760 -1.0312
 2139SOL    HW217880   3.017   4.631   7.974 -0.4166 -0.3544  3.1328
 2140SOL     OW17881   3.520   0.835   7.036 -0.2104 -0.3506 -0.0205
 2140SOL    HW117882   3.427   0.815   7.040 -0.1828 -0.4786 -0.0281
 2140SOL    HW217883   3.525   0.860   6.944 -0.2573  0.5919  0.2291
 2141SOL     OW17884   4.574   4.020   6.949  1.1316  0.4909  0.1617
 2141SOL    HW117885   4.617   4.103   6.966 -1.9515  1.9183  1.0508
 2141SOL    HW217886   4.516   4.045   6.877 -1.5738 -3.5824  0.9276
 2142SOL     OW17887   0.842   0.268   5.428 -0.1210 -0.1466 -0.0661
 2142SOL    HW117888   0.933   0.269   5.458 -0.9609  2.7811  2.3773
 2142SOL    HW217889   0.780   0.272   5.501 -0.3343 -0.1820 -0.2484
 2143SOL     OW17890   3.184   1.843   5.570  0.5740 -0.0245  0.6700
 2143SOL    HW117891   3.180   1.925   5.619  0.3736 -1.6674  3.4127
 2143SOL    HW217892   3.241   1.794   5.630 -0.4236 -0.6821  1.0829
 2144SOL     OW17893   3.711   0.590   6.436 -0.1436 -0.0321  0.0855
 2144SOL    HW117894   3.788   0.636   6.402  0.4750 -1.8434 -0.9721
 2144SOL    HW217895   3.713   0.504   6.393 -1.4539  0.3864 -0.7918
 2145SOL     OW17896   2.373   3.758   9.385  0.7621  0.0797 -0.0265
 2145SOL    HW117897   2.429   3.733   9.311  4.2482  1.4715  2.1154
 2145SOL    HW217898   2.398   3.688   9.446 -2.2810 -1.0632 -0.0873
 2146SOL     OW17899   3.353   2.576   8.397 -0.4855  1.0508  0.1001
 2146SOL    HW117900   3.341   2.661   8.439 -2.5477 -0.0546  1.7750
 2146SOL    HW217901   3.286   2.583   8.329  0.2638  0.8446 -0.6529
 2147SOL     OW17902   3.621   2.279   9.688  0.0213 -0.5865  0.9131
 2147SOL    HW117903   3.714   2.277   9.711  0.3098  0.6163 -0.0909
 2147SOL    HW217904   3.581   2.279   9.775 -0.1017  0.7015  0.8588
 2148SOL     OW17905   3.209   3.612   3.872 -0.1159  0.0281 -0.0142
 2148SOL    HW117906   3.263   3.562   3.933  0.7100  3.2806  1.9198
 2148SOL    HW217907   3.254   3.696   3.870 -0.8855  0.4179 -1.1377
 2149SOL     OW17908   4.408   2.155   9.879 -0.2378 -0.2196  0.1466
 2149SOL    HW117909   4.398   2.078   9.935  2.6466 -0.8782 -0.2684
 2149SOL    HW217910   4.391   2.100   9.802 -0.3491 -0.4682  0.3502
 2150SOL     OW17911   1.240   0.665  14.410 -0.4993  0.1589 -0.3120
 2150SOL    HW117912   1.255   0.759  14.406 -1.0176  0.2290 -0.6476
 2150SOL    HW217913   1.146   0.666  14.389 -0.4747  0.5186 -0.3955
 2151SOL     OW17914   1.471   3.303   7.913  0.1564  0.4677  0.1322
 2151SOL    HW117915   1.436   3.250   7.984 -0.6556  1.7028  0.6525
 2151SOL    HW217916   1.394   3.306   7.856 -0.6408 -3.9307  0.9986
 2152SOL     OW17917   2.778   0.386   4.821 -0.1616  1.0280 -0.0156
 2152SOL    HW117918   2.810   0.436   4.746  2.0568 -1.2797 -0.6147
 2152SOL    HW217919   2.727   0.457   4.860  0.0829 -0.0063  2.2209
 2153SOL     OW17920   3.183   0.547   1.257  0.0036 -1.1780  0.2615
 2153SOL    HW117921   3.154   0.490   1.328 -0.9683 -1.9959 -0.7741
 2153SOL    HW217922   3.188   0.487   1.182  1.8280  0.8547 -1.2495
 2154SOL     OW17923   1.413   1.493   7.166  0.5900 -0.3251 -0.1579
 2154SOL    HW117924   1.397   1.462   7.255 -0.8102  2.2420  0.5019
 2154SOL    HW217925   1.492   1.542   7.189  0.4629 -1.0369  1.8300
 2155SOL     OW17926   4.553   3.415   5.829 -0.2809 -0.3671  0.5930
 2155SOL    HW117927   4.479   3.475   5.833  1.8631  2.4240 -1.6622
 2155SOL    HW217928   4.613   3.477   5.871  0.3705 -3.0233  3.5654
 2156SOL     OW17929   3.599   1.280  16.464  0.2466 -0.2223  0.3528
 2156SOL    HW117930   3.681   1.253  16.421  1.6127  2.1506  1.4485
 2156SOL    HW217931   3.551   1.199  16.481 -3.3179  1.7242 -0.6546
 2157SOL     OW17932   1.828   3.597  17.266 -0.1811 -0.2714 -0.0864
 2157SOL    HW117933   1.801   3.687  17.284  1.9563 -0.2948  3.1270
 2157SOL    HW217934   1.791   3.555  17.344 -0.5421  1.9458  0.9313
 2158SOL     OW17935   2.402   1.485   5.312  0.4641  0.7950 -0.0884
 2158SOL    HW117936   2.423   1.480   5.406  0.5693 -0.1932 -0.1604
 2158SOL    HW217937   2.403   1.579   5.294  2.8110  0.3137 -2.3583
 2159SOL     OW17938   1.117   0.984  11.431 -0.0547  0.2475  0.3501
 2159SOL    HW117939   1.042   0.925  11.419  0.9011 -0.2489 -3.1782
 2159SOL    HW217940   1.134   0.995  11.338  1.8322 -0.7632  0.5836
 2160SOL     OW17941   0.493   4.621   8.182  0.3924  0.1803  0.3388
 2160SOL    HW117942   0.495   4.532   8.147  0.3691 -0.1145  1.0789
 2160SOL    HW217943   0.523   4.614   8.272 -0.3963  0.3385  0.6189
 2161SOL     OW17944   0.400   2.532  11.461 -0.6794 -0.0610  0.7404
 2161SOL    HW117945   0.368   2.583  11.386  0.1057  0.3965  0.7115
 2161SOL    HW217946   0.438   2.450  11.428 -1.7763 -0.9214  1.6386
 2162SOL     OW17947   3.828   1.257   3.663 -0.1802  0.7215  0.1347
 2162SOL    HW117948   3.854   1.225   3.749 -1.3544  1.5724  0.8064
 2162SOL    HW217949   3.823   1.353   3.670  3.3649  0.9422 -0.4566
 2163SOL     OW17950   1.646   1.936   4.414 -0.1051 -0.1433  0.3824
 2163SOL    HW117951   1.673   1.907   4.327 -1.1395 -0.7819  0.2605
 2163SOL    HW217952   1.713   1.890   4.465 -1.2493 -2.5086 -0.2173
 2164SOL     OW17953   3.194   0.145  13.472  0.4189  0.1094 -0.1112
 2164SOL    HW117954   3.207   0.239  13.470 -0.4965  0.2413  0.1590
 2164SOL    HW217955   3.239   0.124  13.391  0.3519 -0.5125  0.0097
 2165SOL     OW17956   2.356   1.853   2.685  0.2741  0.3320 -0.2029
 2165SOL    HW117957   2.277   1.895   2.651  0.7402 -0.6333 -2.4544
 2165SOL    HW217958   2.331   1.848   2.778 -0.9569  0.6144 -0.5167
 2166SOL     OW17959   0.507   1.568   9.483  0.0068 -0.6555 -0.2326
 2166SOL    HW117960   0.526   1.530   9.569  0.1806 -1.5247 -0.6559
 2166SOL    HW217961   0.594   1.588   9.451  0.0478  1.8616  1.4576
 2167SOL     OW17962   1.477   2.355   5.744  0.0782  0.0964 -0.5424
 2167SOL    HW117963   1.434   2.440   5.753 -2.3440 -1.1250 -0.5898
 2167SOL    HW217964   1.449   2.330   5.656 -0.7208 -1.1187  0.0476
 2168SOL     OW17965   2.089   2.549  12.047  0.0553 -0.2376 -0.6892
 2168SOL    HW117966   2.176   2.525  12.014  1.1454  0.9253  1.3373
 2168SOL    HW217967   2.102   2.521  12.138  0.0661 -1.8345 -1.1890
 2169SOL     OW17968   1.509   2.890   3.043 -0.0741  0.1342  0.2650
 2169SOL    HW117969   1.520   2.795   3.034 -3.8226 -0.3833  1.2020
 2169SOL    HW217970   1.589   2.925   3.004 -0.3624 -1.2613 -1.5935
 2170SOL     OW17971   0.505   3.679   6.648  0.3026 -0.1005 -0.1305
 2170SOL    HW117972   0.523   3.665   6.555 -2.8183 -1.9245 -0.4605
 2170SOL    HW217973   0.572   3.746   6.664  0.8958 -1.4099  2.8135
 2171SOL     OW17974   1.408   2.417   8.757 -0.0391 -0.7091  0.1944
 2171SOL    HW117975   1.453   2.411   8.673 -1.5236  2.0567 -0.7871
 2171SOL    HW217976   1.395   2.334   8.802  2.6069 -0.3460  1.6239
 2172SOL     OW17977   4.144   2.629   4.681 -0.1643 -0.5066 -0.1541
 2172SOL    HW117978   4.074   2.689   4.654  0.1579 -0.2497 -0.4193
 2172SOL    HW217979   4.211   2.652   4.617  0.4076  2.0977  1.3601
 2173SOL     OW17980   3.426   4.284   4.235 -0.3084  0.4950 -0.4098
 2173SOL    HW117981   3.417   4.210   4.295  1.6694  0.2553 -0.4088
 2173SOL    HW217982   3.472   4.355   4.280 -0.5586  0.1443  0.3973
 2174SOL     OW17983   1.419   2.362  15.692 -0.6307  0.1809 -0.1059
 2174SOL    HW117984   1.411   2.271  15.720 -0.8913  0.4696  0.7602
 2174SOL    HW217985   1.500   2.363  15.640 -0.9011 -0.6778 -0.5401
 2175SOL     OW17986   4.298   4.443   7.408  0.1860  0.2082 -0.0924
 2175SOL    HW117987   4.222   4.436   7.351 -0.7518  0.1121  1.1645
 2175SOL    HW217988   4.260   4.449   7.496 -0.3342 -0.9584 -0.2386
 2176SOL     OW17989   2.631   1.071   8.609 -0.2446 -0.0540 -0.3523
 2176SOL    HW117990   2.563   1.135   8.624 -2.1187 -1.9808 -0.6217
 2176SOL    HW217991   2.627   1.070   8.513  1.7601  2.3715 -0.4618
 2177SOL     OW17992   4.154   0.087   1.068  0.2971  0.0966 -0.7542
 2177SOL    HW117993   4.103   0.023   1.116 -1.3904  3.1036  1.4312
 2177SOL    HW217994   4.240   0.065   1.104  1.3663  1.3802 -2.4763
 2178SOL     OW17995   1.731   1.230   4.144  0.3337 -0.1975 -0.0274
 2178SOL    HW117996   1.638   1.214   4.159  0.1800 -2.4279 -3.2765
 2178SOL    HW217997   1.767   1.202   4.228 -1.0376 -1.0541  0.2572
 2179SOL     OW17998   2.742   1.703   9.166  0.0892  0.3712  0.3519
 2179SOL    HW117999   2.703   1.706   9.079  0.7297  1.6143  0.0996
 2179SOL    HW218000   2.770   1.612   9.156 -1.4728  0.1226 -1.7363
 2180SOL     OW18001   4.653   2.817   9.019 -0.5275 -0.0804  0.3133
 2180SOL    HW118002   4.625   2.748   9.079  0.8175 -1.3319 -0.5110
 2180SOL    HW218003   4.580   2.863   8.978 -1.1249 -1.4784 -0.1746
 2181SOL     OW18004   2.960   3.219   4.841  0.0304 -0.1503  0.3319
 2181SOL    HW118005   3.010   3.272   4.778  0.8485 -1.3386 -0.0221
 2181SOL    HW218006   2.872   3.248   4.818  0.1518 -1.8478 -2.2874
 2182SOL     OW18007   2.812   3.320   1.406 -0.1749  0.6028 -0.1422
 2182SOL    HW118008   2.841   3.400   1.362 -0.7935  0.9308  0.0386
 2182SOL    HW218009   2.865   3.265   1.349  1.1526 -1.8415  3.4599
 2183SOL     OW18010   1.296   0.263   8.616  0.6654  0.2327 -0.5716
 2183SOL    HW118011   1.352   0.206   8.564  1.4683  0.9855 -0.5480
 2183SOL    HW218012   1.231   0.197   8.639  1.3004 -0.5693 -1.1248
 2184SOL     OW18013   0.791   2.654   5.991 -0.3607  0.4927  0.4649
 2184SOL    HW118014   0.860   2.593   5.966  0.4695  1.6104  0.0203
 2184SOL    HW218015   0.757   2.684   5.907 -0.0504  1.5827  0.7273
 2185SOL     OW18016   2.865   1.332   4.260 -0.3937  0.0439  0.3910
 2185SOL    HW118017   2.919   1.274   4.314 -1.1455  0.9236  2.0710
 2185SOL    HW218018   2.897   1.307   4.173  2.2979  0.5021  1.2645
 2186SOL     OW18019   0.817   1.411   3.821 -0.2502 -0.1343 -0.4884
 2186SOL    HW118020   0.912   1.403   3.818 -0.3194 -2.0279  2.6536
 2186SOL    HW218021   0.811   1.449   3.909 -1.0288 -0.6781 -0.3122
 2187SOL     OW18022   0.591   4.658   8.984  0.2938 -0.8479 -0.3764
 2187SOL    HW118023   0.607   4.585   9.044 -0.3582  2.6054  3.9292
 2187SOL    HW218024   0.675   4.703   8.983 -1.3387  2.2103 -0.5741
 2188SOL     OW18025   0.705   1.224   9.699  0.3661 -0.4483 -0.2737
 2188SOL    HW118026   0.640   1.206   9.631  0.9057 -0.7281 -0.7113
 2188SOL    HW218027   0.688   1.150   9.757 -1.3980  2.3925  2.8843
 2189SOL     OW18028   2.915   0.998   5.504 -0.0283  0.0871  0.4869
 2189SOL    HW118029   2.873   1.060   5.563  1.3578  1.7925 -0.3119
 2189SOL    HW218030   2.855   0.924   5.510 -0.9179  0.9739  2.2888
 2190SOL     OW18031   0.017   1.349   7.161 -0.0964 -0.2427  0.2511
 2190SOL    HW118032   4.681   1.326   7.088  0.8952 -1.9364 -0.0159
 2190SOL    HW218033   4.715   1.441   7.163  1.0762  0.1140 -1.3073
 2191SOL     OW18034   3.701   4.277   7.069 -0.0119 -0.5983  0.0510
 2191SOL    HW118035   3.614   4.266   7.106 -0.0065 -0.5676  0.0725
 2191SOL    HW218036   3.703   4.196   7.019 -0.4312  0.4453 -1.6831
 2192SOL     OW18037   1.583   0.739   0.707 -0.1820 -0.6669  0.3206
 2192SOL    HW118038   1.537   0.778   0.782 -1.7666 -0.3348 -0.8112
 2192SOL    HW218039   1.662   0.791   0.721  0.3087 -1.9212  2.2484
 2193SOL     OW18040   1.038   2.273   3.541  0.2235 -0.4028 -0.0105
 2193SOL    HW118041   1.048   2.367   3.554  1.2638 -0.5642  0.3569
 2193SOL    HW218042   0.950   2.262   3.505  0.8241 -0.2102 -1.5656
 2194SOL     OW18043   3.355   0.502   4.171 -0.5704  0.3348 -0.1565
 2194SOL    HW118044   3.439   0.539   4.199 -0.8117  0.7361  0.0513
 2194SOL    HW218045   3.297   0.571   4.205 -2.1943 -1.4744  0.7589
 2195SOL     OW18046   1.410   1.570  12.189 -0.4243 -0.3414  0.5762
 2195SOL    HW118047   1.381   1.591  12.100  1.3247 -1.2593 -0.2165
 2195SOL    HW218048   1.440   1.479  12.180 -2.0299 -0.7597 -0.4573
 2196SOL     OW18049   2.481   0.809   5.556 -0.0818 -1.2833  0.1365
 2196SOL    HW118050   2.507   0.864   5.483  2.1249  0.8264  2.5107
 2196SOL    HW218051   2.403   0.764   5.524 -1.3443 -0.4856  2.0489
 2197SOL     OW18052   3.427   4.073   9.841 -0.6308  0.3800 -0.9218
 2197SOL    HW118053   3.335   4.047   9.844 -0.3912 -0.2590  0.7561
 2197SOL    HW218054   3.447   4.056   9.749 -1.9346  0.4573 -1.2119
 2198SOL     OW18055   1.677   4.660   3.615  0.0159  0.2161  0.5109
 2198SOL    HW118056   1.728   4.690   3.540  0.2878  0.8485  0.9421
 2198SOL    HW218057   1.648   0.014   3.664  1.1831  0.3813  0.9515
 2199SOL     OW18058   1.726   0.781   7.704 -0.3857 -0.7986  0.1017
 2199SOL    HW118059   1.736   0.802   7.797  2.7903 -0.1823 -0.4101
 2199SOL    HW218060   1.630   0.787   7.709 -0.3636 -1.5445  1.4443
 2200SOL     OW18061   2.367   1.429   0.969  0.0153  0.5316 -0.3243
 2200SOL    HW118062   2.377   1.352   0.913  0.2094 -1.1213  1.9894
 2200SOL    HW218063   2.402   1.492   0.906  0.2610  0.6429 -0.0758
 2201SOL     OW18064   0.878   1.848   6.691 -0.4847  0.3849  0.1459
 2201SOL    HW118065   0.805   1.789   6.709  0.4066  0.0436  2.7357
 2201SOL    HW218066   0.937   1.825   6.763  2.4450 -0.7673 -2.6458
 2202SOL     OW18067   2.510   3.729   1.548 -0.0925 -0.6663 -0.1390
 2202SOL    HW118068   2.578   3.736   1.615  0.6030 -1.8306 -0.7386
 2202SOL    HW218069   2.505   3.637   1.522 -1.6735 -0.2775 -1.2608
 2203SOL     OW18070   2.399   1.179   2.716 -0.1095  0.2511  0.2842
 2203SOL    HW118071   2.351   1.142   2.643  1.5729 -0.6448 -0.3584
 2203SOL    HW218072   2.382   1.126   2.794  0.1336  0.0602  0.2088
 2204SOL     OW18073   2.522   2.016   2.553  0.0942 -0.0720 -0.2246
 2204SOL    HW118074   2.540   2.075   2.625  1.7928 -0.3360 -0.4226
 2204SOL    HW218075   2.443   1.974   2.586 -2.1483  1.9839 -2.9408
 2205SOL     OW18076   0.570   1.240  11.971 -0.4907  0.6800 -0.2804
 2205SOL    HW118077   0.500   1.210  12.028  0.9630 -0.3333  0.9644
 2205SOL    HW218078   0.637   1.172  11.983 -0.3524  0.6821 -1.0004
 2206SOL     OW18079   2.116   3.535   3.210 -0.3034 -0.2101 -0.3284
 2206SOL    HW118080   2.165   3.590   3.148 -0.7771  0.6016  0.0243
 2206SOL    HW218081   2.033   3.527   3.164  0.0705 -0.9353 -0.8738
 2207SOL     OW18082   0.187   4.506  13.380  0.8322 -0.6183 -0.1605
 2207SOL    HW118083   0.224   4.435  13.432 -0.7239 -2.7659 -1.9758
 2207SOL    HW218084   0.263   4.560  13.358  0.8845 -1.1744 -1.3105
 2208SOL     OW18085   0.661   2.057   9.723  0.3685  0.1953  0.2745
 2208SOL    HW118086   0.649   1.963   9.735  1.2478  0.2021  1.1957
 2208SOL    HW218087   0.737   2.067   9.780  1.2703  1.1752 -1.0814
 2209SOL     OW18088   4.110   1.311   3.993 -0.3638 -0.2466 -0.4724
 2209SOL    HW118089   4.015   1.309   3.994 -0.4088  0.6752 -3.3629
 2209SOL    HW218090   4.136   1.339   3.906  0.9105  1.1986  0.3694
 2210SOL     OW18091   2.888   0.612  16.038 -0.1281  0.4992  0.7473
 2210SOL    HW118092   2.846   0.560  16.106  2.0385  0.1096  1.7795
 2210SOL    HW218093   2.972   0.644  16.071 -0.5128  0.8537  1.3943
 2211SOL     OW18094   4.528   2.289   9.153  0.4863 -0.6714 -0.1326
 2211SOL    HW118095   4.471   2.214   9.139 -1.3433 -0.0118  3.7060
 2211SOL    HW218096   4.593   2.278   9.083 -0.3768 -2.7146 -0.6060
 2212SOL     OW18097   0.947   1.075   5.114 -0.0874  0.3560 -0.1711
 2212SOL    HW118098   0.912   1.162   5.093 -0.1614  0.0787 -1.2348
 2212SOL    HW218099   0.975   1.058   5.024  1.1705  1.2578  0.0552
 2213SOL     OW18100   4.115   3.915   7.174  0.0028 -0.0605 -0.1235
 2213SOL    HW118101   4.160   3.959   7.247  0.6823  0.4063 -0.8216
 2213SOL    HW218102   4.077   3.984   7.119 -1.2706 -0.8963 -0.2928
 2214SOL     OW18103   1.796   2.489   5.331 -0.2791 -0.1675  0.0729
 2214SOL    HW118104   1.857   2.559   5.353 -0.1555 -0.6200  1.1429
 2214SOL    HW218105   1.859   2.420   5.308  0.1628 -0.0370  0.8727
 2215SOL     OW18106   0.961   1.407  14.538  0.0409 -0.1768 -0.4651
 2215SOL    HW118107   0.961   1.405  14.442  0.0993  0.6020 -0.4840
 2215SOL    HW218108   1.055   1.421  14.552 -0.0992 -0.7350  0.9909
 2216SOL     OW18109   4.651   0.505   4.701 -0.0241  0.3369 -0.0069
 2216SOL    HW118110   4.596   0.581   4.719 -1.0473 -0.4434  0.1673
 2216SOL    HW218111   4.614   0.434   4.754 -0.4965 -0.9121 -2.0391
 2217SOL     OW18112   3.267   2.007   2.101 -0.1264 -0.0724  1.0684
 2217SOL    HW118113   3.223   2.043   2.178 -1.3328 -1.1791  0.8943
 2217SOL    HW218114   3.359   2.031   2.112 -1.0066  3.0005  1.6428
 2218SOL     OW18115   1.195   3.519  10.202  0.2047  0.3149 -0.2340
 2218SOL    HW118116   1.135   3.468  10.257  2.6531 -0.0230  2.1679
 2218SOL    HW218117   1.142   3.525  10.123  1.3374 -0.7070 -1.0729
 2219SOL     OW18118   3.039   0.577   3.482  0.7399  0.3328 -0.3151
 2219SOL    HW118119   3.026   0.672   3.476  2.4588  0.6680  1.4937
 2219SOL    HW218120   3.130   0.572   3.512  0.4946 -1.3782  0.1005
 2220SOL     OW18121   1.436   2.853   5.992 -0.5050  0.8787  0.2330
 2220SOL    HW118122   1.442   2.909   6.070  2.7488 -0.7255  1.1058
 2220SOL    HW218123   1.359   2.901   5.961 -1.2635 -0.4782  0.0244
 2221SOL     OW18124   3.433   0.573   4.428 -0.0365 -0.3641  0.1069
 2221SOL    HW118125   3.503   0.510   4.445 -0.7420 -1.4837 -1.1005
 2221SOL    HW218126   3.356   0.527   4.461  1.6976 -0.7244  3.6111
 2222SOL     OW18127   4.216   1.550   4.774 -0.0829 -0.2850  0.0116
 2222SOL    HW118128   4.281   1.481   4.759  0.6018  0.4723 -0.4673
 2222SOL    HW218129   4.204   1.591   4.688  0.9749  0.7566  0.3622
 2223SOL     OW18130   1.243   4.644   7.147 -0.5229 -0.0297  0.0929
 2223SOL    HW118131   1.314   4.590   7.182 -0.0436 -0.4091 -1.4383
 2223SOL    HW218132   1.229   4.695   7.226  2.0744  2.4305 -1.0208
 2224SOL     OW18133   2.590   3.096   9.443 -0.4675  0.5778  0.2270
 2224SOL    HW118134   2.668   3.045   9.464 -0.6004 -0.1587 -1.0768
 2224SOL    HW218135   2.612   3.128   9.356  0.0668  1.7168  0.7715
 2225SOL     OW18136   1.128   4.333  15.820 -0.3284 -0.3500 -0.2641
 2225SOL    HW118137   1.094   4.258  15.770  0.9984 -0.6625 -0.7041
 2225SOL    HW218138   1.044   4.354  15.860 -0.4599  0.9062 -1.1998
 2226SOL     OW18139   3.564   0.454  12.053 -0.1015 -0.4941  0.4368
 2226SOL    HW118140   3.622   0.460  11.977  1.2676 -0.2542  1.4923
 2226SOL    HW218141   3.586   0.542  12.085  2.0148 -0.2690 -1.6715
 2227SOL     OW18142   1.559   1.561   9.550  0.2474  0.3665 -0.7859
 2227SOL    HW118143   1.564   1.547   9.455  0.0422 -0.0719 -0.7333
 2227SOL    HW218144   1.652   1.574   9.572  0.4855 -1.8895 -0.4592
 2228SOL     OW18145   2.782   0.242   4.039 -0.1104 -0.0802  0.1819
 2228SOL    HW118146   2.868   0.241   3.998 -0.0039 -0.1114  0.4064
 2228SOL    HW218147   2.744   0.162   4.003  0.5694 -0.4169  0.2177
 2229SOL     OW18148   2.085   3.509   9.946  1.0746 -0.6133  0.1639
 2229SOL    HW118149   2.004   3.461   9.960  0.9312 -0.8907 -1.5472
 2229SOL    HW218150   2.050   3.598   9.942  0.2721 -0.8064  3.4827
 2230SOL     OW18151   1.707   3.138   6.909  0.0696  0.1811 -0.1432
 2230SOL    HW118152   1.718   3.233   6.917  2.0899 -0.0562 -0.0266
 2230SOL    HW218153   1.691   3.125   7.002 -0.6257 -0.5984 -0.3757
 2231SOL     OW18154   4.423   3.648   2.306 -0.0934 -0.8126 -0.5438
 2231SOL    HW118155   4.356   3.709   2.274  0.9147  0.4711 -0.1801
 2231SOL    HW218156   4.390   3.619   2.391 -0.1645  2.2595  0.4787
 2232SOL     OW18157   3.641   0.629   1.148  0.1242 -0.5098  0.2707
 2232SOL    HW118158   3.676   0.573   1.079 -1.0907  0.2036 -0.9226
 2232SOL    HW218159   3.663   0.713   1.107  0.6926 -0.3194  0.9526
 2233SOL     OW18160   4.474   0.257   6.513  0.3026  0.3068 -1.2460
 2233SOL    HW118161   4.554   0.253   6.461 -0.6056  0.7292 -2.6581
 2233SOL    HW218162   4.466   0.353   6.513 -0.5900  0.2430  0.9362
 2234SOL     OW18163   0.601   2.098   7.535 -0.4245 -0.0942  0.0855
 2234SOL    HW118164   0.544   2.072   7.607 -2.0277 -2.3094 -2.0125
 2234SOL    HW218165   0.685   2.053   7.547  0.2066  0.3930 -2.4502
 2235SOL     OW18166   0.278   4.307   7.743  0.1917 -0.3655  0.2856
 2235SOL    HW118167   0.245   4.218   7.745  0.5506 -0.4726  1.4897
 2235SOL    HW218168   0.268   4.341   7.654 -1.2815 -0.4709  0.4043
 2236SOL     OW18169   1.186   1.190   2.736  0.2587 -0.3706  0.3437
 2236SOL    HW118170   1.181   1.097   2.710 -5.6943 -0.0677  0.2288
 2236SOL    HW218171   1.139   1.182   2.819  2.0739  1.6981  1.5628
 2237SOL     OW18172   1.375   0.444   8.045  0.0935 -0.1870 -0.3848
 2237SOL    HW118173   1.340   0.505   7.979  0.0977  0.2280 -0.0073
 2237SOL    HW218174   1.463   0.429   8.009 -0.9198  0.2436 -3.0539
 2238SOL     OW18175   1.184   2.910   1.511 -0.3083 -0.6853  0.0691
 2238SOL    HW118176   1.115   2.843   1.507 -0.7175 -0.1966 -1.0980
 2238SOL    HW218177   1.144   2.984   1.556 -1.6593 -0.2948 -1.7621
 2239SOL     OW18178   2.690   1.484  10.694 -0.2498 -0.1126  0.0213
 2239SOL    HW118179   2.730   1.451  10.614 -1.6784 -0.6179 -0.4891
 2239SOL    HW218180   2.660   1.407  10.742  0.7345 -1.3417 -1.3770
 2240SOL     OW18181   1.458   4.214   0.971  0.2594  0.1374 -0.7950
 2240SOL    HW118182   1.430   4.134   1.016  1.1806 -0.1060 -0.6504
 2240SOL    HW218183   1.378   4.251   0.934 -1.2596 -1.4708  0.8455
 2241SOL     OW18184   2.572   0.667   7.670 -0.0548  0.1444 -0.0111
 2241SOL    HW118185   2.577   0.608   7.594  0.1833  1.1952 -0.8108
 2241SOL    HW218186   2.559   0.601   7.738 -1.1392  1.6003  1.1725
 2242SOL     OW18187   2.756   4.144   8.137 -0.1111  0.2834  0.3155
 2242SOL    HW118188   2.847   4.122   8.120 -0.5293 -1.4173  0.2028
 2242SOL    HW218189   2.721   4.061   8.171 -1.4054 -0.2446 -2.3116
 2243SOL     OW18190   3.315   4.055  16.232  0.0990 -0.3722 -0.1725
 2243SOL    HW118191   3.372   4.049  16.309 -0.5729 -0.5851  0.2981
 2243SOL    HW218192   3.266   3.974  16.242  0.6848 -0.4430  2.1114
 2244SOL     OW18193   0.534   2.985   2.148  0.2134 -0.3747  0.6180
 2244SOL    HW118194   0.530   2.941   2.233 -2.1132 -1.0184  0.1642
 2244SOL    HW218195   0.451   2.955   2.111  0.7925 -1.0135 -0.1759
 2245SOL     OW18196   2.370   3.090   7.200 -0.0630  0.2938  0.3641
 2245SOL    HW118197   2.392   3.171   7.247  0.9798 -0.2333  0.7786
 2245SOL    HW218198   2.459   3.055   7.196 -0.1092 -0.0800  3.0068
 2246SOL     OW18199   1.722   1.860   4.824  0.0293  0.0899 -0.1103
 2246SOL    HW118200   1.769   1.785   4.788 -2.1623 -1.0916 -0.5084
 2246SOL    HW218201   1.765   1.925   4.769  1.0359 -1.6067 -1.3199
 2247SOL     OW18202   1.907   4.075   3.979 -0.3884  0.2181 -0.2276
 2247SOL    HW118203   1.973   4.105   3.918 -0.1185  1.3850  0.6373
 2247SOL    HW218204   1.863   4.156   4.004 -0.1967  0.1035  0.4937
 2248SOL     OW18205   0.493   0.441   4.768  0.3379  0.6913 -0.2978
 2248SOL    HW118206   0.563   0.475   4.712  0.5275  0.6817 -0.0669
 2248SOL    HW218207   0.414   0.478   4.729  0.1085 -0.5170 -0.9721
 2249SOL     OW18208   2.417   2.018   3.442 -0.3450 -0.2549  0.2970
 2249SOL    HW118209   2.373   1.952   3.388 -2.0062  0.0230  1.3025
 2249SOL    HW218210   2.347   2.036   3.505 -0.7537 -0.4775 -0.0887
 2250SOL     OW18211   3.909   3.847  11.285  0.2993  0.5659 -0.7173
 2250SOL    HW118212   3.979   3.861  11.222 -0.1759  1.2450 -1.0960
 2250SOL    HW218213   3.967   3.834  11.360  3.1322 -1.4605 -3.2664
 2251SOL     OW18214   3.480   2.072   3.476 -0.4420 -0.0798  0.1567
 2251SOL    HW118215   3.477   2.042   3.567 -1.1256 -1.9406 -0.4735
 2251SOL    HW218216   3.551   2.136   3.474 -0.0440 -0.6048 -2.2448
 2252SOL     OW18217   2.659   0.600   2.019 -0.3349 -0.1905  0.1478
 2252SOL    HW118218   2.737   0.655   2.021 -0.7583  0.4266 -0.1739
 2252SOL    HW218219   2.599   0.661   1.978 -2.3955  0.9496  4.7935
 2253SOL     OW18220   0.599   4.255   2.995 -0.8264  0.3416 -0.5516
 2253SOL    HW118221   0.689   4.228   2.977 -1.5151 -2.3362  0.0958
 2253SOL    HW218222   0.559   4.177   3.033  2.6092 -1.0033  0.3358
 2254SOL     OW18223   1.694   1.820   7.746  0.0105  0.3233 -0.4006
 2254SOL    HW118224   1.642   1.872   7.685  1.3053  2.5183  0.3409
 2254SOL    HW218225   1.667   1.731   7.726 -0.0706 -0.1610  1.7867
 2255SOL     OW18226   0.800   2.039  11.433 -0.9408 -0.2725  0.2629
 2255SOL    HW118227   0.891   2.064  11.448 -1.1866 -0.5801  2.2451
 2255SOL    HW218228   0.765   2.128  11.425 -2.2610 -0.6875  1.4019
 2256SOL     OW18229   2.438   4.088   4.879 -0.1562  0.6703  0.1570
 2256SOL    HW118230   2.487   4.016   4.839 -0.0368  0.1779  1.1791
 2256SOL    HW218231   2.387   4.122   4.806  0.2545 -0.7789 -0.8078
 2257SOL     OW18232   3.104   2.990   0.601  0.1625  0.4895  0.0065
 2257SOL    HW118233   3.167   3.023   0.665  0.7089 -0.7802  0.1244
 2257SOL    HW218234   3.025   3.039   0.626 -0.3749 -0.6204  0.5340
 2258SOL     OW18235   0.309   4.161  13.841  0.0421 -0.3880  0.1854
 2258SOL    HW118236   0.376   4.108  13.798  2.2906  1.9490  0.8045
 2258SOL    HW218237   0.349   4.240  13.878  0.2727 -0.5226  0.2254
 2259SOL     OW18238   4.612   3.473  13.446  0.2220 -0.0138 -0.6767
 2259SOL    HW118239   4.604   3.511  13.359 -1.6220 -1.1518 -1.0088
 2259SOL    HW218240   4.696   3.507  13.477  0.4025 -0.7802 -0.3467
 2260SOL     OW18241   4.124   0.623  17.152 -0.3769 -0.4401 -0.1739
 2260SOL    HW118242   4.145   0.626  17.246  1.4823  1.5047 -0.6615
 2260SOL    HW218243   4.072   0.543  17.150  1.3290 -1.4791 -2.2316
 2261SOL     OW18244   1.530   0.172   0.477 -0.9319 -0.1616  0.4808
 2261SOL    HW118245   1.531   0.084   0.515  1.6257  0.1227  1.0315
 2261SOL    HW218246   1.577   0.220   0.544  0.7155 -3.2139  1.5225
 2262SOL     OW18247   3.413   2.951   6.397 -0.5596 -0.4918 -0.5773
 2262SOL    HW118248   3.382   2.893   6.466  1.8135 -1.4311 -0.3026
 2262SOL    HW218249   3.337   2.949   6.339 -0.1925 -1.2414 -1.0315
 2263SOL     OW18250   0.553   1.623   2.874 -0.2082 -0.0242  0.1764
 2263SOL    HW118251   0.516   1.711   2.868 -0.2225  0.0103  0.7194
 2263SOL    HW218252   0.613   1.638   2.948  1.6341  1.3886 -1.6149
 2264SOL     OW18253   1.335   1.329   7.392  0.6964  0.3140 -0.6146
 2264SOL    HW118254   1.428   1.305   7.388  0.8013  0.9548 -2.0138
 2264SOL    HW218255   1.302   1.256   7.444  1.1983 -0.5872 -1.5493
 2265SOL     OW18256   4.573   3.936   3.925  0.0541  0.0882 -0.5453
 2265SOL    HW118257   4.490   3.948   3.970 -0.8816 -0.3269 -2.1912
 2265SOL    HW218258   4.594   4.019   3.882  0.2684  0.2111 -0.2042
 2266SOL     OW18259   1.139   3.249  13.828 -0.3965  0.1989 -0.2581
 2266SOL    HW118260   1.199   3.189  13.872  0.0164  0.5766 -0.3029
 2266SOL    HW218261   1.200   3.277  13.760 -0.7336  1.8289  0.1039
 2267SOL     OW18262   2.743   2.052   0.876  0.2043  0.0013 -0.3418
 2267SOL    HW118263   2.663   2.102   0.862 -0.2957 -0.6827  0.0396
 2267SOL    HW218264   2.757   2.026   0.785 -0.3405  3.0033 -1.2786
 2268SOL     OW18265   2.446   3.576   9.579  0.2587 -0.2252  0.0456
 2268SOL    HW118266   2.489   3.492   9.596  0.0314 -0.2643  0.4481
 2268SOL    HW218267   2.378   3.578   9.647  0.3505  2.2894  0.0407
 2269SOL     OW18268   2.432   2.909  17.244 -0.0105 -0.0147  0.4527
 2269SOL    HW118269   2.342   2.924  17.276 -0.4602 -0.3396 -0.6735
 2269SOL    HW218270   2.458   2.992  17.205  1.2984  0.5132  2.4637
 2270SOL     OW18271   0.401   2.453   1.783 -0.1761  0.0890  0.3986
 2270SOL    HW118272   0.330   2.494   1.734  2.0169  1.6712 -1.4498
 2270SOL    HW218273   0.420   2.519   1.850 -1.8860 -0.3916  1.3518
 2271SOL     OW18274   2.928   0.902   7.099 -1.0198 -0.0144 -0.1084
 2271SOL    HW118275   2.975   0.827   7.134  2.1801  1.9590 -0.1981
 2271SOL    HW218276   2.998   0.953   7.057 -1.0856 -0.2140 -0.4629
 2272SOL     OW18277   3.398   3.282   1.478  0.6259 -0.2752  0.3477
 2272SOL    HW118278   3.386   3.325   1.393 -1.2160  4.1460  2.8589
 2272SOL    HW218279   3.410   3.190   1.454  2.2528 -0.7656  3.1264
 2273SOL     OW18280   2.157   0.937   9.109 -0.2650  0.2750  0.1686
 2273SOL    HW118281   2.096   0.920   9.036 -0.3197  0.7827  0.0912
 2273SOL    HW218282   2.100   0.909   9.181  0.0164  0.0214  0.2886
 2274SOL     OW18283   2.756   1.196  13.714  0.2550 -0.1141  0.5177
 2274SOL    HW118284   2.736   1.282  13.752  0.0392  0.5699 -1.1659
 2274SOL    HW218285   2.704   1.191  13.634  2.7670  0.7734 -1.1568
 2275SOL     OW18286   1.559   1.469  15.860  0.1321  0.2636 -0.5441
 2275SOL    HW118287   1.610   1.535  15.907 -2.6806 -0.2856  3.3481
 2275SOL    HW218288   1.606   1.392  15.889  2.8045  1.9411 -0.4221
 2276SOL     OW18289   2.447   2.571  16.228  0.1444  0.1165 -0.3196
 2276SOL    HW118290   2.457   2.500  16.292  0.5216 -0.7415 -1.3463
 2276SOL    HW218291   2.364   2.549  16.187 -0.3774  0.5638  0.4835
 2277SOL     OW18292   1.280   4.116  13.643  0.3336  0.6225  0.2386
 2277SOL    HW118293   1.211   4.087  13.583 -0.4890  1.3400  0.8390
 2277SOL    HW218294   1.263   4.067  13.723  0.0352  0.5842  0.1522
 2278SOL     OW18295   2.128   1.600   1.366 -0.0532  0.8013 -0.1650
 2278SOL    HW118296   2.134   1.562   1.278  1.6004  0.1144  0.2570
 2278SOL    HW218297   2.037   1.630   1.376 -0.5464  0.0825 -2.4708
 2279SOL     OW18298   0.973   3.453   4.805 -0.0760 -0.7138  0.0179
 2279SOL    HW118299   0.917   3.377   4.791  0.9845 -1.6497  0.9198
 2279SOL    HW218300   1.005   3.479   4.718  2.0884 -1.5216  0.5674
 2280SOL     OW18301   3.264   4.473   1.438 -0.3169 -0.2057 -0.4364
 2280SOL    HW118302   3.354   4.442   1.422  0.3399  1.0603  0.8153
 2280SOL    HW218303   3.275   4.563   1.470 -0.9071 -0.3512  0.1779
 2281SOL     OW18304   2.256   3.502   0.901 -0.3708  0.2768 -0.0262
 2281SOL    HW118305   2.202   3.461   0.969  1.8513 -1.1777  0.8655
 2281SOL    HW218306   2.344   3.508   0.937 -0.2768  1.0651 -0.3936
 2282SOL     OW18307   3.081   3.642   4.324 -0.3254  0.0606  0.0872
 2282SOL    HW118308   3.072   3.548   4.342  2.2949 -0.3828 -0.9733
 2282SOL    HW218309   3.069   3.640   4.229  0.1843  0.0482  0.0245
 2283SOL     OW18310   4.035   2.919   8.449 -0.5728 -0.3308 -0.5591
 2283SOL    HW118311   3.972   2.987   8.475  1.8760  2.4774 -1.9401
 2283SOL    HW218312   4.110   2.971   8.418  1.2816 -1.4121  2.1418
 2284SOL     OW18313   0.625   0.959   9.343  0.0171 -0.1576  0.0173
 2284SOL    HW118314   0.713   0.950   9.381  0.2964  1.8923 -0.1807
 2284SOL    HW218315   0.575   0.993   9.418 -0.6237 -3.8802  1.3092
 2285SOL     OW18316   0.705   1.628   3.429  0.0392  0.1033 -0.0147
 2285SOL    HW118317   0.647   1.616   3.505  0.6044  2.0045  0.7351
 2285SOL    HW218318   0.648   1.672   3.366 -1.2930 -2.1734 -0.3831
 2286SOL     OW18319   1.793   4.566   1.932  0.0954 -0.0161 -0.2937
 2286SOL    HW118320   1.724   4.618   1.974  1.3310  0.3855  1.2552
 2286SOL    HW218321   1.870   4.614   1.963 -0.5182  0.2656  0.8117
 2287SOL     OW18322   2.845   1.766   5.206  0.4775 -0.0998 -0.1810
 2287SOL    HW118323   2.781   1.766   5.134  1.5862  1.2000 -1.1692
 2287SOL    HW218324   2.819   1.846   5.251  1.1216  0.3223 -0.5515
 2288SOL     OW18325   4.717   0.122   7.330  0.0204 -0.2121  0.5101
 2288SOL    HW118326   4.708   0.039   7.283  0.4598 -0.3582  0.6832
 2288SOL    HW218327   0.043   0.099   7.409  0.8363  1.5580  0.5342
 2289SOL     OW18328   1.343   0.415  10.408  0.1225 -0.3628 -0.2454
 2289SOL    HW118329   1.410   0.438  10.473 -0.2556  0.3945 -0.1250
 2289SOL    HW218330   1.266   0.400  10.462  0.6306 -0.6151  0.4162
 2290SOL     OW18331   1.545   3.425   6.213  0.8431  0.3312  0.1350
 2290SOL    HW118332   1.602   3.378   6.274  1.8128 -1.4031 -2.1037
 2290SOL    HW218333   1.503   3.477   6.282 -1.2383 -1.4792  0.1975
 2291SOL     OW18334   3.672   4.115   3.071 -0.1882 -0.4915 -0.9602
 2291SOL    HW118335   3.633   4.154   2.993  2.1626  0.6479 -1.5592
 2291SOL    HW218336   3.761   4.103   3.037  0.6020  0.6880  0.6928
 2292SOL     OW18337   4.102   2.481   7.541  0.2425 -0.0065 -0.3029
 2292SOL    HW118338   4.074   2.450   7.455  0.2152 -1.1491  0.1197
 2292SOL    HW218339   4.156   2.407   7.567  0.6947  0.7904  1.0344
 2293SOL     OW18340   3.677   0.085   7.851 -0.1824  0.4460  0.3943
 2293SOL    HW118341   3.610   0.128   7.798  0.8061  1.1404 -0.3043
 2293SOL    HW218342   3.738   0.159   7.859  0.5813 -0.0465 -0.8427
 2294SOL     OW18343   2.923   0.129   7.016 -0.3521  0.2407  0.1193
 2294SOL    HW118344   2.922   0.212   7.065  0.4146  0.1214  0.3351
 2294SOL    HW218345   2.981   0.072   7.066 -1.9311  1.1019  2.8986
 2295SOL     OW18346   4.546   1.489   7.006  0.1377 -0.2324  0.0226
 2295SOL    HW118347   4.627   1.481   6.955  0.6304 -1.4832  1.0158
 2295SOL    HW218348   4.527   1.583   6.999  0.4386 -0.2812 -1.5600
 2296SOL     OW18349   1.716   4.707  11.621 -0.3779  0.1318  0.4802
 2296SOL    HW118350   1.752   0.013  11.705  1.9855  0.7476 -0.7360
 2296SOL    HW218351   1.659   4.639  11.655 -0.7087  0.7888  1.2241
 2297SOL     OW18352   4.209   4.569   1.475 -0.4951  0.0743 -0.1688
 2297SOL    HW118353   4.261   4.491   1.494  0.2839  1.3478  2.9195
 2297SOL    HW218354   4.135   4.549   1.532  0.7195  0.7696  1.6736
 2298SOL     OW18355   3.432   3.397   8.225 -0.8302 -0.1244  0.5160
 2298SOL    HW118356   3.358   3.388   8.165 -1.1028  1.0235  0.6828
 2298SOL    HW218357   3.506   3.404   8.164 -2.0346  0.2702 -0.8978
 2299SOL     OW18358   4.365   2.972   1.019 -0.2866 -0.5658 -0.3792
 2299SOL    HW118359   4.453   3.005   1.004 -0.0497 -0.7858  0.4953
 2299SOL    HW218360   4.352   2.920   0.940  3.6239 -0.9530 -0.7210
 2300SOL     OW18361   1.952   4.554  15.454  0.1084  0.3031  0.0194
 2300SOL    HW118362   1.898   4.535  15.378  0.6929  0.1192 -0.3440
 2300SOL    HW218363   1.903   4.491  15.508  2.5657 -0.2358  1.6373
 2301SOL     OW18364   2.408   3.243   2.301  0.0763 -0.0373 -0.2968
 2301SOL    HW118365   2.386   3.164   2.253  1.1192 -1.2993  1.2839
 2301SOL    HW218366   2.432   3.206   2.386 -2.0169  1.0100  0.7549
 2302SOL     OW18367   3.923   2.174   2.877 -0.1709  0.2954  0.0967
 2302SOL    HW118368   3.899   2.154   2.786  2.1545  1.0120 -0.6475
 2302SOL    HW218369   3.851   2.142   2.933  0.1061  0.1516  0.3684
 2303SOL     OW18370   4.197   3.020   5.538 -0.5610  0.2144  0.0746
 2303SOL    HW118371   4.292   3.034   5.542 -0.7065  1.1542  0.3237
 2303SOL    HW218372   4.188   2.925   5.542  1.6015 -0.0024 -0.1074
 2304SOL     OW18373   3.712   0.022  13.373 -0.2649 -0.2145  0.0310
 2304SOL    HW118374   3.660   4.681  13.423 -1.2855  0.9791  0.4971
 2304SOL    HW218375   3.739   4.687  13.301  0.4085  0.4312 -0.2347
 2305SOL     OW18376   4.243   0.405  11.891 -0.1899  0.2711  0.4323
 2305SOL    HW118377   4.203   0.327  11.930 -1.0136  1.2415  1.5511
 2305SOL    HW218378   4.167   0.448  11.852 -0.4863 -0.7452 -0.1152
 2306SOL     OW18379   1.470   2.214  16.153  0.2283 -0.5789  0.3790
 2306SOL    HW118380   1.454   2.290  16.208 -0.7004 -0.9165  0.5755
 2306SOL    HW218381   1.486   2.152  16.223 -0.9781  0.0021  1.1814
 2307SOL     OW18382   1.305   2.050   8.495  0.0248  0.6686 -0.6040
 2307SOL    HW118383   1.234   2.024   8.435  0.3348 -0.6429 -0.3825
 2307SOL    HW218384   1.265   2.054   8.582 -0.4650 -0.3843 -0.7874
 2308SOL     OW18385   1.649   3.879   0.330  0.2608  0.3681 -0.0104
 2308SOL    HW118386   1.662   3.947   0.263  1.3057 -0.2313 -0.4219
 2308SOL    HW218387   1.726   3.885   0.386  0.1122 -1.1204  0.3457
 2309SOL     OW18388   2.000   3.420  13.790 -0.3389  0.4752  0.1148
 2309SOL    HW118389   1.952   3.410  13.708  0.9202 -0.7699 -0.4631
 2309SOL    HW218390   1.930   3.418  13.856 -1.8732 -2.0938 -1.6109
 2310SOL     OW18391   2.548   3.202   7.521  0.0237  0.3246 -0.2369
 2310SOL    HW118392   2.603   3.201   7.443  0.7022 -0.1059  0.2519
 2310SOL    HW218393   2.522   3.111   7.533 -1.1428  0.5203 -1.2579
 2311SOL     OW18394   4.699   3.620   8.867 -0.3060 -0.0040 -0.1790
 2311SOL    HW118395   4.682   3.707   8.832 -1.1345 -0.2415 -0.3748
 2311SOL    HW218396   4.708   3.569   8.787  1.1039 -0.7274  0.4438
 2312SOL     OW18397   0.356   4.102  10.667 -0.4787 -0.2109  0.0892
 2312SOL    HW118398   0.370   4.156  10.589  1.0183 -0.4186  0.2117
 2312SOL    HW218399   0.263   4.079  10.669 -0.8951  1.4340 -0.9093
 2313SOL     OW18400   0.175   0.995  16.213  0.8256  0.3483 -0.0474
 2313SOL    HW118401   0.250   0.936  16.202  1.2223  1.0018 -0.8529
 2313SOL    HW218402   0.102   0.943  16.182  1.3755 -0.9223  0.7572
 2314SOL     OW18403   0.545   3.659   3.572 -0.0040  0.1653 -0.5450
 2314SOL    HW118404   0.627   3.706   3.556  0.9178 -0.4916  2.4115
 2314SOL    HW218405   0.489   3.737   3.577 -0.0493 -0.0022  1.5286
 2315SOL     OW18406   4.354   3.825   3.255 -0.1678  0.5482  0.1703
 2315SOL    HW118407   4.388   3.891   3.194 -0.4473  0.9384  0.4427
 2315SOL    HW218408   4.385   3.849   3.342 -1.3027  0.8716  0.4807
 2316SOL     OW18409   3.931   4.307   8.915 -0.4160 -0.1371 -0.2290
 2316SOL    HW118410   3.972   4.352   8.841  0.5423  0.4655  0.6622
 2316SOL    HW218411   3.854   4.361   8.935  0.0375 -0.2386  1.7647
 2317SOL     OW18412   2.973   4.308   7.340  0.5973 -0.2217 -0.3707
 2317SOL    HW118413   2.951   4.401   7.338 -1.5526 -0.7263 -0.2262
 2317SOL    HW218414   2.981   4.291   7.246  0.1171 -0.8469 -0.3061
 2318SOL     OW18415   0.876   1.873   5.563 -0.1714  0.3452  0.4224
 2318SOL    HW118416   0.883   1.890   5.657 -1.8655  1.1057  0.4212
 2318SOL    HW218417   0.832   1.788   5.552 -0.8376  1.0200 -1.9755
 2319SOL     OW18418   2.233   2.889   9.127 -0.2088 -0.6008 -0.3313
 2319SOL    HW118419   2.293   2.820   9.156  0.0351 -0.3634 -0.2685
 2319SOL    HW218420   2.289   2.965   9.114 -0.3489 -0.2528  1.1579
 2320SOL     OW18421   3.053   4.244   1.977  0.2176  0.1020 -0.0610
 2320SOL    HW118422   3.138   4.276   1.948  1.4889 -2.8681  0.4240
 2320SOL    HW218423   3.050   4.260   2.072  0.2701  0.3425 -0.1009
 2321SOL     OW18424   0.043   0.263   5.527 -0.1024  0.2551  0.2948
 2321SOL    HW118425   4.672   0.264   5.544 -0.1596 -1.9666  0.0258
 2321SOL    HW218426   0.046   0.353   5.496  1.1606 -0.0708 -0.5218
 2322SOL     OW18427   3.157   3.024   4.544  0.3492 -0.0749 -0.4516
 2322SOL    HW118428   3.243   2.981   4.545  0.7426  0.7191  0.0790
 2322SOL    HW218429   3.146   3.023   4.638  0.0089  0.7857 -0.4831
 2323SOL     OW18430   2.302   0.934  15.386  0.0283 -0.0318 -0.8182
 2323SOL    HW118431   2.233   0.919  15.321  0.3139  0.5636 -1.2566
 2323SOL    HW218432   2.368   0.873  15.354  2.3644  3.1456 -1.9661
 2324SOL     OW18433   2.781   1.574  13.547 -0.8658  0.2143 -0.0661
 2324SOL    HW118434   2.863   1.624  13.541 -1.3484  1.0131 -0.0986
 2324SOL    HW218435   2.759   1.563  13.639  0.5905  2.3699  0.5499
 2325SOL     OW18436   1.802   0.862   0.401  0.0183  0.3038 -0.0170
 2325SOL    HW118437   1.834   0.952   0.391  0.7714 -0.0582 -0.9245
 2325SOL    HW218438   1.861   0.820   0.464 -1.0146  0.6039  1.1434
 2326SOL     OW18439   4.373   3.942   0.557 -0.0004  0.1821  0.0423
 2326SOL    HW118440   4.303   3.986   0.510  0.2382  0.6120  0.0880
 2326SOL    HW218441   4.404   4.015   0.611 -0.0767 -0.6780  1.2662
 2327SOL     OW18442   4.151   0.375   1.879 -0.2916  0.7574  0.4909
 2327SOL    HW118443   4.220   0.339   1.825 -0.2358 -2.7924  2.9337
 2327SOL    HW218444   4.120   0.444   1.820 -0.0483 -1.2526 -1.9727
 2328SOL     OW18445   1.840   2.977   7.928 -0.3708 -0.1714  0.1478
 2328SOL    HW118446   1.795   2.992   8.010  2.4114 -0.6683  1.7739
 2328SOL    HW218447   1.795   3.043   7.876 -2.1989  0.0380  2.0264
 2329SOL     OW18448   4.148   3.089  16.429  0.0154 -0.2222  0.3410
 2329SOL    HW118449   4.196   3.166  16.460  0.1838 -0.2981  0.2631
 2329SOL    HW218450   4.195   3.028  16.486  0.6526 -0.8111 -0.8186
 2330SOL     OW18451   3.914   1.501   8.226 -0.8265  0.8178  0.2273
 2330SOL    HW118452   3.845   1.444   8.194  0.0071 -0.0105 -0.1066
 2330SOL    HW218453   3.885   1.518   8.316  2.2885  0.3198  1.3388
 2331SOL     OW18454   4.408   0.355  12.084  0.7333  0.4759  0.3430
 2331SOL    HW118455   4.422   0.440  12.126 -1.6876  0.2992  1.5233
 2331SOL    HW218456   4.349   0.380  12.013  0.8290  0.7501  0.3629
 2332SOL     OW18457   3.873   0.752   5.070  0.5243 -0.0002  0.3358
 2332SOL    HW118458   3.802   0.803   5.108  1.3129  0.4892  1.1598
 2332SOL    HW218459   3.947   0.779   5.124  0.3419  0.9057  0.1449
 2333SOL     OW18460   1.847   4.277  13.011  0.0163  0.1008 -0.1820
 2333SOL    HW118461   1.921   4.226  13.047  1.8445  0.9920 -2.6855
 2333SOL    HW218462   1.886   4.286  12.924 -2.5429 -0.3863 -1.3553
 2334SOL     OW18463   2.260   2.370   2.762 -0.1443  0.4541  0.2548
 2334SOL    HW118464   2.336   2.355   2.817 -0.1290  0.2973  0.1897
 2334SOL    HW218465   2.188   2.344   2.820 -0.1302 -0.7451 -0.2822
 2335SOL     OW18466   4.375   1.446   3.474  1.0142  0.2037  0.2800
 2335SOL    HW118467   4.281   1.426   3.468  1.2204 -2.0077  4.6308
 2335SOL    HW218468   4.405   1.357   3.489  1.0865  0.4144  1.3716
 2336SOL     OW18469   0.272   2.577   3.047 -0.1175 -0.1965  0.1910
 2336SOL    HW118470   0.321   2.580   2.964 -0.1845 -0.0470  0.1573
 2336SOL    HW218471   0.289   2.486   3.071  0.9454 -0.4996 -1.7006
 2337SOL     OW18472   1.692   4.304   1.974 -0.0337 -0.3016  0.0535
 2337SOL    HW118473   1.742   4.380   1.944 -2.0512  1.6693  1.6681
 2337SOL    HW218474   1.666   4.330   2.063 -0.1645  0.4168 -0.1908
 2338SOL     OW18475   0.508   2.631   8.328 -0.4362  0.4385 -0.1096
 2338SOL    HW118476   0.590   2.660   8.369  0.4407 -1.0943 -0.7936
 2338SOL    HW218477   0.451   2.622   8.405  0.0087 -1.2024  0.0299
 2339SOL     OW18478   4.597   1.273  12.240 -0.1097 -0.1226 -0.3003
 2339SOL    HW118479   4.661   1.235  12.180 -0.3574 -1.0187  0.0009
 2339SOL    HW218480   4.532   1.204  12.229 -0.5453  0.5466 -1.9225
 2340SOL     OW18481   3.448   1.048   8.166  0.9768 -0.5063 -0.2007
 2340SOL    HW118482   3.492   1.041   8.251 -2.0032  0.4027  1.4119
 2340SOL    HW218483   3.456   1.143   8.162  1.5306 -0.5015  1.0225
 2341SOL     OW18484   2.367   3.574   6.224 -0.2499  0.1448  0.4562
 2341SOL    HW118485   2.368   3.600   6.316  0.5512  0.8774  0.2417
 2341SOL    HW218486   2.381   3.482   6.249 -1.8709 -0.2630 -0.1081
 2342SOL     OW18487   0.190   2.615   8.641 -0.0001  0.4554  0.2964
 2342SOL    HW118488   0.177   2.634   8.734  1.1343 -1.0928  0.7792
 2342SOL    HW218489   0.278   2.651   8.637 -0.0346  0.5291  0.1863
 2343SOL     OW18490   0.029   2.671   5.285  0.2658  0.4251  0.5035
 2343SOL    HW118491   0.099   2.678   5.350 -1.1875 -0.0649  2.1291
 2343SOL    HW218492   0.067   2.603   5.231 -2.8529 -0.0531 -1.1111
 2344SOL     OW18493   0.041   2.024  12.095  0.3553 -0.1444 -0.3181
 2344SOL    HW118494   0.113   2.049  12.152 -0.4526  0.9269  0.2297
 2344SOL    HW218495   4.702   2.001  12.164  0.1661 -2.1384 -1.1431
 2345SOL     OW18496   1.178   1.926   3.835 -0.1490 -0.4294  0.3955
 2345SOL    HW118497   1.165   1.836   3.865 -0.6074 -0.2738  0.6595
 2345SOL    HW218498   1.089   1.950   3.812 -0.0613  0.9431  1.4655
 2346SOL     OW18499   0.256   1.743   0.658  0.0422 -0.0134 -0.5001
 2346SOL    HW118500   0.293   1.832   0.662 -2.3111  1.0558 -2.2644
 2346SOL    HW218501   0.334   1.689   0.666 -0.1653 -0.3045 -0.4517
 2347SOL     OW18502   4.298   2.937   2.245  0.3120 -0.3677 -0.3375
 2347SOL    HW118503   4.324   2.914   2.334  0.6454 -0.1478 -0.3802
 2347SOL    HW218504   4.203   2.923   2.244 -0.0922  2.5719 -2.5162
 2348SOL     OW18505   1.428   3.283   6.548  0.1509  0.0462  0.3424
 2348SOL    HW118506   1.402   3.233   6.626  2.2075  0.9791  1.6305
 2348SOL    HW218507   1.399   3.374   6.555  0.4937  0.2487 -1.0163
 2349SOL     OW18508   1.147   2.412  15.275  0.1046  0.2247 -0.0390
 2349SOL    HW118509   1.200   2.460  15.339  0.2445 -1.6040  1.2266
 2349SOL    HW218510   1.197   2.331  15.276  0.5663  0.5111  0.5767
 2350SOL     OW18511   0.330   2.358   9.569  0.4145 -0.0983  0.4561
 2350SOL    HW118512   0.329   2.341   9.663  0.3591  2.5886  0.9320
 2350SOL    HW218513   0.317   2.266   9.547 -2.7970  0.3857  0.3254
 2351SOL     OW18514   0.474   4.140  15.636  0.3777  0.1510  0.0176
 2351SOL    HW118515   0.555   4.181  15.666 -0.8370  2.3545  0.3330
 2351SOL    HW218516   0.500   4.050  15.617  1.6676  0.0420  2.3532
 2352SOL     OW18517   3.701   4.351   0.712  0.2670  0.1130  0.8046
 2352SOL    HW118518   3.610   4.324   0.704  0.3730 -0.0255 -0.0118
 2352SOL    HW218519   3.732   4.275   0.761 -1.7383 -2.2958 -1.6630
 2353SOL     OW18520   3.493   0.230   4.664  0.3453  0.4246 -0.1733
 2353SOL    HW118521   3.546   0.277   4.600  1.0413 -1.7787 -1.2426
 2353SOL    HW218522   3.561   0.176   4.703 -0.7755 -1.8510 -1.3411
 2354SOL     OW18523   4.434   4.314  12.843 -0.2189  0.0881 -0.7957
 2354SOL    HW118524   4.418   4.408  12.833 -0.2763 -0.1220 -2.6157
 2354SOL    HW218525   4.491   4.294  12.769  0.1349  3.5578 -1.4827
 2355SOL     OW18526   4.616   1.581  15.453  0.0075  0.6161  0.4518
 2355SOL    HW118527   4.538   1.631  15.476  0.2519  0.4172  1.6788
 2355SOL    HW218528   4.674   1.644  15.496  2.2822 -1.0213 -0.2455
 2356SOL     OW18529   2.123   2.974   0.637  0.0707 -0.3359  0.3873
 2356SOL    HW118530   2.187   2.902   0.634 -0.2517 -0.5901 -0.5271
 2356SOL    HW218531   2.041   2.926   0.646 -0.8174  1.0479 -0.3744
 2357SOL     OW18532   2.469   3.812  11.079 -0.5208 -0.0911  0.3333
 2357SOL    HW118533   2.375   3.820  11.096 -0.7777 -2.4755  0.0105
 2357SOL    HW218534   2.472   3.716  11.086  1.1209 -0.0775 -0.2179
 2358SOL     OW18535   1.486   1.833  11.007 -0.6854 -0.2876  0.1509
 2358SOL    HW118536   1.482   1.928  11.020 -0.3771 -0.2007 -0.3884
 2358SOL    HW218537   1.578   1.820  10.981 -1.0885 -3.9314  0.6142
 2359SOL     OW18538   1.126   4.170   4.942  0.1973  0.4174 -0.1232
 2359SOL    HW118539   1.059   4.105   4.922  0.0599  0.1334  1.2750
 2359SOL    HW218540   1.071   4.244   4.968  0.8010  1.3590 -1.5337
 2360SOL     OW18541   3.038   0.651   7.206  0.5264  0.2466  0.2266
 2360SOL    HW118542   3.068   0.580   7.263 -0.8192  0.2961  0.9829
 2360SOL    HW218543   3.046   0.721   7.271 -0.9687  0.5815  0.0352
 2361SOL     OW18544   1.074   1.727  17.513 -0.2495 -0.2043 -0.1260
 2361SOL    HW118545   1.019   1.735  17.435 -1.0202  1.2934  0.5803
 2361SOL    HW218546   1.021   1.670  17.568 -1.7820 -1.8498 -3.3265
 2362SOL     OW18547   0.828   2.832   7.255 -1.0999  0.6709 -0.1528
 2362SOL    HW118548   0.828   2.838   7.159 -0.1433  1.1406 -0.1250
 2362SOL    HW218549   0.786   2.747   7.270  1.9298 -0.5442  1.3409
 2363SOL     OW18550   4.280   0.256   5.303  0.2161 -0.4062 -0.7213
 2363SOL    HW118551   4.347   0.217   5.248  0.5257 -0.0488 -0.5964
 2363SOL    HW218552   4.304   0.348   5.301  0.7616 -0.4810  1.9810
 2364SOL     OW18553   0.053   2.968  12.386 -0.3180 -0.1466  0.2838
 2364SOL    HW118554   0.089   2.948  12.300 -0.1887  3.4992 -0.4754
 2364SOL    HW218555   0.116   3.032  12.416 -0.1975 -0.2664  0.2863
 2365SOL     OW18556   3.304   1.212   9.150 -0.6305 -0.5603  0.1045
 2365SOL    HW118557   3.364   1.189   9.221 -1.3161 -1.1110  0.5069
 2365SOL    HW218558   3.226   1.157   9.155  0.4234 -2.0669  0.3214
 2366SOL     OW18559   2.073   3.188   0.482  0.1493 -0.4163 -0.7750
 2366SOL    HW118560   2.010   3.152   0.419 -1.2771  1.7755 -0.5777
 2366SOL    HW218561   2.105   3.106   0.521 -1.5516 -1.8947 -2.4707
 2367SOL     OW18562   1.986   2.977   6.330 -0.6185  0.3007  0.0176
 2367SOL    HW118563   1.894   2.986   6.351 -0.8002 -2.6238  0.5795
 2367SOL    HW218564   2.010   2.895   6.374  2.5963  1.7095  0.8922
 2368SOL     OW18565   1.119   3.013   0.657  0.3560  0.5853 -0.2787
 2368SOL    HW118566   1.093   2.941   0.714 -0.6387 -0.5435 -2.1774
 2368SOL    HW218567   1.118   3.088   0.717 -1.9657 -0.7702  1.3684
 2369SOL     OW18568   4.444   2.694  17.415 -0.5894  0.4186 -0.1809
 2369SOL    HW118569   4.394   2.708  17.496  0.4431  1.7610  0.2181
 2369SOL    HW218570   4.405   2.615  17.377 -0.8374  0.3442  0.2286
 2370SOL     OW18571   2.277   1.867   6.077 -0.2579  0.2271 -0.2303
 2370SOL    HW118572   2.245   1.931   6.141 -1.1494 -1.5143  1.0870
 2370SOL    HW218573   2.369   1.875   6.099  0.1653  3.4102 -3.1985
 2371SOL     OW18574   0.818   3.453   7.767  0.0251  0.6594 -0.2888
 2371SOL    HW118575   0.880   3.509   7.812 -0.4841  1.1883 -0.2471
 2371SOL    HW218576   0.760   3.511   7.717 -0.5871  0.2103 -0.1078
 2372SOL     OW18577   3.207   3.395   5.519 -0.3659  0.3296  0.1798
 2372SOL    HW118578   3.248   3.446   5.448 -0.5771 -0.5294 -0.5593
 2372SOL    HW218579   3.287   3.369   5.564  1.1709 -0.1661 -2.8313
 2373SOL     OW18580   3.498   2.971  14.730 -0.0683  0.6471  0.2889
 2373SOL    HW118581   3.551   2.917  14.788 -0.5797  0.3326  0.4663
 2373SOL    HW218582   3.571   3.019  14.692 -0.9417 -0.5335 -2.8458
 2374SOL     OW18583   3.425   3.029   4.521  0.2288  0.6574  0.6777
 2374SOL    HW118584   3.503   3.085   4.520  0.4431  0.3135 -1.4718
 2374SOL    HW218585   3.466   2.951   4.485 -1.0736 -0.5469  1.8073
 2375SOL     OW18586   4.416   0.138  12.228  0.7913 -0.1592  0.0154
 2375SOL    HW118587   4.379   0.069  12.173 -0.6986  1.3330 -0.8511
 2375SOL    HW218588   4.400   0.214  12.173 -0.9180  0.9717  2.1001
 2376SOL     OW18589   2.658   4.224   9.559  0.1943 -0.5881 -0.3579
 2376SOL    HW118590   2.587   4.277   9.524  0.7406 -0.7581 -1.7256
 2376SOL    HW218591   2.686   4.275   9.635  0.1586 -1.2925  0.1274
 2377SOL     OW18592   0.670   3.666   7.594  0.1187  0.5954  0.7225
 2377SOL    HW118593   0.610   3.593   7.581  2.6113 -1.6512  1.5639
 2377SOL    HW218594   0.619   3.730   7.546  2.8066  0.2431 -2.5733
 2378SOL     OW18595   0.124   3.193   0.641 -0.0975  0.0543 -0.2237
 2378SOL    HW118596   0.212   3.163   0.662 -0.9155  0.2603  3.4614
 2378SOL    HW218597   0.136   3.280   0.604  0.2202  1.1961  2.5677
 2379SOL     OW18598   3.864   1.054   5.157  0.0321 -0.4137 -0.1034
 2379SOL    HW118599   3.790   0.997   5.177 -1.5140  2.0094  1.1021
 2379SOL    HW218600   3.861   1.044   5.062  2.2651 -0.7104 -0.1415
 2380SOL     OW18601   0.231   1.601  17.247  0.5344  0.3029 -0.0727
 2380SOL    HW118602   0.219   1.684  17.202  1.7199  1.4280  1.6824
 2380SOL    HW218603   0.201   1.632  17.332 -0.8914  1.1568 -0.8874
 2381SOL     OW18604   4.686   3.488   7.445  0.3726  0.8924 -0.4835
 2381SOL    HW118605   4.679   3.399   7.479  1.9230  0.9742  0.0820
 2381SOL    HW218606   4.720   3.480   7.356  2.6485 -3.3133  0.7983
 2382SOL     OW18607   3.887   4.256   2.522 -0.5206 -0.1470 -0.7243
 2382SOL    HW118608   3.855   4.326   2.579  0.1049  0.0090 -0.5653
 2382SOL    HW218609   3.973   4.285   2.493 -0.1850 -1.1496 -0.7011
 2383SOL     OW18610   2.146   3.780   8.568  0.4425  0.4855  0.0326
 2383SOL    HW118611   2.126   3.704   8.622  0.4590  0.7865  0.4664
 2383SOL    HW218612   2.060   3.823   8.559  0.6299  0.6903 -0.7681
 2384SOL     OW18613   1.804   4.016   6.105  0.4931  0.7167  0.5835
 2384SOL    HW118614   1.786   3.934   6.151  1.6914  1.1390  1.8151
 2384SOL    HW218615   1.729   4.065   6.138 -0.3655  1.0394 -1.8974
 2385SOL     OW18616   3.956   1.722   9.821 -0.1700 -0.6790  0.0214
 2385SOL    HW118617   4.040   1.752   9.856  0.2832 -2.1682  0.2159
 2385SOL    HW218618   3.972   1.635   9.784  0.0334  0.1031 -1.7507
 2386SOL     OW18619   1.586   4.327   9.468  0.0634  0.3447 -0.4177
 2386SOL    HW118620   1.614   4.239   9.441 -0.0418  0.0448  0.4698
 2386SOL    HW218621   1.563   4.304   9.557 -0.0067 -1.0104 -0.7777
 2387SOL     OW18622   1.634   0.433   7.988 -0.0807  1.0101 -0.5023
 2387SOL    HW118623   1.723   0.408   7.966  0.1484  2.2793 -0.9995
 2387SOL    HW218624   1.641   0.527   8.004  0.0991  0.7881  0.7443
 2388SOL     OW18625   2.140   4.413   3.005 -0.1899 -0.7328  0.2562
 2388SOL    HW118626   2.172   4.365   2.928  0.2590  0.1010 -0.0779
 2388SOL    HW218627   2.090   4.481   2.959 -0.1112 -1.0873 -0.3595
 2389SOL     OW18628   3.466   4.149   6.062  0.3508 -0.1516  0.1844
 2389SOL    HW118629   3.457   4.133   5.968 -1.7638 -1.2871  0.5742
 2389SOL    HW218630   3.422   4.073   6.100 -1.5004  1.0012  0.3759
 2390SOL     OW18631   3.915   1.241  15.660 -0.1019  0.2056  0.1487
 2390SOL    HW118632   3.974   1.177  15.620 -0.3043 -0.4182  0.8403
 2390SOL    HW218633   3.840   1.220  15.604 -0.4590  1.9433 -0.0231
 2391SOL     OW18634   4.166   2.357  14.168  0.7559 -0.3836 -0.2850
 2391SOL    HW118635   4.184   2.399  14.084 -0.3865  0.4645 -0.0937
 2391SOL    HW218636   4.149   2.267  14.139 -2.6804  0.0829  0.4059
 2392SOL     OW18637   0.853   1.769   2.304 -0.1074  0.0930 -0.9417
 2392SOL    HW118638   0.933   1.721   2.323  0.1670  1.4607  1.3134
 2392SOL    HW218639   0.873   1.862   2.304  1.0303 -0.1596  1.7388
 2393SOL     OW18640   3.425   4.364   3.360  0.2555 -0.2332 -0.4914
 2393SOL    HW118641   3.428   4.275   3.324 -0.2103 -0.4163 -0.0742
 2393SOL    HW218642   3.445   4.350   3.452  1.0583  1.0810 -0.4638
 2394SOL     OW18643   0.486   1.953   9.015 -0.4287  0.1570  0.3901
 2394SOL    HW118644   0.497   1.865   9.049  0.2616 -0.2512 -0.8911
 2394SOL    HW218645   0.526   2.011   9.081 -0.6232 -2.1085  2.5076
 2395SOL     OW18646   2.943   1.963   8.547  0.6587  0.2291 -0.1081
 2395SOL    HW118647   2.863   1.989   8.501  0.8116  1.1469  0.1451
 2395SOL    HW218648   2.912   1.970   8.637 -1.6758 -1.2493 -0.8012
 2396SOL     OW18649   0.998   2.017   4.636  0.0671  0.1200 -0.8784
 2396SOL    HW118650   1.077   1.966   4.653  0.6978  1.7521  1.0936
 2396SOL    HW218651   1.033   2.073   4.567 -0.3136  0.7460 -0.5638
 2397SOL     OW18652   0.836   1.502   4.597  0.0895 -0.1123 -0.0795
 2397SOL    HW118653   0.814   1.580   4.547  0.9727  0.3220  0.2051
 2397SOL    HW218654   0.863   1.448   4.523 -0.3305 -1.9309  1.0843
 2398SOL     OW18655   3.568   4.453   9.130  0.4380 -0.1991  0.0955
 2398SOL    HW118656   3.580   4.372   9.179 -0.7615 -1.7416 -2.1490
 2398SOL    HW218657   3.486   4.486   9.168 -0.4526 -0.7855 -1.3196
 2399SOL     OW18658   1.457   1.465   8.445 -0.4947  0.3838  1.1443
 2399SOL    HW118659   1.499   1.393   8.491 -0.2719 -0.6302 -0.6862
 2399SOL    HW218660   1.384   1.488   8.504 -0.2588 -0.2026  1.6590
 2400SOL     OW18661   0.005   1.840   3.656 -0.6415  0.6280 -0.1760
 2400SOL    HW118662   0.055   1.763   3.631 -0.4722  0.6934 -0.0370
 2400SOL    HW218663   4.699   1.878   3.574 -1.2497 -2.3067 -1.3239
 2401SOL     OW18664   4.338   4.376  13.741 -0.5702  0.2021 -0.3734
 2401SOL    HW118665   4.421   4.423  13.747 -1.0900  0.7315  2.4356
 2401SOL    HW218666   4.358   4.306  13.678  0.5174  0.1516  0.0305
 2402SOL     OW18667   3.304   1.441  16.681  0.3517 -0.2120 -0.1572
 2402SOL    HW118668   3.241   1.510  16.659  1.4433  0.1178 -2.3151
 2402SOL    HW218669   3.309   1.460  16.774 -2.4930  0.1124 -0.0766
 2403SOL     OW18670   1.960   4.306   3.470 -0.1786  0.3273 -0.9342
 2403SOL    HW118671   1.920   4.341   3.391 -0.2425 -1.0541 -1.5095
 2403SOL    HW218672   1.965   4.212   3.452 -0.3172  0.3159 -0.9103
 2404SOL     OW18673   1.058   3.093   1.667  0.8235  0.7097 -0.4659
 2404SOL    HW118674   1.010   3.150   1.606  0.0264 -0.2372 -0.7350
 2404SOL    HW218675   1.006   3.090   1.747 -0.9342 -1.5388 -1.6666
 2405SOL     OW18676   3.944   4.613  12.483 -0.0140  0.0579  0.0796
 2405SOL    HW118677   3.934   4.518  12.474 -1.4329  0.1846  0.3465
 2405SOL    HW218678   4.013   4.636  12.421 -1.3986  2.2823 -0.6176
 2406SOL     OW18679   0.477   0.766   0.723 -0.3092 -0.0531 -0.3817
 2406SOL    HW118680   0.458   0.804   0.809  4.4883  1.4561 -0.0192
 2406SOL    HW218681   0.392   0.774   0.679  0.3819  0.4093 -1.6147
 2407SOL     OW18682   1.313   3.712   7.288  0.0172 -0.3286  0.6401
 2407SOL    HW118683   1.340   3.706   7.380  3.2078  1.3362 -0.1929
 2407SOL    HW218684   1.344   3.629   7.252  0.5350  0.4830 -0.7756
 2408SOL     OW18685   2.003   1.502   6.388 -0.7801  0.4578  0.6430
 2408SOL    HW118686   1.976   1.567   6.454  1.7325  2.2728 -0.1258
 2408SOL    HW218687   2.086   1.541   6.361 -0.9020  1.4201  1.6085
 2409SOL     OW18688   4.086   2.194  15.014 -0.2751  0.5461 -0.0259
 2409SOL    HW118689   4.032   2.156  14.945 -0.4560 -0.6909  0.8063
 2409SOL    HW218690   4.076   2.131  15.086  1.0086 -1.8668 -1.9681
 2410SOL     OW18691   0.567   3.898   4.944 -0.2471 -0.1833 -0.2264
 2410SOL    HW118692   0.546   3.808   4.920 -1.0613  0.1358 -0.7205
 2410SOL    HW218693   0.564   3.896   5.040 -0.4129  0.3180 -0.2207
 2411SOL     OW18694   4.644   0.384   2.665  0.0022  0.0764  0.6295
 2411SOL    HW118695   4.608   0.359   2.751  2.3849 -2.9588  0.7684
 2411SOL    HW218696   4.605   0.470   2.654  2.2108  1.1620  1.2508
 2412SOL     OW18697   0.533   4.028  16.381  0.2297 -0.5374  0.1373
 2412SOL    HW118698   0.448   4.051  16.344  0.7689  1.1826 -0.0201
 2412SOL    HW218699   0.598   4.062  16.319  0.3245  0.2225  0.6546
 2413SOL     OW18700   1.224   1.462   5.380  0.1162  0.3253 -0.1141
 2413SOL    HW118701   1.200   1.550   5.408  1.5126  0.9715 -0.9634
 2413SOL    HW218702   1.136   1.441   5.348 -0.9796  0.9814  2.4366
 2414SOL     OW18703   2.469   3.297  10.094 -0.6237  0.0681 -0.0515
 2414SOL    HW118704   2.445   3.243  10.169  0.8837 -2.4054 -1.3661
 2414SOL    HW218705   2.402   3.365  10.104  0.9744  1.6875 -0.3097
 2415SOL     OW18706   3.442   4.264   9.551 -0.4102 -0.1454  0.2786
 2415SOL    HW118707   3.452   4.169   9.549  0.1204 -0.0718 -0.3750
 2415SOL    HW218708   3.347   4.257   9.561 -0.3504  1.3761  1.8905
 2416SOL     OW18709   1.587   0.181   3.742  0.0740 -0.3540  0.0413
 2416SOL    HW118710   1.665   0.227   3.774 -1.5412 -0.7674  4.5508
 2416SOL    HW218711   1.535   0.255   3.710 -0.9469 -1.6186 -1.2240
 2417SOL     OW18712   3.513   2.034  15.547  0.4721  0.6838  0.1337
 2417SOL    HW118713   3.441   2.077  15.593 -0.9606 -1.6805  0.1230
 2417SOL    HW218714   3.499   2.081  15.464 -0.0742 -0.0424 -0.1912
 2418SOL     OW18715   0.354   2.331   5.279  0.1699  0.6401  0.3194
 2418SOL    HW118716   0.293   2.297   5.213  1.1083  0.6262 -0.5368
 2418SOL    HW218717   0.424   2.370   5.227  0.9458  0.7905  1.4678
 2419SOL     OW18718   2.197   2.112  17.678 -0.3382  0.3359  0.5587
 2419SOL    HW118719   2.178   2.142  17.589  1.1912 -2.0391 -0.5716
 2419SOL    HW218720   2.170   2.020  17.669 -2.8032  1.3273 -2.2198
 2420SOL     OW18721   0.352   2.710   7.817  0.4645 -0.3274 -0.0838
 2420SOL    HW118722   0.312   2.692   7.732  1.5548  0.5890 -0.7997
 2420SOL    HW218723   0.317   2.797   7.838 -1.0173 -0.7907 -0.6309
 2421SOL     OW18724   3.840   3.538   1.624 -0.1699  0.9280 -0.8719
 2421SOL    HW118725   3.821   3.626   1.657 -1.5116  0.1919  0.3230
 2421SOL    HW218726   3.850   3.545   1.529  3.6892  0.6649 -0.4686
 2422SOL     OW18727   1.175   1.853  15.928  0.1911  0.0198 -0.1408
 2422SOL    HW118728   1.185   1.775  15.982  1.8325  1.3065  1.4389
 2422SOL    HW218729   1.213   1.830  15.843  1.1425 -0.8943  0.5370
 2423SOL     OW18730   3.298   0.572   5.055  0.4127 -0.5266 -0.0691
 2423SOL    HW118731   3.388   0.540   5.067  0.9933  1.2228  0.2132
 2423SOL    HW218732   3.282   0.618   5.137 -0.1567 -1.2839  0.2419
 2424SOL     OW18733   2.781   0.498  12.556 -0.1234  0.4149  0.1649
 2424SOL    HW118734   2.762   0.530  12.468 -1.1899 -2.3361 -0.6053
 2424SOL    HW218735   2.706   0.530  12.606 -1.1288 -1.3672 -0.1934
 2425SOL     OW18736   1.689   1.714   1.658  0.2104  0.0654  0.5726
 2425SOL    HW118737   1.755   1.764   1.610  1.2058  0.2427  2.1195
 2425SOL    HW218738   1.730   1.627   1.656  2.2127  1.0269  0.1176
 2426SOL     OW18739   3.525   2.484  15.283  0.7999  0.0995 -0.4789
 2426SOL    HW118740   3.609   2.480  15.237  1.5346  3.9759  0.5461
 2426SOL    HW218741   3.534   2.571  15.322 -0.4387 -0.1018  0.2392
 2427SOL     OW18742   1.867   2.733   7.835 -0.3511 -0.0655 -0.2818
 2427SOL    HW118743   1.956   2.731   7.800 -0.5681  0.2838 -0.8607
 2427SOL    HW218744   1.863   2.824   7.866 -0.7627 -0.1766 -0.0011
 2428SOL     OW18745   4.207   1.960   7.344  0.1497 -0.1435  0.2658
 2428SOL    HW118746   4.229   2.040   7.296  0.2715 -1.5947 -2.0992
 2428SOL    HW218747   4.129   1.987   7.393 -0.3549 -0.3593 -0.4265
 2429SOL     OW18748   2.093   2.592   2.666 -0.2023 -0.0922  0.4589
 2429SOL    HW118749   2.183   2.563   2.681 -0.5147 -0.2217  2.0979
 2429SOL    HW218750   2.058   2.513   2.624 -0.1926 -1.1032  2.3524
 2430SOL     OW18751   0.864   2.685   3.604  0.2434 -0.0511  0.4612
 2430SOL    HW118752   0.803   2.746   3.646  0.3887 -1.1527  2.2728
 2430SOL    HW218753   0.807   2.611   3.584 -2.0477  1.6619  0.6327
 2431SOL     OW18754   3.665   3.339  16.144 -0.3678 -0.2940 -0.2783
 2431SOL    HW118755   3.742   3.317  16.091  0.0279  0.2274  0.0746
 2431SOL    HW218756   3.656   3.264  16.202 -0.8012  1.1171  1.4757
 2432SOL     OW18757   4.009   2.195   6.613 -0.6541 -0.4270 -0.3846
 2432SOL    HW118758   4.011   2.099   6.612 -1.3696 -0.4600  0.5975
 2432SOL    HW218759   4.050   2.201   6.700 -0.6448 -0.7260 -0.3677
 2433SOL     OW18760   4.030   1.704   9.006  0.1728  0.1165  0.2746
 2433SOL    HW118761   3.989   1.710   8.920 -1.1814  1.1031  0.9837
 2433SOL    HW218762   4.121   1.701   8.975  0.8709 -0.4807  2.3369
 2434SOL     OW18763   4.026   1.728   1.538 -0.0275 -0.3329 -0.2797
 2434SOL    HW118764   4.044   1.818   1.566  0.3746  0.0487 -1.7716
 2434SOL    HW218765   3.934   1.728   1.566 -1.0549 -1.5777 -3.5964
 2435SOL     OW18766   0.782   4.367   1.608 -0.5874  0.1167 -0.0347
 2435SOL    HW118767   0.719   4.324   1.551  1.0067 -0.4564 -1.3600
 2435SOL    HW218768   0.814   4.285   1.647 -2.5688 -0.3461  0.6021
 2436SOL     OW18769   2.013   4.131   6.515  0.2126 -0.6400  0.1820
 2436SOL    HW118770   1.943   4.097   6.571 -0.4774  1.4625  0.5937
 2436SOL    HW218771   1.964   4.190   6.458  1.0461 -1.0332 -0.9449
 2437SOL     OW18772   0.496   2.729   6.416 -0.0130 -0.2685  0.2414
 2437SOL    HW118773   0.407   2.755   6.440 -0.0797  0.3898 -0.7032
 2437SOL    HW218774   0.515   2.780   6.337 -1.8254 -0.3378 -0.2384
 2438SOL     OW18775   2.315   0.173   3.983  0.6766  0.3721  0.5590
 2438SOL    HW118776   2.279   0.092   3.947 -1.2031  1.6472 -0.4570
 2438SOL    HW218777   2.385   0.131   4.033  1.5049  0.6402 -0.3858
 2439SOL     OW18778   0.949   0.642  11.811 -0.5549  0.3075 -0.3677
 2439SOL    HW118779   0.892   0.639  11.888 -0.5167  0.1629 -0.3445
 2439SOL    HW218780   1.000   0.719  11.836  0.3681 -0.4646  0.1276
 2440SOL     OW18781   3.429   3.342   1.188  0.3178 -0.2525  0.2624
 2440SOL    HW118782   3.406   3.300   1.105  0.3358 -2.2879  1.2907
 2440SOL    HW218783   3.363   3.409   1.172  0.7435 -0.2191 -1.3688
 2441SOL     OW18784   1.471   3.920   2.612 -0.1946 -0.2327  0.4203
 2441SOL    HW118785   1.478   3.999   2.558  0.1660 -0.8498 -0.4366
 2441SOL    HW218786   1.533   3.941   2.682  2.9933 -1.1749 -2.1033
 2442SOL     OW18787   1.011   2.969   7.747 -0.1887  0.5780 -0.7392
 2442SOL    HW118788   0.979   3.050   7.786 -2.3151 -0.4168 -0.3865
 2442SOL    HW218789   1.029   2.923   7.829  0.2520  0.1245 -1.0876
 2443SOL     OW18790   3.929   2.776   7.053  0.3039 -0.1906 -0.1119
 2443SOL    HW118791   3.942   2.870   7.064 -0.7452 -0.5030  3.5350
 2443SOL    HW218792   3.999   2.743   7.108  0.5940 -2.0065 -1.5790
 2444SOL     OW18793   0.732   3.353   5.406 -0.5129 -0.5646  0.3243
 2444SOL    HW118794   0.727   3.261   5.381  0.1011 -0.2463 -0.9621
 2444SOL    HW218795   0.643   3.382   5.385 -0.7859 -1.2429  0.5597
 2445SOL     OW18796   2.543   2.238   6.422 -0.1375 -0.2801 -0.1372
 2445SOL    HW118797   2.522   2.300   6.352 -1.0410  0.7793  1.0385
 2445SOL    HW218798   2.467   2.180   6.421  0.4184 -1.0094  0.2977
 2446SOL     OW18799   1.835   1.094   4.962  0.2794 -0.1828  0.1143
 2446SOL    HW118800   1.843   1.189   4.959  1.5886 -0.2781  0.5571
 2446SOL    HW218801   1.781   1.069   4.887  2.8060 -0.6818 -1.5340
 2447SOL     OW18802   2.327   4.241   1.659 -0.1333  0.0173 -0.3539
 2447SOL    HW118803   2.270   4.212   1.731  1.8967  1.1210  1.7078
 2447SOL    HW218804   2.291   4.330   1.663  0.7739  0.4405 -2.0381
 2448SOL     OW18805   2.871   2.655  14.496 -0.1419 -0.5973  0.8730
 2448SOL    HW118806   2.894   2.577  14.447 -2.0206 -0.3781 -0.3836
 2448SOL    HW218807   2.953   2.704  14.489 -1.2292  1.2124  0.6458
 2449SOL     OW18808   0.325   2.613  12.174 -0.3976  0.2117 -0.8640
 2449SOL    HW118809   0.344   2.540  12.232  0.4143  1.3216  0.2711
 2449SOL    HW218810   0.252   2.587  12.119  0.9861 -5.0451 -0.1625
 2450SOL     OW18811   4.459   4.252   7.245 -0.3059 -0.2660 -0.1228
 2450SOL    HW118812   4.514   4.291   7.177 -1.1222 -0.1568 -0.7116
 2450SOL    HW218813   4.443   4.319   7.312 -0.2170  0.4569 -0.8263
 2451SOL     OW18814   1.461   2.113  15.889 -0.1491  0.0005 -0.0969
 2451SOL    HW118815   1.451   2.151  15.977 -2.5675  0.2719 -0.5065
 2451SOL    HW218816   1.557   2.111  15.885 -0.0066  2.0326  2.5867
 2452SOL     OW18817   4.719   0.607  15.604  0.5347 -0.4949 -0.3097
 2452SOL    HW118818   4.704   0.535  15.665 -3.4476 -1.5519 -2.4864
 2452SOL    HW218819   0.082   0.643  15.624 -0.2796  1.7538 -0.8757
 2453SOL     OW18820   2.298   4.389  16.813  0.2077 -0.0821  0.1165
 2453SOL    HW118821   2.228   4.363  16.752 -0.0454 -0.2034  0.4578
 2453SOL    HW218822   2.292   4.482  16.835  2.1827 -0.6126  2.8533
 2454SOL     OW18823   2.413   1.743   5.727  0.4818 -0.0815 -0.4259
 2454SOL    HW118824   2.375   1.657   5.710  1.0136 -0.2385 -0.7965
 2454SOL    HW218825   2.502   1.730   5.696  0.2895  0.0429 -1.0369
 2455SOL     OW18826   1.939   3.973   2.784  0.1509  0.1908  0.0269
 2455SOL    HW118827   1.987   3.947   2.862  1.4564 -0.2283 -0.9205
 2455SOL    HW218828   1.969   3.905   2.724 -0.5869  0.5628 -0.7608
 2456SOL     OW18829   2.125   3.942  14.516 -0.2937 -0.5034 -0.5232
 2456SOL    HW118830   2.144   3.864  14.568  0.8429  0.8356  1.0803
 2456SOL    HW218831   2.031   3.924  14.515 -0.5044  0.3229  2.9927
 2457SOL     OW18832   2.343   3.785  15.715 -0.4457 -0.2046 -0.6502
 2457SOL    HW118833   2.335   3.702  15.668 -0.2467  0.4087 -1.7798
 2457SOL    HW218834   2.370   3.834  15.637 -1.0844 -1.5575 -1.7080
 2458SOL     OW18835   4.518   0.929   8.540 -0.4684 -0.2404 -0.1533
 2458SOL    HW118836   4.519   0.976   8.624 -2.1730 -0.2787 -0.1021
 2458SOL    HW218837   4.568   0.850   8.561 -0.7146 -0.4943 -0.5364
 2459SOL     OW18838   0.394   1.583   5.810 -0.6309 -0.1789  0.3341
 2459SOL    HW118839   0.338   1.545   5.878  0.9641 -1.6874  0.7975
 2459SOL    HW218840   0.331   1.569   5.739  2.1292 -2.1219 -1.7348
 2460SOL     OW18841   0.383   1.815   9.525 -0.4889 -0.3496  0.4098
 2460SOL    HW118842   0.425   1.734   9.554 -0.1157 -0.6404 -0.9457
 2460SOL    HW218843   0.357   1.791   9.436  2.8152  2.2216 -1.2647
 2461SOL     OW18844   1.418   3.098   8.098  0.1653 -0.1336 -0.0557
 2461SOL    HW118845   1.417   3.002   8.100 -0.5894 -0.1038  0.9504
 2461SOL    HW218846   1.418   3.121   8.191  0.1317 -0.6303  0.0719
 2462SOL     OW18847   3.560   2.841   5.903  0.0866 -0.0281 -0.4691
 2462SOL    HW118848   3.652   2.848   5.878  0.4692 -0.4596  0.8480
 2462SOL    HW218849   3.572   2.864   5.995  1.9837 -1.7686 -0.3022
 2463SOL     OW18850   1.281   1.446   8.924 -0.1671  0.0634  0.7706
 2463SOL    HW118851   1.230   1.461   8.844 -0.4154 -3.3697  0.2908
 2463SOL    HW218852   1.260   1.354   8.938 -1.0354 -0.2164 -2.2584
 2464SOL     OW18853   3.414   0.394   2.898  0.1393 -0.1952  0.0615
 2464SOL    HW118854   3.409   0.365   2.807  0.7140 -0.3798  0.0937
 2464SOL    HW218855   3.473   0.329   2.935  0.2886  0.5837  1.1965
 2465SOL     OW18856   1.768   0.723   1.090 -0.0668 -0.2311  0.1973
 2465SOL    HW118857   1.757   0.632   1.063 -0.3793  0.0183 -0.5044
 2465SOL    HW218858   1.705   0.770   1.036  0.7318  0.7869  0.1609
 2466SOL     OW18859   1.450   4.633   5.150 -0.1439 -0.3521  0.4270
 2466SOL    HW118860   1.412   4.572   5.087 -0.1449  1.1270 -0.9676
 2466SOL    HW218861   1.541   4.602   5.152 -0.1185 -0.2928  0.0267
 2467SOL     OW18862   3.388   0.037   6.737 -0.5365  0.2236  0.1308
 2467SOL    HW118863   3.364   4.669   6.755 -0.0629  0.7522  3.4895
 2467SOL    HW218864   3.308   0.083   6.763 -2.4423 -3.0065 -0.0273
 2468SOL     OW18865   0.457   1.241   9.414 -0.4039 -0.4087  0.2884
 2468SOL    HW118866   0.456   1.162   9.468  1.3223 -0.4044  0.3115
 2468SOL    HW218867   0.545   1.238   9.376 -0.7234  1.2891 -0.5965
 2469SOL     OW18868   1.259   3.668  17.227  0.1101 -0.3512 -0.0225
 2469SOL    HW118869   1.177   3.632  17.194  0.3036 -0.4145 -0.4267
 2469SOL    HW218870   1.291   3.718  17.152  0.9632 -3.7475 -1.9206
 2470SOL     OW18871   0.546   4.383   0.573 -0.1972 -0.0645  0.7900
 2470SOL    HW118872   0.503   4.469   0.568  0.3991  0.1957  0.1650
 2470SOL    HW218873   0.632   4.399   0.610  0.0412  1.8405 -0.5804
 2471SOL     OW18874   0.617   2.480  15.636  0.2105  0.1548 -0.5037
 2471SOL    HW118875   0.694   2.423  15.636 -0.2460 -0.4549 -0.4049
 2471SOL    HW218876   0.549   2.436  15.686  1.0423  1.3727  1.7024
 2472SOL     OW18877   2.350   2.891   7.537  0.0278 -0.3047 -0.0031
 2472SOL    HW118878   2.305   2.971   7.507 -1.2005 -1.0144 -0.0550
 2472SOL    HW218879   2.366   2.851   7.451 -0.5135 -1.4925  0.4471
 2473SOL     OW18880   1.877   1.010   5.471 -0.1632  0.0512  0.0594
 2473SOL    HW118881   1.789   1.038   5.496 -0.0748  0.8340 -0.5042
 2473SOL    HW218882   1.873   1.048   5.383 -0.4410  1.0012  0.4855
 2474SOL     OW18883   0.133   2.856   2.470  0.1410 -0.1314 -0.1750
 2474SOL    HW118884   0.148   2.812   2.387  2.6063 -1.2497  0.8761
 2474SOL    HW218885   0.096   2.937   2.435 -0.2525 -0.2321 -0.0008
 2475SOL     OW18886   1.985   1.212   8.030  0.6484 -0.7533  0.0635
 2475SOL    HW118887   2.075   1.241   8.048 -0.1049  0.5923  1.6628
 2475SOL    HW218888   1.948   1.231   8.116  2.8148  0.2190  0.7783
 2476SOL     OW18889   1.094   2.931   2.340 -0.0863  0.0293 -0.2651
 2476SOL    HW118890   1.028   2.998   2.322 -1.3474 -0.8599  1.1024
 2476SOL    HW218891   1.136   2.967   2.418 -0.1586 -1.6504  0.5461
 2477SOL     OW18892   3.074   3.379  13.782 -0.2714  0.2471 -0.0761
 2477SOL    HW118893   2.979   3.390  13.782  0.1451  3.6602 -1.6059
 2477SOL    HW218894   3.078   3.315  13.711  3.0436 -0.8648  1.0920
 2478SOL     OW18895   2.950   3.672   9.603 -0.2590  0.3879  0.4400
 2478SOL    HW118896   2.946   3.767   9.599  0.5928  0.4643  1.2973
 2478SOL    HW218897   2.878   3.655   9.542 -0.7112 -1.3009  1.4582
 2479SOL     OW18898   1.541   3.428   2.990  0.0028 -0.1245 -0.3863
 2479SOL    HW118899   1.487   3.394   3.061 -1.8585  0.7407 -1.3987
 2479SOL    HW218900   1.491   3.389   2.918  1.5935 -2.3417 -0.2918
 2480SOL     OW18901   0.673   1.659   4.783 -0.3978  0.0720 -0.4111
 2480SOL    HW118902   0.623   1.734   4.751  0.3826  0.5502 -0.5220
 2480SOL    HW218903   0.744   1.648   4.719  0.1319 -1.5498  0.4562
 2481SOL     OW18904   1.093   1.352   5.761  0.8283  0.1711 -0.1420
 2481SOL    HW118905   1.127   1.289   5.697 -0.0104 -0.4968  0.0728
 2481SOL    HW218906   1.122   1.316   5.844  0.1819 -0.7041 -0.2954
 2482SOL     OW18907   3.439   0.293  12.232 -0.0799  0.5499  0.6554
 2482SOL    HW118908   3.472   0.338  12.154 -0.2728  0.0463  0.2852
 2482SOL    HW218909   3.414   0.208  12.196  1.5412 -0.2243  1.3769
 2483SOL     OW18910   3.133   3.921   2.087  0.4110  0.1985 -0.3603
 2483SOL    HW118911   3.215   3.873   2.096  0.8464  1.3539  2.1224
 2483SOL    HW218912   3.113   3.934   2.180 -1.7118  0.1407 -0.8068
 2484SOL     OW18913   0.397   4.086  11.068 -0.1884  0.2469 -0.3792
 2484SOL    HW118914   0.339   4.029  11.118 -1.1839  0.5507 -1.2037
 2484SOL    HW218915   0.426   4.151  11.133 -0.8188 -0.9454  1.0821
 2485SOL     OW18916   1.408   1.653   8.059 -0.0561 -0.5936  0.4194
 2485SOL    HW118917   1.385   1.620   7.973 -2.2885  0.9428  0.4262
 2485SOL    HW218918   1.425   1.577   8.114  2.7413 -0.1310  0.2234
 2486SOL     OW18919   0.822   2.838   5.768 -0.3603  0.0601  0.5453
 2486SOL    HW118920   0.895   2.896   5.788  0.0863  0.2032 -1.4725
 2486SOL    HW218921   0.823   2.840   5.672 -1.6137  1.0669  0.5516
 2487SOL     OW18922   1.472   0.424  11.678 -0.1014 -1.3050 -1.1967
 2487SOL    HW118923   1.378   0.440  11.684 -0.0411 -1.5707  0.4869
 2487SOL    HW218924   1.464   0.386  11.591 -3.1155  0.8255 -1.8534
 2488SOL     OW18925   3.089   3.649  13.668  0.1688 -0.0250 -0.9172
 2488SOL    HW118926   3.163   3.608  13.622  0.5712 -1.1701  0.7710
 2488SOL    HW218927   3.065   3.585  13.735  0.8172  0.0459 -0.6180
 2489SOL     OW18928   4.614   1.212   7.755  0.3519 -0.0124  0.6560
 2489SOL    HW118929   4.683   1.265   7.795  0.1400  0.1660  0.7837
 2489SOL    HW218930   4.668   1.161   7.695  0.0678  1.5435 -0.9126
 2490SOL     OW18931   2.796   3.688   9.372  0.4044 -0.2251  0.3990
 2490SOL    HW118932   2.704   3.708   9.357  0.9473  1.6357 -0.4581
 2490SOL    HW218933   2.837   3.711   9.289  0.9642 -2.0709  0.1758
 2491SOL     OW18934   0.954   4.231   8.379 -0.2668  0.4867 -0.0734
 2491SOL    HW118935   0.994   4.317   8.375  0.2070  0.3365  1.4306
 2491SOL    HW218936   0.977   4.187   8.297  1.2613 -0.3195  0.7906
 2492SOL     OW18937   0.787   1.761   3.839  0.0714 -0.0604 -0.0180
 2492SOL    HW118938   0.851   1.829   3.819 -0.5346  1.3053  2.6106
 2492SOL    HW218939   0.818   1.711   3.914  0.0087  0.6772  0.5002
 2493SOL     OW18940   1.199   2.922   4.907 -0.0485  0.1492  0.2884
 2493SOL    HW118941   1.210   2.827   4.901 -0.4518  0.1151  0.0679
 2493SOL    HW218942   1.287   2.945   4.935 -0.2983 -0.8570  1.8937
 2494SOL     OW18943   1.730   1.178   4.664 -0.0129  0.4790 -0.5244
 2494SOL    HW118944   1.783   1.175   4.584 -0.6524 -0.3723 -0.9193
 2494SOL    HW218945   1.720   1.084   4.679  0.2936  0.5726  0.2232
 2495SOL     OW18946   0.182   3.776   7.885  0.2393 -0.4249 -0.2746
 2495SOL    HW118947   0.209   3.687   7.863  0.1677 -0.8989  1.6156
 2495SOL    HW218948   0.199   3.773   7.979  0.5206 -1.2686 -0.3506
 2496SOL     OW18949   1.013   3.283   2.121  0.5402 -0.1319  0.4169
 2496SOL    HW118950   0.989   3.230   2.044 -0.7601  1.9141 -0.5897
 2496SOL    HW218951   0.957   3.236   2.182 -0.7342  2.5045  1.2457
 2497SOL     OW18952   3.009   0.340   0.517 -0.6438  0.0530  0.3519
 2497SOL    HW118953   2.932   0.386   0.548 -1.6122 -0.1531 -1.7054
 2497SOL    HW218954   3.020   0.269   0.580 -0.9751 -0.7965 -0.5458
 2498SOL     OW18955   4.225   3.609   0.380 -0.2809  0.0657  0.3368
 2498SOL    HW118956   4.179   3.666   0.318  0.0717  0.7250  0.6774
 2498SOL    HW218957   4.316   3.622   0.352  0.2035  1.2765  2.4780
 2499SOL     OW18958   3.637   4.189  11.002  0.6660  0.0560  0.1729
 2499SOL    HW118959   3.546   4.189  11.034 -0.5483  1.0967 -3.2646
 2499SOL    HW218960   3.683   4.124  11.055  0.9500  1.8433  2.1134
 2500SOL     OW18961   3.879   0.833  11.712 -0.7454 -0.0858  0.5807
 2500SOL    HW118962   3.805   0.894  11.709 -0.5857  0.1756  1.8629
 2500SOL    HW218963   3.858   0.785  11.792  0.5564 -1.3540  0.1575
 2501SOL     OW18964   2.182   3.383  11.127  0.1092  0.3381 -0.0588
 2501SOL    HW118965   2.189   3.356  11.035 -0.5555 -0.1565  0.0366
 2501SOL    HW218966   2.188   3.478  11.115  0.0001  0.0403 -2.5647
 2502SOL     OW18967   0.375   4.071  16.163 -0.0107  0.1330 -0.6770
 2502SOL    HW118968   0.374   4.025  16.079 -0.0328 -2.2824  0.6319
 2502SOL    HW218969   0.433   4.145  16.148 -0.1365  0.3758  0.0493
 2503SOL     OW18970   0.430   3.499  13.313 -0.1219 -0.0833 -0.8156
 2503SOL    HW118971   0.495   3.518  13.381 -1.0692  1.6700 -0.4137
 2503SOL    HW218972   0.404   3.591  13.316  1.0602  0.1819  1.2927
 2504SOL     OW18973   3.320   2.372   2.882 -0.2762  0.4130 -0.4217
 2504SOL    HW118974   3.309   2.401   2.792 -3.6320 -0.6785 -0.3968
 2504SOL    HW218975   3.300   2.280   2.863 -2.8141  0.6621  0.9741
 2505SOL     OW18976   1.545   2.865   5.614 -0.2742 -0.2331 -1.0893
 2505SOL    HW118977   1.561   2.802   5.685  0.0418  0.7100 -0.3314
 2505SOL    HW218978   1.596   2.940   5.644 -2.1306  1.7723 -3.0589
 2506SOL     OW18979   0.011   3.882   4.168  0.9287 -0.0384  0.2130
 2506SOL    HW118980   0.058   3.805   4.136  0.8838 -0.2446  0.6522
 2506SOL    HW218981   4.684   3.905   4.089  0.5233 -1.9349 -0.0645
 2507SOL     OW18982   3.169   3.653   5.677  0.5454  0.4093 -0.2506
 2507SOL    HW118983   3.162   3.597   5.599 -2.6706  1.1935 -0.5443
 2507SOL    HW218984   3.084   3.627   5.713  0.7097 -1.6023 -1.3096
 2508SOL     OW18985   0.636   1.819  16.434  0.0595  0.2560 -0.1454
 2508SOL    HW118986   0.669   1.760  16.366 -0.1818  0.5987 -0.5590
 2508SOL    HW218987   0.695   1.816  16.509 -0.5751 -1.1741  0.2995
 2509SOL     OW18988   4.353   1.720   4.096 -0.3544 -0.0449  0.1932
 2509SOL    HW118989   4.271   1.768   4.086  0.0350  0.3192 -1.1789
 2509SOL    HW218990   4.406   1.778   4.151 -0.3356 -0.2204  0.3618
 2510SOL     OW18991   1.867   3.025   4.813  0.1450 -0.3558 -0.4167
 2510SOL    HW118992   1.775   3.053   4.818  0.4117  0.6851 -1.2079
 2510SOL    HW218993   1.857   2.943   4.765 -3.1400  1.2148 -2.3922
 2511SOL     OW18994   4.057   4.276   3.079 -0.1721 -0.2106  0.1252
 2511SOL    HW118995   4.042   4.301   3.170 -0.6974  1.1525 -0.3289
 2511SOL    HW218996   3.999   4.200   3.078  2.3255 -2.0682 -2.4745
 2512SOL     OW18997   2.707   1.034   5.945  0.3598  0.3363 -0.3115
 2512SOL    HW118998   2.632   1.009   5.891 -0.1804  0.0246  0.5873
 2512SOL    HW218999   2.685   1.127   5.941  2.2587  0.8176  0.4112
 2513SOL     OW19000   3.991   0.163   2.351 -0.5090 -0.1896  0.0712
 2513SOL    HW119001   3.927   0.145   2.283 -0.1834 -1.2464  0.0384
 2513SOL    HW219002   4.059   0.205   2.300  1.3299 -2.3348  0.7379
 2514SOL     OW19003   1.705   4.395   4.587  0.3127  0.3069 -0.2934
 2514SOL    HW119004   1.633   4.451   4.613 -1.1781 -0.1279 -3.4923
 2514SOL    HW219005   1.658   4.314   4.568  1.7593 -0.3867 -0.9703
 2515SOL     OW19006   1.461   4.515   4.187 -0.3890  0.2341 -0.2663
 2515SOL    HW119007   1.551   4.542   4.204  0.4910 -2.4333 -0.7339
 2515SOL    HW219008   1.469   4.433   4.236 -0.7579  1.4196  1.7526
 2516SOL     OW19009   2.130   1.943   2.554  0.1536  0.4195 -0.0902
 2516SOL    HW119010   2.128   2.037   2.536  0.2140  0.6376  1.0401
 2516SOL    HW219011   2.149   1.904   2.469  1.5554  3.6976 -1.2588
 2517SOL     OW19012   4.218   2.433  13.919 -0.4081 -0.1534  0.0788
 2517SOL    HW119013   4.285   2.499  13.936 -0.0395 -0.3092 -0.7989
 2517SOL    HW219014   4.169   2.468  13.846  0.0448  2.0398  0.8402
 2518SOL     OW19015   0.072   3.749  13.054 -0.7649  0.0450 -0.1089
 2518SOL    HW119016   0.096   3.668  13.009  0.5020  0.1783  0.3244
 2518SOL    HW219017   0.156   3.793  13.067  0.8665 -2.2789 -2.8330
 2519SOL     OW19018   0.330   3.745  13.288  0.0729 -0.7845  0.1190
 2519SOL    HW119019   0.418   3.784  13.281 -0.1875 -0.5142 -1.7123
 2519SOL    HW219020   0.305   3.765  13.198  3.2760 -1.0590 -0.8369
 2520SOL     OW19021   1.164   3.656   2.960 -0.4083  0.0648 -0.7121
 2520SOL    HW119022   1.192   3.633   2.871  1.0873 -2.9991  0.5654
 2520SOL    HW219023   1.228   3.723   2.984 -2.0502  1.0184  0.9524
 2521SOL     OW19024   0.556   1.458  11.784  0.4405 -0.1949 -0.6942
 2521SOL    HW119025   0.634   1.448  11.729  0.9130  2.0599 -0.4177
 2521SOL    HW219026   0.568   1.376  11.832  2.3755  0.4022 -0.1523
 2522SOL     OW19027   2.167   0.215   5.049 -0.3968  0.0761  0.0025
 2522SOL    HW119028   2.262   0.221   5.053 -0.3281  0.4746 -2.1198
 2522SOL    HW219029   2.149   0.271   4.974 -0.2944 -1.1833 -0.9671
 2523SOL     OW19030   2.289   0.233   6.239 -0.5431 -0.4117 -0.1460
 2523SOL    HW119031   2.354   0.226   6.309 -0.7511  1.2749  0.2275
 2523SOL    HW219032   2.330   0.169   6.181  2.9932 -0.7323  2.7162
 2524SOL     OW19033   0.871   4.151   2.976 -0.0174 -0.1619 -0.5188
 2524SOL    HW119034   0.911   4.143   3.062  0.7098 -0.7424 -0.9117
 2524SOL    HW219035   0.847   4.060   2.959 -0.6137  0.0823 -1.0235
 2525SOL     OW19036   1.893   0.241   5.526 -0.5370  0.2523  0.2471
 2525SOL    HW119037   1.884   0.334   5.506 -2.8305  0.0889  0.5107
 2525SOL    HW219038   1.856   0.212   5.443 -1.7032  1.6359  0.2931
 2526SOL     OW19039   2.570   2.868   6.491 -0.1169 -0.3869  0.5362
 2526SOL    HW119040   2.648   2.923   6.485 -1.4373  1.4586  0.4659
 2526SOL    HW219041   2.508   2.918   6.438  0.5990 -1.8337 -1.7025
 2527SOL     OW19042   1.323   1.288   2.147  0.2377  0.6418  0.0910
 2527SOL    HW119043   1.232   1.306   2.170 -0.0611 -1.0187  0.2517
 2527SOL    HW219044   1.313   1.215   2.085  1.1553  0.5552  0.0412
 2528SOL     OW19045   2.332   4.469   6.863 -0.1835  0.5329 -0.4194
 2528SOL    HW119046   2.277   4.544   6.841  1.0923  1.4272 -0.5382
 2528SOL    HW219047   2.381   4.503   6.937 -1.2542 -0.5540  0.7966
 2529SOL     OW19048   4.645   0.015   2.902  0.2051 -0.2319  0.4289
 2529SOL    HW119049   4.566   4.712   2.855  2.6073 -2.5002 -2.3720
 2529SOL    HW219050   4.707   0.031   2.831  1.4900 -0.7926  1.4331
 2530SOL     OW19051   0.358   2.057  10.381 -0.3962 -0.3811  0.1751
 2530SOL    HW119052   0.443   2.100  10.387  0.0227 -1.0584 -0.9136
 2530SOL    HW219053   0.371   2.017  10.295  2.2906  1.1506 -0.1372
 2531SOL     OW19054   0.201   3.113  15.314 -0.5580  0.1743  0.3306
 2531SOL    HW119055   0.217   3.058  15.391  0.9479 -0.4112 -0.3885
 2531SOL    HW219056   0.163   3.048  15.254  0.2257  0.6845 -0.7250
 2532SOL     OW19057   2.520   1.804   7.569  0.9889  0.1702 -0.0832
 2532SOL    HW119058   2.431   1.811   7.534  1.1765  0.4501 -0.5049
 2532SOL    HW219059   2.515   1.881   7.625  3.0958 -1.9378  3.0297
 2533SOL     OW19060   0.249   3.453   7.035 -0.7565  0.3083  0.0563
 2533SOL    HW119061   0.245   3.436   6.941 -0.4475  2.6350 -0.3838
 2533SOL    HW219062   0.311   3.526   7.039  1.3119 -1.3591 -1.8944
 2534SOL     OW19063   3.014   3.720   8.080 -0.3690  0.1046  1.0353
 2534SOL    HW119064   3.013   3.686   8.169 -0.1374 -0.1737  0.9318
 2534SOL    HW219065   2.971   3.651   8.031  0.3734  0.8259 -0.6485
 2535SOL     OW19066   2.205   4.138   5.057 -0.1688  0.1004  0.0766
 2535SOL    HW119067   2.188   4.118   5.149 -1.7925  1.4650  0.0596
 2535SOL    HW219068   2.289   4.095   5.041 -0.5509 -0.0412 -1.4813
 2536SOL     OW19069   1.102   2.958   2.875 -0.6206  0.1572 -0.2382
 2536SOL    HW119070   1.089   2.876   2.827 -0.9238  1.0530 -1.6815
 2536SOL    HW219071   1.027   2.969   2.934  0.6525 -1.2986  1.6407
 2537SOL     OW19072   2.596   2.184   2.797  0.0902 -0.6426  0.4186
 2537SOL    HW119073   2.551   2.225   2.870 -1.8874 -0.0922 -1.1287
 2537SOL    HW219074   2.641   2.265   2.772 -0.6906 -0.3407 -0.0063
 2538SOL     OW19075   4.672   3.962   6.604  0.5827 -0.2811  0.6904
 2538SOL    HW119076   4.694   4.029   6.540 -0.8833 -0.1870  0.2765
 2538SOL    HW219077   4.635   3.899   6.542 -0.9804  1.8610 -0.5394
 2539SOL     OW19078   1.328   4.080  15.759  0.4991 -0.3169 -0.2170
 2539SOL    HW119079   1.280   4.099  15.679 -0.7048 -2.4409  0.0108
 2539SOL    HW219080   1.270   4.016  15.799  2.4992 -1.4180  0.9394
 2540SOL     OW19081   4.131   3.122   6.029 -0.3625  0.2339  0.1731
 2540SOL    HW119082   4.158   3.148   6.117 -3.0414 -0.3997  1.1799
 2540SOL    HW219083   4.066   3.053   6.040  0.1213 -0.3347 -0.5425
 2541SOL     OW19084   1.944   4.138   4.934 -0.0955 -0.0573  0.1343
 2541SOL    HW119085   1.966   4.073   4.867  0.2755 -0.3286  0.5203
 2541SOL    HW219086   2.005   4.120   5.006  0.7003  0.6551 -0.3599
 2542SOL     OW19087   3.417   2.390   5.735  0.0065  0.8464 -0.1091
 2542SOL    HW119088   3.412   2.394   5.830  0.6833 -1.7824  0.0409
 2542SOL    HW219089   3.352   2.457   5.713 -2.2724 -0.3843  2.9231
 2543SOL     OW19090   2.188   3.786   4.393  0.4879  0.6980  0.5726
 2543SOL    HW119091   2.154   3.777   4.304  1.0252  1.0022  0.3413
 2543SOL    HW219092   2.114   3.841   4.421 -0.4618  0.4898 -1.5223
 2544SOL     OW19093   0.016   1.890   7.113 -0.1404 -0.2158 -0.0253
 2544SOL    HW119094   4.649   1.875   7.083  0.4696 -1.1336 -1.4597
 2544SOL    HW219095   0.027   1.982   7.088  1.1850 -0.0969  1.0165
 2545SOL     OW19096   4.416   0.970   2.456 -0.5782 -0.6496  0.2169
 2545SOL    HW119097   4.349   0.904   2.473 -1.2700 -0.3320 -1.2793
 2545SOL    HW219098   4.361   1.048   2.448 -0.0133 -0.3618 -0.8917
 2546SOL     OW19099   2.374   1.387   8.369 -0.0044 -0.0926  0.7040
 2546SOL    HW119100   2.453   1.371   8.318 -0.1844  0.8054  0.1504
 2546SOL    HW219101   2.322   1.314   8.336  0.5597  0.0387 -0.4821
 2547SOL     OW19102   2.965   3.270   6.277  0.1440 -0.4543 -0.5914
 2547SOL    HW119103   3.018   3.207   6.326  3.1647  2.2492 -0.3626
 2547SOL    HW219104   2.988   3.252   6.186  1.1007  0.5485 -0.5502
 2548SOL     OW19105   0.017   4.212   8.147  0.0788 -0.0534  0.2049
 2548SOL    HW119106   0.109   4.208   8.171  0.6822 -0.9297 -2.2576
 2548SOL    HW219107   0.003   4.118   8.135 -0.2571  0.1544 -1.1009
 2549SOL     OW19108   1.293   3.032   5.581  0.3516  0.9946 -0.0100
 2549SOL    HW119109   1.375   2.985   5.564 -0.0997 -0.3219  1.4438
 2549SOL    HW219110   1.306   3.117   5.539  0.7403  1.7563  1.6472
 2550SOL     OW19111   2.391   4.644   0.563 -0.4755  0.0667 -0.7384
 2550SOL    HW119112   2.311   4.691   0.587 -1.4920 -2.5969  1.1496
 2550SOL    HW219113   2.447   4.715   0.531 -0.0006  0.2694  0.5347
 2551SOL     OW19114   3.023   4.130  15.838  0.3210 -0.4185 -0.5306
 2551SOL    HW119115   3.051   4.195  15.773  0.2772  1.0290  0.8767
 2551SOL    HW219116   3.070   4.054  15.804 -0.2396 -0.5304 -1.0601
 2552SOL     OW19117   0.595   4.365  17.157 -0.0191  0.0558  0.3962
 2552SOL    HW119118   0.621   4.331  17.243  2.5002 -1.6572 -1.0283
 2552SOL    HW219119   0.673   4.346  17.104  1.3274  2.0225  1.6627
 2553SOL     OW19120   4.485   1.914  12.932 -0.4839  0.6847  0.6068
 2553SOL    HW119121   4.500   1.831  12.977  0.5932  1.7628  2.2296
 2553SOL    HW219122   4.565   1.911  12.880 -1.1027  0.9695 -0.3536
 2554SOL     OW19123   3.555   0.729  12.094  0.5588  0.3399  0.2605
 2554SOL    HW119124   3.490   0.789  12.132 -1.2823 -1.9955  0.7625
 2554SOL    HW219125   3.631   0.786  12.085  0.0502  1.1987  1.4166
 2555SOL     OW19126   4.336   4.575   6.805  0.1199 -0.4143  0.2747
 2555SOL    HW119127   4.279   4.540   6.874  0.7877  0.5058  1.2918
 2555SOL    HW219128   4.340   4.660   6.848  0.0789 -0.3673  0.1855
 2556SOL     OW19129   2.107   0.790   2.432  0.1615  0.0618  0.0301
 2556SOL    HW119130   2.144   0.823   2.350  0.4570 -0.6414 -0.1225
 2556SOL    HW219131   2.060   0.867   2.463 -0.9791 -1.3476  1.8302
 2557SOL     OW19132   2.550   4.253  14.576 -0.2670 -0.6271  0.3027
 2557SOL    HW119133   2.478   4.316  14.567  0.0547 -0.2501  0.3520
 2557SOL    HW219134   2.572   4.237  14.484  1.3990 -1.2450  0.8202
 2558SOL     OW19135   4.426   0.452   6.035 -0.3161  0.1724 -0.0303
 2558SOL    HW119136   4.415   0.545   6.051 -2.0036 -0.1630  0.8028
 2558SOL    HW219137   4.514   0.432   6.065 -0.2925  0.0135 -0.2005
 2559SOL     OW19138   2.127   3.034   7.839  0.7457  0.0291  0.3459
 2559SOL    HW119139   2.074   3.063   7.765 -1.0642 -1.0262  1.2061
 2559SOL    HW219140   2.057   2.994   7.891  0.0153  1.6674  0.6468
 2560SOL     OW19141   3.064   1.289   7.286 -0.7398  0.0289 -0.6681
 2560SOL    HW119142   3.072   1.202   7.247 -1.8739 -0.1444 -0.5176
 2560SOL    HW219143   3.057   1.256   7.376  2.3840  0.6062 -0.2034
 2561SOL     OW19144   2.094   0.712   3.092  0.1995  0.0989 -0.9306
 2561SOL    HW119145   2.143   0.678   3.017  0.6644 -0.9855 -0.1130
 2561SOL    HW219146   2.152   0.780   3.127  0.6312 -0.3591 -0.7646
 2562SOL     OW19147   0.718   4.180   6.005 -0.0117  0.2626  0.1354
 2562SOL    HW119148   0.773   4.227   5.942 -1.4933  1.6738 -0.0916
 2562SOL    HW219149   0.629   4.205   5.980 -0.7617 -0.6879  1.8551
 2563SOL     OW19150   2.862   2.128   7.366 -0.4470 -0.1109 -0.2434
 2563SOL    HW119151   2.791   2.193   7.365  0.4515  0.8748 -0.4487
 2563SOL    HW219152   2.813   2.056   7.406  1.6964 -1.3007  0.2022
 2564SOL     OW19153   1.390   2.224  12.457 -0.7581 -0.1588  0.3783
 2564SOL    HW119154   1.350   2.181  12.532 -0.1217 -2.4117 -0.5658
 2564SOL    HW219155   1.322   2.211  12.392 -1.3746  1.1647  0.7480
 2565SOL     OW19156   4.094   1.896   2.818  0.5064  0.1624  0.5226
 2565SOL    HW119157   4.151   1.867   2.889  2.0229  0.8110 -0.4308
 2565SOL    HW219158   4.023   1.941   2.866 -0.5990  0.8374 -1.7547
 2566SOL     OW19159   2.251   2.676   7.126  0.3636 -0.2095 -0.1092
 2566SOL    HW119160   2.229   2.758   7.170 -0.5392  0.2529 -1.4029
 2566SOL    HW219161   2.173   2.622   7.141 -0.3227 -0.0386 -3.1811
 2567SOL     OW19162   3.116   3.897   8.372  0.2790 -0.1119 -0.8638
 2567SOL    HW119163   3.084   3.969   8.428  0.2568 -0.4208 -0.4775
 2567SOL    HW219164   3.158   3.848   8.442 -1.4418  1.4802  1.3010
 2568SOL     OW19165   3.947   4.515   4.892  0.4749 -0.2163  0.6121
 2568SOL    HW119166   3.919   4.527   4.801  0.9568  2.6970  0.8378
 2568SOL    HW219167   4.036   4.549   4.892  0.2640  0.3377  0.8964
 2569SOL     OW19168   3.275   4.694   9.432  0.0094  0.2693 -0.7701
 2569SOL    HW119169   3.250   0.064   9.434 -0.5188  0.0969  0.5959
 2569SOL    HW219170   3.190   4.649   9.434 -0.7030  1.6270 -0.5674
 2570SOL     OW19171   4.371   1.750   2.310 -0.1796  0.2930  0.2538
 2570SOL    HW119172   4.455   1.749   2.357  0.0920  3.0574 -0.1842
 2570SOL    HW219173   4.334   1.837   2.324 -0.5430  0.4854 -1.9112
 2571SOL     OW19174   2.043   4.229  11.388 -0.2117 -0.0806 -0.1754
 2571SOL    HW119175   2.122   4.192  11.350  0.0140  0.2246 -0.0014
 2571SOL    HW219176   1.977   4.175  11.344  1.5274 -1.4499 -1.1073
 2572SOL     OW19177   4.366   2.604   1.964  0.2663 -0.1868 -0.3975
 2572SOL    HW119178   4.285   2.644   1.934  0.7449 -0.5568 -2.1632
 2572SOL    HW219179   4.369   2.654   2.046  0.1428  0.4977 -0.8166
 2573SOL     OW19180   4.063   0.050   8.158  0.1290  0.0566  0.1051
 2573SOL    HW119181   4.016   0.051   8.241 -0.0875 -0.1268 -0.0135
 2573SOL    HW219182   4.070   4.679   8.140 -0.6789  0.5325 -2.7610
 2574SOL     OW19183   3.807   3.728   8.871  0.5487 -0.0955  0.0775
 2574SOL    HW119184   3.738   3.791   8.848 -0.2823 -0.2257  2.2022
 2574SOL    HW219185   3.851   3.735   8.786 -1.1754  2.1815 -0.6574
 2575SOL     OW19186   3.500   2.193  10.651  0.0287  0.2969 -0.1767
 2575SOL    HW119187   3.432   2.195  10.584  0.8690  0.2613 -1.0159
 2575SOL    HW219188   3.458   2.240  10.723 -3.2594 -2.1265 -0.5024
 2576SOL     OW19189   2.700   0.223   5.206  0.1500  0.0447 -0.4789
 2576SOL    HW119190   2.723   0.130   5.213 -1.3199 -0.2206  0.8905
 2576SOL    HW219191   2.767   0.253   5.146 -0.0905 -2.5570 -2.0190
 2577SOL     OW19192   1.659   2.787   3.707 -0.6068  0.1524  0.2143
 2577SOL    HW119193   1.626   2.764   3.621  2.0059 -1.1799 -0.4235
 2577SOL    HW219194   1.677   2.877   3.682 -0.4794 -0.1251 -0.6623
 2578SOL     OW19195   3.803   1.159   8.358  0.5213  0.2981 -0.3396
 2578SOL    HW119196   3.803   1.111   8.441 -1.0214 -0.9995 -1.0848
 2578SOL    HW219197   3.894   1.158   8.327  0.8028 -1.1588  0.5098
 2579SOL     OW19198   0.455   0.379   6.092  0.5047 -0.6973 -0.0296
 2579SOL    HW119199   0.538   0.406   6.132 -0.9093  2.8246  0.5076
 2579SOL    HW219200   0.389   0.437   6.131 -1.1178 -1.0238 -2.2837
 2580SOL     OW19201   0.560   4.008   5.657  0.5217 -0.8680  0.1535
 2580SOL    HW119202   0.484   4.015   5.600 -0.1925  1.3796  1.3753
 2580SOL    HW219203   0.583   3.916   5.647  0.9997 -0.6597 -0.6331
 2581SOL     OW19204   3.387   2.365   2.053  0.7553  0.2391 -0.0287
 2581SOL    HW119205   3.303   2.352   2.097 -0.5781 -1.5317 -3.1011
 2581SOL    HW219206   3.445   2.298   2.089 -0.8161 -0.2606  1.5203
 2582SOL     OW19207   2.670   3.426   4.002  0.1309 -0.0224  0.1408
 2582SOL    HW119208   2.606   3.490   3.973 -0.2356 -0.9514 -1.0831
 2582SOL    HW219209   2.724   3.428   3.923 -2.2354  1.0289 -1.4305
 2583SOL     OW19210   3.008   0.004  16.502  0.1501 -0.8396  0.2207
 2583SOL    HW119211   3.067   0.042  16.437  0.1566  1.0583  1.3399
 2583SOL    HW219212   2.988   4.639  16.470  1.6430 -0.9468 -0.4350
 2584SOL     OW19213   2.424   3.513   1.212  0.0195 -0.5409  0.4208
 2584SOL    HW119214   2.491   3.500   1.145 -0.3431  0.8101 -0.2081
 2584SOL    HW219215   2.433   3.607   1.227 -1.1757 -0.4180  0.3328
 2585SOL     OW19216   4.035   0.480   7.381 -0.0499  0.7227  0.1388
 2585SOL    HW119217   4.121   0.509   7.411  1.2478 -1.5121 -1.4613
 2585SOL    HW219218   3.972   0.479   7.453 -0.5434  0.2723 -0.3003
 2586SOL     OW19219   3.423   2.125   0.360  0.5568 -0.4519 -0.1745
 2586SOL    HW119220   3.413   2.037   0.323 -0.0413  0.2097 -1.5831
 2586SOL    HW219221   3.391   2.179   0.288 -0.6931 -0.8206  0.1116
 2587SOL     OW19222   1.724   3.890   4.991 -0.6410 -0.0900  0.0729
 2587SOL    HW119223   1.670   3.818   5.024 -2.3267  1.0724 -0.1523
 2587SOL    HW219224   1.804   3.849   4.959  0.2132  0.5691  1.3242
 2588SOL     OW19225   1.188   1.895   0.757 -0.6004 -0.1809 -0.1362
 2588SOL    HW119226   1.132   1.865   0.686 -2.5151  3.4414 -0.1587
 2588SOL    HW219227   1.261   1.835   0.741 -1.4595 -1.3594  0.3279
 2589SOL     OW19228   4.197   1.479   4.258  0.1562 -0.3950 -0.2415
 2589SOL    HW119229   4.248   1.464   4.178 -0.0785 -0.4955 -0.3751
 2589SOL    HW219230   4.134   1.545   4.230 -1.2060 -1.0462  1.2885
 2590SOL     OW19231   3.754   4.475   8.565  0.0715 -0.0946  0.2822
 2590SOL    HW119232   3.728   4.565   8.584 -1.7271 -0.4892 -0.3195
 2590SOL    HW219233   3.673   4.424   8.565 -0.7950  1.2777  1.3177
 2591SOL     OW19234   3.675   3.312   9.955  0.2293  0.1856 -0.2290
 2591SOL    HW119235   3.587   3.345   9.935  0.8209  0.5809 -2.2473
 2591SOL    HW219236   3.682   3.311  10.050 -0.5035  1.1359 -0.1584
 2592SOL     OW19237   0.288   0.816   4.225 -0.5234 -0.2976 -0.1221
 2592SOL    HW119238   0.279   0.886   4.161  1.5398  0.1472  0.0751
 2592SOL    HW219239   0.215   0.760   4.200 -3.1381  2.9379  0.3356
 2593SOL     OW19240   3.414   1.570   4.574  0.4921 -0.3877 -0.2451
 2593SOL    HW119241   3.380   1.536   4.657 -0.6057 -1.0588 -0.9789
 2593SOL    HW219242   3.351   1.541   4.508 -1.1231  0.8251  0.7375
 2594SOL     OW19243   2.011   4.440   0.681  0.2564  0.1717 -0.0596
 2594SOL    HW119244   1.930   4.489   0.696  0.8078  1.3261 -0.8922
 2594SOL    HW219245   2.061   4.496   0.622  0.2539 -0.2805 -0.4801
 2595SOL     OW19246   0.888   1.265   3.473  0.0631 -0.0728 -0.4179
 2595SOL    HW119247   0.917   1.173   3.473  0.8099  0.1774 -1.7639
 2595SOL    HW219248   0.817   1.255   3.538  0.2462 -1.9067 -0.4829
 2596SOL     OW19249   1.350   1.706   5.932 -0.1668  0.0046  0.0503
 2596SOL    HW119250   1.314   1.784   5.890  0.3369  0.1764 -0.0568
 2596SOL    HW219251   1.364   1.641   5.862 -0.8903 -1.2333  1.0438
 2597SOL     OW19252   0.385   0.742   1.293  0.1758 -0.5142 -0.1023
 2597SOL    HW119253   0.365   0.834   1.308  1.8151 -0.2081  0.1533
 2597SOL    HW219254   0.473   0.739   1.329 -0.7718  0.2903  2.2765
 2598SOL     OW19255   4.023   2.233   8.622  0.0021  0.3638  0.1204
 2598SOL    HW119256   4.066   2.317   8.606  3.1853 -1.6945 -1.9817
 2598SOL    HW219257   3.948   2.250   8.565  1.8533  1.8959 -1.8708
 2599SOL     OW19258   1.286   1.940  17.593 -0.1190 -0.1289 -0.3449
 2599SOL    HW119259   1.352   1.895  17.645  2.8874  2.0685 -2.2623
 2599SOL    HW219260   1.209   1.884  17.596 -0.7525  0.6877 -1.1871
 2600SOL     OW19261   4.696   3.063   8.220  0.1751  0.3012  0.3004
 2600SOL    HW119262   4.648   3.139   8.188  0.2031 -0.9666 -2.7459
 2600SOL    HW219263   0.062   3.095   8.205 -0.6068  3.8695  3.2092
 2601SOL     OW19264   1.354   3.184   0.193 -0.1310  1.1103  0.1220
 2601SOL    HW119265   1.319   3.101   0.159  0.4783  0.1346  1.8637
 2601SOL    HW219266   1.319   3.171   0.281 -1.0635 -0.9986 -0.5571
 2602SOL     OW19267   4.281   3.293   9.487 -0.4037 -0.3111  0.8350
 2602SOL    HW119268   4.336   3.231   9.536  1.2474 -0.7384 -1.5796
 2602SOL    HW219269   4.252   3.233   9.419 -0.4849  1.7181 -0.9223
 2603SOL     OW19270   3.564   2.699   9.312  0.4070 -0.2914 -0.2329
 2603SOL    HW119271   3.621   2.750   9.253  1.1849  1.9112  2.4509
 2603SOL    HW219272   3.511   2.644   9.254  2.2183  0.2570 -2.4335
 2604SOL     OW19273   4.261   0.666   8.642  0.0235  0.3710  0.1738
 2604SOL    HW119274   4.231   0.715   8.718 -3.3304 -0.9647 -0.2976
 2604SOL    HW219275   4.346   0.632   8.670 -0.6482 -0.1642  1.5275
 2605SOL     OW19276   3.574   0.760   9.658  0.3890  0.0832  0.6961
 2605SOL    HW119277   3.650   0.794   9.610  0.4080  0.4870  1.0047
 2605SOL    HW219278   3.610   0.674   9.678 -0.5268  0.0144  2.0676
 2606SOL     OW19279   2.980   1.544   0.554 -0.2417 -0.1016  0.1694
 2606SOL    HW119280   2.975   1.449   0.542 -2.1085  0.1248 -0.8113
 2606SOL    HW219281   2.951   1.553   0.645  0.0644 -0.4035  0.2989
 2607SOL     OW19282   2.231   1.892   4.382  0.0236  0.5090  0.3326
 2607SOL    HW119283   2.224   1.807   4.338  3.6248  0.0763  0.5483
 2607SOL    HW219284   2.142   1.926   4.378 -0.5722 -1.1139 -0.1132
 2608SOL     OW19285   0.831   0.580   0.380 -0.2583  0.5745  0.4348
 2608SOL    HW119286   0.913   0.627   0.399  0.9040 -1.8693  1.4888
 2608SOL    HW219287   0.842   0.561   0.287  1.2078 -1.0803  0.9481
 2609SOL     OW19288   0.432   2.085   3.893  0.2512 -0.4262  0.4433
 2609SOL    HW119289   0.387   2.001   3.886 -0.9533  0.1957  0.6719
 2609SOL    HW219290   0.475   2.084   3.978 -0.4340  1.1098  0.8085
 2610SOL     OW19291   2.188   2.126   8.413 -0.4755  0.0016 -0.0874
 2610SOL    HW119292   2.169   2.057   8.349  0.2794  1.9348 -2.4126
 2610SOL    HW219293   2.273   2.093   8.443  0.0092  0.8643 -0.5220
 2611SOL     OW19294   3.301   0.030  16.698  0.5783 -0.5289 -0.9999
 2611SOL    HW119295   3.286   0.120  16.670 -3.6032 -0.5179  1.3837
 2611SOL    HW219296   3.294   4.701  16.618  2.3223 -0.1397 -1.3991
 2612SOL     OW19297   2.001   2.792   1.137  0.3922 -0.1259 -0.3854
 2612SOL    HW119298   2.030   2.713   1.093 -0.0458  0.4315 -1.6665
 2612SOL    HW219299   1.929   2.823   1.082  1.0905  1.4723 -0.4146
 2613SOL     OW19300   1.825   1.300   5.381  0.7935  0.3803 -0.0277
 2613SOL    HW119301   1.916   1.287   5.408  0.3063  0.1554  1.4991
 2613SOL    HW219302   1.829   1.391   5.352  0.8198  0.6887  0.9227
 2614SOL     OW19303   4.421   1.802   4.647 -0.2428  0.3103  0.3385
 2614SOL    HW119304   4.434   1.742   4.721  0.5616 -0.0143 -0.0631
 2614SOL    HW219305   4.400   1.735   4.582  0.4697  1.4388 -1.0397
 2615SOL     OW19306   2.356   4.237  11.142 -0.0827  0.0627 -0.1840
 2615SOL    HW119307   2.332   4.317  11.190 -1.1785  0.5768 -1.5857
 2615SOL    HW219308   2.433   4.262  11.092 -0.7885  0.0768 -1.2736
 2616SOL     OW19309   1.299   1.843  14.012  0.0352  0.2497 -0.4212
 2616SOL    HW119310   1.300   1.859  14.106 -1.3125  1.8220 -0.6817
 2616SOL    HW219311   1.214   1.803  13.996  0.3516 -0.2828 -0.8038
 2617SOL     OW19312   0.484   4.335   4.327  0.1541 -0.6629 -0.7241
 2617SOL    HW119313   0.428   4.273   4.374 -1.3796 -0.2724 -2.0007
 2617SOL    HW219314   0.438   4.411   4.363  1.6426  0.7665 -1.8648
 2618SOL     OW19315   1.471   1.245   2.711 -0.5540  0.1910 -0.1440
 2618SOL    HW119316   1.378   1.223   2.711  0.5121 -4.2672 -1.4819
 2618SOL    HW219317   1.490   1.253   2.618  0.8479 -3.0645 -0.1185
 2619SOL     OW19318   2.501   0.107   0.383 -0.7704  0.1459  0.3857
 2619SOL    HW119319   2.521   0.068   0.298 -3.2737 -1.0110  0.3347
 2619SOL    HW219320   2.581   0.159   0.395 -1.8320  1.7859  0.3824
 2620SOL     OW19321   4.551   2.818   3.511 -0.4533 -0.2897 -0.1459
 2620SOL    HW119322   4.505   2.823   3.428 -0.4464 -3.5098 -0.3322
 2620SOL    HW219323   4.607   2.895   3.511 -0.5764 -0.1856  1.3345
 2621SOL     OW19324   1.736   0.727   2.668  0.3658 -0.0581  0.7624
 2621SOL    HW119325   1.710   0.793   2.733  1.4110  1.7401 -0.6152
 2621SOL    HW219326   1.809   0.697   2.723  1.3640 -1.5639 -1.4009
 2622SOL     OW19327   2.259   0.822   4.572 -0.1488 -0.3179  0.0820
 2622SOL    HW119328   2.170   0.852   4.554 -0.2017 -0.6632 -0.2364
 2622SOL    HW219329   2.240   0.773   4.651  0.3224 -1.6352 -0.6134
 2623SOL     OW19330   0.715   2.603   8.503  0.1387 -0.6004 -0.1729
 2623SOL    HW119331   0.700   2.574   8.593  0.0660 -1.7830 -0.5651
 2623SOL    HW219332   0.804   2.571   8.486 -0.1399 -0.6388 -1.5574
 2624SOL     OW19333   1.410   3.719   7.577  0.5301  0.0148  0.4235
 2624SOL    HW119334   1.428   3.804   7.617 -1.6369  0.3772  0.6691
 2624SOL    HW219335   1.316   3.731   7.593  0.6759  1.4826  0.1934
 2625SOL     OW19336   2.824   2.198   3.336 -0.6101  0.5795  0.2438
 2625SOL    HW119337   2.855   2.282   3.370  0.5819 -0.1148  0.8891
 2625SOL    HW219338   2.772   2.236   3.266  0.0953  1.4652  0.2084
 2626SOL     OW19339   2.257   4.334   5.314  0.4219  0.3241 -0.2479
 2626SOL    HW119340   2.256   4.238   5.313 -0.3689  0.3373 -0.4468
 2626SOL    HW219341   2.217   4.344   5.400 -0.3424 -1.7123 -0.3551
 2627SOL     OW19342   0.718   0.752  11.253  0.1392 -0.1872  0.1874
 2627SOL    HW119343   0.628   0.720  11.260  0.6406 -1.7545 -0.5405
 2627SOL    HW219344   0.762   0.668  11.270 -2.5647 -1.7331 -0.3163
 2628SOL     OW19345   0.438   0.585  14.712  0.3379 -0.0105  0.6560
 2628SOL    HW119346   0.458   0.676  14.735 -2.0343  0.1253  2.1668
 2628SOL    HW219347   0.445   0.592  14.617 -0.0834  1.8752  0.7604
 2629SOL     OW19348   2.005   3.043  10.314 -0.4413 -0.2137 -0.1660
 2629SOL    HW119349   2.045   3.129  10.326 -1.4053  0.4279 -1.6406
 2629SOL    HW219350   2.088   2.997  10.326 -0.7234 -0.5381  0.5676
 2630SOL     OW19351   3.647   1.299   9.184  0.1393 -0.5856  0.2325
 2630SOL    HW119352   3.706   1.285   9.110  0.1029 -0.2405  0.1351
 2630SOL    HW219353   3.659   1.393   9.199 -1.2454 -0.0683 -1.8612
 2631SOL     OW19354   4.023   1.586  10.669  0.0477  0.3213 -0.5326
 2631SOL    HW119355   4.098   1.565  10.726  0.5347  1.1992 -0.8426
 2631SOL    HW219356   3.947   1.546  10.711  0.7951 -0.1541  0.3742
 2632SOL     OW19357   0.916   4.041  10.967  0.1045 -0.1914  0.1749
 2632SOL    HW119358   0.844   4.079  10.917  0.0159  2.3565  2.2396
 2632SOL    HW219359   0.993   4.078  10.924  0.7757 -1.1739  0.5221
 2633SOL     OW19360   4.503   3.474   8.995 -0.1034  0.2752 -0.1395
 2633SOL    HW119361   4.500   3.394   8.943  0.7602 -0.2492  0.6250
 2633SOL    HW219362   4.579   3.517   8.957 -1.4047  2.4224 -0.3018
 2634SOL     OW19363   3.613   4.345   5.077  0.0894  0.7354 -0.7573
 2634SOL    HW119364   3.550   4.331   5.148  1.0217 -0.0834 -0.0929
 2634SOL    HW219365   3.610   4.439   5.059 -1.7948  1.5501  3.7977
 2635SOL     OW19366   2.240   4.192   6.212  0.3004 -0.4331 -0.1298
 2635SOL    HW119367   2.272   4.254   6.277 -1.4076 -0.7396  1.0003
 2635SOL    HW219368   2.315   4.200   6.153 -0.6797  0.0251 -1.3264
 2636SOL     OW19369   1.270   2.645   6.793  0.2187  0.2963 -0.3166
 2636SOL    HW119370   1.309   2.732   6.795  3.1331 -1.0468  1.1535
 2636SOL    HW219371   1.227   2.650   6.708  2.0147 -1.7395 -1.3478
 2637SOL     OW19372   1.544   0.035   5.786  0.0171  0.0526  0.2417
 2637SOL    HW119373   1.469   0.085   5.818 -0.6780 -2.0798  1.9752
 2637SOL    HW219374   1.561   4.710   5.867 -0.2227 -0.7478 -0.1752
 2638SOL     OW19375   2.799   1.402   9.418  0.5030 -0.2551  0.3066
 2638SOL    HW119376   2.710   1.390   9.387  0.7442  1.6473 -1.2002
 2638SOL    HW219377   2.834   1.437   9.336 -1.9101 -2.9515 -1.8614
 2639SOL     OW19378   0.788   3.696   4.386  0.3726  0.4987 -0.1471
 2639SOL    HW119379   0.840   3.630   4.340  1.8968 -0.0801  2.4460
 2639SOL    HW219380   0.797   3.768   4.323 -1.3762  0.9731  0.1607
 2640SOL     OW19381   1.633   4.148   6.280  0.1512 -0.2244 -0.2489
 2640SOL    HW119382   1.590   4.093   6.346 -2.2429  0.3582 -1.3356
 2640SOL    HW219383   1.685   4.212   6.329 -1.2020  0.7107 -0.0488
 2641SOL     OW19384   2.990   2.439   3.227  0.2375  0.0564 -0.0196
 2641SOL    HW119385   3.017   2.387   3.151  2.3609 -0.2436  0.9313
 2641SOL    HW219386   3.076   2.444   3.269 -0.7733  1.9141  1.7593
 2642SOL     OW19387   2.534   3.759   1.967 -0.1135  0.4167 -0.1152
 2642SOL    HW119388   2.570   3.795   1.885  1.9935  1.4869  1.2689
 2642SOL    HW219389   2.603   3.770   2.033 -0.4640  0.6521  0.2155
 2643SOL     OW19390   1.351   1.739  11.392  0.0233 -0.0723  0.3274
 2643SOL    HW119391   1.335   1.762  11.483  0.8032  0.3647  0.3501
 2643SOL    HW219392   1.374   1.824  11.355 -0.7460 -0.1748 -0.3882
 2644SOL     OW19393   2.148   4.671   6.711  0.1725 -0.0789 -0.1511
 2644SOL    HW119394   2.230   4.717   6.695 -0.3866 -0.4466 -4.0640
 2644SOL    HW219395   2.087   0.010   6.751 -1.7774 -1.2882 -1.2763
 2645SOL     OW19396   3.299   4.117   8.557 -0.0179  0.5324 -0.6634
 2645SOL    HW119397   3.324   4.090   8.469 -2.2665 -0.4857 -0.9748
 2645SOL    HW219398   3.204   4.105   8.552  0.1021 -0.6143 -0.1402
 2646SOL     OW19399   3.069   3.968   7.768  0.2134  0.5214 -0.1091
 2646SOL    HW119400   3.048   3.875   7.769 -0.7238  0.7306 -0.7091
 2646SOL    HW219401   3.014   4.004   7.698  1.3389  0.8585 -0.8137
 2647SOL     OW19402   2.983   0.138   6.606  0.1342 -0.5754 -0.3345
 2647SOL    HW119403   2.929   0.161   6.681  2.5624  0.3069  1.1517
 2647SOL    HW219404   3.072   0.126   6.640  0.5983 -0.3465 -1.4545
 2648SOL     OW19405   0.608   0.863   7.431  0.4030 -0.4312  0.2179
 2648SOL    HW119406   0.519   0.847   7.463 -0.2902  1.1213 -0.9657
 2648SOL    HW219407   0.621   0.953   7.463 -0.6228 -0.9812  2.2193
 2649SOL     OW19408   3.811   1.651   5.422 -0.0942  0.2734  0.0437
 2649SOL    HW119409   3.733   1.639   5.367 -0.2347  1.0817  0.0604
 2649SOL    HW219410   3.786   1.740   5.449 -1.1570  0.0520 -0.1935
 2650SOL     OW19411   1.032   0.226   6.318 -0.0234  0.0651  0.8052
 2650SOL    HW119412   1.019   0.133   6.305  1.1187  0.1718 -0.9826
 2650SOL    HW219413   0.996   0.252   6.403 -0.1451 -0.1242  0.8114
 2651SOL     OW19414   3.613   1.783   2.702 -0.2450  0.4330  0.4794
 2651SOL    HW119415   3.622   1.875   2.677  2.6885 -0.0809 -0.3885
 2651SOL    HW219416   3.604   1.787   2.797  1.4461 -2.2544  0.7529
 2652SOL     OW19417   1.751   2.083  11.821 -0.3167  0.3284 -0.0551
 2652SOL    HW119418   1.787   1.997  11.844  0.6670  0.6988 -0.2121
 2652SOL    HW219419   1.664   2.089  11.861  0.0831 -0.4967  0.9576
 2653SOL     OW19420   0.610   3.345   4.252  0.3545 -0.2730  0.5923
 2653SOL    HW119421   0.706   3.346   4.254  0.3631 -1.6437  0.3797
 2653SOL    HW219422   0.594   3.252   4.264  0.2694 -0.5511 -1.6859
 2654SOL     OW19423   1.029   3.024   6.325 -0.0041  0.1322 -0.3609
 2654SOL    HW119424   0.995   2.970   6.396  0.3785  1.1525  0.5917
 2654SOL    HW219425   1.026   2.963   6.250 -0.3658  0.3060 -0.4887
 2655SOL     OW19426   2.317   0.533   9.552  0.0319  0.6278 -0.0186
 2655SOL    HW119427   2.389   0.475   9.528 -1.7316 -1.1219 -1.1000
 2655SOL    HW219428   2.309   0.587   9.474  1.1678  0.2016 -0.4260
 2656SOL     OW19429   2.970   0.393  10.580 -0.3667  0.1259  0.0346
 2656SOL    HW119430   2.984   0.390  10.486  1.9562 -0.5266  0.3932
 2656SOL    HW219431   2.881   0.358  10.592  0.2773 -1.1356  1.2617
 2657SOL     OW19432   0.067   1.484   3.285  0.2391  0.1150  0.1357
 2657SOL    HW119433   4.701   1.513   3.266  0.7731  1.2385 -0.6830
 2657SOL    HW219434   0.081   1.418   3.218 -0.8305  0.2473 -0.2093
 2658SOL     OW19435   2.703   4.575   2.642  0.1373  0.4515 -0.7352
 2658SOL    HW119436   2.758   4.514   2.593  0.9448 -1.0028  2.0170
 2658SOL    HW219437   2.768   4.630   2.686  0.6722  0.9442 -2.1199
 2659SOL     OW19438   1.496   3.013   2.002  0.0701 -0.2610 -0.4666
 2659SOL    HW119439   1.401   3.005   2.011 -0.1592  1.5041 -1.3462
 2659SOL    HW219440   1.523   3.034   2.091 -0.0251  0.6459 -0.6575
 2660SOL     OW19441   4.068   0.479   4.162  0.4936 -0.8065  0.5138
 2660SOL    HW119442   4.040   0.550   4.219 -4.5887 -1.5233 -1.1299
 2660SOL    HW219443   4.086   0.530   4.082  0.4553 -1.4817  0.0795
 2661SOL     OW19444   4.083   1.472   3.402 -0.1392  0.1279  0.0643
 2661SOL    HW119445   4.068   1.464   3.308 -0.8657  1.8988  0.0268
 2661SOL    HW219446   4.017   1.412   3.436  1.2228  0.5269  3.4256
 2662SOL     OW19447   0.260   0.477   1.307 -0.1464  0.3803 -0.4404
 2662SOL    HW119448   0.299   0.564   1.300 -0.7156  0.6903  0.1720
 2662SOL    HW219449   0.168   0.494   1.287  0.1355  1.6525 -0.5923
 2663SOL     OW19450   2.637   0.120   5.726 -0.6290  0.1581  0.3089
 2663SOL    HW119451   2.696   0.118   5.802  0.5857  0.9258 -0.6152
 2663SOL    HW219452   2.630   0.214   5.709 -1.0422 -0.3013 -1.9593
 2664SOL     OW19453   0.990   4.122  14.543 -0.2342 -0.5747  0.0339
 2664SOL    HW119454   0.934   4.110  14.619  1.6358 -0.1782  1.4787
 2664SOL    HW219455   0.935   4.190  14.504 -0.2892  3.0644  6.4103
 2665SOL     OW19456   1.198   2.712  11.912 -0.4052 -0.6085  0.1454
 2665SOL    HW119457   1.265   2.723  11.980  0.5893  0.3324 -0.9671
 2665SOL    HW219458   1.117   2.694  11.960  0.1402  1.2081  1.7574
 2666SOL     OW19459   0.978   2.974   3.592  0.0192 -0.2928  0.1271
 2666SOL    HW119460   0.976   2.880   3.574 -1.3668 -0.2331 -0.0792
 2666SOL    HW219461   1.048   2.981   3.657  0.9128  0.6844 -0.9489
 2667SOL     OW19462   3.316   2.323   7.340  0.0685 -0.1275 -0.1233
 2667SOL    HW119463   3.262   2.376   7.282  0.2407  0.8130  0.5745
 2667SOL    HW219464   3.249   2.256   7.357  1.5574 -2.0296 -1.6923
 2668SOL     OW19465   1.282   3.649   6.210  0.1686  0.3980 -0.1311
 2668SOL    HW119466   1.324   3.705   6.275 -1.6262  2.1879 -0.5122
 2668SOL    HW219467   1.326   3.565   6.223 -0.8860 -0.0936  0.2081
 2669SOL     OW19468   2.901   2.900  12.737  0.2329  0.1964  0.0244
 2669SOL    HW119469   2.810   2.880  12.713  0.0287  1.0052  0.1253
 2669SOL    HW219470   2.913   2.978  12.683  0.1595 -0.6582 -1.2092
 2670SOL     OW19471   0.776   2.866   4.283 -1.2153  0.0468 -0.1308
 2670SOL    HW119472   0.827   2.787   4.269  0.6053  1.4639 -1.5434
 2670SOL    HW219473   0.685   2.840   4.297 -0.9426 -0.0910  1.3531
 2671SOL     OW19474   1.154   3.843   7.608 -0.0894 -0.1212  0.3290
 2671SOL    HW119475   1.074   3.882   7.574  0.3878  0.9164  0.3773
 2671SOL    HW219476   1.188   3.913   7.664 -0.2188 -1.0093  1.5058
 2672SOL     OW19477   3.720   4.537   6.512 -0.3317  0.1596  0.1621
 2672SOL    HW119478   3.800   4.589   6.504 -2.2287  2.8309 -1.3667
 2672SOL    HW219479   3.657   4.593   6.466 -0.5395 -1.5608 -1.6208
 2673SOL     OW19480   0.469   1.583   0.713  0.3180 -0.7433  0.3817
 2673SOL    HW119481   0.430   1.497   0.720 -0.3225 -0.3740  1.3081
 2673SOL    HW219482   0.561   1.561   0.731  0.9572  1.1840 -0.4262
 2674SOL     OW19483   0.269   3.843   7.251  0.0374  0.0249 -0.4046
 2674SOL    HW119484   0.221   3.926   7.253 -1.5529 -0.9168  1.0333
 2674SOL    HW219485   0.284   3.843   7.156 -1.2704 -3.2868 -0.6080
 2675SOL     OW19486   0.995   0.761   7.103  0.6973 -0.0894  0.5655
 2675SOL    HW119487   0.977   0.667   7.098  0.4392 -0.0188  0.1805
 2675SOL    HW219488   0.918   0.803   7.143  2.8345  1.7572  2.7082
 2676SOL     OW19489   3.869   2.189  10.196 -0.2642 -0.3156  0.6301
 2676SOL    HW119490   3.871   2.128  10.122  0.0742  0.7897 -0.2841
 2676SOL    HW219491   3.784   2.161  10.230 -0.8494 -1.8924 -2.0892
 2677SOL     OW19492   0.902   1.474   8.796 -0.2770 -0.8367 -0.1782
 2677SOL    HW119493   0.979   1.424   8.769  1.4665  2.2113 -0.8471
 2677SOL    HW219494   0.835   1.438   8.738 -0.7681  0.9397 -0.7297
 2678SOL     OW19495   1.507   2.483   4.681  0.0607 -0.1653  0.0095
 2678SOL    HW119496   1.551   2.534   4.613 -0.9098  1.1054  0.3494
 2678SOL    HW219497   1.585   2.442   4.716 -0.3452 -1.2893 -0.3916
 2679SOL     OW19498   0.609   3.333   1.178 -0.0297 -0.1548 -0.3243
 2679SOL    HW119499   0.586   3.297   1.263  0.9567  0.9297  0.3941
 2679SOL    HW219500   0.703   3.336   1.192 -0.2665 -1.5727  1.5649
 2680SOL     OW19501   2.180   0.755   7.077 -0.0434  0.1633  0.1436
 2680SOL    HW119502   2.157   0.763   6.985  2.0233  2.0780 -0.1973
 2680SOL    HW219503   2.101   0.770   7.129 -0.0952 -0.0459  0.1230
 2681SOL     OW19504   3.870   2.600   7.767  0.3088 -0.4458  0.0591
 2681SOL    HW119505   3.900   2.515   7.734  0.9829 -0.3470  0.4161
 2681SOL    HW219506   3.809   2.634   7.701  2.2761  0.0535 -1.5116
 2682SOL     OW19507   0.652   2.812   3.705  0.0009  0.3008 -0.3201
 2682SOL    HW119508   0.654   2.902   3.673 -2.2938  0.3622 -0.3095
 2682SOL    HW219509   0.632   2.826   3.798 -1.9740  0.2524 -0.7373
 2683SOL     OW19510   2.911   3.433   7.683 -0.2925  0.0919  0.3741
 2683SOL    HW119511   2.942   3.462   7.597 -0.2594 -0.1402  0.3081
 2683SOL    HW219512   2.885   3.342   7.669  0.4408  0.1580 -1.4661
 2684SOL     OW19513   1.206   0.506   4.984  0.1985  0.1264  0.0299
 2684SOL    HW119514   1.159   0.589   4.993  0.5977  0.4969 -1.3249
 2684SOL    HW219515   1.248   0.516   4.899  0.7052  1.0055  0.3818
 2685SOL     OW19516   4.576   2.029   9.519 -0.3418 -0.0712  0.0935
 2685SOL    HW119517   4.608   1.955   9.571 -0.8081 -0.4399 -0.1525
 2685SOL    HW219518   4.500   2.044   9.574  0.4618 -1.3004  1.5448
 2686SOL     OW19519   2.826   3.419   1.013 -0.5960  0.2856 -0.1279
 2686SOL    HW119520   2.821   3.450   1.103 -1.2769  0.9940 -0.4108
 2686SOL    HW219521   2.921   3.419   0.998 -0.2759  0.8903  1.8680
 2687SOL     OW19522   1.135   3.742   2.664 -0.9131 -0.4019  0.1719
 2687SOL    HW119523   1.094   3.827   2.649  0.7670  0.4707  0.4027
 2687SOL    HW219524   1.064   3.679   2.665 -0.0568 -1.3631  1.0946
 2688SOL     OW19525   0.397   1.535   6.728 -0.0130  0.2965  0.0360
 2688SOL    HW119526   0.381   1.441   6.729 -0.5354  0.4097  4.0004
 2688SOL    HW219527   0.411   1.539   6.634  0.0567  0.0058  0.0359
 2689SOL     OW19528   3.468   1.193  12.292 -0.2419 -0.6779  0.1117
 2689SOL    HW119529   3.482   1.179  12.198 -2.8284 -1.6929 -0.1170
 2689SOL    HW219530   3.550   1.234  12.322  0.0315 -0.5869 -0.7486
 2690SOL     OW19531   1.525   0.080   7.350  0.1848  0.3597  0.2554
 2690SOL    HW119532   1.490   0.003   7.305  1.6558 -0.0136 -0.2529
 2690SOL    HW219533   1.614   0.048   7.362 -0.2595 -0.8129  0.3950
 2691SOL     OW19534   1.116   3.877  14.516  0.7697  0.2551 -0.1858
 2691SOL    HW119535   1.091   3.967  14.532  0.5263  0.1677 -0.0769
 2691SOL    HW219536   1.105   3.855  14.423 -0.2335  1.6281 -0.3735
 2692SOL     OW19537   4.140   4.316   2.421  0.6463  0.5348 -0.3126
 2692SOL    HW119538   4.106   4.343   2.336  0.0463 -1.4118 -0.7014
 2692SOL    HW219539   4.213   4.377   2.435  3.0273 -3.3451  4.3307
 2693SOL     OW19540   3.500   2.337  13.422  0.2759  0.1516 -0.2974
 2693SOL    HW119541   3.514   2.396  13.348  0.1817  2.4170  1.4648
 2693SOL    HW219542   3.486   2.253  13.379 -0.0718  0.0396  0.0289
 2694SOL     OW19543   0.179   1.228   9.430 -0.1075 -0.1564  0.0609
 2694SOL    HW119544   0.272   1.245   9.420 -0.3348  0.0216 -1.6756
 2694SOL    HW219545   0.172   1.155   9.492  1.2507  1.4469  2.0732
 2695SOL     OW19546   2.730   1.003   6.945 -0.0695 -0.2887  0.4920
 2695SOL    HW119547   2.669   0.959   7.003  0.8896  0.9738  2.4706
 2695SOL    HW219548   2.807   0.977   6.996  0.7657  0.0325 -0.5828
 2696SOL     OW19549   2.719   3.844   4.477  0.4783  0.0013 -0.9585
 2696SOL    HW119550   2.742   3.897   4.401 -2.1631  0.1155 -1.6557
 2696SOL    HW219551   2.654   3.890   4.529  0.2778  1.1957 -2.2842
 2697SOL     OW19552   0.344   3.240   4.002  0.0337 -0.4605 -0.4359
 2697SOL    HW119553   0.403   3.198   4.065  0.0267  0.7527  0.3867
 2697SOL    HW219554   0.254   3.233   4.033  0.6879  0.1828  1.5791
 2698SOL     OW19555   0.611   2.218  14.223  0.1076 -0.6013 -0.4831
 2698SOL    HW119556   0.517   2.219  14.240  0.1777 -2.0703  0.0341
 2698SOL    HW219557   0.627   2.165  14.301  0.7262  1.2115  0.6448
 2699SOL     OW19558   4.558   3.914   7.359 -0.3115  0.4618 -0.3991
 2699SOL    HW119559   4.598   3.880   7.439  0.8160  0.8603 -0.7954
 2699SOL    HW219560   4.581   4.005   7.374 -0.5529  0.8060 -2.1831
 2700SOL     OW19561   3.544   2.827   9.539  0.4894 -0.4833 -0.0337
 2700SOL    HW119562   3.516   2.781   9.460  0.6255  0.6719 -0.7509
 2700SOL    HW219563   3.537   2.757   9.604 -1.5721  0.5092  0.8110
 2701SOL     OW19564   0.007   3.605   0.683  0.0838  0.3358  0.4197
 2701SOL    HW119565   0.008   3.686   0.734 -0.4624  2.2284 -2.5396
 2701SOL    HW219566   0.007   3.538   0.751 -2.1760  0.2829  0.3798
 2702SOL     OW19567   2.165   0.466  11.013  0.1188 -0.1079 -0.0229
 2702SOL    HW119568   2.235   0.402  11.019 -0.4479 -0.5286  2.2461
 2702SOL    HW219569   2.165   0.482  10.919  0.6498 -1.9073 -0.3200
 2703SOL     OW19570   0.668   1.724   2.510  0.1724 -0.3539  0.5471
 2703SOL    HW119571   0.694   1.780   2.583 -1.8589  1.2231  0.0440
 2703SOL    HW219572   0.751   1.724   2.461  1.3111  2.7395  2.4532
 2704SOL     OW19573   2.424   2.747   2.691  0.1351  0.3641  0.3269
 2704SOL    HW119574   2.430   2.820   2.752 -0.3266  0.1595  0.6209
 2704SOL    HW219575   2.487   2.683   2.724 -0.4429  0.6866  2.0546
 2705SOL     OW19576   1.798   0.798  11.721  0.0112 -0.1905 -0.0402
 2705SOL    HW119577   1.743   0.869  11.688  1.6720  1.3720  0.5646
 2705SOL    HW219578   1.731   0.760  11.778  0.7877 -0.5472  0.6400
 2706SOL     OW19579   3.999   0.838   4.518 -0.5622 -0.0361 -0.2082
 2706SOL    HW119580   3.938   0.913   4.519 -1.2893 -0.6551  2.5316
 2706SOL    HW219581   3.964   0.806   4.602  1.5244 -1.2560  0.1845
 2707SOL     OW19582   2.562   2.685   8.677 -0.2453  0.2875 -0.2036
 2707SOL    HW119583   2.607   2.754   8.628  0.8332  0.8441  1.5364
 2707SOL    HW219584   2.496   2.736   8.723 -0.8285 -1.1205  0.5179
 2708SOL     OW19585   0.949   2.769   7.567  0.1946  0.1904  0.4724
 2708SOL    HW119586   0.973   2.842   7.625 -2.0849 -0.1914  1.8793
 2708SOL    HW219587   0.915   2.825   7.497  2.2868  2.0251  0.9294
 2709SOL     OW19588   0.714   0.472   0.732 -0.7905  0.1292 -0.1895
 2709SOL    HW119589   0.704   0.421   0.813 -1.3536  0.3412 -0.1203
 2709SOL    HW219590   0.670   0.554   0.758  1.9284  1.3237  0.5883
 2710SOL     OW19591   2.726   1.273  12.106 -0.0039  0.6879  0.0775
 2710SOL    HW119592   2.811   1.310  12.127 -0.3016  0.9234  0.8604
 2710SOL    HW219593   2.744   1.181  12.126 -0.0702  0.8105  0.6811
 2711SOL     OW19594   3.387   0.966   9.429  0.6893 -0.0390  0.1698
 2711SOL    HW119595   3.407   1.055   9.402 -0.6560 -0.1771 -1.2770
 2711SOL    HW219596   3.470   0.920   9.442  1.5726  1.1441 -1.3268
 2712SOL     OW19597   0.390   1.546  10.630  0.1291  0.3598 -0.0996
 2712SOL    HW119598   0.428   1.543  10.718 -1.1445  1.7747  0.4877
 2712SOL    HW219599   0.354   1.458  10.626  1.6566 -0.2165 -1.2389
 2713SOL     OW19600   0.287   1.780   6.780  0.0208 -0.5306 -0.0660
 2713SOL    HW119601   0.343   1.705   6.758  2.6224  1.7988 -1.4002
 2713SOL    HW219602   0.201   1.752   6.750 -0.0093  0.8366 -1.2487
 2714SOL     OW19603   0.073   4.702   3.134  0.2499 -0.0982  0.0270
 2714SOL    HW119604   0.024   4.712   3.053  1.8944 -2.4716 -1.2557
 2714SOL    HW219605   0.136   0.049   3.117 -0.2664  0.0241 -1.3650
 2715SOL     OW19606   2.863   0.129  14.547 -0.1224 -0.3105 -0.0616
 2715SOL    HW119607   2.832   0.217  14.566 -1.4595 -1.2606  2.1027
 2715SOL    HW219608   2.915   0.114  14.625  0.7040  1.8261 -0.2046
 2716SOL     OW19609   2.782   0.282  12.735  1.2441  0.0816  0.5949
 2716SOL    HW119610   2.828   0.237  12.664  1.2949 -2.3397  2.1759
 2716SOL    HW219611   2.769   0.363  12.685  0.5988 -0.6011 -0.3336
 2717SOL     OW19612   3.048   2.366   8.648  0.1930  0.1046 -0.1012
 2717SOL    HW119613   3.063   2.289   8.592  1.4842  0.5141 -0.3246
 2717SOL    HW219614   3.130   2.372   8.697 -0.4458 -0.5495  1.0450
 2718SOL     OW19615   2.447   1.055   1.158  0.3308  0.0696 -0.0062
 2718SOL    HW119616   2.404   1.125   1.207  3.8933 -0.3483  3.7421
 2718SOL    HW219617   2.474   1.002   1.233  1.4182  2.1106  1.0364
 2719SOL     OW19618   2.352   2.301   9.055  0.4003 -0.2435  0.1310
 2719SOL    HW119619   2.314   2.273   9.139  2.5021 -1.0015  0.8193
 2719SOL    HW219620   2.306   2.384   9.042  0.8936 -0.0833 -0.6007
 2720SOL     OW19621   2.686   0.733   6.829  0.3676 -0.1566  0.5072
 2720SOL    HW119622   2.656   0.729   6.739  0.2411 -1.3323  0.6099
 2720SOL    HW219623   2.746   0.808   6.824 -0.8202  0.6353 -2.0779
 2721SOL     OW19624   4.355   3.381  15.214 -0.3314  0.3007 -0.0261
 2721SOL    HW119625   4.407   3.432  15.151 -1.8722  0.6978 -0.9567
 2721SOL    HW219626   4.398   3.296  15.225 -0.4082  0.4540  1.5970
 2722SOL     OW19627   3.549   3.626  11.658  0.4300 -0.0504  0.3138
 2722SOL    HW119628   3.592   3.545  11.686  2.2206  0.2294 -1.6517
 2722SOL    HW219629   3.602   3.647  11.581  1.4339  1.2104  1.3341
 2723SOL     OW19630   1.934   0.118   5.958  0.6101  0.2760 -0.5128
 2723SOL    HW119631   1.888   0.178   5.898  0.3429  1.7112  1.1082
 2723SOL    HW219632   1.989   0.073   5.894  0.6264  0.7793 -0.8642
 2724SOL     OW19633   3.979   3.794   7.567  0.2820 -0.4332  0.3172
 2724SOL    HW119634   3.899   3.756   7.603  1.2016 -2.4797  0.2072
 2724SOL    HW219635   3.991   3.763   7.477  1.3791 -3.1223  1.4067
 2725SOL     OW19636   2.373   0.274  14.266 -0.6738  0.5432 -0.1899
 2725SOL    HW119637   2.357   0.272  14.171  1.9894  0.8941 -0.6475
 2725SOL    HW219638   2.466   0.253  14.272 -0.8119 -0.2322 -0.7985
 2726SOL     OW19639   0.528   2.008   6.244  0.1153  0.3528 -0.0761
 2726SOL    HW119640   0.588   1.957   6.300 -1.9253  0.2092  1.9633
 2726SOL    HW219641   0.512   1.937   6.182  0.2406 -1.3273  1.7830
 2727SOL     OW19642   0.761   2.687  15.100 -0.0634  0.1173  0.1447
 2727SOL    HW119643   0.833   2.641  15.058  1.8137  0.2006  3.2220
 2727SOL    HW219644   0.765   2.769  15.052  0.4320  0.5627  0.9445
 2728SOL     OW19645   0.491   0.423   5.033  0.4076  0.0830 -0.1338
 2728SOL    HW119646   0.478   0.409   4.939 -1.4650 -0.8615  0.2721
 2728SOL    HW219647   0.546   0.350   5.060  1.6477  0.3344 -1.9724
 2729SOL     OW19648   1.604   0.809   5.582 -0.3472 -0.2679 -0.1918
 2729SOL    HW119649   1.645   0.808   5.669  0.9006  1.3379 -0.7579
 2729SOL    HW219650   1.562   0.723   5.575  1.9195 -1.4385  0.4647
 2730SOL     OW19651   2.266   0.497   1.563 -0.1797  1.4808  0.2662
 2730SOL    HW119652   2.186   0.549   1.571  1.3156  3.7945  0.0814
 2730SOL    HW219653   2.282   0.485   1.470  0.0711  0.9975  0.3717
 2731SOL     OW19654   1.139   0.153   9.792 -0.0942 -0.9034 -0.3986
 2731SOL    HW119655   1.122   0.235   9.839  2.0878 -0.3109 -0.6578
 2731SOL    HW219656   1.172   0.105   9.868 -0.2773 -0.0413  0.2180
 2732SOL     OW19657   1.339   1.137   9.208 -0.1289 -0.5699  0.0380
 2732SOL    HW119658   1.278   1.182   9.149  0.3179 -1.9807 -1.4777
 2732SOL    HW219659   1.304   1.159   9.294 -1.6718 -1.6162 -0.3259
 2733SOL     OW19660   3.432   4.124   5.778  0.1231  0.5842  0.1273
 2733SOL    HW119661   3.465   4.201   5.732  1.4025  0.7984  1.4219
 2733SOL    HW219662   3.505   4.064   5.762  0.3837  1.0868 -0.5483
 2734SOL     OW19663   4.337   1.330   3.755 -0.3098 -0.1723 -0.3568
 2734SOL    HW119664   4.302   1.419   3.756  0.1781  0.0553 -2.2193
 2734SOL    HW219665   4.431   1.343   3.771 -1.0474  0.3327  3.3928
 2735SOL     OW19666   2.458   2.532   7.824  0.4693  0.1408 -0.0381
 2735SOL    HW119667   2.533   2.560   7.772 -0.4690  0.5034 -1.2095
 2735SOL    HW219668   2.421   2.464   7.767  0.2648 -0.3087  0.6409
 2736SOL     OW19669   1.304   0.466   6.283 -0.5573  0.0681  0.3318
 2736SOL    HW119670   1.399   0.473   6.279 -0.4978 -0.7461  0.1898
 2736SOL    HW219671   1.294   0.410   6.205  0.5999 -0.1788  0.3631
 2737SOL     OW19672   3.756   4.557   8.953  0.2498  0.0150  0.2227
 2737SOL    HW119673   3.695   4.504   9.003 -0.2013  0.8266  0.5322
 2737SOL    HW219674   3.701   4.616   8.902  2.9997  3.1871  0.9195
 2738SOL     OW19675   1.794   0.536  11.856  0.3693  0.7727  0.2169
 2738SOL    HW119676   1.800   0.615  11.910 -0.6923 -1.1147  3.1098
 2738SOL    HW219677   1.871   0.500  11.901  0.6790  2.2480  0.8982
 2739SOL     OW19678   3.501   0.541   6.028  0.4210  0.1163  0.1335
 2739SOL    HW119679   3.517   0.454   5.992  2.0302 -0.4387  2.2561
 2739SOL    HW219680   3.430   0.564   5.968 -0.6156 -1.0028  0.9437
 2740SOL     OW19681   0.011   3.190   5.620  0.1201 -0.0084 -0.0593
 2740SOL    HW119682   0.026   3.240   5.700 -0.2715 -0.3343  0.2176
 2740SOL    HW219683   0.045   3.103   5.642 -0.5032 -0.3202 -0.3298
 2741SOL     OW19684   4.590   4.718   6.163 -0.0651 -0.0432  0.1603
 2741SOL    HW119685   4.610   4.678   6.078  0.9785 -0.6245  0.6801
 2741SOL    HW219686   4.613   4.657   6.233  0.2883  1.1980  1.1186
 2742SOL     OW19687   2.963   0.287   3.585  0.1965 -0.1479  0.1052
 2742SOL    HW119688   2.963   0.347   3.660 -0.7211  1.5027 -1.2474
 2742SOL    HW219689   2.982   0.357   3.523  2.7490 -1.6079 -0.7717
 2743SOL     OW19690   4.677   3.961   4.554  0.7113 -0.1642  0.7762
 2743SOL    HW119691   4.720   4.047   4.554 -1.5493  0.9667 -0.1444
 2743SOL    HW219692   4.672   3.931   4.645 -2.8429 -2.5186 -0.2240
 2744SOL     OW19693   0.255   3.975   9.165 -0.1271  0.6044 -0.0464
 2744SOL    HW119694   0.346   4.003   9.171 -0.5328  1.9216  0.1437
 2744SOL    HW219695   0.260   3.941   9.076  2.5001 -2.0976  1.1483
 2745SOL     OW19696   1.877   2.263   3.062 -0.3674  0.2011  0.1224
 2745SOL    HW119697   1.850   2.336   3.118 -2.6965 -0.6500  0.1224
 2745SOL    HW219698   1.832   2.193   3.109  1.2353 -0.2249  1.0045
 2746SOL     OW19699   2.787   4.172   2.489 -0.1447 -0.4377 -0.3583
 2746SOL    HW119700   2.712   4.113   2.488 -0.9936  0.6059  2.2100
 2746SOL    HW219701   2.812   4.165   2.581 -1.2701  2.9672  0.1942
 2747SOL     OW19702   4.259   0.892   8.483 -0.1766 -0.2729 -0.3979
 2747SOL    HW119703   4.342   0.937   8.495 -0.6123  0.5811 -0.5528
 2747SOL    HW219704   4.262   0.826   8.553 -2.3947 -1.6386 -1.5777
 2748SOL     OW19705   1.601   1.246   7.757 -0.4220 -0.2289  0.5187
 2748SOL    HW119706   1.670   1.304   7.790  0.4667  0.0301 -1.7984
 2748SOL    HW219707   1.633   1.214   7.672  2.4289 -1.8218  2.1757
 2749SOL     OW19708   4.517   2.465   4.098 -0.2532  0.4558 -0.5634
 2749SOL    HW119709   4.566   2.533   4.143 -0.0113 -1.2587  1.7782
 2749SOL    HW219710   4.575   2.448   4.024  0.2111 -0.6195  0.0494
 2750SOL     OW19711   2.264   3.985   9.032  0.0782  0.2486 -0.3456
 2750SOL    HW119712   2.259   3.895   9.000 -0.9752  0.2951 -0.3001
 2750SOL    HW219713   2.258   4.037   8.952  0.0084  0.1999 -0.3720
 2751SOL     OW19714   1.329   1.652  17.602 -0.5963  1.0814  0.2106
 2751SOL    HW119715   1.248   1.690  17.566 -0.6241  0.2181 -0.6159
 2751SOL    HW219716   1.374   1.640  17.519 -0.8118 -0.4849  0.3106
 2752SOL     OW19717   2.102   2.564   6.256  0.6552  0.3752 -0.6634
 2752SOL    HW119718   2.030   2.522   6.303  1.7723 -1.7012 -0.8132
 2752SOL    HW219719   2.058   2.611   6.185  2.0857  0.9128 -1.1942
 2753SOL     OW19720   2.113   4.116   7.517  0.0467  0.4451 -0.0196
 2753SOL    HW119721   2.176   4.149   7.580 -0.2888 -0.0090  0.5476
 2753SOL    HW219722   2.155   4.038   7.483 -1.3390 -0.5164  0.4807
 2754SOL     OW19723   4.074   1.484  11.101 -0.3339  0.1457 -0.0112
 2754SOL    HW119724   3.980   1.492  11.117 -0.6558 -1.2777 -1.2910
 2754SOL    HW219725   4.069   1.389  11.107  1.9432  0.0335  0.0315
 2755SOL     OW19726   0.812   0.113   3.017 -0.2298 -0.9680 -0.0006
 2755SOL    HW119727   0.772   0.035   3.054  0.7802 -1.3396  0.2912
 2755SOL    HW219728   0.853   0.075   2.940  0.8219  0.0016  0.0846
 2756SOL     OW19729   4.280   2.235   7.245  0.3728 -0.6045  0.1062
 2756SOL    HW119730   4.331   2.306   7.286  0.0849 -1.1803  1.4579
 2756SOL    HW219731   4.335   2.219   7.168  0.1396 -2.4251  0.3103
 2757SOL     OW19732   4.019   2.377   4.145 -0.5257 -0.0293  0.1812
 2757SOL    HW119733   3.950   2.385   4.079 -2.1806  2.9116  2.2491
 2757SOL    HW219734   4.032   2.471   4.158 -2.1061  0.3806 -1.1046
 2758SOL     OW19735   2.555   3.510   8.709  0.2813 -0.1425  0.4109
 2758SOL    HW119736   2.649   3.511   8.727  0.3931  0.2359 -0.1908
 2758SOL    HW219737   2.536   3.456   8.633 -0.4111  0.8723 -0.1437
 2759SOL     OW19738   1.124   0.722   2.051  0.0615 -0.0169  0.0080
 2759SOL    HW119739   1.106   0.656   2.118  1.5776 -0.5481 -0.1043
 2759SOL    HW219740   1.040   0.737   2.008 -0.5988 -3.0848  0.2506
 2760SOL     OW19741   1.495   2.959   7.112  0.2054  0.4461 -0.1361
 2760SOL    HW119742   1.425   2.910   7.069  1.9498 -1.5446 -0.7743
 2760SOL    HW219743   1.440   3.024   7.155 -1.1229 -0.6418 -0.1935
 2761SOL     OW19744   0.548   0.462   2.805 -0.0682  0.0265  0.5172
 2761SOL    HW119745   0.603   0.459   2.883  2.3275 -0.0309 -1.1857
 2761SOL    HW219746   0.611   0.484   2.736 -1.0625 -1.0741 -0.7484
 2762SOL     OW19747   2.312   4.609   6.345  0.1621 -0.1733 -0.8138
 2762SOL    HW119748   2.389   4.660   6.321  1.4930 -1.7277  0.1301
 2762SOL    HW219749   2.241   4.667   6.372 -1.8398 -2.7339 -0.5744
 2763SOL     OW19750   2.405   1.994   5.860 -0.8954  0.4001  0.2486
 2763SOL    HW119751   2.320   1.965   5.829 -1.5185  0.1084  2.2001
 2763SOL    HW219752   2.442   1.908   5.880 -0.0095  0.0905 -2.6832
 2764SOL     OW19753   1.853   3.107   0.345  1.1478  0.1915 -0.5619
 2764SOL    HW119754   1.859   3.188   0.295  2.3564 -0.4035 -1.3917
 2764SOL    HW219755   1.775   3.071   0.303 -1.5498  2.6556  2.2893
 2765SOL     OW19756   4.467   0.734   6.028 -0.3972  0.3365 -0.5690
 2765SOL    HW119757   4.489   0.740   5.936  0.4665 -1.7811 -0.5072
 2765SOL    HW219758   4.477   0.826   6.052  0.3377  0.0172  0.3441
 2766SOL     OW19759   2.966   3.223   6.019 -0.0787 -0.1331  0.1799
 2766SOL    HW119760   2.995   3.299   5.969 -0.0286 -0.6070 -0.4993
 2766SOL    HW219761   2.887   3.189   5.976 -0.9580  1.0021  0.8945
 2767SOL     OW19762   1.112   3.214   3.459 -0.4937 -0.0533 -0.0252
 2767SOL    HW119763   1.114   3.265   3.540  0.6758  0.3038 -0.2841
 2767SOL    HW219764   1.087   3.128   3.493 -0.0641  1.1183  3.2187
 2768SOL     OW19765   2.307   3.908   7.197  0.2739  0.1346  0.2287
 2768SOL    HW119766   2.259   3.983   7.160  0.0350 -0.8470 -1.4539
 2768SOL    HW219767   2.359   3.878   7.122 -0.4861  0.3504 -0.3821
 2769SOL     OW19768   4.057   1.268   4.808 -0.4835  0.1801 -0.2420
 2769SOL    HW119769   4.019   1.268   4.721  1.7443  1.7861 -1.2104
 2769SOL    HW219770   4.136   1.314   4.780  0.4018 -1.2353 -0.0704
 2770SOL     OW19771   2.146   0.899  10.599 -0.4471  0.0741  0.0552
 2770SOL    HW119772   2.239   0.911  10.579 -0.9064 -1.6294 -3.0944
 2770SOL    HW219773   2.133   0.834  10.530  0.4270 -0.9373  0.8447
 2771SOL     OW19774   2.973   0.428   2.559 -0.1777  0.6214 -0.3093
 2771SOL    HW119775   2.911   0.494   2.527 -0.4815  0.2013 -0.5917
 2771SOL    HW219776   2.912   0.355   2.569 -0.4031  0.9088  0.4305
 2772SOL     OW19777   2.210   3.626  14.178 -0.4828  0.2766  0.6958
 2772SOL    HW119778   2.185   3.537  14.203  0.2145 -0.4646 -1.2511
 2772SOL    HW219779   2.231   3.663  14.264  0.2789 -1.4373  1.2338
 2773SOL     OW19780   3.954   1.332  11.415 -0.2578  0.2636 -0.0139
 2773SOL    HW119781   3.912   1.302  11.335 -2.8231  0.9006  1.0694
 2773SOL    HW219782   4.022   1.266  11.426  0.7371  1.6283  1.9583
 2774SOL     OW19783   0.322   4.532   0.772 -0.4000 -0.2741  0.0457
 2774SOL    HW119784   0.250   4.500   0.718 -0.3342  0.9492 -0.7574
 2774SOL    HW219785   0.361   4.608   0.729 -2.1634  1.6988  1.9484
 2775SOL     OW19786   3.056   2.627   4.844  0.1994 -0.2074 -0.3504
 2775SOL    HW119787   3.028   2.690   4.910  0.3928 -0.6285  0.1385
 2775SOL    HW219788   3.088   2.563   4.908  0.2725  0.8712  0.6833
 2776SOL     OW19789   0.227   1.758   8.967  0.2437 -0.0997 -0.3428
 2776SOL    HW119790   0.320   1.735   8.975  0.2263 -0.3232 -0.7862
 2776SOL    HW219791   0.212   1.769   8.873  1.2568  0.8399 -0.4031
 2777SOL     OW19792   1.236   2.448   9.265 -0.3556  0.3179  0.6080
 2777SOL    HW119793   1.202   2.523   9.217 -1.0753 -1.7003 -2.0711
 2777SOL    HW219794   1.170   2.437   9.334 -1.0385 -1.2365 -0.2969
 2778SOL     OW19795   1.029   1.528   1.376 -0.6208  0.3605  0.1716
 2778SOL    HW119796   0.989   1.606   1.338 -0.7103  0.4275  0.4070
 2778SOL    HW219797   1.093   1.506   1.308 -2.7593 -1.2983 -1.3463
 2779SOL     OW19798   2.854   2.893  15.277 -0.1721 -0.0531 -0.2332
 2779SOL    HW119799   2.813   2.945  15.208  0.2175  0.1570 -0.3057
 2779SOL    HW219800   2.935   2.863  15.236  0.8960  1.7813  0.5536
 2780SOL     OW19801   1.482   4.547   6.423  0.3064  0.0471  0.3290
 2780SOL    HW119802   1.561   4.494   6.434  0.3088  0.4660  2.4033
 2780SOL    HW219803   1.462   4.544   6.517  1.9887 -0.4756  0.6716
 2781SOL     OW19804   2.090   3.707  12.460 -0.2198  0.2917 -0.1504
 2781SOL    HW119805   2.071   3.757  12.539 -2.7350 -2.0165  0.7137
 2781SOL    HW219806   2.067   3.616  12.479 -0.1445  0.3929  0.4269
 2782SOL     OW19807   1.720   0.435   5.106 -0.2919 -0.3100 -0.1637
 2782SOL    HW119808   1.757   0.512   5.150 -1.2908 -0.7052  1.3592
 2782SOL    HW219809   1.633   0.464   5.078 -0.0395  0.8605  0.2637
 2783SOL     OW19810   3.695   1.607   4.840 -0.2764 -0.0291 -0.3580
 2783SOL    HW119811   3.722   1.595   4.749 -0.4287  1.8769 -0.6581
 2783SOL    HW219812   3.783   1.620   4.875 -1.4701  3.3247  1.3560
 2784SOL     OW19813   2.482   1.103   6.760 -0.5544 -0.4095 -0.1926
 2784SOL    HW119814   2.513   1.030   6.707 -1.0332 -1.5585  1.1165
 2784SOL    HW219815   2.451   1.054   6.836  1.1402 -1.7540 -0.3779
 2785SOL     OW19816   1.394   4.377   0.324  0.0105 -0.1580  0.4372
 2785SOL    HW119817   1.417   4.339   0.240  0.7495  2.3545 -0.4858
 2785SOL    HW219818   1.431   4.314   0.387  2.9260  0.3554 -0.7429
 2786SOL     OW19819   1.323   0.904  12.467 -0.5368  0.3792 -0.1441
 2786SOL    HW119820   1.338   0.988  12.424  0.8940 -0.3747 -1.1069
 2786SOL    HW219821   1.412   0.883  12.495 -1.0240 -0.8403  0.5241
 2787SOL     OW19822   3.494   3.435   2.815 -0.4497 -0.4964  0.3518
 2787SOL    HW119823   3.439   3.444   2.738 -0.5525 -2.2049  0.2271
 2787SOL    HW219824   3.543   3.517   2.815  1.0378 -1.3826  1.4215
 2788SOL     OW19825   0.008   0.274  12.189 -0.6261  0.4426 -0.2562
 2788SOL    HW119826   0.021   0.203  12.251  2.2412 -1.3801 -2.9253
 2788SOL    HW219827   4.639   0.261  12.166 -0.2826 -1.0132 -0.7953
 2789SOL     OW19828   2.222   0.199  14.568  0.3001 -0.9504 -0.0593
 2789SOL    HW119829   2.180   0.173  14.486  0.7941  1.0191 -0.9339
 2789SOL    HW219830   2.163   0.274  14.574  0.8380 -0.4107 -1.3702
 2790SOL     OW19831   0.514   1.541   1.338 -0.3158  0.2992  0.1591
 2790SOL    HW119832   0.526   1.551   1.432 -3.9852 -3.5958  1.0133
 2790SOL    HW219833   0.512   1.447   1.322  2.0501  0.2764  0.0724
 2791SOL     OW19834   3.560   4.685   8.059 -0.2770  0.4039  0.1464
 2791SOL    HW119835   3.609   4.722   7.985 -1.2607 -2.4053 -1.9190
 2791SOL    HW219836   3.474   4.686   8.017 -0.2109  2.3521  0.0563
 2792SOL     OW19837   0.459   1.657   9.056 -0.7979  0.2064  0.0685
 2792SOL    HW119838   0.534   1.640   9.000  0.4623 -1.1729  2.1773
 2792SOL    HW219839   0.441   1.568   9.086  2.2968 -0.6625 -0.6804
 2793SOL     OW19840   3.308   2.582  14.758 -0.0503 -0.1420 -0.3612
 2793SOL    HW119841   3.374   2.614  14.696 -1.7210 -2.8486 -3.5475
 2793SOL    HW219842   3.273   2.664  14.793 -0.3564 -0.4513  0.0555
 2794SOL     OW19843   2.202   4.614   4.799 -0.3193 -0.1874  0.1390
 2794SOL    HW119844   2.128   4.595   4.741  0.8684 -1.0093 -1.0881
 2794SOL    HW219845   2.227   4.523   4.812  1.3865  0.5379  2.0434
 2795SOL     OW19846   1.510   0.968   7.152 -0.0567 -0.2171 -0.0867
 2795SOL    HW119847   1.422   0.940   7.178 -0.6637  0.0710 -1.7939
 2795SOL    HW219848   1.498   1.063   7.156 -0.6799 -0.3381  0.7746
 2796SOL     OW19849   3.816   4.179   8.192 -0.1282  0.4580 -0.0891
 2796SOL    HW119850   3.912   4.174   8.191 -0.2104 -1.6303  2.4720
 2796SOL    HW219851   3.814   4.266   8.152 -1.0102  1.2080  1.6048
 2797SOL     OW19852   4.244   3.764   7.966 -0.1111  0.1767  0.3431
 2797SOL    HW119853   4.294   3.688   7.993  0.1400  0.0697 -0.4268
 2797SOL    HW219854   4.310   3.833   7.971 -0.9050  0.9143  0.6661
 2798SOL     OW19855   4.511   3.795   7.105  0.1231 -0.2723  0.2802
 2798SOL    HW119856   4.524   3.834   7.191 -0.8739  1.6371 -0.4292
 2798SOL    HW219857   4.530   3.873   7.053 -2.9142  0.4078  0.1869
 2799SOL     OW19858   0.854   2.726   3.270  0.5180 -0.2100 -0.3398
 2799SOL    HW119859   0.818   2.637   3.270  0.1504 -0.0604  0.1354
 2799SOL    HW219860   0.891   2.722   3.358 -2.1707  0.9310  0.8406
 2800SOL     OW19861   3.170   4.630  12.173 -0.2961 -0.7597  0.0663
 2800SOL    HW119862   3.237   4.625  12.241 -1.2895  0.5292  1.1344
 2800SOL    HW219863   3.092   4.624  12.228  0.8262 -0.8276  1.6529
 2801SOL     OW19864   3.977   1.028   8.828  0.2814  0.0420 -0.2408
 2801SOL    HW119865   3.985   1.076   8.910 -0.6297  0.7039 -0.5350
 2801SOL    HW219866   3.891   0.991   8.849 -0.2081  1.3391  0.0613
 2802SOL     OW19867   4.310   2.021   9.653 -0.2263 -0.3591  0.6077
 2802SOL    HW119868   4.298   1.938   9.608  1.0039  0.5168 -1.3154
 2802SOL    HW219869   4.276   2.079   9.586 -0.2574 -0.0755  0.8704
 2803SOL     OW19870   2.420   1.127   3.854  0.4177 -0.0643  0.0388
 2803SOL    HW119871   2.508   1.104   3.885  1.3100 -0.8194 -3.0378
 2803SOL    HW219872   2.374   1.044   3.857 -0.2277  0.2443 -1.4674
 2804SOL     OW19873   4.142   1.186   1.986  0.2629 -0.1888  0.2808
 2804SOL    HW119874   4.057   1.144   1.994 -1.0611  2.4872  0.2690
 2804SOL    HW219875   4.203   1.136   2.040 -0.5639 -0.2391  1.1597
 2805SOL     OW19876   0.208   0.704   2.912  0.2014 -1.1172  0.2579
 2805SOL    HW119877   0.196   0.707   2.817  0.4179  0.6788  0.2790
 2805SOL    HW219878   0.284   0.761   2.926 -0.3087 -0.5487  0.7183
 2806SOL     OW19879   2.134   3.170   8.096 -0.0578  0.1125  0.9267
 2806SOL    HW119880   2.151   3.106   8.166 -0.2050  0.8101  1.6056
 2806SOL    HW219881   2.127   3.114   8.019  1.3093  1.0352  0.1371
 2807SOL     OW19882   2.781   1.157   0.470  0.3313 -0.5226  0.2037
 2807SOL    HW119883   2.694   1.185   0.440 -0.4082  1.0771  3.8553
 2807SOL    HW219884   2.756   1.123   0.556 -3.2095 -1.1698 -1.0944
 2808SOL     OW19885   2.707   3.028  11.974 -0.4710 -0.0944 -0.0898
 2808SOL    HW119886   2.709   2.945  11.926  0.1427 -0.9676  1.4549
 2808SOL    HW219887   2.617   3.030  12.008 -0.8765  0.6934 -1.1975
 2809SOL     OW19888   1.924   3.571  11.806  0.1608 -0.5887  0.1358
 2809SOL    HW119889   1.955   3.654  11.843 -0.4145 -0.0241 -0.6493
 2809SOL    HW219890   1.898   3.594  11.717 -1.3492  0.4457  0.8556
 2810SOL     OW19891   4.560   0.307  12.779  0.3926  0.1255  0.1040
 2810SOL    HW119892   4.486   0.249  12.796 -0.0003  1.0915  1.7670
 2810SOL    HW219893   4.518   0.389  12.803  0.3497  0.4630 -1.1447
 2811SOL     OW19894   4.522   2.882   6.949  0.6537  0.9295  0.0161
 2811SOL    HW119895   4.605   2.917   6.982  1.8435 -1.0148 -0.9617
 2811SOL    HW219896   4.504   2.933   6.870 -3.5386  0.2595  0.5344
 2812SOL     OW19897   4.175   3.547  13.774  0.0315 -0.2131 -0.6385
 2812SOL    HW119898   4.087   3.561  13.737  0.2960  1.0723 -0.7704
 2812SOL    HW219899   4.232   3.538  13.698  0.8189  1.3445 -0.2318
 2813SOL     OW19900   4.108   4.242   8.137 -0.0135  0.1768 -0.6844
 2813SOL    HW119901   4.146   4.198   8.060 -2.1536 -0.3987 -1.4046
 2813SOL    HW219902   4.162   4.198   8.203 -2.0950 -0.0008  0.9003
 2814SOL     OW19903   3.644   3.802   7.973 -0.2571  0.4295 -0.0826
 2814SOL    HW119904   3.606   3.812   7.886 -1.1343  2.0731  0.4962
 2814SOL    HW219905   3.724   3.853   7.960  1.3047 -2.3719 -1.4316
 2815SOL     OW19906   0.907   2.965  16.308 -0.0282 -0.1749  0.1349
 2815SOL    HW119907   0.879   2.992  16.396  0.0193 -0.1926  0.1560
 2815SOL    HW219908   0.949   3.048  16.288 -0.2737 -0.0271  0.2340
 2816SOL     OW19909   1.454   2.463  15.987  0.1807  0.2682  0.4104
 2816SOL    HW119910   1.418   2.435  16.071 -0.2469  0.4166  0.2760
 2816SOL    HW219911   1.440   2.396  15.921 -0.5334  1.8215 -1.0157
 2817SOL     OW19912   1.125   1.949   4.299 -0.4006 -0.5078 -0.1680
 2817SOL    HW119913   1.203   2.002   4.284  0.2090 -1.4465 -0.3031
 2817SOL    HW219914   1.165   1.880   4.353  0.5928  0.5243  0.4054
 2818SOL     OW19915   2.688   0.266   0.757 -0.2344 -0.1908 -0.8203
 2818SOL    HW119916   2.694   0.359   0.738  0.5698 -0.0785 -0.0348
 2818SOL    HW219917   2.628   0.242   0.687 -2.1897  1.5075  0.3034
 2819SOL     OW19918   0.413   3.197   7.616  0.1855  0.8897  0.1182
 2819SOL    HW119919   0.461   3.205   7.698 -0.5326  0.3352  0.5963
 2819SOL    HW219920   0.459   3.125   7.574 -0.6626  0.2713  0.2431
 2820SOL     OW19921   1.475   1.211  11.877 -0.2663 -0.9609  0.3922
 2820SOL    HW119922   1.396   1.169  11.844 -1.0569  0.0800  0.9425
 2820SOL    HW219923   1.502   1.268  11.805  2.0761 -4.1049 -1.2203
 2821SOL     OW19924   3.802   1.601   2.921  0.4902 -0.1461 -0.1283
 2821SOL    HW119925   3.792   1.527   2.862 -1.3652 -1.4580  1.8163
 2821SOL    HW219926   3.887   1.641   2.901 -1.1266  2.0053 -2.5642
 2822SOL     OW19927   3.549   0.158   2.446 -0.7551 -0.1938 -0.1383
 2822SOL    HW119928   3.560   0.161   2.351 -0.3585 -2.5888 -0.1565
 2822SOL    HW219929   3.632   0.188   2.484 -0.1830 -0.2261 -1.3674
 2823SOL     OW19930   4.390   1.220   9.712  0.0093 -0.1356 -0.6371
 2823SOL    HW119931   4.371   1.149   9.651  2.6816  0.3864 -2.0349
 2823SOL    HW219932   4.472   1.193   9.753 -0.5999 -0.7104  0.2196
 2824SOL     OW19933   1.608   1.492  16.593  0.0425 -0.1430 -0.2388
 2824SOL    HW119934   1.648   1.511  16.508 -1.6513 -1.2730 -1.2725
 2824SOL    HW219935   1.520   1.526  16.579  0.5086  0.8165 -0.9083
 2825SOL     OW19936   3.490   3.788   9.193  0.1804 -0.2802  0.1116
 2825SOL    HW119937   3.541   3.861   9.157  2.3929 -0.1053  3.6033
 2825SOL    HW219938   3.565   3.730   9.206 -1.4404 -1.5521  3.9126
 2826SOL     OW19939   3.454   3.741   0.610  0.2747  0.5692 -0.0611
 2826SOL    HW119940   3.541   3.734   0.651 -0.3034 -0.1541  1.0419
 2826SOL    HW219941   3.464   3.683   0.534 -0.8926 -1.6663  1.4794
 2827SOL     OW19942   3.496   0.448   6.594  0.0771  0.4220 -0.0803
 2827SOL    HW119943   3.573   0.480   6.547  0.5472 -0.7068 -0.0875
 2827SOL    HW219944   3.518   0.356   6.606 -2.7965 -0.4403 -1.6699
 2828SOL     OW19945   2.842   1.323   0.260  0.4632 -0.1491 -0.3024
 2828SOL    HW119946   2.833   1.246   0.317 -0.5085 -0.6727 -1.1596
 2828SOL    HW219947   2.794   1.375   0.324  3.0505  0.6869  0.9392
 2829SOL     OW19948   2.478   2.993  17.547  0.3594 -0.0885 -0.6382
 2829SOL    HW119949   2.556   2.938  17.549 -0.7176 -1.5920 -0.1500
 2829SOL    HW219950   2.403   2.933  17.542  1.3794 -1.2339 -2.1126
 2830SOL     OW19951   2.266   3.682  15.972 -0.4243 -0.2925  0.1481
 2830SOL    HW119952   2.290   3.723  15.889 -2.5537  1.2869  0.2853
 2830SOL    HW219953   2.332   3.698  16.039 -1.3117  1.5485  0.6150
 2831SOL     OW19954   1.543   3.604   3.349 -0.1599  0.1229 -0.2915
 2831SOL    HW119955   1.576   3.642   3.431  1.1999  2.1108 -1.7761
 2831SOL    HW219956   1.447   3.600   3.358  0.0628  0.9975  2.5894
 2832SOL     OW19957   2.488   1.563   7.686 -0.3025 -0.4143  0.2404
 2832SOL    HW119958   2.506   1.643   7.637 -1.3831 -0.7918 -0.7837
 2832SOL    HW219959   2.430   1.600   7.752 -0.8170 -0.3681 -0.2381
 2833SOL     OW19960   3.566   2.215  15.060  0.4580 -0.8749 -0.1803
 2833SOL    HW119961   3.641   2.258  15.019 -0.6434  1.5479  0.3466
 2833SOL    HW219962   3.500   2.194  14.994 -0.7189  0.7953  0.4770
 2834SOL     OW19963   4.409   1.287   2.680  0.0249 -0.2774 -0.4374
 2834SOL    HW119964   4.324   1.310   2.719  0.8773  1.0433  0.6479
 2834SOL    HW219965   4.389   1.263   2.590  0.3604 -2.3648  0.0394
 2835SOL     OW19966   0.432   2.379  15.027 -0.5416 -0.7962  0.3564
 2835SOL    HW119967   0.338   2.397  15.022 -0.3300 -0.1710 -1.4606
 2835SOL    HW219968   0.414   2.298  15.074 -0.0000 -1.8178 -1.1923
 2836SOL     OW19969   0.374   0.595   2.462  0.3342 -0.1199 -0.3072
 2836SOL    HW119970   0.315   0.559   2.396 -0.0475 -0.8127  0.4069
 2836SOL    HW219971   0.330   0.670   2.502  1.5366  0.9886 -1.0413
 2837SOL     OW19972   2.992   3.832   3.431  0.0603 -0.6433  0.9269
 2837SOL    HW119973   3.050   3.759   3.411 -0.6208 -0.9534  0.1027
 2837SOL    HW219974   3.036   3.902   3.383 -1.2473 -0.2410  0.3185
 2838SOL     OW19975   2.208   2.367   8.739  0.8722 -0.0086  0.4271
 2838SOL    HW119976   2.240   2.316   8.814 -0.8795 -1.2384  0.3355
 2838SOL    HW219977   2.143   2.417   8.787 -0.2861 -0.8565 -0.2782
 2839SOL     OW19978   3.162   2.163   4.498 -0.3484  0.0966  0.2397
 2839SOL    HW119979   3.191   2.250   4.472  0.9190 -0.2088  0.6435
 2839SOL    HW219980   3.247   2.122   4.515  0.4038  1.5069 -0.0972
 2840SOL     OW19981   1.966   0.699   8.001  0.0394 -0.5789 -0.0500
 2840SOL    HW119982   1.990   0.685   7.909 -1.5916 -1.0190 -0.4148
 2840SOL    HW219983   1.984   0.612   8.036 -0.8382 -0.6765  0.1464
 2841SOL     OW19984   4.418   1.602  11.084 -0.1046 -1.3147 -0.1512
 2841SOL    HW119985   4.358   1.594  11.010 -1.3238 -0.0453  0.6924
 2841SOL    HW219986   4.499   1.572  11.042 -0.9067 -0.5703 -2.1844
 2842SOL     OW19987   3.263   3.493  13.196 -0.3878 -0.0427  0.2801
 2842SOL    HW119988   3.216   3.536  13.125 -0.4789  0.4598  0.6491
 2842SOL    HW219989   3.301   3.418  13.150 -1.0184 -0.6666  0.7903
 2843SOL     OW19990   2.047   2.108  14.134 -0.0072  0.4190 -0.4311
 2843SOL    HW119991   2.137   2.125  14.163  0.8080 -1.3205 -1.9969
 2843SOL    HW219992   2.013   2.050  14.203  0.3213  1.6251  0.7611
 2844SOL     OW19993   1.151   2.796   4.367 -0.0496  0.4137  0.0188
 2844SOL    HW119994   1.081   2.735   4.345  0.0688  0.1019  0.5098
 2844SOL    HW219995   1.226   2.737   4.366  0.8783  1.5899  0.5843
 2845SOL     OW19996   3.037   0.566  11.002  0.0967 -0.1215  0.2039
 2845SOL    HW119997   3.046   0.473  10.981 -0.1499 -0.8965  3.5448
 2845SOL    HW219998   3.031   0.563  11.097 -1.0594  3.7212  0.2618
 2846SOL     OW19999   4.248   3.215  11.697 -0.1620  0.4413 -0.6132
 2846SOL    HW120000   4.195   3.278  11.649 -2.1781 -0.5667  0.2762
 2846SOL    HW220001   4.328   3.268  11.705 -0.0706  0.5002 -1.9628
 2847SOL     OW20002   4.360   4.011   5.453 -0.1869  0.5178 -0.0516
 2847SOL    HW120003   4.450   3.980   5.459 -1.1274 -2.3039 -0.7171
 2847SOL    HW220004   4.345   4.029   5.360  1.1210 -0.7989 -0.5166
 2848SOL     OW20005   3.044   0.755  16.402 -0.3785  0.5249  0.5367
 2848SOL    HW120006   3.088   0.831  16.364  1.8154 -1.2035 -0.4134
 2848SOL    HW220007   3.010   0.716  16.321  0.7338  0.1655  0.2353
 2849SOL     OW20008   2.096   0.214  16.874 -0.0891 -0.2733 -0.2219
 2849SOL    HW120009   2.012   0.191  16.833 -0.1664 -1.6129  0.6694
 2849SOL    HW220010   2.082   0.304  16.903 -4.5102 -0.9000 -0.3595
 2850SOL     OW20011   1.584   3.365   2.070 -0.5832 -0.4847 -0.2990
 2850SOL    HW120012   1.489   3.366   2.065 -0.5189 -0.1797 -1.4148
 2850SOL    HW220013   1.599   3.438   2.010  0.7217 -1.1194 -0.7430
 2851SOL     OW20014   0.055   0.167   3.907 -0.1361  0.1736 -0.6668
 2851SOL    HW120015   4.686   0.176   3.930 -0.3673 -2.9556 -0.2747
 2851SOL    HW220016   0.052   0.089   3.851 -2.9136 -0.5745  0.5327
 2852SOL     OW20017   1.899   4.005   0.806  0.3310 -0.0960  0.1882
 2852SOL    HW120018   1.824   3.958   0.842 -0.1245  0.1816 -0.3988
 2852SOL    HW220019   1.962   3.933   0.795  0.0383 -0.2640 -0.4210
 2853SOL     OW20020   2.023   2.800   6.700 -0.4862  0.1544 -0.5138
 2853SOL    HW120021   2.000   2.885   6.736  1.6713  0.3605  0.3981
 2853SOL    HW220022   2.118   2.806   6.710 -0.3773 -1.8579 -0.1840
 2854SOL     OW20023   1.968   4.302   4.531  0.4733  0.5030  0.6068
 2854SOL    HW120024   1.893   4.351   4.565 -0.0684 -0.4030  0.7275
 2854SOL    HW220025   1.948   4.306   4.437 -0.0871 -2.9749  0.5497
 2855SOL     OW20026   2.019   4.194  11.662 -0.7407 -0.2786 -0.2536
 2855SOL    HW120027   2.023   4.225  11.572 -1.4866  0.8399  0.0955
 2855SOL    HW220028   1.927   4.217  11.675 -0.3996  0.0413  1.7463
 2856SOL     OW20029   0.319   2.698   9.613 -0.1343 -0.6155 -0.1817
 2856SOL    HW120030   0.390   2.674   9.673  0.3337  0.2748 -0.3744
 2856SOL    HW220031   0.284   2.775   9.656  2.0183 -0.1726  0.8038
 2857SOL     OW20032   1.465   4.331   5.967 -0.3656 -0.2564  0.1747
 2857SOL    HW120033   1.401   4.401   5.958 -0.9567 -0.6107  1.6458
 2857SOL    HW220034   1.425   4.288   6.043 -1.2198 -1.2250 -0.8191
 2858SOL     OW20035   3.667   4.529  15.906 -0.0201  0.1915  0.3542
 2858SOL    HW120036   3.697   4.578  15.982  0.1661  1.5924 -0.6207
 2858SOL    HW220037   3.743   4.515  15.849  0.8948  1.0980  1.3552
 2859SOL     OW20038   2.372   3.793   5.040 -0.2326  0.1467 -0.1108
 2859SOL    HW120039   2.399   3.858   4.975  0.8464 -2.3618 -2.1895
 2859SOL    HW220040   2.431   3.811   5.113 -2.4530 -2.1466  2.2621
 2860SOL     OW20041   1.156   0.575   0.583  0.0065 -0.3394 -0.1761
 2860SOL    HW120042   1.143   0.497   0.529  0.3422 -1.2538  1.0503
 2860SOL    HW220043   1.108   0.640   0.533 -1.8216 -0.3282  1.6014
 2861SOL     OW20044   1.247   3.031   2.123 -0.3495  0.1032  0.1395
 2861SOL    HW120045   1.229   2.958   2.182 -1.4941 -0.0946 -0.4569
 2861SOL    HW220046   1.189   3.022   2.048 -1.3636 -1.0260  1.0739
 2862SOL     OW20047   1.168   3.809  14.782  0.4560 -0.3775  0.0266
 2862SOL    HW120048   1.102   3.740  14.793  0.8990 -0.6952  0.6928
 2862SOL    HW220049   1.175   3.811  14.686 -1.6470 -3.2588 -0.1865
 2863SOL     OW20050   1.785   0.495   8.643  0.5025  0.2993  0.4509
 2863SOL    HW120051   1.748   0.407   8.652 -0.2223  0.6816  1.3123
 2863SOL    HW220052   1.721   0.564   8.659  1.8688  1.6282  0.0953
 2864SOL     OW20053   2.471   4.088  16.918  0.2443 -0.3761  0.1936
 2864SOL    HW120054   2.502   4.149  16.851 -0.1371 -0.5961 -0.1801
 2864SOL    HW220055   2.444   4.018  16.859  1.1234 -1.3025  0.8797
 2865SOL     OW20056   0.623   0.752   0.338  0.2449 -0.1231  0.0677
 2865SOL    HW120057   0.665   0.790   0.415 -0.3037 -0.2951  0.4558
 2865SOL    HW220058   0.675   0.672   0.335 -0.1193 -0.2712 -2.0546
 2866SOL     OW20059   0.465   4.625   4.022 -0.1994 -0.1173 -0.5738
 2866SOL    HW120060   0.502   4.587   4.102 -0.9714 -1.9927 -1.1129
 2866SOL    HW220061   0.551   4.663   4.000 -1.1338  1.9907 -0.5787
 2867SOL     OW20062   3.315   4.538   8.391 -0.3061 -0.0640 -0.4252
 2867SOL    HW120063   3.311   4.467   8.326 -1.4174  2.0061 -2.6245
 2867SOL    HW220064   3.228   4.533   8.431  0.3707 -1.4190  0.8594
 2868SOL     OW20065   4.519   2.316   0.166  0.0244  0.5289  0.3735
 2868SOL    HW120066   4.565   2.255   0.223 -2.4247  1.4516  3.3229
 2868SOL    HW220067   4.569   2.307   0.085  0.3555  1.0392  0.5272
 2869SOL     OW20068   3.083   3.294   6.782  0.0409 -0.7052  0.2387
 2869SOL    HW120069   3.142   3.309   6.855  0.6030 -0.0993 -0.3426
 2869SOL    HW220070   3.094   3.199   6.782  0.4066 -0.6563  0.9190
 2870SOL     OW20071   0.275   3.905   4.724  0.3420 -0.1322  0.3734
 2870SOL    HW120072   0.275   3.985   4.776 -0.1524 -0.5941  1.0808
 2870SOL    HW220073   0.345   3.926   4.662  0.8390 -1.5049  0.4559
 2871SOL     OW20074   4.184   4.719   4.498 -0.4363 -0.0919 -0.0409
 2871SOL    HW120075   4.157   0.009   4.407  0.8694  0.8805 -0.2962
 2871SOL    HW220076   4.122   0.036   4.559 -0.9242 -1.0653  0.0854
 2872SOL     OW20077   1.601   1.873   3.663 -0.0325 -0.0645  0.3975
 2872SOL    HW120078   1.599   1.963   3.697 -1.7276 -0.1190  0.4206
 2872SOL    HW220079   1.517   1.877   3.617 -0.2233 -1.0879  0.6746
 2873SOL     OW20080   0.363   1.912   8.588 -0.1311  0.1419  0.5627
 2873SOL    HW120081   0.445   1.925   8.636  0.5957 -0.7005 -0.4659
 2873SOL    HW220082   0.367   1.989   8.531 -1.4041  0.7192  1.2438
 2874SOL     OW20083   4.669   3.905   0.818  0.3172  0.3758  0.0155
 2874SOL    HW120084   4.692   3.968   0.886  0.9281  1.1531 -0.9111
 2874SOL    HW220085   4.589   3.867   0.855  0.1606  2.0388  1.3805
 2875SOL     OW20086   4.603   2.789   4.516 -0.0798 -0.0264  0.2523
 2875SOL    HW120087   4.573   2.879   4.527  2.2778  0.6327  1.2460
 2875SOL    HW220088   4.556   2.749   4.589  0.0829 -1.2891 -0.3347
 2876SOL     OW20089   2.360   2.654  11.950 -0.6462 -0.2763 -0.2720
 2876SOL    HW120090   2.284   2.712  11.961 -0.3068 -0.0277  0.7581
 2876SOL    HW220091   2.334   2.596  11.878  0.3807  0.4163 -1.2010
 2877SOL     OW20092   0.915   4.175   3.481 -0.0613 -0.4424 -0.1261
 2877SOL    HW120093   0.839   4.138   3.527  0.1517  0.1909  0.7413
 2877SOL    HW220094   0.985   4.177   3.546  0.4592 -2.8128 -0.6469
 2878SOL     OW20095   4.526   2.645  10.076 -0.3464  0.2911  0.6538
 2878SOL    HW120096   4.561   2.729  10.050  0.8866  0.0733  1.6168
 2878SOL    HW220097   4.599   2.591  10.108  1.1092  1.0481 -1.4212
 2879SOL     OW20098   3.338   2.049   3.259  0.6457 -0.1151 -0.4269
 2879SOL    HW120099   3.400   2.073   3.328  0.7713  0.3547 -0.7061
 2879SOL    HW220100   3.368   2.105   3.187  1.9066 -1.9558 -1.3479
 2880SOL     OW20101   2.556   4.044   2.545 -0.0563 -0.2224  0.2109
 2880SOL    HW120102   2.502   4.024   2.468 -1.1271 -0.9758  1.1554
 2880SOL    HW220103   2.535   4.138   2.549 -0.5729 -0.4266  2.2776
 2881SOL     OW20104   3.969   2.600  12.966  0.0821 -0.2143 -0.5531
 2881SOL    HW120105   3.931   2.516  12.941  1.9338 -1.3622  0.5107
 2881SOL    HW220106   3.975   2.642  12.879  1.2613  0.2032 -0.2737
 2882SOL     OW20107   2.568   4.488  13.499 -0.6230  0.9946 -0.1746
 2882SOL    HW120108   2.617   4.427  13.554 -2.2483 -0.1717 -0.0380
 2882SOL    HW220109   2.633   4.497  13.429  0.4136  0.0882  0.6731
 2883SOL     OW20110   0.622   2.207   5.706  0.6752  0.1860  0.1640
 2883SOL    HW120111   0.616   2.189   5.612  0.0652  1.2220  0.0070
 2883SOL    HW220112   0.639   2.120   5.743 -1.0627 -0.5436 -0.7477
 2884SOL     OW20113   0.108   1.410   7.526 -0.2077 -0.1379  0.1268
 2884SOL    HW120114   0.069   1.457   7.452 -1.2009 -0.8363  0.2168
 2884SOL    HW220115   0.118   1.319   7.498 -0.8703 -0.7435  1.8766
 2885SOL     OW20116   2.291   2.003  14.244  0.0035 -0.1924 -0.5405
 2885SOL    HW120117   2.333   1.931  14.198 -0.6888 -0.2058 -1.1597
 2885SOL    HW220118   2.210   1.963  14.277  0.7703  0.3066  1.8884
 2886SOL     OW20119   1.395   2.712   6.244 -0.0782  0.2180  0.2062
 2886SOL    HW120120   1.427   2.692   6.332  1.3481 -0.1109 -0.3827
 2886SOL    HW220121   1.371   2.804   6.245  1.8625  0.7263 -0.7226
 2887SOL     OW20122   0.835   2.352   4.661  0.1319 -0.3865 -0.6302
 2887SOL    HW120123   0.842   2.443   4.632 -0.9663 -0.2521 -0.4775
 2887SOL    HW220124   0.919   2.322   4.627  1.7004 -0.0600  2.9163
 2888SOL     OW20125   0.527   3.940   3.120  0.1042 -0.5171 -0.5185
 2888SOL    HW120126   0.475   3.889   3.182  0.3937  3.1743  2.7819
 2888SOL    HW220127   0.489   3.903   3.040  1.5366 -0.0429 -1.4140
 2889SOL     OW20128   3.580   4.262   3.995 -0.1893  0.0294 -0.6772
 2889SOL    HW120129   3.528   4.264   4.076 -1.0212  1.3287 -1.2472
 2889SOL    HW220130   3.664   4.274   4.039 -0.0657  2.3452 -1.5240
 2890SOL     OW20131   2.299   0.400   8.346 -0.4466  0.7009 -0.5190
 2890SOL    HW120132   2.276   0.366   8.432 -0.7908  1.9962 -0.1106
 2890SOL    HW220133   2.296   0.320   8.293  1.1412  0.0471  0.3636
 2891SOL     OW20134   2.642   1.503   4.433 -0.4164  0.2111 -0.5642
 2891SOL    HW120135   2.709   1.559   4.471 -1.6526  2.3652 -1.5497
 2891SOL    HW220136   2.681   1.416   4.425 -0.0322  0.5255 -2.2818
 2892SOL     OW20137   4.125   2.223   5.748 -0.1558  0.1552 -0.0448
 2892SOL    HW120138   4.098   2.230   5.657  0.9278  2.8651 -0.1642
 2892SOL    HW220139   4.101   2.137   5.782  1.1910 -0.1289  0.1908
 2893SOL     OW20140   2.688   3.416   7.098  0.0214  0.1524 -0.0133
 2893SOL    HW120141   2.694   3.443   7.189 -0.3465 -0.3042  0.1450
 2893SOL    HW220142   2.595   3.426   7.082 -0.0465  0.6072  0.6752
 2894SOL     OW20143   2.012   0.081   3.158  0.0940 -0.8218  0.2449
 2894SOL    HW120144   2.013   0.048   3.069  1.1379  0.4050 -0.2131
 2894SOL    HW220145   1.948   0.028   3.205  0.9536 -2.6858 -0.6972
 2895SOL     OW20146   2.177   1.649  10.129 -0.5503  0.8847 -0.3439
 2895SOL    HW120147   2.184   1.559  10.097 -0.1312  0.4646  0.9377
 2895SOL    HW220148   2.271   1.670  10.123 -0.4179  0.6353  0.7854
 2896SOL     OW20149   2.416   0.668   3.877  0.5244 -0.2694  0.5794
 2896SOL    HW120150   2.460   0.653   3.960 -3.2668  0.9060  2.8117
 2896SOL    HW220151   2.365   0.586   3.877 -0.8804  0.5909 -0.9483
 2897SOL     OW20152   3.049   3.165   8.355 -0.2221  0.7834 -0.7104
 2897SOL    HW120153   3.066   3.247   8.308  0.8889  1.1618  0.3757
 2897SOL    HW220154   3.134   3.124   8.337 -1.1364 -0.4248 -2.3258
 2898SOL     OW20155   1.328   3.219   8.944 -0.2387  0.3287 -0.2104
 2898SOL    HW120156   1.401   3.158   8.931 -1.3538 -0.9017 -0.6850
 2898SOL    HW220157   1.256   3.156   8.936 -2.4399  2.6285  1.6326
 2899SOL     OW20158   2.737   2.967   7.525  0.2113  0.4928 -0.2218
 2899SOL    HW120159   2.773   3.001   7.607 -0.5070 -1.8533  1.0399
 2899SOL    HW220160   2.756   3.036   7.461  1.7395  1.2576  1.0415
 2900SOL     OW20161   2.285   3.024   2.629 -0.1956 -0.4058  0.0917
 2900SOL    HW120162   2.277   2.988   2.541  2.9700  0.1928 -0.4707
 2900SOL    HW220163   2.206   2.981   2.661  0.3328 -1.7839 -0.4451
 2901SOL     OW20164   1.027   2.010   1.593 -0.6187 -0.7408  0.1431
 2901SOL    HW120165   1.054   1.925   1.559 -3.9137 -2.1514  1.0654
 2901SOL    HW220166   1.037   2.067   1.516  0.4536 -0.0316  0.8008
 2902SOL     OW20167   4.019   2.054   5.208 -0.3741  0.0923 -0.1046
 2902SOL    HW120168   4.011   2.112   5.132 -0.8032 -0.1297 -0.2298
 2902SOL    HW220169   3.930   2.019   5.203 -0.2662  0.0256 -1.5974
 2903SOL     OW20170   3.224   3.528   6.720  0.0823  0.0601  0.1159
 2903SOL    HW120171   3.278   3.525   6.641  0.6143  1.4771  0.4269
 2903SOL    HW220172   3.176   3.447   6.705 -1.3658  0.5093  2.3325
 2904SOL     OW20173   4.515   2.363  11.102  0.6959 -0.5209 -0.2987
 2904SOL    HW120174   4.579   2.311  11.150  1.1043  0.6603  0.4316
 2904SOL    HW220175   4.499   2.303  11.030  0.3280  0.2924 -0.8973
 2905SOL     OW20176   0.328   4.265  11.422  0.1795 -0.4281  0.3972
 2905SOL    HW120177   0.396   4.331  11.412 -1.2329  1.0556  0.7438
 2905SOL    HW220178   0.373   4.187  11.387 -1.7654 -0.9455 -0.9177
 2906SOL     OW20179   1.985   0.833   1.212 -0.3104  0.1033 -0.6720
 2906SOL    HW120180   2.064   0.806   1.166  0.4645  2.7652 -0.9126
 2906SOL    HW220181   1.916   0.789   1.161 -0.1497 -0.1814 -0.6412
 2907SOL     OW20182   4.258   4.435  15.058 -0.0424 -0.4876  0.8557
 2907SOL    HW120183   4.169   4.400  15.051 -1.6467  3.2796  2.2335
 2907SOL    HW220184   4.312   4.357  15.072  1.8123  0.8433  1.0922
 2908SOL     OW20185   3.602   3.693  13.631  0.4617 -0.1020 -0.4194
 2908SOL    HW120186   3.687   3.687  13.588  1.5842  0.0305  1.8300
 2908SOL    HW220187   3.569   3.604  13.618  1.7325 -0.6025 -0.1549
 2909SOL     OW20188   2.468   0.455   6.908 -0.0158  0.5943  0.1412
 2909SOL    HW120189   2.475   0.465   6.813 -1.6335 -0.9778 -0.1497
 2909SOL    HW220190   2.410   0.381   6.923 -1.2757  1.0969 -2.2852
 2910SOL     OW20191   1.821   3.311   1.629  0.1551 -0.1793 -0.6143
 2910SOL    HW120192   1.892   3.292   1.690 -1.1477  0.7970  1.1971
 2910SOL    HW220193   1.743   3.280   1.676  0.9454 -0.6985  0.3547
 2911SOL     OW20194   4.384   2.716  10.565 -0.0722  0.0054 -0.2554
 2911SOL    HW120195   4.441   2.784  10.602 -0.2451 -1.0390  1.9252
 2911SOL    HW220196   4.438   2.639  10.583  2.5295  1.9953  0.4268
 2912SOL     OW20197   1.680   0.736   4.491 -0.0226 -0.6293  0.1397
 2912SOL    HW120198   1.719   0.746   4.404 -0.7814 -0.3126 -0.1651
 2912SOL    HW220199   1.731   0.660   4.519 -2.6804 -1.8010  1.7799
 2913SOL     OW20200   3.517   1.854   2.971  0.0864 -0.7475  0.2032
 2913SOL    HW120201   3.458   1.779   2.979 -2.1470  1.1296  1.3323
 2913SOL    HW220202   3.520   1.890   3.059  2.4934  0.5565 -0.4259
 2914SOL     OW20203   4.521   0.628   2.633 -0.1366  0.1549  0.1361
 2914SOL    HW120204   4.456   0.625   2.563 -0.8298 -0.0998  0.7870
 2914SOL    HW220205   4.581   0.695   2.601  1.2705 -0.9728  0.3530
 2915SOL     OW20206   2.548   4.455   6.555 -0.0330 -0.5561  0.0256
 2915SOL    HW120207   2.568   4.408   6.636  0.1636  0.6913  0.7041
 2915SOL    HW220208   2.617   4.520   6.547 -1.2740  1.0602  2.2086
 2916SOL     OW20209   2.519   1.998  13.300  0.0277 -0.4223 -0.4190
 2916SOL    HW120210   2.524   2.083  13.342  2.2375 -0.7947  0.0644
 2916SOL    HW220211   2.593   2.007  13.240 -1.1544  1.4311 -1.6221
 2917SOL     OW20212   4.108   4.295   7.658 -0.2225 -0.4638 -0.1588
 2917SOL    HW120213   4.038   4.297   7.723 -2.1619 -1.0233 -2.2223
 2917SOL    HW220214   4.075   4.233   7.593 -0.8279  1.0199 -1.3017
 2918SOL     OW20215   2.839   1.454   6.132 -0.8149 -0.4246  0.0052
 2918SOL    HW120216   2.763   1.397   6.148 -1.4975  0.0782 -1.4332
 2918SOL    HW220217   2.800   1.541   6.142  0.2052  0.0914 -0.5177
 2919SOL     OW20218   4.515   1.273   1.463  0.3280 -0.4285 -0.5648
 2919SOL    HW120219   4.526   1.342   1.396  3.0576  0.8718  1.2197
 2919SOL    HW220220   4.560   1.311   1.538  1.6278 -0.1731 -1.4618
 2920SOL     OW20221   4.661   0.507  13.627  0.2923 -0.1075  0.8523
 2920SOL    HW120222   4.571   0.511  13.595 -0.2776 -1.8405  2.2564
 2920SOL    HW220223   4.711   0.451  13.567 -2.0749  0.7869 -1.9701
 2921SOL     OW20224   0.385   0.092   9.101 -0.2266  0.6363 -0.7373
 2921SOL    HW120225   0.451   0.030   9.069 -1.0291  0.3658 -1.8663
 2921SOL    HW220226   0.430   0.177   9.102  1.0362 -0.0444  0.5256
 2922SOL     OW20227   4.115   3.182   9.079 -0.2403  0.1657 -0.0189
 2922SOL    HW120228   4.075   3.114   9.024 -0.7126  1.2035 -0.9390
 2922SOL    HW220229   4.197   3.136   9.100 -0.3362  0.5130  1.1204
 2923SOL     OW20230   0.376   0.813   3.181  0.3252 -0.0181  0.0971
 2923SOL    HW120231   0.370   0.886   3.119 -0.0249 -0.9772 -0.9973
 2923SOL    HW220232   0.372   0.738   3.121  1.0781  1.2234 -1.4984
 2924SOL     OW20233   2.260   1.030   6.579 -0.9901  0.0944 -0.5281
 2924SOL    HW120234   2.191   1.017   6.645  0.7280 -2.4067  0.7690
 2924SOL    HW220235   2.326   1.089   6.616 -0.4586 -1.4214  0.9127
 2925SOL     OW20236   2.679   3.524   7.354  0.0232 -0.0029  0.5334
 2925SOL    HW120237   2.748   3.558   7.411  0.9861  1.0445 -1.2588
 2925SOL    HW220238   2.599   3.571   7.378 -0.8345 -2.6524  2.9752
 2926SOL     OW20239   3.001   1.146   7.531  0.6318 -0.0779 -0.3688
 2926SOL    HW120240   2.982   1.237   7.556  0.7154 -0.3093  0.5467
 2926SOL    HW220241   2.924   1.130   7.477 -0.9370 -0.7335  2.0721
 2927SOL     OW20242   1.687   1.526   8.815  0.0504  0.7136 -0.2791
 2927SOL    HW120243   1.680   1.479   8.898  1.9623  0.1548 -0.4475
 2927SOL    HW220244   1.679   1.455   8.751 -0.9559 -0.7084  1.4251
 2928SOL     OW20245   0.324   2.970   7.057 -0.3509 -0.4982 -0.7341
 2928SOL    HW120246   0.320   3.053   7.106  2.4736 -0.2148 -0.9866
 2928SOL    HW220247   0.394   2.992   6.997 -0.4879  1.2830 -0.2503
 2929SOL     OW20248   2.264   1.898  15.474  0.3024 -0.0914 -0.3333
 2929SOL    HW120249   2.308   1.984  15.473 -1.5059  0.8404  0.0206
 2929SOL    HW220250   2.209   1.906  15.396 -1.0132  2.6131  0.8423
 2930SOL     OW20251   1.740   0.910   4.714  0.6128 -0.0043  0.0922
 2930SOL    HW120252   1.716   0.856   4.638 -1.9848  1.2728 -0.0101
 2930SOL    HW220253   1.665   0.876   4.764  0.9086 -1.8018 -0.6698
 2931SOL     OW20254   3.950   0.783   2.923  0.1493 -0.3720  0.1403
 2931SOL    HW120255   4.009   0.711   2.902  0.9143  0.1786  0.3752
 2931SOL    HW220256   3.990   0.854   2.872 -1.1730 -1.2592 -2.1523
 2932SOL     OW20257   3.300   4.549  16.043 -0.5812 -0.2221 -0.7689
 2932SOL    HW120258   3.236   4.532  16.112  0.3335  0.1621  0.1623
 2932SOL    HW220259   3.338   4.631  16.074  0.0344 -0.7033 -0.2499
 2933SOL     OW20260   4.214   3.635   5.108  0.3952 -0.0171 -0.0455
 2933SOL    HW120261   4.231   3.671   5.021  1.1305  2.4018  1.0922
 2933SOL    HW220262   4.162   3.705   5.148 -0.3544  0.4826 -1.9039
 2934SOL     OW20263   0.011   4.685  10.820 -0.8289  0.8239  0.4973
 2934SOL    HW120264   0.040   4.637  10.742 -0.7572  2.4389 -0.4638
 2934SOL    HW220265   0.088   4.709  10.870  1.3770 -2.8837 -1.1057
 2935SOL     OW20266   3.721   3.104   4.503 -0.0448  0.1885 -0.0081
 2935SOL    HW120267   3.793   3.112   4.441 -0.4032 -0.6371 -0.5292
 2935SOL    HW220268   3.765   3.055   4.572 -2.2264  2.0176  2.7218
 2936SOL     OW20269   1.057   0.739   6.351 -0.5316  0.4596 -0.4070
 2936SOL    HW120270   1.025   0.828   6.335  1.3931  1.8042  3.1165
 2936SOL    HW220271   1.014   0.727   6.436  2.5031 -2.0552  0.7739
 2937SOL     OW20272   0.074   2.564   0.328 -0.2088 -0.5102  0.0279
 2937SOL    HW120273   0.039   2.586   0.242 -1.3303 -1.9180  0.1176
 2937SOL    HW220274   0.017   2.609   0.390  0.0962 -0.7361  0.4755
 2938SOL     OW20275   4.169   1.411   8.272  0.0841 -0.0176 -0.2485
 2938SOL    HW120276   4.161   1.317   8.293  2.5061 -0.5463 -1.7016
 2938SOL    HW220277   4.082   1.435   8.241 -0.0479  0.7602  0.7312
 2939SOL     OW20278   4.134   3.450   3.174 -0.0610 -0.0728  0.2475
 2939SOL    HW120279   4.184   3.370   3.160  1.9732  1.4307 -1.1260
 2939SOL    HW220280   4.144   3.455   3.269  1.8942  0.8895 -0.0104
 2940SOL     OW20281   4.385   4.294   1.094 -0.1731 -0.5419 -0.2716
 2940SOL    HW120282   4.463   4.249   1.126 -0.3556 -0.7723 -0.1548
 2940SOL    HW220283   4.339   4.290   1.178  1.6967 -0.6429  0.7319
 2941SOL     OW20284   2.712   3.778   1.756  0.6407  0.2025  0.4756
 2941SOL    HW120285   2.788   3.836   1.755 -0.0254  1.0914  0.9195
 2941SOL    HW220286   2.760   3.696   1.758  0.9099  0.3128 -1.0450
 2942SOL     OW20287   2.948   3.701   5.879 -0.3478 -0.6148 -0.2907
 2942SOL    HW120288   2.959   3.714   5.973  3.1981 -0.1928 -0.7538
 2942SOL    HW220289   2.940   3.793   5.852  1.5213 -0.6879 -1.1446
 2943SOL     OW20290   0.845   1.686  16.297 -0.3225  0.3916  0.3048
 2943SOL    HW120291   0.912   1.625  16.330  0.3080 -0.0494 -1.8248
 2943SOL    HW220292   0.869   1.694  16.205 -1.0635 -0.0060  0.0828
 2944SOL     OW20293   0.610   3.583   5.135  0.2761  0.0288  0.2120
 2944SOL    HW120294   0.616   3.603   5.042 -0.0023 -0.7413  0.0264
 2944SOL    HW220295   0.700   3.557   5.159  0.3557  0.0348 -0.0804
 2945SOL     OW20296   0.438   0.945  16.947 -0.0332  0.1301 -0.0471
 2945SOL    HW120297   0.383   1.010  16.992 -1.2718 -1.1886  0.3594
 2945SOL    HW220298   0.373   0.883  16.913 -1.8829  2.9687 -1.7163
 2946SOL     OW20299   4.055   1.704   7.189  0.1456  0.1735  0.6835
 2946SOL    HW120300   4.147   1.696   7.214 -0.3646 -2.5609  1.6048
 2946SOL    HW220301   4.014   1.619   7.203  0.4654 -0.2484 -0.8794
 2947SOL     OW20302   0.085   4.272   8.540 -0.0901 -0.0759 -0.2564
 2947SOL    HW120303   0.004   4.247   8.496 -0.5917 -0.1810  0.7181
 2947SOL    HW220304   0.075   4.250   8.633  1.8657 -1.8697 -0.4774
 2948SOL     OW20305   4.495   0.301   4.833 -0.1968  0.3036 -0.6727
 2948SOL    HW120306   4.441   0.239   4.784 -2.3646  0.6465  1.2489
 2948SOL    HW220307   4.431   0.349   4.886  0.2831 -0.7019  0.8206
 2949SOL     OW20308   1.997   1.884   8.600  0.4946 -0.3266 -0.1273
 2949SOL    HW120309   1.907   1.854   8.584  0.9985 -1.2200 -1.3402
 2949SOL    HW220310   1.976   1.977   8.601  0.0407 -0.4330  0.4150
 2950SOL     OW20311   2.002   4.697   2.025  0.0824  0.4731 -0.4415
 2950SOL    HW120312   1.990   0.026   2.105 -0.1587 -1.4083  0.7458
 2950SOL    HW220313   2.055   0.038   1.978  0.9346 -0.3139 -0.5574
 2951SOL     OW20314   4.328   4.364   3.039 -0.2028  0.3756 -0.2253
 2951SOL    HW120315   4.243   4.326   3.057 -0.0605  0.4493  0.6116
 2951SOL    HW220316   4.354   4.307   2.966  0.0128  1.6882 -1.1652
 2952SOL     OW20317   0.581   3.757   9.438  0.2134  0.1699  0.1379
 2952SOL    HW120318   0.524   3.815   9.490  1.6453 -0.0673  1.9848
 2952SOL    HW220319   0.668   3.787   9.462 -0.1569  1.3216  0.0441
 2953SOL     OW20320   2.076   1.973   8.209  0.0553  0.5117 -0.2759
 2953SOL    HW120321   2.029   1.902   8.165  1.6236 -1.2658  0.9399
 2953SOL    HW220322   2.059   2.044   8.147 -0.0225  0.7021 -0.0361
 2954SOL     OW20323   1.415   4.393   1.171 -0.3292 -0.0786 -0.5753
 2954SOL    HW120324   1.438   4.316   1.119  0.3461 -1.1091  1.2577
 2954SOL    HW220325   1.391   4.356   1.256  0.2796  0.4722 -0.1601
 2955SOL     OW20326   3.963   3.168   3.087 -0.5416  0.4719  0.0332
 2955SOL    HW120327   4.006   3.123   3.015  1.3111  1.2698  0.6405
 2955SOL    HW220328   4.040   3.220   3.109  0.3280 -0.9766  0.3519
 2956SOL     OW20329   0.989   2.348   2.436 -0.1854 -0.1758  0.3274
 2956SOL    HW120330   0.985   2.330   2.342  0.7482 -1.6830  0.5752
 2956SOL    HW220331   1.080   2.375   2.443 -0.2188  0.6697 -2.2879
 2957SOL     OW20332   1.927   2.079   4.400  0.1502 -0.1011 -0.4153
 2957SOL    HW120333   1.950   2.172   4.407 -0.9887  0.0471  1.3967
 2957SOL    HW220334   1.901   2.065   4.309  0.7287 -0.2172 -0.5633
 2958SOL     OW20335   3.634   3.430   7.695  0.0015  0.0430  1.0754
 2958SOL    HW120336   3.696   3.368   7.735 -1.9840 -3.1060 -0.7385
 2958SOL    HW220337   3.656   3.411   7.603 -0.3270 -0.3796  1.0830
 2959SOL     OW20338   3.275   0.596   6.215 -0.0730  0.0794  0.4978
 2959SOL    HW120339   3.353   0.560   6.172  0.3047 -1.2926  2.3489
 2959SOL    HW220340   3.210   0.530   6.190 -0.6234  1.1645 -0.9652
 2960SOL     OW20341   2.535   2.083   6.918 -0.4481  0.8752 -0.4579
 2960SOL    HW120342   2.624   2.056   6.896  0.1054  1.1304  1.4503
 2960SOL    HW220343   2.499   2.018   6.978 -0.3156 -0.6515 -2.0510
 2961SOL     OW20344   4.153   0.798   6.450 -0.2259  0.3774 -0.1221
 2961SOL    HW120345   4.150   0.892   6.469 -2.3967 -0.0138  1.4741
 2961SOL    HW220346   4.217   0.791   6.379  0.2217  0.3244  0.2893
 2962SOL     OW20347   1.156   0.582   2.835 -0.1177  0.1921 -0.3666
 2962SOL    HW120348   1.197   0.497   2.852  0.9575  1.4216  3.1737
 2962SOL    HW220349   1.165   0.585   2.739  0.9945  1.8102 -0.2282
 2963SOL     OW20350   2.458   4.500   4.008 -0.0391 -0.3021  0.1725
 2963SOL    HW120351   2.513   4.486   3.931 -0.0633  0.3923  0.0223
 2963SOL    HW220352   2.439   4.411   4.038  0.0708  0.3819  2.2556
 2964SOL     OW20353   2.768   4.382   1.184 -0.7249  0.1124 -0.0029
 2964SOL    HW120354   2.795   4.334   1.106  0.8154  0.3652  0.3894
 2964SOL    HW220355   2.757   4.475   1.164 -0.9054 -0.0883 -0.8409
 2965SOL     OW20356   3.067   4.680   2.249  1.2281 -0.5510  1.0072
 2965SOL    HW120357   3.161   4.697   2.250  1.1804  0.0199 -2.2972
 2965SOL    HW220358   3.045   0.029   2.308 -1.2330  1.6145 -2.5071
 2966SOL     OW20359   1.094   4.417   9.686  0.4367 -0.9276 -0.4264
 2966SOL    HW120360   1.060   4.503   9.711 -1.9455 -2.1855  0.6283
 2966SOL    HW220361   1.016   4.377   9.647 -0.5565  0.8301 -0.2189
 2967SOL     OW20362   3.112   2.848   9.237  0.0787  0.6514 -0.2948
 2967SOL    HW120363   3.181   2.853   9.304 -0.0256 -0.4813 -0.1097
 2967SOL    HW220364   3.034   2.825   9.287  2.0567 -0.4677  2.2791
 2968SOL     OW20365   4.516   1.676   7.453  0.2650  0.0220 -0.0468
 2968SOL    HW120366   4.486   1.592   7.418  0.3807 -0.0817  0.1024
 2968SOL    HW220367   4.522   1.657   7.547  0.3600  1.1778  0.1859
 2969SOL     OW20368   3.178   4.103  10.087  0.0196  0.7570 -0.1389
 2969SOL    HW120369   3.191   4.010  10.070  1.6595  1.0820 -0.6526
 2969SOL    HW220370   3.106   4.098  10.150 -2.0336 -0.5785 -2.5892
 2970SOL     OW20371   1.323   1.039   3.372 -0.2118  0.5236 -0.0723
 2970SOL    HW120372   1.269   1.026   3.294 -0.1616 -1.9570  0.3128
 2970SOL    HW220373   1.333   0.947   3.396  3.1043  0.5967 -1.1372
 2971SOL     OW20374   2.114   4.691   2.630 -0.7579  0.1011  0.0659
 2971SOL    HW120375   2.135   0.060   2.615 -0.6344  0.1094  0.2904
 2971SOL    HW220376   2.041   4.694   2.569 -1.3720 -0.9492  0.7522
 2972SOL     OW20377   0.973   2.257  11.650  0.0880  0.1553  0.3892
 2972SOL    HW120378   0.927   2.314  11.711  0.1849 -1.1162  1.6485
 2972SOL    HW220379   0.977   2.173  11.697 -2.6471 -0.6464 -0.8199
 2973SOL     OW20380   0.273   0.285   1.104  0.3582 -0.4110  0.5945
 2973SOL    HW120381   0.338   0.312   1.039 -2.2912  2.2460 -0.9484
 2973SOL    HW220382   0.278   0.356   1.167  3.4773 -1.7080  1.8551
 2974SOL     OW20383   4.599   1.859   8.257 -0.1089 -0.3239 -0.3320
 2974SOL    HW120384   4.598   1.793   8.326 -0.5212  0.4373  0.3888
 2974SOL    HW220385   4.510   1.894   8.262  0.5943  1.5065 -0.6298
 2975SOL     OW20386   3.488   2.996  14.292 -0.0067 -0.0184 -0.2298
 2975SOL    HW120387   3.571   3.042  14.306  1.5936 -2.4032 -1.9977
 2975SOL    HW220388   3.524   2.918  14.252 -2.5403 -0.7726 -1.0593
 2976SOL     OW20389   4.342   1.310  10.956 -0.0380 -0.2876 -0.3874
 2976SOL    HW120390   4.437   1.310  10.945 -0.1267 -1.7787 -1.2142
 2976SOL    HW220391   4.343   1.273  11.045 -0.9711  0.0288 -0.2450
 2977SOL     OW20392   1.067   3.796  10.875  0.2700 -0.1894  0.0484
 2977SOL    HW120393   0.983   3.828  10.841 -0.1251 -0.0468  1.1573
 2977SOL    HW220394   1.107   3.879  10.899  0.6567 -0.3211 -0.1455
 2978SOL     OW20395   2.344   0.001   1.633  0.0325  0.6883  0.4211
 2978SOL    HW120396   2.421   4.681   1.595  0.3144  0.6752  1.0020
 2978SOL    HW220397   2.375   0.021   1.722  0.4302  1.5060  0.0930
 2979SOL     OW20398   0.303   0.589   7.263  0.7024 -0.1532 -0.3014
 2979SOL    HW120399   0.301   0.677   7.302  0.0803  0.5286 -1.8954
 2979SOL    HW220400   0.243   0.547   7.324  0.4618 -1.7022 -1.6151
 2980SOL     OW20401   1.482   2.405   4.157 -0.8250  0.1134  0.5797
 2980SOL    HW120402   1.552   2.344   4.180 -1.0228 -0.1814  0.4111
 2980SOL    HW220403   1.533   2.484   4.138 -2.3742  0.5054 -1.9853
 2981SOL     OW20404   0.333   2.389   4.426  0.0072 -0.1293  0.0504
 2981SOL    HW120405   0.409   2.444   4.443  0.5135 -1.0605  0.8209
 2981SOL    HW220406   0.270   2.455   4.397 -1.6235 -1.0024  1.5408
 2982SOL     OW20407   1.096   3.590   7.749  0.0346 -0.3918  0.6822
 2982SOL    HW120408   1.108   3.617   7.658 -1.1459  0.4557  0.7819
 2982SOL    HW220409   1.141   3.653   7.804 -1.0509  1.1705 -0.2038
 2983SOL     OW20410   0.252   2.826   6.482 -0.3256  0.0230 -0.1029
 2983SOL    HW120411   0.185   2.891   6.503 -0.2816 -0.0561  0.2831
 2983SOL    HW220412   0.234   2.807   6.390 -0.3625 -1.7110  0.2721
 2984SOL     OW20413   4.125   3.151   2.016  0.2142 -0.1864  0.0026
 2984SOL    HW120414   4.181   3.163   2.093 -1.7382 -1.0359  1.5501
 2984SOL    HW220415   4.194   3.123   1.955 -0.9196  2.4154 -2.4995
 2985SOL     OW20416   4.084   3.826   8.216  0.2515  0.1299 -0.2729
 2985SOL    HW120417   4.149   3.837   8.146  1.1291  0.6178  0.6208
 2985SOL    HW220418   4.082   3.907   8.266 -0.4113  0.1767 -0.3750
 2986SOL     OW20419   3.886   2.721   3.942  0.0245 -1.0350 -0.1058
 2986SOL    HW120420   3.876   2.665   3.865  1.2575 -0.9064 -0.3463
 2986SOL    HW220421   3.792   2.719   3.962 -0.0214 -0.6815 -0.2798
 2987SOL     OW20422   4.617   0.487   3.928  0.0909  0.3438 -0.1830
 2987SOL    HW120423   4.577   0.400   3.925  1.8558 -0.4560 -0.4371
 2987SOL    HW220424   4.610   0.518   3.838 -0.5304  2.0430  0.4471
 2988SOL     OW20425   2.231   1.981  10.173 -0.2481  0.3089 -0.1687
 2988SOL    HW120426   2.238   1.995  10.268 -3.9535  0.8095  0.0398
 2988SOL    HW220427   2.148   1.936  10.159 -1.0471  1.9209 -0.5988
 2989SOL     OW20428   4.688   0.941   1.089 -0.9398 -0.2503 -0.4056
 2989SOL    HW120429   4.715   1.006   1.155 -0.4353 -1.6437  0.7537
 2989SOL    HW220430   0.032   0.873   1.094 -0.8367 -0.1627 -0.6180
 2990SOL     OW20431   0.617   3.634   4.878  0.5780  0.2952  0.5583
 2990SOL    HW120432   0.688   3.642   4.814 -0.0902  1.0462 -0.0784
 2990SOL    HW220433   0.574   3.559   4.836  0.6388 -0.0862  1.1820
 2991SOL     OW20434   1.011   3.446   3.328  0.1817 -0.6134 -0.1012
 2991SOL    HW120435   1.055   3.367   3.359  1.7440  0.2216 -0.2012
 2991SOL    HW220436   0.963   3.417   3.251  3.0240  0.8505 -2.3922
 2992SOL     OW20437   0.900   4.253   6.758 -0.0684  0.1789  0.3265
 2992SOL    HW120438   0.902   4.157   6.765  3.6214  0.3014  1.0544
 2992SOL    HW220439   0.942   4.283   6.838  1.1314 -3.2301  0.9744
 2993SOL     OW20440   0.043   0.086   8.192  0.2294 -0.3711  0.0997
 2993SOL    HW120441   0.005   0.061   8.276 -0.0021 -1.5724 -0.3614
 2993SOL    HW220442   0.135   0.099   8.214  0.9199 -0.9267 -2.4191
 2994SOL     OW20443   4.540   0.735   1.555  0.2753  0.1913  0.8099
 2994SOL    HW120444   4.575   0.823   1.540 -0.6461  0.2685 -0.8539
 2994SOL    HW220445   4.610   0.694   1.606 -1.0889 -2.0307  0.8702
 2995SOL     OW20446   1.403   2.086   5.272 -0.4269  0.3828 -0.1066
 2995SOL    HW120447   1.462   2.099   5.198  1.1197  1.4530  1.3135
 2995SOL    HW220448   1.394   1.995   5.244  0.5944 -0.1584  1.3500
 2996SOL     OW20449   1.264   3.625   4.667 -0.1803 -0.0189 -0.0544
 2996SOL    HW120450   1.333   3.558   4.672 -0.1334  0.1702  1.8212
 2996SOL    HW220451   1.296   3.702   4.620  1.4324  0.0471  1.1638
 2997SOL     OW20452   3.084   4.455  16.226  0.3895 -0.0851 -0.0934
 2997SOL    HW120453   3.099   4.370  16.186 -0.5619  0.7567 -2.2565
 2997SOL    HW220454   3.111   4.435  16.316 -0.0497 -1.4657 -0.2745
 2998SOL     OW20455   2.024   0.919  11.086  0.0981  0.3555  0.0377
 2998SOL    HW120456   2.020   0.926  10.991 -1.5639  0.1954  0.0940
 2998SOL    HW220457   1.983   1.000  11.118 -1.3803  0.6090 -2.4945
 2999SOL     OW20458   2.104   0.274   2.278  0.9634  0.5958  0.3934
 2999SOL    HW120459   2.034   0.325   2.238 -0.4337 -2.4467 -1.0313
 2999SOL    HW220460   2.067   0.257   2.365  1.6870 -3.4519 -0.0935
 3000SOL     OW20461   1.261   1.908   1.945 -0.0315 -0.1514 -0.6444
 3000SOL    HW120462   1.223   1.825   1.915  0.1495 -0.1144 -0.9690
 3000SOL    HW220463   1.306   1.888   2.027 -2.5966 -1.1130  0.5305
 3001SOL     OW20464   3.528   2.765   2.370 -0.3205  0.3419 -0.7408
 3001SOL    HW120465   3.527   2.709   2.448 -0.8357  0.9886 -0.2777
 3001SOL    HW220466   3.528   2.701   2.300  0.8809 -2.2020  1.5813
 3002SOL     OW20467   4.322   1.134  14.695  0.2328 -0.0982 -0.1524
 3002SOL    HW120468   4.311   1.161  14.786  1.6969 -0.5740  0.1626
 3002SOL    HW220469   4.352   1.044  14.709 -0.7560 -0.5490 -0.9517
 3003SOL     OW20470   0.203   0.855  10.549  0.1401 -0.4221  0.6251
 3003SOL    HW120471   0.197   0.941  10.590  1.2711 -0.0126 -0.0602
 3003SOL    HW220472   0.202   0.800  10.628  1.6931 -0.2335  0.7741
 3004SOL     OW20473   3.429   3.972   4.525 -0.0838  0.3449  0.0385
 3004SOL    HW120474   3.449   3.896   4.471 -2.0321 -1.1959  1.4891
 3004SOL    HW220475   3.373   4.027   4.470  0.7637  0.7526 -0.4181
 3005SOL     OW20476   2.717   3.398  10.040  0.0257  0.2730  0.3068
 3005SOL    HW120477   2.669   3.435   9.966  1.1359  2.6730  0.7678
 3005SOL    HW220478   2.648   3.347  10.081 -0.0767  0.1047 -0.0741
 3006SOL     OW20479   4.080   2.184  15.575 -0.2450  0.1740 -0.0022
 3006SOL    HW120480   4.140   2.196  15.648  1.0014  1.9750 -1.3149
 3006SOL    HW220481   4.056   2.093  15.588 -1.5646  0.6326  0.7053
 3007SOL     OW20482   4.000   1.264   6.017 -0.1148 -0.1151 -0.5432
 3007SOL    HW120483   3.957   1.349   6.004  2.9058  1.7780  1.6598
 3007SOL    HW220484   4.085   1.291   6.053 -0.6617 -1.4671  1.7429
 3008SOL     OW20485   0.999   3.890   3.543 -0.7239 -0.9060 -0.2898
 3008SOL    HW120486   1.075   3.906   3.487 -0.6292 -1.1993 -0.2446
 3008SOL    HW220487   0.967   3.812   3.498  0.2002  0.1149 -2.6683
 3009SOL     OW20488   1.190   4.419   6.325  0.1455 -0.2394  0.0633
 3009SOL    HW120489   1.207   4.507   6.292 -0.1337  0.4201  1.6688
 3009SOL    HW220490   1.115   4.409   6.266 -1.6247  0.1870  2.2596
 3010SOL     OW20491   3.338   1.507  16.970  0.8310 -0.1154 -0.0256
 3010SOL    HW120492   3.362   1.599  16.977  1.7827 -0.2368 -1.7483
 3010SOL    HW220493   3.420   1.460  16.960  1.0149 -0.0083  0.9359
 3011SOL     OW20494   3.407   4.092  15.983 -0.5915 -0.0593 -0.3004
 3011SOL    HW120495   3.376   4.085  16.074 -0.3544  3.7320  0.0868
 3011SOL    HW220496   3.438   4.183  15.984  1.6075 -0.8256  0.8649
 3012SOL     OW20497   4.563   0.520  15.840 -0.3043  0.2708 -0.5339
 3012SOL    HW120498   4.534   0.475  15.761 -1.5965 -0.4631  0.3579
 3012SOL    HW220499   4.507   0.598  15.843 -0.7563 -0.0443 -0.8096
 3013SOL     OW20500   1.301   1.819   8.362  0.2849 -0.2980 -0.3319
 3013SOL    HW120501   1.282   1.800   8.454  0.3296  0.7284 -0.1131
 3013SOL    HW220502   1.395   1.819   8.378  0.3604 -0.2935 -0.7707
 3014SOL     OW20503   0.734   0.491  13.362  0.0178  0.0566 -0.1304
 3014SOL    HW120504   0.674   0.559  13.393  0.1778 -0.3464  1.0682
 3014SOL    HW220505   0.817   0.538  13.370 -0.4765  0.9384 -0.1747
 3015SOL     OW20506   2.719   4.331   8.680  0.1037  0.3216 -0.5744
 3015SOL    HW120507   2.742   4.299   8.593  0.1579 -1.8738  0.2268
 3015SOL    HW220508   2.627   4.355   8.668  0.1636  1.1100  0.5254
 3016SOL     OW20509   0.771   1.980   4.831  0.2730 -0.1823 -0.4837
 3016SOL    HW120510   0.838   1.966   4.765  0.5516  1.8623 -0.6598
 3016SOL    HW220511   0.715   2.044   4.786 -0.1310 -0.2413 -0.0674
 3017SOL     OW20512   3.460   4.396  12.206 -0.3554  0.2957  0.3135
 3017SOL    HW120513   3.473   4.317  12.155 -1.5235  0.4882 -0.2871
 3017SOL    HW220514   3.496   4.451  12.137 -2.4827 -0.1995 -1.2053
 3018SOL     OW20515   3.106   0.275  12.336 -0.1371 -0.3879 -0.0745
 3018SOL    HW120516   3.120   0.367  12.313 -0.7313  0.3242  2.4028
 3018SOL    HW220517   3.165   0.228  12.277  0.5721 -0.4507  0.6778
 3019SOL     OW20518   0.700   0.685   5.355  0.5327 -0.3355  0.2007
 3019SOL    HW120519   0.741   0.740   5.289  0.6504 -0.1760  0.4045
 3019SOL    HW220520   0.715   0.734   5.436 -0.8410  0.0644  0.2097
 3020SOL     OW20521   1.087   4.322  12.864  0.4702  0.0305  0.4867
 3020SOL    HW120522   1.175   4.293  12.890 -0.3718 -2.5385  0.4890
 3020SOL    HW220523   1.067   4.341  12.956 -1.1554 -0.7589  0.2829
 3021SOL     OW20524   2.850   0.103   1.831 -0.2652 -0.2423  0.1459
 3021SOL    HW120525   2.775   0.068   1.783 -0.7264  1.9566 -0.7426
 3021SOL    HW220526   2.830   0.197   1.831  0.3537 -0.1056  0.0831
 3022SOL     OW20527   0.043   3.987  11.483 -0.1935  0.1324 -0.2758
 3022SOL    HW120528   0.056   4.058  11.420 -1.4730 -0.5767 -1.3223
 3022SOL    HW220529   0.088   4.041  11.548 -0.7951  0.7551 -0.3813
 3023SOL     OW20530   0.778   1.780   8.060  0.5748  0.1977 -0.4320
 3023SOL    HW120531   0.788   1.742   8.148 -1.6424 -0.0046 -0.2796
 3023SOL    HW220532   0.859   1.748   8.020  0.4650  1.5961 -1.7544
 3024SOL     OW20533   4.586   0.036  12.441 -0.2954 -0.0778 -0.2652
 3024SOL    HW120534   4.560   0.065  12.529  0.5172 -1.8808  0.5516
 3024SOL    HW220535   4.514   0.057  12.381  0.8068  0.4362 -1.4055
 3025SOL     OW20536   0.188   1.079   6.613 -0.5177  0.1251  0.1917
 3025SOL    HW120537   0.237   0.997   6.617 -1.7967 -0.7162 -1.4882
 3025SOL    HW220538   0.259   1.141   6.631 -0.8160  0.8795 -1.2126
 3026SOL     OW20539   0.062   1.893   0.512 -0.1688 -0.9434 -0.3025
 3026SOL    HW120540   0.131   1.867   0.573  0.9677  1.0762 -0.7416
 3026SOL    HW220541   4.707   1.845   0.540  0.1261 -0.7772  0.8136
 3027SOL     OW20542   4.611   2.468   8.195  0.1095 -0.6666  0.2841
 3027SOL    HW120543   4.600   2.388   8.247 -1.3761  0.0013  1.0016
 3027SOL    HW220544   4.650   2.529   8.258 -0.4416  2.6567 -2.6386
 3028SOL     OW20545   2.607   2.177   3.572  0.1972 -0.1748 -0.0634
 3028SOL    HW120546   2.676   2.178   3.505  0.3180  0.4626  0.0633
 3028SOL    HW220547   2.554   2.102   3.548 -1.4122  0.8258  0.3554
 3029SOL     OW20548   2.779   3.565   2.934 -0.7177 -0.1955  0.2752
 3029SOL    HW120549   2.776   3.608   2.849 -1.3253 -0.4844  0.1509
 3029SOL    HW220550   2.772   3.472   2.911  4.4271 -0.3718 -0.5013
 3030SOL     OW20551   2.118   4.383   5.537  0.6050  0.3193 -0.5868
 3030SOL    HW120552   2.031   4.353   5.566  1.4269 -0.9430  0.5659
 3030SOL    HW220553   2.143   4.444   5.605 -0.2605  0.0179  0.0048
 3031SOL     OW20554   4.020   2.692  10.467 -0.3263 -0.4270 -0.2823
 3031SOL    HW120555   3.942   2.746  10.460  2.1320  3.0367 -0.5849
 3031SOL    HW220556   3.976   2.607  10.458 -0.4947 -0.5225  1.4373
 3032SOL     OW20557   3.195   2.673   6.347 -0.4187  0.0996 -0.2736
 3032SOL    HW120558   3.215   2.587   6.310 -0.5186  0.2062 -0.5790
 3032SOL    HW220559   3.241   2.666   6.431  0.0592  0.0234 -0.5372
 3033SOL     OW20560   2.674   4.684   7.055 -0.1038  0.2188 -0.8119
 3033SOL    HW120561   2.591   4.642   7.074  0.9652 -0.7337  1.6939
 3033SOL    HW220562   2.727   4.636   7.118 -0.6851 -2.4007 -2.3283
 3034SOL     OW20563   2.306   0.586   3.351 -0.6514 -0.0336  0.1472
 3034SOL    HW120564   2.369   0.547   3.291  0.8280  0.7791  1.1720
 3034SOL    HW220565   2.274   0.662   3.302 -0.6861 -1.8163 -2.6129
 3035SOL     OW20566   1.658   0.959   3.935  0.2322 -0.5933  0.4910
 3035SOL    HW120567   1.750   0.984   3.943 -0.3210  0.9157  2.0253
 3035SOL    HW220568   1.624   1.021   3.870  1.2227 -0.9982 -0.4102
 3036SOL     OW20569   0.400   0.406   8.835  0.3490  0.2043 -0.0270
 3036SOL    HW120570   0.478   0.367   8.875  0.6674  0.6784 -0.1814
 3036SOL    HW220571   0.360   0.439   8.915 -2.8191  0.3392 -1.6596
 3037SOL     OW20572   0.649   3.407   3.907  0.1125  0.0536 -0.0797
 3037SOL    HW120573   0.618   3.430   3.994  0.0277  1.3916 -0.4659
 3037SOL    HW220574   0.579   3.432   3.846 -1.0617 -2.0044  0.4258
 3038SOL     OW20575   1.671   3.632   8.091 -0.1822  0.4554  0.2255
 3038SOL    HW120576   1.695   3.717   8.054 -2.4784  0.7619 -0.5762
 3038SOL    HW220577   1.705   3.637   8.180 -1.6613 -2.3054  0.9515
 3039SOL     OW20578   4.583   3.225   8.892 -0.1885  0.3761 -0.3151
 3039SOL    HW120579   4.535   3.145   8.871 -1.2256  0.8753  0.1162
 3039SOL    HW220580   4.674   3.210   8.868 -0.5764  1.5250 -2.4146
 3040SOL     OW20581   1.158   1.602  16.021  0.3896  0.1595 -0.1934
 3040SOL    HW120582   1.181   1.528  15.964  0.3791  0.1087 -0.1323
 3040SOL    HW220583   1.169   1.556  16.105  0.1046 -1.5052 -1.0540
 3041SOL     OW20584   0.453   3.329  17.316 -0.2672  0.3955  0.5750
 3041SOL    HW120585   0.450   3.424  17.320 -0.3708  0.3957  0.4967
 3041SOL    HW220586   0.398   3.297  17.388 -1.4939  0.6166 -0.2774
 3042SOL     OW20587   4.030   3.891   9.341  0.3860 -0.2676 -0.4412
 3042SOL    HW120588   4.014   3.897   9.247 -1.4508 -2.3616 -0.2692
 3042SOL    HW220589   4.075   3.808   9.359  0.2235  0.1244  1.8339
 3043SOL     OW20590   0.988   3.304   5.314  0.2384 -0.1599 -0.3761
 3043SOL    HW120591   1.031   3.314   5.399  0.0727  0.3910 -0.3562
 3043SOL    HW220592   0.895   3.306   5.336  0.4730 -2.4396  0.8660
 3044SOL     OW20593   0.647   4.463  10.427  0.2611  0.4263  0.2026
 3044SOL    HW120594   0.709   4.510  10.483  0.5837  1.3149 -0.8952
 3044SOL    HW220595   0.695   4.380  10.423  1.4515  1.0748  1.2017
 3045SOL     OW20596   0.083   0.510  12.310 -0.3849 -0.4603 -0.2892
 3045SOL    HW120597   0.121   0.432  12.271  0.0786 -1.4303  2.1446
 3045SOL    HW220598   0.028   0.466  12.374  1.8632 -1.0681  1.2046
 3046SOL     OW20599   3.635   1.052   3.083 -0.4826  0.3754  0.4629
 3046SOL    HW120600   3.640   1.072   2.990  0.8367 -0.2807  0.3807
 3046SOL    HW220601   3.651   0.957   3.081  0.6353  0.6019 -1.6194
 3047SOL     OW20602   0.655   2.619   5.597 -0.1521  0.5660  0.7129
 3047SOL    HW120603   0.662   2.586   5.686  0.6050 -0.6720  0.1988
 3047SOL    HW220604   0.679   2.538   5.551 -2.1062  1.6955 -2.3436
 3048SOL     OW20605   1.696   4.087   2.202 -0.0988  0.1020  0.2084
 3048SOL    HW120606   1.662   4.034   2.130 -0.1558 -1.7227  1.5956
 3048SOL    HW220607   1.726   4.026   2.269 -1.5338 -0.8723 -0.0446
 3049SOL     OW20608   1.616   4.098   1.811  0.2528 -0.1535  0.0513
 3049SOL    HW120609   1.636   4.165   1.876  1.0946 -1.0527  0.7110
 3049SOL    HW220610   1.618   4.019   1.864  1.6984  0.2598  0.6313
 3050SOL     OW20611   4.124   2.420   3.739 -0.1018 -0.2611  0.5285
 3050SOL    HW120612   4.066   2.366   3.792 -0.5914  0.1595  0.4145
 3050SOL    HW220613   4.195   2.435   3.801  0.3315  3.0838 -0.7824
 3051SOL     OW20614   0.663   3.972   6.439 -0.1472  0.0266  0.0037
 3051SOL    HW120615   0.568   3.967   6.451 -0.5231  3.1894 -1.5324
 3051SOL    HW220616   0.680   4.041   6.374  0.9966 -1.1996 -0.9915
 3052SOL     OW20617   2.339   1.449   3.768  0.7092  0.3953  0.3507
 3052SOL    HW120618   2.423   1.471   3.728 -1.0842  2.6349 -2.1333
 3052SOL    HW220619   2.357   1.370   3.819  0.4938 -0.0330 -0.2430
 3053SOL     OW20620   1.952   4.712  17.434 -0.2731 -0.3572  0.4534
 3053SOL    HW120621   1.953   0.085  17.429 -2.4943 -0.4646 -2.1155
 3053SOL    HW220622   2.019   4.681  17.372 -1.4431 -0.5456 -0.7176
 3054SOL     OW20623   3.071   4.134   7.152 -0.1350 -0.1766  0.1474
 3054SOL    HW120624   3.031   4.073   7.090 -3.0426  0.6932  1.2091
 3054SOL    HW220625   3.163   4.107   7.144  0.1098  0.7452 -0.1619
 3055SOL     OW20626   1.555   4.580   9.828  0.1717  0.8809 -0.0206
 3055SOL    HW120627   1.478   4.524   9.825  1.4802 -1.0094  1.6798
 3055SOL    HW220628   1.575   4.584   9.922  1.3147  1.8446 -0.2932
 3056SOL     OW20629   3.621   3.706  10.036 -0.2114  0.1283  0.4883
 3056SOL    HW120630   3.596   3.614  10.039 -1.9531  0.6026  0.2092
 3056SOL    HW220631   3.684   3.696   9.964  1.0167 -0.4473  1.6316
 3057SOL     OW20632   3.789   4.193   6.235 -0.2008  0.3344  0.6852
 3057SOL    HW120633   3.881   4.167   6.237  0.0568  1.2473  0.7880
 3057SOL    HW220634   3.785   4.240   6.151 -1.3509  0.1726  0.6607
 3058SOL     OW20635   2.877   1.424  12.711  0.5529  0.1659 -0.2303
 3058SOL    HW120636   2.811   1.429  12.780 -0.5616 -0.6359 -1.2192
 3058SOL    HW220637   2.829   1.366  12.652 -2.0982  1.7513  0.4058
 3059SOL     OW20638   1.693   3.642   3.846  0.0881  0.6892 -0.7463
 3059SOL    HW120639   1.689   3.566   3.787 -0.0295 -0.8688  1.2664
 3059SOL    HW220640   1.788   3.643   3.859 -0.0759 -0.8457  0.4951
 3060SOL     OW20641   3.904   0.774  13.718 -0.0592 -0.5986 -0.1643
 3060SOL    HW120642   3.879   0.730  13.799  1.1911  0.1497  0.6169
 3060SOL    HW220643   3.928   0.860  13.752 -0.2161 -0.3645 -0.6497
 3061SOL     OW20644   3.663   4.592   2.501 -0.3915 -0.3664 -0.0107
 3061SOL    HW120645   3.734   4.588   2.566 -1.1587 -0.3993  0.8183
 3061SOL    HW220646   3.660   4.686   2.481  0.3276  0.0702  1.9271
 3062SOL     OW20647   4.352   2.259   1.793  0.5530 -0.3302  0.0505
 3062SOL    HW120648   4.316   2.262   1.705 -2.1784  0.4610  1.2140
 3062SOL    HW220649   4.326   2.171   1.820  0.1571 -0.2005  0.0823
 3063SOL     OW20650   2.704   4.127   6.725 -0.6471  0.7700  0.1260
 3063SOL    HW120651   2.688   4.220   6.739 -2.4584  0.6484 -1.0814
 3063SOL    HW220652   2.616   4.095   6.705  0.8598 -1.9662 -2.2391
 3064SOL     OW20653   1.196   0.871   4.868  0.0652  0.5803  0.8163
 3064SOL    HW120654   1.159   0.957   4.850  2.8530  1.4374 -0.9188
 3064SOL    HW220655   1.172   0.867   4.960  1.2530 -0.7230  1.0755
 3065SOL     OW20656   2.363   4.058   5.725 -0.0317 -0.1567 -0.0214
 3065SOL    HW120657   2.329   4.144   5.750  2.9806  0.9060  0.4293
 3065SOL    HW220658   2.389   4.032   5.813  0.2655 -0.4404 -0.1969
 3066SOL     OW20659   4.550   1.949   5.481 -0.3924 -0.0526  0.5973
 3066SOL    HW120660   4.507   1.964   5.565 -1.4919  0.2366 -0.0126
 3066SOL    HW220661   4.554   2.038   5.445  0.7148 -1.7665 -3.5969
 3067SOL     OW20662   2.483   3.130   1.488 -0.2672  0.2825 -0.0709
 3067SOL    HW120663   2.539   3.162   1.559 -1.8112  0.2636  1.1450
 3067SOL    HW220664   2.405   3.093   1.527 -1.7305  0.2359 -3.0119
 3068SOL     OW20665   3.917   2.064   7.262 -0.7382 -0.1876  0.3558
 3068SOL    HW120666   3.920   2.039   7.355  0.3046  1.2936  0.7190
 3068SOL    HW220667   3.837   2.024   7.229 -1.1558  0.8394  0.1225
 3069SOL     OW20668   1.242   1.094   8.031  0.6181  0.1295  0.2103
 3069SOL    HW120669   1.209   1.032   7.965 -0.4861 -0.2728  1.1599
 3069SOL    HW220670   1.315   1.048   8.072  1.3296 -0.2265 -1.4237
 3070SOL     OW20671   0.045   0.118  12.725  0.0190 -0.5482  0.5208
 3070SOL    HW120672   0.101   0.175  12.776  0.4344 -0.8436  0.3920
 3070SOL    HW220673   4.682   0.154  12.748 -0.8843 -2.1728 -0.2283
 3071SOL     OW20674   1.141   0.973   3.155 -0.4888 -0.2723 -0.0933
 3071SOL    HW120675   1.098   1.026   3.088  0.0502  0.3208  0.0310
 3071SOL    HW220676   1.130   0.885   3.119 -2.4315 -0.9843  2.2250
 3072SOL     OW20677   3.719   1.905   7.124 -0.2914  0.6483  0.2124
 3072SOL    HW120678   3.634   1.888   7.166  0.1626 -2.5348 -0.2010
 3072SOL    HW220679   3.752   1.817   7.109 -2.5886 -0.1779 -0.1017
 3073SOL     OW20680   2.359   1.200   0.759  0.3316 -0.8042  0.7608
 3073SOL    HW120681   2.380   1.143   0.685  0.6142  0.6039 -0.2479
 3073SOL    HW220682   2.399   1.286   0.747 -2.0946  0.2401  0.1055
 3074SOL     OW20683   3.234   2.897   3.785 -0.0117 -0.3027  0.2096
 3074SOL    HW120684   3.157   2.861   3.740 -2.5567  4.4046  0.8264
 3074SOL    HW220685   3.290   2.926   3.714  0.0011 -1.0377 -0.0847
 3075SOL     OW20686   3.037   0.806   7.925 -0.6853 -0.0444  0.3931
 3075SOL    HW120687   3.044   0.822   7.831 -0.2683  0.1106  0.4504
 3075SOL    HW220688   3.115   0.846   7.965 -0.1429 -1.3797  0.6715
 3076SOL     OW20689   3.858   0.074   5.002 -0.1302 -0.2184 -0.9535
 3076SOL    HW120690   3.834   4.711   4.967 -0.6482 -0.4727  0.0125
 3076SOL    HW220691   3.952   0.082   4.987  0.1375 -1.5969 -0.0337
 3077SOL     OW20692   4.221   2.696   6.923  0.0444  0.4547 -0.0115
 3077SOL    HW120693   4.233   2.608   6.887  0.8396  1.0650 -1.2490
 3077SOL    HW220694   4.144   2.697   6.979  2.2951  2.4832  3.0570
 3078SOL     OW20695   2.976   0.542   5.191  0.4515 -0.4367 -0.2502
 3078SOL    HW120696   3.015   0.455   5.180 -1.7171 -1.8177  3.0740
 3078SOL    HW220697   3.052   0.598   5.176  1.5989 -1.8296  0.2754
 3079SOL     OW20698   2.086   1.918  13.020  0.2325  0.4630 -0.0910
 3079SOL    HW120699   2.170   1.961  13.037  0.1338  1.1541 -1.3693
 3079SOL    HW220700   2.086   1.852  13.089  0.5886 -0.4003 -0.9199
 3080SOL     OW20701   1.337   1.255  16.572 -0.1166 -0.4946  0.5440
 3080SOL    HW120702   1.247   1.262  16.540 -0.1434 -0.8443  0.5455
 3080SOL    HW220703   1.374   1.341  16.592 -0.3142 -0.3165  0.1510
 3081SOL     OW20704   2.378   2.535   2.223  0.0839 -0.2158 -0.0912
 3081SOL    HW120705   2.288   2.568   2.225  0.6631  1.4821 -2.8368
 3081SOL    HW220706   2.371   2.440   2.210  0.4838 -0.7206  3.2990
 3082SOL     OW20707   2.449   1.740   2.270  0.2434 -0.3713 -0.1405
 3082SOL    HW120708   2.498   1.691   2.204  0.6703  0.0185 -0.1060
 3082SOL    HW220709   2.449   1.829   2.235  1.7703  0.0597  0.9835
 3083SOL     OW20710   2.721   2.672   4.960  0.3763 -0.5882  0.1138
 3083SOL    HW120711   2.767   2.597   4.997  2.3602 -0.6154 -2.4048
 3083SOL    HW220712   2.775   2.692   4.883 -0.8848  1.2526 -0.2992
 3084SOL     OW20713   0.756   3.410   5.836  0.3932  0.0737 -1.0039
 3084SOL    HW120714   0.781   3.467   5.764 -0.5499  1.2997 -0.3509
 3084SOL    HW220715   0.738   3.462   5.914  2.4042 -1.1490  0.2725
 3085SOL     OW20716   1.142   0.904   4.423 -0.1644 -0.2381  0.7850
 3085SOL    HW120717   1.129   0.877   4.332  0.7597 -1.8306  1.1197
 3085SOL    HW220718   1.210   0.840   4.448  0.7411  0.3885 -0.0786
 3086SOL     OW20719   3.180   4.255  15.161 -0.2145 -0.0442 -0.2140
 3086SOL    HW120720   3.122   4.193  15.117  0.8816 -0.7183 -0.7240
 3086SOL    HW220721   3.202   4.324  15.099  3.2412  0.3130  1.4291
 3087SOL     OW20722   4.515   2.721   2.952  0.0227 -0.4010  0.1254
 3087SOL    HW120723   4.575   2.779   2.905 -0.0665 -1.0677 -0.8098
 3087SOL    HW220724   4.429   2.761   2.939  0.8122  0.2856 -2.9413
 3088SOL     OW20725   3.908   3.158  16.872 -0.5040  0.2842  0.2539
 3088SOL    HW120726   3.931   3.071  16.904 -2.0441 -0.1754  0.1107
 3088SOL    HW220727   3.893   3.200  16.957  1.6390 -0.3497  0.9360
 3089SOL     OW20728   4.448   4.706   4.159  0.5100  0.1621  0.4665
 3089SOL    HW120729   4.529   4.661   4.133 -0.7579 -2.1658  0.5690
 3089SOL    HW220730   4.387   4.651   4.109  0.5232 -1.0656  1.8166
 3090SOL     OW20731   0.545   2.561   4.529  0.1200 -0.0236  0.2841
 3090SOL    HW120732   0.533   2.631   4.592  0.3240  0.8229 -0.6164
 3090SOL    HW220733   0.614   2.600   4.476 -0.4121  0.8588  0.2403
 3091SOL     OW20734   1.551   3.495   0.419  0.3724  0.0857  0.2195
 3091SOL    HW120735   1.529   3.587   0.436 -3.3165 -1.1677  2.3136
 3091SOL    HW220736   1.617   3.478   0.486  1.7643 -0.0808 -1.2024
 3092SOL     OW20737   3.714   0.296   5.517 -0.0301 -0.4053 -0.7039
 3092SOL    HW120738   3.676   0.211   5.538 -0.8058 -0.5071 -2.4751
 3092SOL    HW220739   3.674   0.345   5.589  0.3924 -1.0085 -0.0625
 3093SOL     OW20740   1.791   2.317   7.089 -0.0442 -0.5493 -0.7798
 3093SOL    HW120741   1.882   2.333   7.065  0.7319 -2.8523  0.5206
 3093SOL    HW220742   1.765   2.400   7.129 -1.2905 -0.0705 -2.6055
 3094SOL     OW20743   2.975   4.244   8.914  0.2260  0.3163 -0.1010
 3094SOL    HW120744   3.001   4.238   9.006 -1.7910 -1.8450  0.3427
 3094SOL    HW220745   2.944   4.334   8.907  0.4021  0.4324  0.5633
 3095SOL     OW20746   0.153   2.948  13.253  0.3675  0.0289 -0.0118
 3095SOL    HW120747   0.120   2.861  13.277 -0.2817 -0.5581 -3.0820
 3095SOL    HW220748   0.115   2.989  13.330 -1.4123 -1.2384 -0.2224
 3096SOL     OW20749   0.034   2.246  12.793 -0.0635 -0.0144 -0.1891
 3096SOL    HW120750   0.124   2.269  12.769 -0.1164 -0.1920 -0.5545
 3096SOL    HW220751   0.035   2.282  12.882  0.4787  0.3540 -0.3373
 3097SOL     OW20752   2.388   1.464   4.371  0.5908 -0.1795 -0.3910
 3097SOL    HW120753   2.479   1.471   4.399  0.9977 -1.8368 -1.3533
 3097SOL    HW220754   2.346   1.428   4.449 -0.2326 -2.1280 -1.7347
 3098SOL     OW20755   2.584   0.661   8.519 -0.0987  0.2548 -0.5217
 3098SOL    HW120756   2.570   0.671   8.614 -1.3150  0.4820 -0.7196
 3098SOL    HW220757   2.674   0.633   8.503  1.1513  3.2917  1.2683
 3099SOL     OW20758   1.986   3.137   7.617  0.0358 -0.0085 -0.1669
 3099SOL    HW120759   1.916   3.184   7.663 -1.0193 -2.0436  0.2691
 3099SOL    HW220760   1.944   3.082   7.551  0.1605 -0.0766 -0.1892
 3100SOL     OW20761   0.222   4.300  14.887 -0.3716  0.0334 -0.1861
 3100SOL    HW120762   0.155   4.362  14.856  0.7702  1.4946  0.3142
 3100SOL    HW220763   0.169   4.260  14.956 -0.9179  1.6082  0.3193
 3101SOL     OW20764   4.388   0.458  16.208  0.1623 -0.1989  0.1831
 3101SOL    HW120765   4.354   0.518  16.141  0.1583 -0.6003 -0.1749
 3101SOL    HW220766   4.429   0.390  16.155  1.0268  1.9272 -1.8729
 3102SOL     OW20767   4.099   2.583  17.060  1.0964  0.0261 -0.2772
 3102SOL    HW120768   4.059   2.524  16.996  1.7522  0.5655 -1.1753
 3102SOL    HW220769   4.191   2.567  17.039  1.4577  0.8265  0.7131
 3103SOL     OW20770   0.132   0.795  10.840 -0.2576 -0.4783 -0.1453
 3103SOL    HW120771   0.218   0.769  10.871  0.0505  0.4649 -0.2096
 3103SOL    HW220772   0.100   0.705  10.846 -1.3263 -0.1408 -0.6852
 3104SOL     OW20773   1.995   4.240  17.423 -0.0238  0.7479  0.7039
 3104SOL    HW120774   2.017   4.185  17.348  2.4301 -1.0025  2.7151
 3104SOL    HW220775   2.062   4.309  17.426  0.1061  0.6348  0.4119
 3105SOL     OW20776   0.984   0.457   8.381  0.5091  0.5069  0.5228
 3105SOL    HW120777   0.999   0.466   8.475 -2.1959  0.6998  0.9543
 3105SOL    HW220778   0.922   0.384   8.394 -1.1349  2.0392  1.2832
 3106SOL     OW20779   1.243   1.882   8.888  0.3721 -0.2091 -0.1145
 3106SOL    HW120780   1.326   1.922   8.913  0.1477  0.0114  0.2777
 3106SOL    HW220781   1.209   1.843   8.968  0.2641 -0.2165 -0.1638
 3107SOL     OW20782   1.057   3.145  16.143  0.2163  0.0988  0.1610
 3107SOL    HW120783   1.033   3.181  16.057  0.6823 -0.6273 -0.2718
 3107SOL    HW220784   1.149   3.122  16.130  0.7676  1.3152  1.9139
 3108SOL     OW20785   0.257   3.463   1.763  0.5072 -0.2913 -0.1676
 3108SOL    HW120786   0.344   3.497   1.743  0.9038 -0.8748  0.5932
 3108SOL    HW220787   0.250   3.454   1.858 -0.1139  1.6356 -0.0237
 3109SOL     OW20788   3.556   0.164   6.556  0.3679 -0.6004 -0.0108
 3109SOL    HW120789   3.525   0.112   6.630 -0.9806 -1.0188 -0.8652
 3109SOL    HW220790   3.481   0.141   6.501  1.0946 -0.2993 -1.1411
 3110SOL     OW20791   0.849   0.228   4.840  0.2617  0.3023 -0.5326
 3110SOL    HW120792   0.898   0.148   4.858 -1.4658 -0.5476  0.3538
 3110SOL    HW220793   0.841   0.230   4.744 -0.0511  2.8624 -0.4635
 3111SOL     OW20794   1.611   0.356   2.071  0.4118 -0.3454  0.2046
 3111SOL    HW120795   1.605   0.261   2.073  1.8222 -0.4078  1.0429
 3111SOL    HW220796   1.529   0.388   2.108  0.7770 -0.1603  0.8563
 3112SOL     OW20797   0.374   1.185  14.939  0.1171 -0.0590  0.2331
 3112SOL    HW120798   0.396   1.222  15.024 -0.2346 -1.0857  0.7738
 3112SOL    HW220799   0.403   1.258  14.883 -0.0325 -1.7939 -2.1171
 3113SOL     OW20800   0.152   3.303  13.128  0.7495  0.2534  0.4838
 3113SOL    HW120801   0.071   3.306  13.178 -0.0646 -0.4184 -0.7839
 3113SOL    HW220802   0.126   3.229  13.073  1.1934  0.9572 -0.6794
 3114SOL     OW20803   4.708   1.330  10.539 -0.5255  0.0747 -0.0250
 3114SOL    HW120804   4.666   1.311  10.623 -0.4487  0.7654  0.1750
 3114SOL    HW220805   4.676   1.266  10.476 -1.3170 -0.2036  0.6641
 3115SOL     OW20806   2.832   2.039   2.904 -0.4012 -0.0172  0.2696
 3115SOL    HW120807   2.828   2.006   2.815  0.7909  0.3361  0.0963
 3115SOL    HW220808   2.755   2.096   2.906 -0.4113 -0.0502  1.1312
 3116SOL     OW20809   0.080   1.201   6.013 -0.3346 -0.3814  0.2031
 3116SOL    HW120810   0.137   1.275   6.032 -2.5172  1.5247 -0.6382
 3116SOL    HW220811   4.720   1.245   5.991 -0.1706  0.1338  0.6409
 3117SOL     OW20812   0.638   0.980   3.379  0.0138  0.3068  0.1884
 3117SOL    HW120813   0.707   1.034   3.418 -0.7087  1.1629  0.2894
 3117SOL    HW220814   0.563   1.021   3.422 -0.1607 -0.2349  0.4027
 3118SOL     OW20815   3.856   1.300   6.959  0.1780 -0.1480 -0.4249
 3118SOL    HW120816   3.845   1.391   6.986 -0.3120 -0.2606 -0.2519
 3118SOL    HW220817   3.820   1.244   7.028  0.8718  0.3320  0.3208
 3119SOL     OW20818   4.677   4.349   8.805 -0.6701  0.1175 -0.2945
 3119SOL    HW120819   4.703   4.435   8.770  0.5668  0.1493  0.6942
 3119SOL    HW220820   4.670   4.374   8.897  0.8756 -1.3641  0.2125
 3120SOL     OW20821   0.088   4.191  11.340  0.5575 -0.1210 -0.0353
 3120SOL    HW120822   0.021   4.259  11.336 -0.1488 -0.9734 -2.6183
 3120SOL    HW220823   0.169   4.242  11.347  0.9358 -0.6622 -0.4998
 3121SOL     OW20824   1.336   1.422   5.124 -0.2470  0.3211 -0.4588
 3121SOL    HW120825   1.257   1.467   5.095  0.1201  1.4726  0.3314
 3121SOL    HW220826   1.306   1.394   5.211  1.0837 -2.5503 -0.8979
 3122SOL     OW20827   4.525   1.658   7.709 -0.2724  0.7437  0.0240
 3122SOL    HW120828   4.509   1.719   7.781  3.6129 -0.3600  1.8316
 3122SOL    HW220829   4.518   1.571   7.749 -1.5774  1.9762  2.4827
 3123SOL     OW20830   1.368   3.343   4.112  0.1092 -0.7804 -0.3243
 3123SOL    HW120831   1.457   3.332   4.080 -0.1044  1.9617 -1.8958
 3123SOL    HW220832   1.391   3.377   4.199 -0.2860  0.7168 -0.8085
 3124SOL     OW20833   3.610   4.484   2.994 -0.6209 -0.5400 -0.0089
 3124SOL    HW120834   3.575   4.563   2.952  1.1027  0.5704  0.6008
 3124SOL    HW220835   3.575   4.420   2.932 -0.5707  0.5110 -1.1412
 3125SOL     OW20836   1.967   1.305   0.490 -0.4649 -0.3136  0.1237
 3125SOL    HW120837   2.001   1.265   0.570  0.8914 -2.0393 -1.3140
 3125SOL    HW220838   1.968   1.225   0.438 -0.9660  1.5290 -2.6950
 3126SOL     OW20839   0.637   3.940   8.724 -0.1337  1.2386 -0.1932
 3126SOL    HW120840   0.713   3.927   8.782 -0.8048 -0.8577  0.2215
 3126SOL    HW220841   0.673   3.947   8.636  0.9771 -0.8084  0.0992
 3127SOL     OW20842   3.003   0.918   6.186  0.0141  0.3294 -0.3691
 3127SOL    HW120843   3.024   0.976   6.112  1.6270 -0.6702 -0.7008
 3127SOL    HW220844   2.953   0.980   6.238  0.6681  0.0884  0.5494
 3128SOL     OW20845   4.486   0.192   5.135  0.3635  0.0076  0.3754
 3128SOL    HW120846   4.450   0.271   5.094 -1.5572 -1.3740 -0.6363
 3128SOL    HW220847   4.579   0.214   5.137  0.9069 -2.2373  0.2096
 3129SOL     OW20848   0.609   1.881  10.755  0.1402  0.7163  0.4092
 3129SOL    HW120849   0.677   1.898  10.691  1.2456 -0.7566  1.2063
 3129SOL    HW220850   0.637   1.795  10.787  0.0989  0.0449 -1.3755
 3130SOL     OW20851   2.900   3.506   2.535 -0.0790 -0.6159  0.2357
 3130SOL    HW120852   2.826   3.472   2.584 -1.5094  1.0377 -0.7809
 3130SOL    HW220853   2.970   3.504   2.600  0.4616 -2.5875 -0.4087
 3131SOL     OW20854   0.479   3.121   1.654  0.1951 -0.1280  0.2505
 3131SOL    HW120855   0.442   3.149   1.738  0.4718 -0.7830  0.5928
 3131SOL    HW220856   0.440   3.034   1.651 -0.0437  0.0436 -1.7499
 3132SOL     OW20857   2.466   3.008   9.043 -0.2117 -0.0604  0.0679
 3132SOL    HW120858   2.407   3.009   8.968  0.6897 -1.0833 -0.6571
 3132SOL    HW220859   2.551   2.986   9.003 -0.9880 -0.2199 -1.5088
 3133SOL     OW20860   0.432   2.808   9.324 -0.1424  0.0720 -0.3536
 3133SOL    HW120861   0.467   2.790   9.236  1.8423 -1.7623  0.8324
 3133SOL    HW220862   0.392   2.723   9.344 -0.9508  0.2791 -1.0599
 3134SOL     OW20863   1.420   3.542   8.062 -0.3267  0.2746  0.2907
 3134SOL    HW120864   1.506   3.576   8.087  0.0146 -1.0009  0.8344
 3134SOL    HW220865   1.448   3.466   8.010 -0.5179  0.2411  0.2372
 3135SOL     OW20866   3.675   2.855   8.829  0.2415 -0.3777  0.1313
 3135SOL    HW120867   3.604   2.791   8.824  2.1312 -2.3960 -0.5342
 3135SOL    HW220868   3.631   2.931   8.869  1.4428  0.9806 -1.1315
 3136SOL     OW20869   1.211   3.076   7.212 -0.3632 -0.5641 -0.3818
 3136SOL    HW120870   1.196   2.988   7.248 -0.4069 -0.2624  0.3393
 3136SOL    HW220871   1.129   3.121   7.233  0.3162  1.0759 -1.2699
 3137SOL     OW20872   3.118   3.746   7.334  0.3063 -0.3059 -0.0648
 3137SOL    HW120873   3.103   3.794   7.253  0.4565  0.7995  0.5672
 3137SOL    HW220874   3.212   3.734   7.323  0.0689 -3.5814  1.4876
 3138SOL     OW20875   3.974   4.337   2.167 -0.8299 -0.3986  0.2725
 3138SOL    HW120876   4.062   4.329   2.132 -0.5116 -0.4607  1.0766
 3138SOL    HW220877   3.922   4.315   2.090 -0.1291  0.7967 -0.5288
 3139SOL     OW20878   3.196   2.556   5.795  0.4214 -0.1517 -0.3234
 3139SOL    HW120879   3.233   2.634   5.836 -2.0251  1.9772 -2.2869
 3139SOL    HW220880   3.165   2.508   5.873  0.1247 -0.9505 -0.9297
 3140SOL     OW20881   2.402   3.011  12.083 -0.6458 -0.1417 -0.2435
 3140SOL    HW120882   2.344   2.994  12.008  1.6101 -2.1526 -1.5173
 3140SOL    HW220883   2.386   3.103  12.101  0.9380 -0.2202  1.6016
 3141SOL     OW20884   4.257   4.525   0.954 -0.1591 -0.1772  0.5731
 3141SOL    HW120885   4.265   4.605   1.007  0.2098 -1.6828  2.8085
 3141SOL    HW220886   4.332   4.466   0.966  0.5425  0.1527 -2.3186
 3142SOL     OW20887   0.014   1.308  15.697 -0.4991  0.0382  0.1419
 3142SOL    HW120888   4.671   1.377  15.703 -0.3581 -0.0175  2.4088
 3142SOL    HW220889   4.705   1.249  15.765 -1.8002  0.0231 -0.4845
 3143SOL     OW20890   1.565   2.769  14.398 -0.0007 -0.5100  0.4380
 3143SOL    HW120891   1.541   2.678  14.415  3.2130 -1.3994  0.2264
 3143SOL    HW220892   1.590   2.789  14.488 -0.1649  0.5911  0.2318
 3144SOL     OW20893   3.811   4.360   6.004 -0.2665  0.0170 -0.4376
 3144SOL    HW120894   3.772   4.336   5.920 -1.6878 -0.1328  0.2627
 3144SOL    HW220895   3.796   4.454   5.999 -0.8810 -0.0796 -0.4636
 3145SOL     OW20896   1.789   0.351   7.065 -0.4355  0.2397 -0.3994
 3145SOL    HW120897   1.865   0.402   7.094  0.5182 -0.5190 -1.5696
 3145SOL    HW220898   1.810   0.340   6.972  0.9660 -1.7978  0.1318
 3146SOL     OW20899   2.230   3.988  11.976  0.1387 -0.6429 -0.1717
 3146SOL    HW120900   2.213   4.077  12.008 -0.2463 -0.1029 -1.8972
 3146SOL    HW220901   2.213   3.934  12.053 -1.7574  0.6194  0.2778
 3147SOL     OW20902   0.748   1.641  11.926 -0.0916 -0.0136  0.0359
 3147SOL    HW120903   0.816   1.579  11.901  1.4033  1.5827  0.1449
 3147SOL    HW220904   0.679   1.618  11.864 -0.7727  0.5492  0.5769
 3148SOL     OW20905   0.227   2.331   1.119 -0.4136  0.5486 -0.0145
 3148SOL    HW120906   0.260   2.382   1.045  0.1271  0.2875  0.0527
 3148SOL    HW220907   0.220   2.397   1.188 -2.3289 -2.0088  2.2132
 3149SOL     OW20908   3.779   2.011  11.677  0.0020  0.0836 -0.6278
 3149SOL    HW120909   3.849   2.017  11.742 -1.7024  0.3020  1.2208
 3149SOL    HW220910   3.827   2.018  11.595  0.4352 -2.0085 -0.5640
 3150SOL     OW20911   3.720   4.155   7.698 -0.5802  0.2190  0.0593
 3150SOL    HW120912   3.777   4.191   7.766  0.6144 -0.6239 -0.4983
 3150SOL    HW220913   3.788   4.109   7.650 -1.4281 -0.8294 -0.1352
 3151SOL     OW20914   0.157   2.181   5.080  0.1201  0.7195  0.2789
 3151SOL    HW120915   0.160   2.086   5.078  2.7877  0.8249 -0.2390
 3151SOL    HW220916   0.062   2.192   5.070  0.3322 -0.1689 -2.8429
 3152SOL     OW20917   3.918   4.314  11.107 -0.4422 -0.1296 -0.6485
 3152SOL    HW120918   3.923   4.221  11.084 -1.9727 -0.1254 -0.9972
 3152SOL    HW220919   3.826   4.327  11.131  0.3205  0.1416  2.1316
 3153SOL     OW20920   1.771   2.140  13.248  0.2509 -0.7218  0.3420
 3153SOL    HW120921   1.801   2.064  13.199 -1.6036 -1.4267  0.2985
 3153SOL    HW220922   1.808   2.127  13.335  0.0809  0.5663  0.6006
 3154SOL     OW20923   4.600   0.993   0.291  0.2403  0.4657 -0.2556
 3154SOL    HW120924   4.632   1.059   0.230  0.1453  0.9545  0.2292
 3154SOL    HW220925   4.653   0.915   0.277 -2.7032 -2.0006  2.1676
 3155SOL     OW20926   4.668   0.665  11.558  0.1900 -0.2191 -0.3876
 3155SOL    HW120927   4.585   0.627  11.586  0.6834 -0.4968  0.6931
 3155SOL    HW220928   0.001   0.647  11.633  1.1384 -1.2194 -1.3289
 3156SOL     OW20929   4.612   1.915  17.232  0.4464  0.3170 -0.2331
 3156SOL    HW120930   4.579   1.894  17.145  0.9164  2.0887 -0.8324
 3156SOL    HW220931   4.547   1.883  17.294 -0.5980  2.0171 -0.4629
 3157SOL     OW20932   2.843   3.952   4.257  0.2618 -0.0058 -0.5232
 3157SOL    HW120933   2.796   3.912   4.184  0.0766 -1.9511  0.6585
 3157SOL    HW220934   2.872   4.030   4.210 -0.3281  1.3240  1.3392
 3158SOL     OW20935   1.595   1.438   5.171  0.1914  0.2956  0.3197
 3158SOL    HW120936   1.598   1.373   5.241 -0.3102  0.4495  0.4871
 3158SOL    HW220937   1.505   1.424   5.141  0.0796  0.0019  0.7856
 3159SOL     OW20938   4.387   0.219   8.632 -0.0192 -0.4326 -0.2754
 3159SOL    HW120939   4.293   0.212   8.614 -0.4833  0.7434  1.6983
 3159SOL    HW220940   4.404   0.137   8.679 -1.2695 -0.5993 -0.1112
 3160SOL     OW20941   1.455   4.720   4.491  1.1228 -0.3549  0.1593
 3160SOL    HW120942   1.414   0.020   4.408  0.3970 -0.3999  0.5017
 3160SOL    HW220943   1.408   4.641   4.518 -1.5590  0.5682 -1.8432
 3161SOL     OW20944   4.531   2.190   2.560 -0.5976 -0.0322  0.1108
 3161SOL    HW120945   4.481   2.148   2.629  0.9860 -0.3204  1.0923
 3161SOL    HW220946   4.568   2.261   2.612  1.4990  0.0029 -1.3858
 3162SOL     OW20947   1.700   3.062   0.639  0.1785  0.5931 -0.4219
 3162SOL    HW120948   1.747   3.088   0.560  0.0447 -2.5443 -1.5086
 3162SOL    HW220949   1.613   3.088   0.607  0.3073  0.7292 -0.6634
 3163SOL     OW20950   3.681   0.258   2.759 -0.4255 -0.3793  0.2189
 3163SOL    HW120951   3.722   0.264   2.672 -1.6297 -0.3354 -0.3459
 3163SOL    HW220952   3.710   0.341   2.796 -1.7930 -0.2659  1.0080
 3164SOL     OW20953   3.386   3.856   7.300  0.6171 -0.4253  0.4236
 3164SOL    HW120954   3.423   3.796   7.234 -1.7445  1.9838 -3.0975
 3164SOL    HW220955   3.449   3.865   7.370  1.1451 -1.0156  0.0301
 3165SOL     OW20956   4.234   2.411   2.310  0.6511 -0.1855 -0.6408
 3165SOL    HW120957   4.267   2.370   2.230 -1.7786 -0.7097 -1.3719
 3165SOL    HW220958   4.287   2.489   2.326  1.5528 -1.2815  1.8641
 3166SOL     OW20959   1.227   3.464   7.483  0.6056 -0.5180  0.6331
 3166SOL    HW120960   1.193   3.541   7.438  3.2479 -0.1032 -0.6577
 3166SOL    HW220961   1.146   3.423   7.512 -1.5055  2.2333 -1.3543
 3167SOL     OW20962   0.904   3.954   6.843 -0.3611  0.0075  0.1371
 3167SOL    HW120963   0.909   3.928   6.935  0.5704  2.0238  0.6633
 3167SOL    HW220964   0.950   3.887   6.794  0.1537  0.8345 -0.5160
 3168SOL     OW20965   0.442   4.375   6.973 -0.4456 -0.2716  0.3867
 3168SOL    HW120966   0.526   4.381   6.927 -0.5773 -0.4519  0.1215
 3168SOL    HW220967   0.393   4.438   6.920 -1.9736 -0.0380  2.0912
 3169SOL     OW20968   2.805   2.442   4.385  0.5338 -0.1613  0.0880
 3169SOL    HW120969   2.769   2.354   4.385 -0.6045  0.3015 -1.6333
 3169SOL    HW220970   2.852   2.444   4.301  0.4431  0.1306  0.0445
 3170SOL     OW20971   3.439   0.479  13.369 -0.5108 -0.0773  0.1256
 3170SOL    HW120972   3.494   0.403  13.384 -0.4602 -0.3932 -1.7205
 3170SOL    HW220973   3.360   0.458  13.419 -1.3721  1.1566 -0.7049
 3171SOL     OW20974   0.325   0.883   7.327 -0.5342 -0.1317  0.2250
 3171SOL    HW120975   0.367   0.951   7.274 -0.3474 -1.1546 -0.9348
 3171SOL    HW220976   0.266   0.936   7.380 -0.4826  0.8186 -0.6576
 3172SOL     OW20977   3.792   0.786   3.812 -0.3248 -0.5325 -0.1329
 3172SOL    HW120978   3.870   0.836   3.788  0.4045 -0.9813  1.3176
 3172SOL    HW220979   3.757   0.787   3.723 -1.4045  1.3677  0.3132
 3173SOL     OW20980   3.287   1.034  12.397 -0.9138  0.1402 -0.1266
 3173SOL    HW120981   3.282   1.083  12.479 -0.9550 -1.2382  0.6985
 3173SOL    HW220982   3.354   1.086  12.353 -2.1679  0.2706 -1.9177
 3174SOL     OW20983   0.364   1.365   8.525  0.0773 -0.5372 -0.2186
 3174SOL    HW120984   0.341   1.304   8.455  0.6545  1.3520 -2.0571
 3174SOL    HW220985   0.409   1.427   8.467  1.1908 -0.3628  0.8442
 3175SOL     OW20986   3.512   3.972   8.589 -0.6720  0.1683 -0.0554
 3175SOL    HW120987   3.522   3.947   8.497  0.3055  2.4290 -0.5693
 3175SOL    HW220988   3.434   4.026   8.598 -1.6212 -1.2353  0.1657
 3176SOL     OW20989   4.386   4.493   1.909 -0.3462 -0.0946 -0.5049
 3176SOL    HW120990   4.442   4.458   1.840 -0.8022  2.1380 -1.9882
 3176SOL    HW220991   4.428   4.579   1.916  0.2815 -0.5408  1.3110
 3177SOL     OW20992   4.639   1.794   9.642 -0.0117 -0.1486  0.1743
 3177SOL    HW120993   4.682   1.739   9.708 -0.1156  0.0611  0.4194
 3177SOL    HW220994   4.578   1.741   9.591 -0.0322 -0.3581  0.4190
 3178SOL     OW20995   4.392   2.238   3.220 -0.1580 -0.0119 -0.5268
 3178SOL    HW120996   4.389   2.292   3.141  1.1175 -0.1491 -0.6650
 3178SOL    HW220997   4.305   2.198   3.225  0.2658 -0.6438  1.7478
 3179SOL     OW20998   3.858   0.309   6.579 -0.3421 -0.4326  0.1365
 3179SOL    HW120999   3.853   0.336   6.487 -2.2682  2.8301  1.1859
 3179SOL    HW221000   3.821   0.222   6.566 -1.1944 -0.0869  0.2466
 3180SOL     OW21001   0.424   0.933   8.861  0.1122 -0.2564  0.2179
 3180SOL    HW121002   0.441   1.024   8.836  0.8690 -0.3341  0.4649
 3180SOL    HW221003   0.412   0.946   8.955  2.3398 -1.3232  0.6555
 3181SOL     OW21004   2.141   4.455   8.941 -1.1817  0.0637  0.3538
 3181SOL    HW121005   2.114   4.544   8.964 -2.0162 -0.4363  1.3088
 3181SOL    HW221006   2.157   4.413   9.025 -1.8648 -0.1113  0.3890
 3182SOL     OW21007   4.289   1.830  17.584 -0.3976  0.4642  0.0953
 3182SOL    HW121008   4.288   1.770  17.659  2.0280  1.0612  0.6178
 3182SOL    HW221009   4.198   1.858  17.584 -0.6129 -0.2138  1.2904
 3183SOL     OW21010   1.772   1.943   5.677 -0.5094  0.0558  0.0861
 3183SOL    HW121011   1.757   1.861   5.631  1.3374  0.5097 -1.3460
 3183SOL    HW221012   1.695   2.000   5.665 -1.9970 -1.9250  0.3199
 3184SOL     OW21013   1.329   3.292   2.084  0.5459 -0.0618  0.4812
 3184SOL    HW121014   1.330   3.197   2.100 -2.0158 -0.2185 -0.4010
 3184SOL    HW221015   1.236   3.310   2.075  0.1061 -2.3311  0.5869
 3185SOL     OW21016   2.100   3.938  10.349 -0.5132  0.1032  0.0786
 3185SOL    HW121017   2.174   3.997  10.357  1.5532 -2.2632 -1.6026
 3185SOL    HW221018   2.047   3.992  10.290 -0.4291  0.6549  0.5151
 3186SOL     OW21019   3.462   4.192  10.102 -0.9508 -0.6644 -0.1698
 3186SOL    HW121020   3.424   4.177  10.189 -0.4715 -0.9855 -0.0162
 3186SOL    HW221021   3.389   4.166  10.046 -1.9816 -2.6207  2.0719
 3187SOL     OW21022   1.881   4.338   3.727 -0.5944 -0.2284  0.7059
 3187SOL    HW121023   1.914   4.330   3.638 -1.3128  0.0326  0.4189
 3187SOL    HW221024   1.791   4.312   3.709 -0.6124  0.4181 -0.0926
 3188SOL     OW21025   1.548   3.549   5.961  0.1794 -0.0217 -0.9068
 3188SOL    HW121026   1.610   3.618   5.984 -0.6874  1.0958 -1.9311
 3188SOL    HW221027   1.541   3.512   6.049  0.1503  0.9554 -0.4965
 3189SOL     OW21028   3.660   1.549   2.642 -0.4472  0.2839 -0.5281
 3189SOL    HW121029   3.749   1.558   2.608 -0.8110  2.2683 -0.9856
 3189SOL    HW221030   3.640   1.637   2.675  0.3874 -0.0380  0.7975
 3190SOL     OW21031   2.255   3.908   0.329 -0.3761 -0.0853 -0.1793
 3190SOL    HW121032   2.259   3.902   0.233  2.4525 -0.2738 -0.0517
 3190SOL    HW221033   2.226   3.999   0.334 -0.4194 -0.1768  1.1346
 3191SOL     OW21034   0.383   3.813   3.322  0.5363 -0.1819 -0.2579
 3191SOL    HW121035   0.408   3.726   3.352  0.6665 -0.4912 -1.2558
 3191SOL    HW221036   0.390   3.867   3.401  3.6578  0.8423 -1.2318
 3192SOL     OW21037   1.245   2.732   3.082  0.2523  0.1903  0.8964
 3192SOL    HW121038   1.299   2.659   3.052 -1.0798 -0.5681  0.3484
 3192SOL    HW221039   1.300   2.752   3.158 -0.4603  0.4430  1.3424
 3193SOL     OW21040   0.349   3.734   1.941  0.1461 -0.7228 -0.2998
 3193SOL    HW121041   0.299   3.785   1.877  2.7940  1.1813 -0.8589
 3193SOL    HW221042   0.401   3.686   1.876  1.5338 -1.1080  1.0852
 3194SOL     OW21043   0.517   1.351   0.930  0.0300  0.5503 -0.1910
 3194SOL    HW121044   0.578   1.420   0.906  1.3848 -0.8007 -0.6614
 3194SOL    HW221045   0.549   1.285   0.868 -0.0236  0.9848 -0.6822
 3195SOL     OW21046   1.924   3.750   9.974  0.0570  0.0280 -0.4146
 3195SOL    HW121047   1.914   3.819  10.039  0.1095 -0.3134 -0.0428
 3195SOL    HW221048   1.854   3.685   9.987  0.4917 -0.1805  0.8544
 3196SOL     OW21049   0.458   3.682   5.448 -0.3214 -0.4901 -0.1343
 3196SOL    HW121050   0.452   3.590   5.420  2.1313 -1.3478  2.1755
 3196SOL    HW221051   0.368   3.700   5.476 -1.3278  0.0062 -3.6997
 3197SOL     OW21052   4.599   1.277   4.501 -0.9360 -0.4441  0.4764
 3197SOL    HW121053   4.639   1.209   4.447 -1.5638 -0.9160  0.6108
 3197SOL    HW221054   4.532   1.308   4.440 -0.6148  0.7761  0.7416
 3198SOL     OW21055   0.509   1.872   1.353  0.0815  0.3706  0.0345
 3198SOL    HW121056   0.534   1.961   1.329  0.9938  0.1119  0.0357
 3198SOL    HW221057   0.588   1.846   1.399  1.1657 -0.7726 -2.4891
 3199SOL     OW21058   0.459   3.449   7.264  0.0439 -0.7959 -0.4075
 3199SOL    HW121059   0.380   3.490   7.228 -0.0189 -0.7679 -0.2416
 3199SOL    HW221060   0.434   3.361   7.233 -0.9356  0.4004 -3.0104
 3200SOL     OW21061   4.299   2.009  11.815 -0.1733  0.5457 -0.0331
 3200SOL    HW121062   4.297   2.067  11.891  1.0231  1.1786 -0.4904
 3200SOL    HW221063   4.381   2.018  11.765  0.7050 -2.3816  0.8460
 3201SOL     OW21064   4.403   2.401  15.145  0.2801  0.1257 -0.5285
 3201SOL    HW121065   4.338   2.436  15.206 -2.3698 -1.4449 -2.3823
 3201SOL    HW221066   4.416   2.314  15.183 -3.0219  1.0321  2.6368
 3202SOL     OW21067   2.657   0.762   3.415 -0.5251  0.0193 -0.1149
 3202SOL    HW121068   2.718   0.835   3.409 -1.3377  0.8276  1.5245
 3202SOL    HW221069   2.597   0.785   3.486  2.2164  0.5264  2.0033
 3203SOL     OW21070   1.735   2.745  17.501  0.2783  0.5705  0.8560
 3203SOL    HW121071   1.779   2.661  17.489 -0.6586  0.0156  1.2937
 3203SOL    HW221072   1.654   2.723  17.547  0.6999 -0.0720  1.2846
 3204SOL     OW21073   4.411   0.705   2.912 -0.6219  0.3925 -0.0849
 3204SOL    HW121074   4.444   0.715   2.823  1.4554  0.7815  0.7381
 3204SOL    HW221075   4.353   0.782   2.910  0.1203  0.9433 -0.2169
 3205SOL     OW21076   3.476   4.685   9.937  0.0041  0.5336  0.0976
 3205SOL    HW121077   3.443   4.662  10.024 -0.7191 -3.0112 -1.1278
 3205SOL    HW221078   3.495   4.596   9.907 -1.7115  0.2822 -0.2563
 3206SOL     OW21079   0.643   0.507  10.816  0.0174  0.1993 -0.3149
 3206SOL    HW121080   0.616   0.475  10.902  1.5950  0.8465  0.4250
 3206SOL    HW221081   0.614   0.598  10.820  1.6938  0.7354 -0.1037
 3207SOL     OW21082   3.062   0.496   4.044 -0.5779  0.1329 -0.1030
 3207SOL    HW121083   3.098   0.417   4.086 -1.4098 -0.1017  0.1749
 3207SOL    HW221084   2.994   0.525   4.105 -1.9233  0.1358 -1.6099
 3208SOL     OW21085   3.049   4.672   4.953  0.0638 -0.8258 -0.0791
 3208SOL    HW121086   3.013   0.004   4.883  0.7368  1.3296  1.2607
 3208SOL    HW221087   3.075   4.588   4.917 -0.4851 -2.1971  2.7291
 3209SOL     OW21088   1.787   1.087  14.668 -0.2971 -0.1616  0.4367
 3209SOL    HW121089   1.807   1.018  14.605  1.7993 -1.5105  2.5542
 3209SOL    HW221090   1.703   1.058  14.702  0.5412 -0.4131  2.2930
 3210SOL     OW21091   2.631   1.292   5.871  0.8080 -0.2218  0.1325
 3210SOL    HW121092   2.672   1.378   5.863 -2.1686  1.3504  1.6460
 3210SOL    HW221093   2.650   1.258   5.784 -0.2529 -1.4796  0.3829
 3211SOL     OW21094   4.516   3.528   7.639  0.3645 -0.2102 -0.3394
 3211SOL    HW121095   4.423   3.525   7.616  0.4859 -2.8401 -0.5085
 3211SOL    HW221096   4.565   3.539   7.557  0.4433 -2.1044 -0.5509
 3212SOL     OW21097   4.642   2.556   5.683 -0.7371  0.2652 -0.0341
 3212SOL    HW121098   4.621   2.627   5.622  2.6285  0.3345 -1.1000
 3212SOL    HW221099   4.625   2.591   5.770 -1.4232 -0.1580 -0.0027
 3213SOL     OW21100   2.289   0.667   6.223 -0.2407 -0.9763 -0.9788
 3213SOL    HW121101   2.285   0.681   6.317 -2.1245  0.1744 -1.2227
 3213SOL    HW221102   2.380   0.670   6.196  0.1247 -1.9178  0.1656
 3214SOL     OW21103   2.501   4.362   3.757  0.4557  0.3715 -0.3696
 3214SOL    HW121104   2.460   4.277   3.737  3.6053 -0.5617 -2.8412
 3214SOL    HW221105   2.497   4.394   3.667 -0.9620 -1.5275 -0.9893
 3215SOL     OW21106   4.351   4.456  17.558 -0.0866 -0.2140 -0.1094
 3215SOL    HW121107   4.401   4.468  17.477 -1.5048 -2.2017 -1.2877
 3215SOL    HW221108   4.403   4.488  17.631 -1.4155 -1.5941  1.4237
 3216SOL     OW21109   3.693   4.622  16.163 -0.0257 -0.2821 -0.0352
 3216SOL    HW121110   3.760   4.688  16.182  1.3447 -1.5380 -0.4360
 3216SOL    HW221111   3.719   4.555  16.226 -0.4524 -0.6847 -0.2823
 3217SOL     OW21112   1.306   0.749   6.127  0.6520  0.0938 -0.4481
 3217SOL    HW121113   1.335   0.725   6.214  0.0974  0.3982 -0.1762
 3217SOL    HW221114   1.376   0.712   6.074  0.4812 -0.1937 -0.4736
 3218SOL     OW21115   0.155   0.633   7.905  0.0610  0.0343  0.1338
 3218SOL    HW121116   0.063   0.638   7.877 -0.6093  0.3790  2.3296
 3218SOL    HW221117   0.153   0.723   7.940 -1.2382 -0.4725  1.3755
 3219SOL     OW21118   0.907   0.777   7.588  0.6091 -0.3097  0.1307
 3219SOL    HW121119   0.946   0.790   7.675  0.7989  2.4833 -0.3863
 3219SOL    HW221120   0.883   0.864   7.558  1.1693 -0.0486  0.4394
 3220SOL     OW21121   2.654   1.964   1.135  0.6149 -0.1735 -0.0167
 3220SOL    HW121122   2.645   1.876   1.097  1.0798 -0.5044  0.6596
 3220SOL    HW221123   2.683   2.009   1.056 -1.8174  0.9706 -0.2803
 3221SOL     OW21124   3.133   3.271   1.865  0.2473  0.2641  0.0728
 3221SOL    HW121125   3.105   3.350   1.912  1.2931 -0.8283  2.5534
 3221SOL    HW221126   3.055   3.250   1.814  0.4175  0.8888 -0.4518
 3222SOL     OW21127   0.429   2.307  11.307 -0.3638 -0.0935 -0.4729
 3222SOL    HW121128   0.342   2.267  11.313  0.8085 -2.5854 -0.3484
 3222SOL    HW221129   0.467   2.247  11.242 -3.6656  1.0889 -3.5095
 3223SOL     OW21130   3.384   1.502   6.947 -0.4285 -0.3002  0.3726
 3223SOL    HW121131   3.329   1.524   6.872  0.7990 -1.2761 -0.8294
 3223SOL    HW221132   3.365   1.410   6.966  0.4127 -0.4044  0.7151
 3224SOL     OW21133   2.894   0.646   2.337  0.1432 -0.0859 -0.7415
 3224SOL    HW121134   2.858   0.718   2.284 -0.9718  0.6160  0.9908
 3224SOL    HW221135   2.907   0.587   2.262 -0.1030 -0.3513 -0.5745
 3225SOL     OW21136   1.879   2.945  10.545 -0.1364  0.3525 -0.0149
 3225SOL    HW121137   1.795   2.987  10.565 -1.1307 -0.8997 -1.5318
 3225SOL    HW221138   1.902   2.988  10.462  1.5871 -3.6017 -1.5605
 3226SOL     OW21139   3.794   0.248  11.861  0.1305  0.3371 -0.3473
 3226SOL    HW121140   3.885   0.275  11.859 -0.4132  2.3437  1.3987
 3226SOL    HW221141   3.783   0.206  11.776  2.4122  0.2264 -0.5715
 3227SOL     OW21142   3.739   1.486   5.968 -0.0001  0.5974  0.4912
 3227SOL    HW121143   3.644   1.484   5.957  0.1240  0.9203 -0.6118
 3227SOL    HW221144   3.766   1.476   5.877 -0.2818 -1.2318  0.6044
 3228SOL     OW21145   2.021   2.719   9.015 -0.0779 -0.0750  0.0832
 3228SOL    HW121146   1.944   2.752   9.063  1.8013  1.2061  2.1976
 3228SOL    HW221147   2.088   2.776   9.054 -1.4559  0.8968  1.0634
 3229SOL     OW21148   1.246   0.556  10.761  0.0083 -0.0003  0.2710
 3229SOL    HW121149   1.189   0.507  10.702 -0.2271 -0.1224  0.6015
 3229SOL    HW221150   1.331   0.547  10.719  0.1339 -0.3562  0.6065
 3230SOL     OW21151   1.677   2.968   6.641 -0.1969 -0.5032 -0.0031
 3230SOL    HW121152   1.756   3.013   6.671 -1.1266  0.4723  0.9946
 3230SOL    HW221153   1.692   2.964   6.547 -0.1452  3.7400 -0.1814
 3231SOL     OW21154   1.747   3.547   5.224  0.0895  0.0324 -0.1205
 3231SOL    HW121155   1.798   3.557   5.144 -2.8920  1.5659 -1.8419
 3231SOL    HW221156   1.815   3.528   5.288 -1.2564 -0.3929  1.1864
 3232SOL     OW21157   1.956   3.342  11.287  0.1001  0.0011 -0.2924
 3232SOL    HW121158   2.029   3.351  11.226 -0.2607 -0.1676 -0.7500
 3232SOL    HW221159   1.973   3.409  11.353  1.0327 -0.3721 -0.1460
 3233SOL     OW21160   1.493   2.039   5.642  0.0772  0.4629 -0.3156
 3233SOL    HW121161   1.428   2.018   5.709  2.1477 -0.5553  1.3607
 3233SOL    HW221162   1.443   2.103   5.593  0.8090  0.8681 -0.5351
 3234SOL     OW21163   1.648   2.589   4.444  0.2894 -0.0863 -0.5257
 3234SOL    HW121164   1.626   2.669   4.396 -1.0318  0.0526  0.3108
 3234SOL    HW221165   1.742   2.594   4.430  0.6002 -0.3812  1.4287
 3235SOL     OW21166   1.187   2.900  10.294 -0.2181 -0.0542 -0.2029
 3235SOL    HW121167   1.189   2.821  10.348 -0.1251  0.2790  0.2761
 3235SOL    HW221168   1.094   2.922  10.296 -0.7601 -2.2919 -0.1676
 3236SOL     OW21169   4.667   2.607   7.641  0.1632  0.4890  0.1226
 3236SOL    HW121170   4.707   2.521   7.630  1.2693  0.9819  0.2270
 3236SOL    HW221171   4.638   2.589   7.731 -0.0337 -2.7868 -0.6033
 3237SOL     OW21172   4.252   1.509  11.310 -0.1683 -0.4382  1.2146
 3237SOL    HW121173   4.273   1.422  11.276  1.0335  0.6224 -0.7814
 3237SOL    HW221174   4.199   1.548  11.240 -0.7868 -0.0638  1.8929
 3238SOL     OW21175   0.811   3.287   3.731 -0.4089  0.0285 -0.3684
 3238SOL    HW121176   0.754   3.319   3.800  0.6828  1.9109 -0.3508
 3238SOL    HW221177   0.845   3.367   3.690  0.9400  1.0176  2.6917
 3239SOL     OW21178   1.839   1.283  15.383 -0.5807 -0.2517 -0.2979
 3239SOL    HW121179   1.771   1.292  15.316 -0.4487 -0.4869 -0.4607
 3239SOL    HW221180   1.916   1.286  15.327 -0.9479 -0.7809 -0.8228
 3240SOL     OW21181   1.007   1.173  12.511  0.3343  0.4042 -0.3514
 3240SOL    HW121182   0.976   1.127  12.589 -0.3371 -0.7337 -1.2941
 3240SOL    HW221183   1.024   1.104  12.447 -2.6385  0.6756 -1.4530
 3241SOL     OW21184   0.783   2.794  12.762 -0.1455  0.1077 -0.0104
 3241SOL    HW121185   0.722   2.807  12.835  0.7124  0.0146  0.7150
 3241SOL    HW221186   0.854   2.854  12.782 -0.4638  1.0043 -1.5698
 3242SOL     OW21187   2.262   3.657  14.436  0.8772  0.1086 -0.1071
 3242SOL    HW121188   2.195   3.658  14.504 -1.0541  0.8573 -2.0219
 3242SOL    HW221189   2.320   3.593  14.478  0.6354  0.8429  1.3557
 3243SOL     OW21190   2.246   0.073   0.068 -0.7675 -0.2525 -0.2616
 3243SOL    HW121191   2.239   0.000   0.006 -0.6519  0.8422 -1.5743
 3243SOL    HW221192   2.287   0.030   0.142  1.0442  0.7508 -0.6747
 3244SOL     OW21193   3.807   3.807   7.034  0.4622 -0.4909 -0.4485
 3244SOL    HW121194   3.876   3.748   7.003  0.7866 -0.3702  0.0283
 3244SOL    HW221195   3.765   3.747   7.095 -0.2809  2.4909  1.9633
 3245SOL     OW21196   4.705   2.622   6.557 -0.2161  0.0516  0.1297
 3245SOL    HW121197   4.719   2.599   6.465  0.6416  1.6746 -0.1336
 3245SOL    HW221198   4.670   2.711   6.556  0.3192  0.2577 -0.1286
 3246SOL     OW21199   3.338   4.142  15.475  0.0059 -0.4018 -0.3164
 3246SOL    HW121200   3.295   4.098  15.402 -4.0573  1.0704  1.1939
 3246SOL    HW221201   3.373   4.076  15.536 -0.5948 -2.5247 -2.2821
 3247SOL     OW21202   0.310   2.719  14.189 -0.6749  0.0181  0.3846
 3247SOL    HW121203   0.340   2.779  14.257 -0.4562  0.4653 -0.1019
 3247SOL    HW221204   0.241   2.670  14.234 -0.7423 -0.2994 -0.0641
 3248SOL     OW21205   2.614   1.062   4.742 -0.3134  0.2335 -0.3962
 3248SOL    HW121206   2.615   1.095   4.832  2.1049  1.8558 -1.0199
 3248SOL    HW221207   2.700   1.091   4.711 -0.1356  1.7826  1.5693
 3249SOL     OW21208   0.355   3.244   5.580  0.2646 -0.0827  0.1227
 3249SOL    HW121209   0.311   3.252   5.665 -0.4778 -1.5303 -0.1156
 3249SOL    HW221210   0.304   3.168   5.550 -1.5442  2.6552 -3.7726
 3250SOL     OW21211   3.771   2.546  10.810 -0.0162 -0.0745 -0.1546
 3250SOL    HW121212   3.693   2.602  10.815  0.4305  0.5054  0.2819
 3250SOL    HW221213   3.841   2.609  10.793 -1.4579  1.7830  0.7911
 3251SOL     OW21214   1.483   0.676   3.961 -0.4179  0.0689 -0.1935
 3251SOL    HW121215   1.459   0.735   3.890  4.2449  1.8658 -0.2969
 3251SOL    HW221216   1.501   0.739   4.031  3.1174 -0.2086 -0.8079
 3252SOL     OW21217   1.256   0.775   3.495  0.4120  0.4950  0.1533
 3252SOL    HW121218   1.170   0.741   3.521  1.2711 -1.4098  0.4777
 3252SOL    HW221219   1.272   0.708   3.428 -0.5595  2.9851 -2.5927
 3253SOL     OW21220   3.008   3.751   3.736 -0.4595  0.1950 -0.0782
 3253SOL    HW121221   3.077   3.691   3.765 -0.5597 -0.4538 -1.1967
 3253SOL    HW221222   2.980   3.727   3.648  1.4143  1.8928 -1.1572
 3254SOL     OW21223   3.740   0.758   1.859 -0.0282 -0.4183 -0.1460
 3254SOL    HW121224   3.770   0.774   1.948  2.3441 -0.3041 -0.9703
 3254SOL    HW221225   3.645   0.745   1.853 -0.1055 -0.0810  0.4031
 3255SOL     OW21226   0.633   2.722   5.218 -0.6766 -0.3230 -0.3202
 3255SOL    HW121227   0.693   2.768   5.160  1.8185 -4.1480 -0.8250
 3255SOL    HW221228   0.628   2.640   5.167 -0.3844  0.1692 -1.1381
 3256SOL     OW21229   2.748   2.307   8.875  0.5796  0.0265  0.0299
 3256SOL    HW121230   2.755   2.311   8.780  0.4781  0.6021  0.0486
 3256SOL    HW221231   2.669   2.254   8.881 -0.3883  1.2209 -2.1568
 3257SOL     OW21232   4.059   0.044  12.883 -1.1547 -0.7140 -0.3483
 3257SOL    HW121233   4.018   4.682  12.871 -1.0142 -0.6639 -1.2393
 3257SOL    HW221234   4.149   0.023  12.855 -1.2020  1.4274 -2.1392
 3258SOL     OW21235   2.319   3.945  14.297 -0.4344  0.2925  0.7094
 3258SOL    HW121236   2.242   3.997  14.274 -0.6718 -1.1492 -1.7242
 3258SOL    HW221237   2.288   3.903  14.378  2.2060 -0.6130  1.2525
 3259SOL     OW21238   1.917   0.056   7.223 -0.6834  0.3657 -0.2462
 3259SOL    HW121239   1.952   0.143   7.240  0.4829 -0.5683  2.0581
 3259SOL    HW221240   1.972   0.037   7.147 -0.2194  3.7857 -0.7803
 3260SOL     OW21241   3.438   1.267   7.106 -0.1499 -0.3440 -0.1069
 3260SOL    HW121242   3.504   1.205   7.137  1.3211  0.0274 -2.4726
 3260SOL    HW221243   3.429   1.243   7.013  0.7327  1.9619 -0.7803
 3261SOL     OW21244   2.472   2.906  14.309  0.0438  0.0402  0.0475
 3261SOL    HW121245   2.403   2.861  14.259  0.5006  2.8568 -3.1098
 3261SOL    HW221246   2.497   2.834  14.367  2.2901  1.3377  0.6771
 3262SOL     OW21247   3.517   3.908   3.119 -0.2115  0.1737  0.3947
 3262SOL    HW121248   3.585   3.848   3.089  0.2969  0.6488  0.5918
 3262SOL    HW221249   3.567   3.989   3.135  2.3766 -1.5299  0.9509
 3263SOL     OW21250   4.634   1.429   8.691 -0.3749 -0.2372 -0.4142
 3263SOL    HW121251   4.712   1.474   8.660 -0.6279  0.0307 -0.6553
 3263SOL    HW221252   4.677   1.343   8.692  0.5178  0.1920 -2.3475
 3264SOL     OW21253   0.415   0.054   0.697  0.8521 -0.6532  0.2645
 3264SOL    HW121254   0.460   0.096   0.623 -0.6574  0.6634  0.0794
 3264SOL    HW221255   0.335   0.106   0.700  0.1151 -1.6600 -2.1963
 3265SOL     OW21256   0.782   4.029   9.378 -0.6324  0.5393  0.2632
 3265SOL    HW121257   0.812   3.955   9.325  0.2304 -0.3420  1.9792
 3265SOL    HW221258   0.850   4.031   9.445  0.3197 -1.9360 -0.6355
 3266SOL     OW21259   1.547   0.759   9.028 -0.0539 -0.2679  0.1347
 3266SOL    HW121260   1.538   0.791   9.118 -2.8900 -1.3788  0.2400
 3266SOL    HW221261   1.484   0.690   9.051  0.0023  0.2085  1.7756
 3267SOL     OW21262   1.321   2.665   7.833 -0.5154  0.6693  0.2978
 3267SOL    HW121263   1.397   2.662   7.891  0.1567  0.5434 -0.5728
 3267SOL    HW221264   1.332   2.752   7.795 -2.2716  0.4461 -0.7406
 3268SOL     OW21265   1.746   3.288   4.524 -0.5090 -0.4908 -0.2231
 3268SOL    HW121266   1.724   3.301   4.616 -0.7191  0.4035 -0.3923
 3268SOL    HW221267   1.840   3.271   4.532  0.1951  3.6206  0.3234
 3269SOL     OW21268   0.958   1.034   7.386  0.1876  0.0611 -0.3658
 3269SOL    HW121269   0.896   1.101   7.414  0.1060 -1.2478  2.5880
 3269SOL    HW221270   0.901   0.980   7.332 -0.6181 -0.8445  1.3952
 3270SOL     OW21271   2.042   1.475   5.687 -0.3030  0.3303  0.6108
 3270SOL    HW121272   2.037   1.385   5.654 -2.1536  0.6995 -0.1399
 3270SOL    HW221273   2.024   1.527   5.609 -0.7462 -0.0533  0.4529
 3271SOL     OW21274   1.027   3.220   5.057 -0.4497 -0.1985 -0.5515
 3271SOL    HW121275   1.120   3.243   5.052 -0.7400  1.1845  0.5861
 3271SOL    HW221276   1.016   3.242   5.150  2.4284 -0.5207 -0.1391
 3272SOL     OW21277   0.604   1.179   3.194  0.3144  0.5365  0.1951
 3272SOL    HW121278   0.576   1.160   3.105 -0.4064  1.3202  0.2549
 3272SOL    HW221279   0.580   1.103   3.247 -1.3599 -0.2768 -1.7438
 3273SOL     OW21280   2.105   3.277   4.900 -0.3829 -0.7768  0.0756
 3273SOL    HW121281   2.190   3.313   4.874  0.5453 -1.4642  2.1345
 3273SOL    HW221282   2.138   3.222   4.971  1.9891  1.1633  0.5019
 3274SOL     OW21283   4.528   4.278   5.880  0.1549 -0.1839  0.6965
 3274SOL    HW121284   4.530   4.217   5.807  0.9102  2.7711 -1.7614
 3274SOL    HW221285   4.463   4.342   5.851  0.1370  0.5386  2.3188
 3275SOL     OW21286   4.614   2.158   3.676  0.0418 -0.4942  0.7535
 3275SOL    HW121287   4.602   2.184   3.585  1.1003  2.3287  1.4304
 3275SOL    HW221288   4.529   2.118   3.694 -1.0946  1.9288  0.8270
 3276SOL     OW21289   2.436   4.354   7.845 -0.0502 -0.1323 -0.3002
 3276SOL    HW121290   2.514   4.375   7.897 -1.7863 -1.2892  2.7241
 3276SOL    HW221291   2.376   4.391   7.909 -2.3056 -1.7480 -1.5002
 3277SOL     OW21292   3.230   0.114  16.361  0.3458  0.2397 -0.3142
 3277SOL    HW121293   3.315   0.088  16.324  0.1856  0.9921 -1.2103
 3277SOL    HW221294   3.223   0.202  16.325 -0.4769  0.0028 -0.7292
 3278SOL     OW21295   2.923   4.518   8.894  0.1500  0.3668 -0.2041
 3278SOL    HW121296   2.937   4.585   8.960 -2.6794  0.5192  0.2465
 3278SOL    HW221297   2.871   4.569   8.831  2.1464  1.1365 -1.2169
 3279SOL     OW21298   1.884   3.784   1.835 -0.2903 -0.5826 -0.5187
 3279SOL    HW121299   1.978   3.791   1.850 -0.1430  0.7835 -2.0964
 3279SOL    HW221300   1.872   3.689   1.845 -3.1008 -0.1584  0.1639
 3280SOL     OW21301   4.310   4.523  16.836  0.0766 -0.5412  0.2708
 3280SOL    HW121302   4.401   4.511  16.865  1.2315  1.1991 -2.5759
 3280SOL    HW221303   4.320   4.570  16.753 -1.3556  0.8365  0.8894
 3281SOL     OW21304   3.683   2.311  12.648  0.1267  0.0291 -0.0404
 3281SOL    HW121305   3.721   2.227  12.673  0.6868 -0.1157 -1.3799
 3281SOL    HW221306   3.740   2.373  12.694  0.2675 -1.4498  1.7540
 3282SOL     OW21307   3.471   2.495  16.819 -0.0220  0.3012  0.8625
 3282SOL    HW121308   3.384   2.535  16.809  0.0964 -0.1704 -2.0037
 3282SOL    HW221309   3.534   2.566  16.830  1.3129 -0.3923 -2.2303
 3283SOL     OW21310   1.463   0.552   5.991  0.0399  1.1012 -0.0627
 3283SOL    HW121311   1.555   0.526   5.999  0.5356  2.4590 -1.3833
 3283SOL    HW221312   1.426   0.489   5.929 -1.1305 -0.0776  1.8292
 3284SOL     OW21313   4.580   4.160   0.931 -0.0193  0.4104  0.1276
 3284SOL    HW121314   4.505   4.211   0.960 -2.7628 -2.6125 -1.7698
 3284SOL    HW221315   4.561   4.167   0.838 -0.2591 -1.7176  0.0057
 3285SOL     OW21316   2.460   1.885  11.912 -0.4241 -0.2000 -0.2076
 3285SOL    HW121317   2.493   1.964  11.867  0.8996  1.1683  3.1709
 3285SOL    HW221318   2.541   1.836  11.923 -0.9688 -0.1968  3.5275
 3286SOL     OW21319   3.503   4.653   5.425  0.4642  0.0310  0.2813
 3286SOL    HW121320   3.492   4.715   5.353  0.7808  2.2840  2.1634
 3286SOL    HW221321   3.588   4.612   5.410 -0.3581 -1.3088 -0.7255
 3287SOL     OW21322   2.786   0.176  16.117  0.0977 -0.2964  0.6180
 3287SOL    HW121323   2.820   0.089  16.138  2.7609  0.0308 -2.3913
 3287SOL    HW221324   2.809   0.212  16.203  1.6838 -0.1386  0.1143
 3288SOL     OW21325   0.512   4.386   3.775 -0.6049 -0.2539  0.1936
 3288SOL    HW121326   0.433   4.439   3.764 -0.1338  0.6643  1.1728
 3288SOL    HW221327   0.521   4.378   3.870  1.1235  1.2439  0.1575
 3289SOL     OW21328   3.272   2.050  14.384 -0.0059  0.1301 -0.3071
 3289SOL    HW121329   3.215   1.984  14.422  1.0158 -1.5208 -1.6673
 3289SOL    HW221330   3.208   2.100  14.333  1.5462  3.0967  0.6261
 3290SOL     OW21331   3.808   2.865   5.717  0.6076  0.0441  0.4193
 3290SOL    HW121332   3.862   2.800   5.672 -0.1594  0.7618 -1.5486
 3290SOL    HW221333   3.859   2.880   5.797  0.2166 -1.4656  0.9448
 3291SOL     OW21334   3.031   3.138   8.922 -0.0032  0.3854  0.1409
 3291SOL    HW121335   3.006   3.131   9.014 -1.5002 -0.8622 -0.3512
 3291SOL    HW221336   3.073   3.054   8.909  0.5291  0.2898  2.5704
 3292SOL     OW21337   0.898   3.912   5.706 -0.7874 -0.6868  0.4975
 3292SOL    HW121338   0.964   3.977   5.728 -0.9993  0.7318 -2.9677
 3292SOL    HW221339   0.829   3.969   5.672  0.1249  0.8840  1.2807
 3293SOL     OW21340   2.869   2.380   4.069  0.4066  0.1179  0.3919
 3293SOL    HW121341   2.806   2.312   4.092  0.5242 -0.5060 -1.1476
 3293SOL    HW221342   2.851   2.382   3.975 -1.4503 -1.2290  0.7284
 3294SOL     OW21343   2.168   0.607   7.708 -0.2603 -0.1800  0.2124
 3294SOL    HW121344   2.126   0.531   7.668 -0.8863 -0.3673  1.2146
 3294SOL    HW221345   2.238   0.568   7.762 -0.1617  0.0983  0.2868
 3295SOL     OW21346   2.996   0.027   9.022 -0.3335  0.4752 -0.2149
 3295SOL    HW121347   3.056   0.076   8.965  0.7025 -0.0720  0.4149
 3295SOL    HW221348   2.912   0.070   9.003  0.7925  0.4240 -5.2960
 3296SOL     OW21349   4.093   1.594   7.882  0.6139  0.2785  0.3298
 3296SOL    HW121350   4.050   1.605   7.967  0.3133 -1.6810  0.4441
 3296SOL    HW221351   4.081   1.683   7.851 -0.3009 -0.1364 -0.5047
 3297SOL     OW21352   1.936   0.971   4.238 -0.3985 -0.2973  0.2166
 3297SOL    HW121353   1.943   0.882   4.274  2.2627 -0.7302 -1.3229
 3297SOL    HW221354   1.889   0.960   4.155 -0.9983  0.4255  0.4686
 3298SOL     OW21355   4.470   1.959   5.196 -0.1069  0.2532 -0.0402
 3298SOL    HW121356   4.452   1.888   5.135  0.8238 -1.2009  1.3966
 3298SOL    HW221357   4.407   1.938   5.265 -0.4208  1.0400 -0.0836
 3299SOL     OW21358   1.150   3.831   4.825  0.6258 -0.0117  0.0570
 3299SOL    HW121359   1.066   3.877   4.822  0.7378  0.3548  2.2013
 3299SOL    HW221360   1.171   3.813   4.734 -2.0179 -2.3609 -0.1137
 3300SOL     OW21361   1.627   3.067  14.341  0.3677 -0.0254  0.3289
 3300SOL    HW121362   1.674   3.088  14.260 -1.0616  1.3192 -0.1410
 3300SOL    HW221363   1.599   2.976  14.328  0.7876 -0.0074 -0.7405
 3301SOL     OW21364   0.151   2.237  13.315 -0.7041 -0.0128  0.3917
 3301SOL    HW121365   0.178   2.324  13.342  0.9976  0.1082 -1.7368
 3301SOL    HW221366   0.230   2.190  13.341 -0.4514 -0.6359 -1.5011
 3302SOL     OW21367   1.266   4.508   5.997  0.4115  0.5455  0.6216
 3302SOL    HW121368   1.311   4.549   6.070 -0.6599 -0.6521  1.9523
 3302SOL    HW221369   1.184   4.557   6.006 -0.4170 -0.5993 -0.6178
 3303SOL     OW21370   1.981   0.143   1.125 -0.0652  0.3221  0.0318
 3303SOL    HW121371   1.909   0.198   1.159  0.6241  0.4851  1.2420
 3303SOL    HW221372   2.054   0.161   1.184  0.4815 -1.7291 -0.0261
 3304SOL     OW21373   1.878   1.319   1.205 -0.3205 -0.1940 -0.6226
 3304SOL    HW121374   1.907   1.240   1.159  1.1024 -1.2191  2.0662
 3304SOL    HW221375   1.933   1.377   1.152 -1.1265  1.4691  0.3841
 3305SOL     OW21376   2.060   2.980   5.015  0.4615 -0.1797 -0.5363
 3305SOL    HW121377   2.003   3.008   4.944  0.4896  0.5133 -0.2789
 3305SOL    HW221378   2.145   3.001   4.977  1.6478 -1.6408  1.2545
 3306SOL     OW21379   3.550   0.920   4.262 -0.0240  0.6432  0.1550
 3306SOL    HW121380   3.498   0.986   4.307 -1.5282 -1.6743  1.8031
 3306SOL    HW221381   3.476   0.878   4.219  0.6493  0.1148 -0.4989
 3307SOL     OW21382   4.291   1.201   7.319  1.1162 -0.0852  0.6830
 3307SOL    HW121383   4.249   1.114   7.323 -1.9202  1.4635  2.3051
 3307SOL    HW221384   4.217   1.255   7.347  0.3339  0.1276 -1.7948
 3308SOL     OW21385   1.555   0.047   2.913 -0.2199  0.2016  0.5510
 3308SOL    HW121386   1.542   0.142   2.913  0.9503  0.3321 -3.1259
 3308SOL    HW221387   1.477   0.025   2.862  2.2542  0.3818 -3.2190
 3309SOL     OW21388   1.601   3.926  14.574  0.2222 -0.0894  0.6169
 3309SOL    HW121389   1.580   3.864  14.504  0.5208 -1.6636  1.9102
 3309SOL    HW221390   1.537   3.994  14.551 -1.2619 -0.9619  2.1723
 3310SOL     OW21391   2.108   3.073   2.321 -0.0938 -0.2170 -0.0263
 3310SOL    HW121392   2.091   3.143   2.258 -0.2319 -0.5489 -0.3581
 3310SOL    HW221393   2.025   3.083   2.367 -0.4738  1.8789 -1.1843
 3311SOL     OW21394   4.340   2.657   6.040 -0.2157 -0.2806  0.0569
 3311SOL    HW121395   4.298   2.603   5.972  0.2690 -2.2633  1.3226
 3311SOL    HW221396   4.290   2.618   6.112 -0.0407 -0.6018  0.0037
 3312SOL     OW21397   2.624   4.334   2.988 -0.2207  0.2805  0.1414
 3312SOL    HW121398   2.560   4.353   3.057  0.0250 -1.2320  0.7636
 3312SOL    HW221399   2.658   4.423   2.979  0.3577  0.0415 -0.0180
 3313SOL     OW21400   1.102   1.713  16.564 -0.7927  0.3419 -0.6572
 3313SOL    HW121401   1.101   1.764  16.483 -4.5515  0.9232 -0.2393
 3313SOL    HW221402   1.083   1.627  16.527  1.9616  0.6397 -2.7412
 3314SOL     OW21403   3.646   0.865   5.196  0.6454  0.0979  0.2081
 3314SOL    HW121404   3.565   0.841   5.241 -0.3102  1.7015 -0.6566
 3314SOL    HW221405   3.617   0.935   5.137 -2.8533 -0.9920  0.6208
 3315SOL     OW21406   2.358   1.865   8.240 -0.5828  0.2812 -0.1652
 3315SOL    HW121407   2.320   1.800   8.182 -1.1420 -1.7750  2.5278
 3315SOL    HW221408   2.328   1.824   8.321  1.7392 -0.1726  0.4653
 3316SOL     OW21409   1.698   1.659  10.896 -0.1407 -0.7706  0.3712
 3316SOL    HW121410   1.765   1.680  10.831  0.2516 -1.8181  0.4380
 3316SOL    HW221411   1.753   1.613  10.959  0.5759 -1.4613 -0.7689
 3317SOL     OW21412   3.353   3.753   2.161 -0.1033 -0.6587  0.0499
 3317SOL    HW121413   3.316   3.672   2.127 -0.2845 -0.8398  0.6635
 3317SOL    HW221414   3.359   3.727   2.253  1.1038  0.4842  0.3148
 3318SOL     OW21415   2.676   1.456   0.418  0.1653 -0.1533  0.2651
 3318SOL    HW121416   2.589   1.416   0.407  1.0425 -1.8414 -0.5454
 3318SOL    HW221417   2.671   1.532   0.361  1.6535 -0.9290 -0.9099
 3319SOL     OW21418   4.337   2.378  14.838  0.0552 -0.1548 -0.1543
 3319SOL    HW121419   4.357   2.317  14.909  0.5583  0.7881  0.5242
 3319SOL    HW221420   4.391   2.454  14.862 -1.9169  1.3733 -0.5106
 3320SOL     OW21421   3.666   3.950  10.119  0.4992  0.0819 -0.3547
 3320SOL    HW121422   3.609   3.911  10.185  0.3294  2.0592  0.6875
 3320SOL    HW221423   3.699   3.869  10.080  1.0266  0.2383 -0.2291
 3321SOL     OW21424   3.151   2.525  14.194 -0.1947 -0.2450  0.2233
 3321SOL    HW121425   3.221   2.460  14.204  0.7685  0.5677 -1.1347
 3321SOL    HW221426   3.067   2.481  14.190 -0.3456 -0.2743  3.6880
 3322SOL     OW21427   2.168   1.849   5.833  0.1674 -0.3058 -0.4774
 3322SOL    HW121428   2.236   1.797   5.791 -0.7044  0.2802 -2.6392
 3322SOL    HW221429   2.203   1.848   5.922  0.5387  0.0490 -0.6232
 3323SOL     OW21430   4.300   2.144  11.331  0.1973 -0.3481  0.7264
 3323SOL    HW121431   4.391   2.172  11.322 -0.1024  0.0021 -1.2609
 3323SOL    HW221432   4.274   2.213  11.392  0.3275 -2.0317  2.7117
 3324SOL     OW21433   3.711   0.115  15.576  0.4705 -0.0839  0.5116
 3324SOL    HW121434   3.787   0.159  15.615 -0.1165  1.5497 -0.1870
 3324SOL    HW221435   3.652   0.187  15.554 -1.0688 -0.7511  2.4532
 3325SOL     OW21436   3.525   2.210   8.548 -0.2179 -0.4004  0.2709
 3325SOL    HW121437   3.574   2.174   8.622 -1.3208 -1.7911  0.3231
 3325SOL    HW221438   3.526   2.300   8.582  1.7085  0.4923 -2.2092
 3326SOL     OW21439   3.855   0.727  14.011  0.0054  0.0591 -0.2352
 3326SOL    HW121440   3.796   0.662  14.051 -1.5588  2.5161  1.4335
 3326SOL    HW221441   3.868   0.788  14.083  2.0959  0.1454 -0.6958
 3327SOL     OW21442   1.949   0.876   3.650  0.2152 -0.4871 -0.6764
 3327SOL    HW121443   2.012   0.805   3.634 -0.2191 -0.9098 -0.5180
 3327SOL    HW221444   2.001   0.953   3.627 -0.1367 -0.2852 -0.7832
 3328SOL     OW21445   0.654   1.845   6.434  0.2115  0.3478  0.1360
 3328SOL    HW121446   0.608   1.869   6.514  0.7506  0.7089  0.3308
 3328SOL    HW221447   0.740   1.816   6.464  0.5374  1.9448  0.7002
 3329SOL     OW21448   4.321   3.541   2.531  0.3115  0.0156 -0.0525
 3329SOL    HW121449   4.244   3.572   2.578  0.1990  0.1678 -0.3400
 3329SOL    HW221450   4.341   3.459   2.575  0.3701 -0.0871 -0.2690
 3330SOL     OW21451   0.612   4.007  17.042 -0.2205  0.3870 -0.1707
 3330SOL    HW121452   0.576   3.991  17.129 -0.4926  1.4625 -0.0916
 3330SOL    HW221453   0.533   4.044  17.003  0.7224  1.8220 -0.7403
 3331SOL     OW21454   1.725   2.142  15.908  0.0712 -0.0346  0.3333
 3331SOL    HW121455   1.726   2.228  15.949 -0.9051  1.5125 -2.9420
 3331SOL    HW221456   1.754   2.088  15.982 -2.7595 -1.8144  0.1366
 3332SOL     OW21457   0.944   1.774   0.951  0.3255  0.0497 -0.1594
 3332SOL    HW121458   0.884   1.849   0.953 -0.0608 -0.1800 -3.5160
 3332SOL    HW221459   0.920   1.738   0.866  0.4168 -0.1136 -0.1173
 3333SOL     OW21460   2.246   1.148   4.990 -0.0692  0.4509 -0.2134
 3333SOL    HW121461   2.158   1.164   5.026 -0.2644 -1.1342 -0.0032
 3333SOL    HW221462   2.288   1.221   5.036 -0.5907  0.1520  0.7374
 3334SOL     OW21463   4.280   4.514  12.651  0.1953 -0.3434 -0.1068
 3334SOL    HW121464   4.277   4.582  12.584  2.8189 -2.1141 -2.0306
 3334SOL    HW221465   4.275   4.569  12.730  2.6229 -1.3768  0.7644
 3335SOL     OW21466   0.118   4.419  17.300 -0.0212 -0.1325  0.0988
 3335SOL    HW121467   0.024   4.425  17.287 -0.0658  0.1869  0.5392
 3335SOL    HW221468   0.159   4.401  17.216  0.0288  1.7436 -0.2636
 3336SOL     OW21469   0.249   2.047   2.931 -0.0352 -0.4578 -0.9924
 3336SOL    HW121470   0.256   2.119   2.869  0.7599  1.0179  0.7932
 3336SOL    HW221471   0.157   2.026   2.912 -0.5811  1.3080 -0.3146
 3337SOL     OW21472   3.954   1.331  12.649  0.4990  0.1956  0.4101
 3337SOL    HW121473   4.040   1.303  12.616 -0.2755 -0.1448 -1.3336
 3337SOL    HW221474   3.916   1.245  12.670  1.4406 -0.1870  0.5565
 3338SOL     OW21475   4.083   2.110  12.092  0.2865 -0.0094  0.1324
 3338SOL    HW121476   4.174   2.141  12.085  0.8768 -1.5336  1.0963
 3338SOL    HW221477   4.054   2.190  12.136  2.6635  0.3641  1.0300
 3339SOL     OW21478   2.559   1.193   5.009  0.2491 -0.2233 -0.8366
 3339SOL    HW121479   2.633   1.253   5.013 -1.3251  1.7209 -0.4320
 3339SOL    HW221480   2.484   1.252   5.012  1.0925  0.8444 -0.9967
 3340SOL     OW21481   1.596   1.889   8.058  0.5516 -0.5337  0.3257
 3340SOL    HW121482   1.549   1.934   7.989  0.8732 -0.9612 -0.1736
 3340SOL    HW221483   1.560   1.802   8.040 -0.3592 -0.3168  1.0906
 3341SOL     OW21484   2.628   3.717   5.522  0.0710  0.5229 -0.1381
 3341SOL    HW121485   2.581   3.638   5.550  2.8098 -1.0392  0.0615
 3341SOL    HW221486   2.610   3.786   5.586 -0.6229 -0.6259  0.9017
 3342SOL     OW21487   0.431   0.023  10.196  0.3290  0.3951 -0.5751
 3342SOL    HW121488   0.377   4.677  10.233  0.9132 -1.2484 -2.7881
 3342SOL    HW221489   0.436   0.000  10.103 -0.2832 -0.6734 -0.3428
 3343SOL     OW21490   4.159   2.064   6.803 -0.7837  0.1062 -0.3396
 3343SOL    HW121491   4.106   2.041   6.880 -1.3743 -0.4048 -0.8998
 3343SOL    HW221492   4.200   1.984   6.770 -1.4929 -0.5023  0.2616
 3344SOL     OW21493   1.968   2.409   8.585  0.0930 -0.4438  0.4648
 3344SOL    HW121494   1.936   2.482   8.638  1.0832  1.5950 -1.7719
 3344SOL    HW221495   2.046   2.378   8.632 -1.7577 -0.8820  3.2221
 3345SOL     OW21496   4.078   3.447  14.252 -0.1400  0.1525 -0.2481
 3345SOL    HW121497   4.050   3.537  14.268 -1.2263 -0.2337  0.0950
 3345SOL    HW221498   4.170   3.447  14.275 -0.2705 -1.8697  0.2814
 3346SOL     OW21499   4.224   3.314  13.033  0.5793  0.4737  0.2975
 3346SOL    HW121500   4.276   3.380  13.079  2.8928 -3.4212  3.2289
 3346SOL    HW221501   4.235   3.337  12.940  0.8028  0.4308  0.3120
 3347SOL     OW21502   0.873   0.175   2.518  0.0185  0.0948  0.1692
 3347SOL    HW121503   0.815   0.123   2.574  1.0453  0.9456  2.0337
 3347SOL    HW221504   0.858   0.264   2.551 -1.1789 -0.6495  1.6246
 3348SOL     OW21505   2.306   3.371   3.380  0.1516 -0.3041  0.1233
 3348SOL    HW121506   2.353   3.331   3.306  1.5510  1.5420  0.0131
 3348SOL    HW221507   2.262   3.428   3.316 -0.5890 -1.0431 -0.0393
 3349SOL     OW21508   2.950   0.414  15.854 -0.3307  0.5485  0.0001
 3349SOL    HW121509   2.930   0.499  15.894 -1.2686 -0.9137  2.6575
 3349SOL    HW221510   2.866   0.407  15.811  1.2904 -0.1557 -3.0217
 3350SOL     OW21511   1.477   2.536   0.221 -0.7386  0.8579 -0.5237
 3350SOL    HW121512   1.446   2.448   0.242  1.2362  0.1941 -0.3825
 3350SOL    HW221513   1.422   2.578   0.287 -0.3332  0.3632  0.1297
 3351SOL     OW21514   3.909   2.877   5.234 -0.0787 -0.6369 -0.0270
 3351SOL    HW121515   3.931   2.945   5.298  0.1419  1.5208 -2.3908
 3351SOL    HW221516   3.916   2.800   5.289  0.7358 -0.2708  0.3920
 3352SOL     OW21517   3.908   2.421   5.273 -0.3834 -0.8295 -0.2251
 3352SOL    HW121518   3.918   2.365   5.195 -0.6454 -1.2100  0.0132
 3352SOL    HW221519   3.812   2.425   5.280 -0.2285 -2.1953  2.6483
 3353SOL     OW21520   4.246   3.878   4.613 -0.0546 -0.4122 -0.6760
 3353SOL    HW121521   4.251   3.840   4.701  1.6683 -0.4317 -0.7777
 3353SOL    HW221522   4.267   3.796   4.568  1.5707 -0.3523 -0.0469
 3354SOL     OW21523   1.282   1.567   1.881 -0.6758 -0.0773 -0.1738
 3354SOL    HW121524   1.288   1.472   1.880  1.1519  0.0502 -2.0700
 3354SOL    HW221525   1.372   1.601   1.889 -1.2969  1.8651 -1.4461
 3355SOL     OW21526   0.634   2.420   2.752 -0.4854  0.9729 -0.2616
 3355SOL    HW121527   0.644   2.325   2.743  0.7230  1.4132 -3.4044
 3355SOL    HW221528   0.721   2.442   2.785 -0.4721 -3.3473  2.6289
 3356SOL     OW21529   1.746   4.343   3.258  0.0382 -0.1778  0.2062
 3356SOL    HW121530   1.744   4.356   3.163 -1.9130 -0.9196  0.1669
 3356SOL    HW221531   1.706   4.415   3.307 -2.2597  0.5797 -2.7910
 3357SOL     OW21532   3.555   2.547   3.232 -0.6469 -0.0650  0.8336
 3357SOL    HW121533   3.466   2.571   3.204  0.0291  0.9770 -0.3666
 3357SOL    HW221534   3.589   2.507   3.152 -0.5167 -1.6270  1.6513
 3358SOL     OW21535   3.220   1.448   4.769 -0.0074 -0.8007 -0.0260
 3358SOL    HW121536   3.220   1.474   4.861  1.1293 -2.2319  0.3760
 3358SOL    HW221537   3.138   1.489   4.740 -0.3237 -0.6883  1.0379
 3359SOL     OW21538   0.779   1.695  15.388 -0.0024  0.3937 -0.8171
 3359SOL    HW121539   0.741   1.688  15.300  1.1577  0.5933 -1.3263
 3359SOL    HW221540   0.811   1.607  15.409 -3.0199 -1.8425 -5.6050
 3360SOL     OW21541   1.720   3.819   6.777 -0.1580 -0.3464  0.7324
 3360SOL    HW121542   1.792   3.800   6.836 -2.8190  0.2320  4.1524
 3360SOL    HW221543   1.643   3.801   6.831 -1.5510  1.1286 -0.7377
 3361SOL     OW21544   1.283   1.050   6.282 -0.1744  0.8540  0.2472
 3361SOL    HW121545   1.366   1.075   6.322  0.4455 -1.5185  0.4289
 3361SOL    HW221546   1.301   0.969   6.235 -0.6809  0.2467  1.0985
 3362SOL     OW21547   0.601   2.330   9.787  0.7100  0.0260  0.0295
 3362SOL    HW121548   0.629   2.240   9.768 -1.9966 -0.6281 -0.9116
 3362SOL    HW221549   0.511   2.316   9.816  1.2174  1.7214  2.4111
 3363SOL     OW21550   1.983   3.404   7.810 -0.5704  0.0214  0.1193
 3363SOL    HW121551   1.936   3.484   7.786 -0.2690 -0.0961 -0.8717
 3363SOL    HW221552   1.934   3.377   7.887  0.6248  2.3718  1.6949
 3364SOL     OW21553   3.772   2.879   9.873  0.3990 -0.4390  0.0644
 3364SOL    HW121554   3.756   2.864   9.966  2.9209 -2.1035  0.2311
 3364SOL    HW221555   3.721   2.807   9.838  0.7099 -0.2727 -0.7239
 3365SOL     OW21556   2.165   4.239   1.922 -0.2431  0.4084 -0.1100
 3365SOL    HW121557   2.247   4.228   1.971  0.5484 -0.5234 -1.6533
 3365SOL    HW221558   2.099   4.200   1.980 -1.6716  1.5318 -0.9855
 3366SOL     OW21559   1.716   2.474   6.589  0.4427  0.1328  0.0882
 3366SOL    HW121560   1.785   2.506   6.648  1.1691  1.1744 -1.3366
 3366SOL    HW221561   1.639   2.453   6.642  0.1256  0.3922 -0.2739
 3367SOL     OW21562   1.415   3.604   0.806  0.0543  0.0353 -0.0445
 3367SOL    HW121563   1.450   3.558   0.882  0.1684 -2.1266 -1.4042
 3367SOL    HW221564   1.493   3.626   0.755  0.0501  1.6397  0.6344
 3368SOL     OW21565   1.822   0.892   2.244  0.0211 -0.3427  0.4443
 3368SOL    HW121566   1.778   0.818   2.286  1.7243 -1.4139  0.3379
 3368SOL    HW221567   1.783   0.972   2.280  3.9828  1.3361  1.0234
 3369SOL     OW21568   4.334   3.581   5.811 -0.0398  0.3830  0.5404
 3369SOL    HW121569   4.320   3.609   5.721 -2.3110  0.9460  1.0742
 3369SOL    HW221570   4.242   3.564   5.832 -0.4735  2.1485  0.0436
 3370SOL     OW21571   2.474   3.774   1.291  0.6594  0.5615  0.1915
 3370SOL    HW121572   2.567   3.791   1.275  0.8499 -1.2958 -0.7085
 3370SOL    HW221573   2.483   3.742   1.381 -0.5178 -1.6354 -0.4680
 3371SOL     OW21574   3.709   4.548  12.629  0.3399 -0.3678 -0.1132
 3371SOL    HW121575   3.768   4.577  12.559 -2.2564  1.2651 -1.6334
 3371SOL    HW221576   3.630   4.596  12.602  1.3160  0.9647 -0.6002
 3372SOL     OW21577   3.197   1.081   4.137 -0.1398  0.1911 -0.2242
 3372SOL    HW121578   3.235   0.994   4.125 -1.6296 -0.4188 -0.5888
 3372SOL    HW221579   3.104   1.058   4.147 -0.4623  0.9155 -1.5717
 3373SOL     OW21580   1.599   1.713   5.180 -0.3232 -0.0904  0.2932
 3373SOL    HW121581   1.599   1.621   5.206 -2.1825  0.2738  1.5574
 3373SOL    HW221582   1.510   1.732   5.211 -0.7388  0.4818 -1.2929
 3374SOL     OW21583   1.716   3.214   7.849 -0.3487 -0.0161 -0.0304
 3374SOL    HW121584   1.757   3.277   7.910 -0.2562  0.9395 -1.0811
 3374SOL    HW221585   1.626   3.237   7.869 -0.2330 -1.1438  1.8067
 3375SOL     OW21586   2.292   2.331  10.816  0.0892 -0.2003  0.4653
 3375SOL    HW121587   2.271   2.424  10.812 -0.1192 -0.3540 -1.7645
 3375SOL    HW221588   2.213   2.292  10.779 -0.7487 -0.0107  2.0348
 3376SOL     OW21589   0.865   4.072   4.579  0.8731 -0.1486  0.1280
 3376SOL    HW121590   0.907   4.155   4.555 -0.1714  0.2288 -0.3913
 3376SOL    HW221591   0.934   4.010   4.553  1.4335 -0.0539  1.4050
 3377SOL     OW21592   2.809   1.569   2.437  0.0690 -0.3744 -0.0321
 3377SOL    HW121593   2.871   1.639   2.459 -0.0198 -0.5182  0.6640
 3377SOL    HW221594   2.723   1.598   2.467  1.4970  2.5484  1.1806
 3378SOL     OW21595   3.208   3.214   8.731  0.0032 -0.0625  0.3079
 3378SOL    HW121596   3.139   3.216   8.797 -2.1979  1.7593 -2.0423
 3378SOL    HW221597   3.239   3.304   8.733  1.4980 -0.5861  0.4051
 3379SOL     OW21598   4.537   1.640  17.658 -0.4737 -0.5818  0.4843
 3379SOL    HW121599   4.577   1.723  17.683 -1.0123  0.0158 -0.6327
 3379SOL    HW221600   4.459   1.632   0.020  1.0096  1.8449  2.9306
 3380SOL     OW21601   0.184   3.092   2.203  0.5643 -0.0840 -0.6804
 3380SOL    HW121602   0.213   3.049   2.122 -0.8652  0.6029 -1.5521
 3380SOL    HW221603   0.248   3.057   2.265 -0.6888 -0.9349  0.1117
 3381SOL     OW21604   4.013   3.372   9.574 -0.3892 -0.9331 -0.0232
 3381SOL    HW121605   3.993   3.346   9.484 -0.3939  1.1658 -0.6238
 3381SOL    HW221606   4.108   3.373   9.570 -0.4754  2.2173 -1.5401
 3382SOL     OW21607   2.658   2.972   3.648 -0.0965 -0.4436 -0.0501
 3382SOL    HW121608   2.715   3.048   3.655 -1.2165  0.5867 -2.1794
 3382SOL    HW221609   2.672   2.919   3.727 -1.9236 -0.1570  0.4760
 3383SOL     OW21610   3.862   0.022   5.293  0.0122  0.0583  0.6036
 3383SOL    HW121611   3.820   0.058   5.215 -0.6337 -0.5789  0.6615
 3383SOL    HW221612   3.930   0.082   5.324 -0.3418  0.8777 -0.2285
 3384SOL     OW21613   2.110   4.530  11.561  0.0943 -1.0523 -0.1169
 3384SOL    HW121614   2.115   4.626  11.561  2.0747 -1.1672  0.0771
 3384SOL    HW221615   2.141   4.510  11.649  0.3053 -1.7475 -0.3508
 3385SOL     OW21616   3.129   0.748  10.270 -0.1507 -0.2468 -0.0428
 3385SOL    HW121617   3.047   0.789  10.242 -0.9066 -3.0345 -1.9342
 3385SOL    HW221618   3.185   0.824  10.254  0.7597 -0.2257  3.3535
 3386SOL     OW21619   3.171   1.893  10.856 -0.0532 -0.8819  0.2188
 3386SOL    HW121620   3.148   1.810  10.899 -1.1027 -1.4382 -1.4358
 3386SOL    HW221621   3.097   1.908  10.798  1.3370  2.0926 -0.8082
 3387SOL     OW21622   3.882   3.329   4.021  0.1372 -0.1101  0.2961
 3387SOL    HW121623   3.900   3.235   4.034  1.4124  0.5047  3.1002
 3387SOL    HW221624   3.935   3.345   3.943 -1.3467  0.2672 -0.6286
 3388SOL     OW21625   4.686   0.544   5.260  0.2520  0.1520  0.0889
 3388SOL    HW121626   4.598   0.515   5.284  1.0252 -1.4092  1.0035
 3388SOL    HW221627   0.006   0.459   5.252  1.0894  0.5743  0.0908
 3389SOL     OW21628   3.437   1.334   2.760  0.0308 -0.4979  0.6436
 3389SOL    HW121629   3.511   1.358   2.816  0.4647 -0.2885 -0.0088
 3389SOL    HW221630   3.390   1.274   2.817 -0.3626  0.6249  1.4980
 3390SOL     OW21631   0.431   4.335   1.428 -0.5742 -0.1087 -0.2532
 3390SOL    HW121632   0.435   4.397   1.501 -1.2587  0.1090 -0.4034
 3390SOL    HW221633   0.521   4.337   1.396 -0.4585  1.0205  0.1531
 3391SOL     OW21634   1.794   1.752  11.541  0.1781 -0.0349  0.5283
 3391SOL    HW121635   1.816   1.721  11.629 -0.9435  0.0315  0.8341
 3391SOL    HW221636   1.818   1.845  11.542  2.1968 -0.5332 -2.0130
 3392SOL     OW21637   4.568   3.670   0.966  0.1408 -0.0671 -0.4401
 3392SOL    HW121638   4.494   3.731   0.966  2.0555  2.2758 -1.1920
 3392SOL    HW221639   4.613   3.702   1.044 -1.4102  0.4589  0.2459
 3393SOL     OW21640   0.862   3.390   9.976 -0.3439 -0.1096  0.3846
 3393SOL    HW121641   0.776   3.377  10.014 -1.4003 -0.2530 -2.0487
 3393SOL    HW221642   0.847   3.348   9.891 -0.8919 -0.3949  0.6247
 3394SOL     OW21643   2.982   0.023  17.297 -0.1279 -0.3270  0.5785
 3394SOL    HW121644   2.894   0.039  17.330 -0.2857 -3.1483  1.5063
 3394SOL    HW221645   2.970   0.067  17.213 -0.2744 -1.3980  0.0378
 3395SOL     OW21646   1.380   0.115   8.144  0.3644  0.7353  0.0586
 3395SOL    HW121647   1.389   0.086   8.235 -0.4735  0.6428  0.1115
 3395SOL    HW221648   1.339   0.198   8.170  2.4902  1.4588  1.1421
 3396SOL     OW21649   4.557   1.566   4.870  0.2760  0.1686 -0.2513
 3396SOL    HW121650   4.615   1.532   4.802  2.3170  2.3765  0.4223
 3396SOL    HW221651   4.515   1.484   4.898  1.2734  0.1090  1.0235
 3397SOL     OW21652   3.221   4.085  13.759  0.1884 -0.3662 -0.4037
 3397SOL    HW121653   3.164   4.158  13.734 -0.1090  0.0837  1.6157
 3397SOL    HW221654   3.270   4.123  13.832 -0.3033  1.0090 -0.7809
 3398SOL     OW21655   2.019   4.623   6.093 -0.1540  0.0487 -0.3683
 3398SOL    HW121656   1.988   4.707   6.059 -0.9433 -0.7557 -1.6349
 3398SOL    HW221657   2.037   4.638   6.186 -0.0804  2.1922 -0.7409
 3399SOL     OW21658   1.651   2.261   7.376  0.1322 -0.1996  0.0793
 3399SOL    HW121659   1.681   2.338   7.327 -1.7829  0.9115  0.6261
 3399SOL    HW221660   1.600   2.209   7.314  0.0970  0.0628 -0.1096
 3400SOL     OW21661   4.184   3.457   8.071  0.6555  0.0886 -0.1485
 3400SOL    HW121662   4.107   3.502   8.038  1.2670 -0.1506 -1.9219
 3400SOL    HW221663   4.145   3.395   8.132  1.3022 -1.3018 -1.1396
 3401SOL     OW21664   4.520   4.137   7.644  0.4993 -0.3498  0.0388
 3401SOL    HW121665   4.430   4.106   7.648 -0.9668  4.0479  1.0425
 3401SOL    HW221666   4.511   4.230   7.667 -0.5049 -1.0786  2.5473
 3402SOL     OW21667   2.375   0.158   9.057 -0.3839 -0.2184  0.4480
 3402SOL    HW121668   2.351   0.146   9.149  0.6412 -0.8060  0.6332
 3402SOL    HW221669   2.374   0.065   9.036  4.5792 -0.1931  0.2022
 3403SOL     OW21670   2.753   3.797   1.195  0.1759  0.8202 -0.7343
 3403SOL    HW121671   2.780   3.859   1.263 -1.3684 -0.5308  1.1074
 3403SOL    HW221672   2.812   3.825   1.126  1.7246  0.4286  0.4321
 3404SOL     OW21673   3.404   0.562   9.246  0.6701  0.3370  0.4161
 3404SOL    HW121674   3.341   0.634   9.238  1.2335  0.5004 -2.5640
 3404SOL    HW221675   3.406   0.522   9.159  0.4089  1.4141 -0.0871
 3405SOL     OW21676   2.087   0.507   3.766  0.5887  0.1554 -0.1850
 3405SOL    HW121677   2.173   0.477   3.794  0.5915 -0.2064 -0.5828
 3405SOL    HW221678   2.104   0.558   3.687 -0.9973  2.1054  0.7436
 3406SOL     OW21679   2.599   4.010   7.908  0.5756 -0.3241  0.2069
 3406SOL    HW121680   2.668   4.070   7.880 -0.3081  1.5716  2.0660
 3406SOL    HW221681   2.629   3.926   7.873  0.3534  0.6292 -2.2347
 3407SOL     OW21682   4.435   1.724   3.448 -0.1959  0.1183 -0.3394
 3407SOL    HW121683   4.448   1.632   3.472 -0.9993  0.1008  0.0383
 3407SOL    HW221684   4.339   1.720   3.441 -0.2262  0.4094 -0.0993
 3408SOL     OW21685   3.611   2.325  17.039 -0.0472 -0.0385  0.2934
 3408SOL    HW121686   3.632   2.417  17.056 -0.9185  0.1473  0.3904
 3408SOL    HW221687   3.552   2.334  16.964 -0.6514 -1.2653  0.6251
 3409SOL     OW21688   1.805   2.840   2.379 -0.4202 -0.4873  0.2421
 3409SOL    HW121689   1.772   2.754   2.405 -0.2352 -0.3955  0.7877
 3409SOL    HW221690   1.857   2.848   2.459 -0.1404  0.8779 -0.0832
 3410SOL     OW21691   3.042   4.062   0.833 -0.3856  0.3751  0.4347
 3410SOL    HW121692   3.002   4.084   0.749  1.8143 -1.1445 -1.0039
 3410SOL    HW221693   3.134   4.050   0.810  0.1442 -0.2962  2.9427
 3411SOL     OW21694   3.516   1.063   5.040  0.1058  0.5301  0.1196
 3411SOL    HW121695   3.483   1.148   5.011 -1.6621  0.2648  1.3267
 3411SOL    HW221696   3.474   1.019   4.966  0.0089 -0.7574  0.9407
 3412SOL     OW21697   2.910   3.257   7.073  0.4759 -0.2970  0.5313
 3412SOL    HW121698   2.925   3.216   6.988  0.7660 -1.3698  1.0938
 3412SOL    HW221699   2.836   3.317   7.064  0.7878 -0.1712 -1.0320
 3413SOL     OW21700   4.275   0.052  14.963 -0.1223 -0.0631 -0.2391
 3413SOL    HW121701   4.324   0.082  14.886 -0.6623 -2.5411 -1.5415
 3413SOL    HW221702   4.200   0.112  14.966 -1.0512 -1.0625 -2.7286
 3414SOL     OW21703   4.355   4.203  10.892  0.1476 -0.6274 -0.0269
 3414SOL    HW121704   4.330   4.165  10.976 -0.1981  0.0426  0.1738
 3414SOL    HW221705   4.271   4.236  10.858  0.8268  1.5530  0.4244
 3415SOL     OW21706   3.423   2.230  12.694  0.6099  0.0893 -0.0431
 3415SOL    HW121707   3.496   2.256  12.638 -0.1390  0.8938 -0.6407
 3415SOL    HW221708   3.403   2.142  12.662  0.8203 -0.9215  2.6672
 3416SOL     OW21709   4.345   2.959   2.902  0.8610  0.0319  0.0083
 3416SOL    HW121710   4.266   2.954   2.957  0.2116 -2.5901 -1.1952
 3416SOL    HW221711   4.353   3.054   2.894  2.9732 -0.0630  1.2022
 3417SOL     OW21712   3.434   3.859  10.197  0.1776  0.2265  0.3319
 3417SOL    HW121713   3.354   3.833  10.151  0.6700 -1.0556  0.2025
 3417SOL    HW221714   3.492   3.806  10.142  1.2773  0.4567  1.2803
 3418SOL     OW21715   1.438   3.493   5.560  0.2517  0.2891 -0.2179
 3418SOL    HW121716   1.345   3.489   5.537 -0.6354  2.1650  2.9965
 3418SOL    HW221717   1.475   3.514   5.474  0.4429 -0.6513 -0.3638
 3419SOL     OW21718   0.044   2.261  13.599 -0.5359  0.2583  0.6092
 3419SOL    HW121719   0.084   2.226  13.520 -0.6825  0.3228  0.5067
 3419SOL    HW221720   0.043   2.181  13.651  1.4552 -0.8430 -1.0311
 3420SOL     OW21721   0.332   0.803   8.399  0.1309 -0.0903 -0.1878
 3420SOL    HW121722   0.305   0.717   8.367  2.4459  0.0653 -2.6199
 3420SOL    HW221723   0.426   0.804   8.381 -0.0170 -3.6891 -1.0034
 3421SOL     OW21724   3.729   3.691   4.572  0.4114 -0.0304 -0.3590
 3421SOL    HW121725   3.775   3.629   4.628  1.0894 -0.1227 -1.0286
 3421SOL    HW221726   3.772   3.686   4.487  0.5850  0.0329 -0.2742
 3422SOL     OW21727   2.977   1.428   6.601 -0.2469 -0.1269  0.5856
 3422SOL    HW121728   2.889   1.401   6.575 -1.0888  2.5306  0.6943
 3422SOL    HW221729   3.017   1.431   6.514  1.5017 -3.2213  1.2792
 3423SOL     OW21730   4.641   4.239   1.241 -0.0745  0.0028  0.3321
 3423SOL    HW121731   0.005   4.211   1.213  1.0523  1.5407  2.2364
 3423SOL    HW221732   4.636   4.193   1.325 -0.2719  0.6927  0.6959
 3424SOL     OW21733   2.332   2.158   7.258 -0.4434 -0.2643  0.0285
 3424SOL    HW121734   2.257   2.134   7.312  0.2356 -1.7385  0.3020
 3424SOL    HW221735   2.291   2.207   7.186 -2.0893  0.3721  1.4029
 3425SOL     OW21736   1.113   0.671   9.540  0.1519 -0.4049 -0.1423
 3425SOL    HW121737   1.032   0.692   9.585  0.4045 -1.0736  0.6254
 3425SOL    HW221738   1.175   0.709   9.602  1.4122 -2.2218 -0.2855
 3426SOL     OW21739   3.937   2.991   8.844  0.0304 -0.3292 -0.3618
 3426SOL    HW121740   3.851   2.948   8.847  0.5665 -1.2103  2.1074
 3426SOL    HW221741   3.910   3.062   8.785  0.8589  0.7092  0.5210
 3427SOL     OW21742   4.676   2.149   6.327  0.5210 -0.4332 -0.4237
 3427SOL    HW121743   0.013   2.176   6.396  1.0444 -0.0381 -1.0255
 3427SOL    HW221744   4.614   2.222   6.328  0.2573 -0.6799  0.6834
 3428SOL     OW21745   1.651   1.580   6.699 -0.1704 -0.1381 -0.5268
 3428SOL    HW121746   1.685   1.622   6.778 -0.8907 -0.8545  0.1636
 3428SOL    HW221747   1.733   1.581   6.650  0.3315 -0.6073  0.3202
 3429SOL     OW21748   0.485   3.545   9.588  0.0455  0.1736 -0.0025
 3429SOL    HW121749   0.523   3.629   9.564  1.8062 -0.0251  2.1516
 3429SOL    HW221750   0.427   3.541   9.512 -0.5855 -0.8506  0.5302
 3430SOL     OW21751   2.369   4.362   9.617 -0.5944 -0.1816 -0.0568
 3430SOL    HW121752   2.350   4.268   9.619  1.7642 -0.6346  1.4452
 3430SOL    HW221753   2.375   4.376   9.523  0.9842 -3.9646 -0.5059
 3431SOL     OW21754   0.331   4.181   4.764 -0.1325  0.5536 -0.5476
 3431SOL    HW121755   0.287   4.249   4.816  2.0729 -0.1956  2.3103
 3431SOL    HW221756   0.417   4.217   4.741  0.8774 -0.7580  1.1771
 3432SOL     OW21757   0.999   1.198   2.370  0.5598  0.0226 -0.0654
 3432SOL    HW121758   1.021   1.219   2.279  0.6641 -0.2664 -0.1091
 3432SOL    HW221759   1.016   1.103   2.367  2.5993  0.4112 -1.1137
 3433SOL     OW21760   2.162   3.172   7.062  0.4077  0.5032  0.4542
 3433SOL    HW121761   2.206   3.140   6.983 -0.6328  3.4513 -1.3094
 3433SOL    HW221762   2.236   3.160   7.123 -0.1793 -1.0795  0.8427
 3434SOL     OW21763   1.784   2.370  14.525 -0.5098  0.5296 -0.4485
 3434SOL    HW121764   1.832   2.335  14.600 -2.6766 -1.8099 -0.1318
 3434SOL    HW221765   1.851   2.368  14.457 -0.5639 -0.0143 -0.4834
 3435SOL     OW21766   3.873   3.562   6.762 -0.2549 -0.1173  0.5912
 3435SOL    HW121767   3.884   3.617   6.685  0.3757  0.9434  1.4597
 3435SOL    HW221768   3.952   3.592   6.806  0.7108 -0.5710 -0.8074
 3436SOL     OW21769   2.055   0.743  16.576  0.7259 -0.3994  0.0427
 3436SOL    HW121770   2.052   0.660  16.529 -0.1265 -0.8285  0.8561
 3436SOL    HW221771   2.097   0.715  16.658  2.7531  1.1269 -0.4868
 3437SOL     OW21772   4.658   4.448   7.556  0.0354 -0.7235  0.1398
 3437SOL    HW121773   4.594   4.515   7.531  1.5415 -0.3797 -2.8797
 3437SOL    HW221774   0.011   4.502   7.535  0.1341 -1.1460 -0.5934
 3438SOL     OW21775   2.987   3.085   9.232  0.3382 -0.1755 -0.1988
 3438SOL    HW121776   3.034   3.002   9.238 -0.6388 -0.7095 -0.0384
 3438SOL    HW221777   2.946   3.079   9.318  0.5097  1.2147 -0.0254
 3439SOL     OW21778   2.211   1.201   9.139  0.3377 -0.1081  0.1350
 3439SOL    HW121779   2.131   1.250   9.159  1.0531  2.4487 -3.4852
 3439SOL    HW221780   2.176   1.113   9.122  0.6743 -0.1103 -0.5305
 3440SOL     OW21781   1.190   0.561  11.692 -0.5116  0.2992 -0.3776
 3440SOL    HW121782   1.182   0.591  11.783  0.3488 -0.9804  0.1150
 3440SOL    HW221783   1.097   0.558  11.668 -0.2105  0.7742 -1.5640
 3441SOL     OW21784   0.583   4.133   6.767  0.1465 -0.2659 -0.3527
 3441SOL    HW121785   0.644   4.126   6.694  0.8226 -0.7751  0.2583
 3441SOL    HW221786   0.502   4.136   6.716 -0.3252 -0.0073  0.4029
 3442SOL     OW21787   0.877   0.278   4.008 -0.2658 -0.2292 -0.1868
 3442SOL    HW121788   0.926   0.244   4.082 -1.4633 -1.7580 -0.1119
 3442SOL    HW221789   0.842   0.361   4.042 -1.8605 -1.6330  1.5593
 3443SOL     OW21790   4.703   4.390   2.304 -0.2713  0.0248  0.3483
 3443SOL    HW121791   4.620   4.380   2.258 -1.4919 -0.5120  2.6990
 3443SOL    HW221792   0.029   4.440   2.238 -2.7893  1.6964 -0.2456
 3444SOL     OW21793   2.270   0.623   4.797  0.2174  0.6883  0.4854
 3444SOL    HW121794   2.346   0.568   4.779 -0.7367 -0.3186 -0.4982
 3444SOL    HW221795   2.305   0.678   4.867 -1.4889  1.6524  0.5715
 3445SOL     OW21796   1.377   2.930   2.726  0.0870  0.2077  0.3773
 3445SOL    HW121797   1.466   2.954   2.697 -0.2557  2.1090  0.9237
 3445SOL    HW221798   1.322   2.953   2.651  0.1961  2.9788  1.1733
 3446SOL     OW21799   2.289   3.809   4.101  0.0593  0.2240 -0.1152
 3446SOL    HW121800   2.275   3.897   4.067  1.9309 -0.0559 -1.5982
 3446SOL    HW221801   2.197   3.787   4.114  0.2776 -0.9165 -0.5511
 3447SOL     OW21802   3.883   2.625   6.815  0.3143  0.0148 -0.0684
 3447SOL    HW121803   3.890   2.700   6.874  0.4129 -0.6463  0.7618
 3447SOL    HW221804   3.863   2.557   6.879  0.4869  2.4020  2.4937
 3448SOL     OW21805   3.105   1.395   5.025 -0.0492 -0.1862 -0.4978
 3448SOL    HW121806   3.069   1.345   5.099 -1.3080  1.1665 -0.1847
 3448SOL    HW221807   3.079   1.485   5.045 -0.8468 -0.7950  1.2768
 3449SOL     OW21808   0.787   4.193   0.202  0.0699  0.3850  0.6085
 3449SOL    HW121809   0.801   4.244   0.282 -0.2971  1.1231  0.1905
 3449SOL    HW221810   0.879   4.166   0.196  0.0627  1.3812 -3.6392
 3450SOL     OW21811   0.379   3.085  13.304 -0.4588  0.6889  0.3033
 3450SOL    HW121812   0.401   3.019  13.369  0.7222 -0.3764 -1.1794
 3450SOL    HW221813   0.297   3.048  13.271 -1.0818 -0.9054  3.6521
 3451SOL     OW21814   2.183   3.008   6.592 -0.3862 -1.0456 -0.4155
 3451SOL    HW121815   2.203   2.976   6.504  0.7016 -1.3108 -0.0757
 3451SOL    HW221816   2.161   3.096   6.561  0.0806 -1.1427 -1.0355
 3452SOL     OW21817   0.235   4.329   9.089 -0.4151 -0.0020  0.1738
 3452SOL    HW121818   0.258   4.416   9.121  1.6676  0.3559 -2.3707
 3452SOL    HW221819   0.269   4.280   9.164 -0.5692 -2.4088 -1.3317
 3453SOL     OW21820   1.643   1.012  11.651  0.1414  0.0181 -0.3208
 3453SOL    HW121821   1.723   1.028  11.599  2.0024  1.2033  2.9287
 3453SOL    HW221822   1.578   1.042  11.588 -0.2674  1.5294  0.8444
 3454SOL     OW21823   3.718   2.560   7.034  0.1304  0.0655  0.0254
 3454SOL    HW121824   3.759   2.641   7.064  2.1659 -0.7961 -0.4281
 3454SOL    HW221825   3.761   2.510   7.103  0.4881  2.2133  1.3371
 3455SOL     OW21826   2.938   3.909   1.599  0.6370 -0.5483  0.3076
 3455SOL    HW121827   2.895   3.956   1.528  0.6183  2.6176  2.4059
 3455SOL    HW221828   2.989   3.977   1.643 -0.6234  0.5968 -0.0062
 3456SOL     OW21829   1.456   2.039   3.963  0.6357  0.2296 -0.1701
 3456SOL    HW121830   1.528   2.056   3.903  1.3485  1.1653  0.9676
 3456SOL    HW221831   1.400   1.988   3.903 -1.8320  0.7428  1.7219
 3457SOL     OW21832   1.640   3.768  13.374  0.7407  0.1810 -0.0608
 3457SOL    HW121833   1.627   3.863  13.382 -0.2877 -0.0534  0.9835
 3457SOL    HW221834   1.712   3.771  13.311  0.2766 -1.1217 -0.6366
 3458SOL     OW21835   0.821   2.121   7.279 -0.0890 -0.1873  0.2067
 3458SOL    HW121836   0.874   2.112   7.359 -0.8017 -0.6103  0.6264
 3458SOL    HW221837   0.893   2.123   7.216 -2.3463 -0.0563 -2.3586
 3459SOL     OW21838   3.477   0.164  13.639  0.5112  0.5228 -0.0358
 3459SOL    HW121839   3.436   0.244  13.674 -0.2459  0.7119 -1.3602
 3459SOL    HW221840   3.477   0.185  13.546  2.7035  3.8548  0.7093
 3460SOL     OW21841   2.500   1.897  10.163 -0.7470 -0.3307  0.3619
 3460SOL    HW121842   2.458   1.822  10.120  2.4354 -1.8663 -0.0780
 3460SOL    HW221843   2.428   1.957  10.179 -0.8186 -0.5497  0.8886
 3461SOL     OW21844   0.739   1.888   3.296 -0.1296  0.0352 -0.3005
 3461SOL    HW121845   0.765   1.848   3.213  1.1896 -0.7918  0.5004
 3461SOL    HW221846   0.645   1.876   3.300 -0.2348  1.4077  1.0868
 3462SOL     OW21847   3.156   0.681   4.310 -0.2201  0.0121 -0.0651
 3462SOL    HW121848   3.061   0.689   4.304 -0.0801  1.6643 -0.0569
 3462SOL    HW221849   3.168   0.626   4.387 -1.0747  0.5416  0.4383
 3463SOL     OW21850   3.568   4.035   8.089  0.5435 -0.5327  0.1578
 3463SOL    HW121851   3.590   3.948   8.055 -1.7019 -1.2191  0.4854
 3463SOL    HW221852   3.646   4.061   8.139  0.2964  0.3333  0.0951
 3464SOL     OW21853   1.970   3.866   1.546 -0.6578  0.1391 -0.1773
 3464SOL    HW121854   1.929   3.906   1.623  1.6936 -0.7131  1.5151
 3464SOL    HW221855   2.064   3.879   1.563 -0.9274  0.9919  0.7422
 3465SOL     OW21856   3.495   2.975  16.196  0.3449 -0.2316 -0.1477
 3465SOL    HW121857   3.413   2.932  16.174  0.2421  0.1182 -0.4444
 3465SOL    HW221858   3.518   2.996  16.105  1.3590  1.9100  0.5852
 3466SOL     OW21859   4.203   2.134   2.044 -0.2276 -0.3135 -0.3366
 3466SOL    HW121860   4.170   2.221   2.020  0.3275 -0.1844 -0.6263
 3466SOL    HW221861   4.281   2.116   1.992  0.4286 -1.7040  1.1136
 3467SOL     OW21862   3.740   1.736   4.000 -0.0582  0.3277 -0.0534
 3467SOL    HW121863   3.769   1.755   3.911 -1.5963  2.5191 -0.1057
 3467SOL    HW221864   3.772   1.816   4.043  2.9004  0.4742 -2.5187
 3468SOL     OW21865   0.088   1.562  10.807  0.1040  0.1194 -0.1417
 3468SOL    HW121866   0.102   1.656  10.799 -0.9184  0.3042  0.2288
 3468SOL    HW221867   0.175   1.520  10.806 -0.2344 -0.6337  2.7150
 3469SOL     OW21868   4.542   3.373   4.449 -0.0222 -0.5625 -0.0419
 3469SOL    HW121869   4.534   3.336   4.537  3.1578 -0.6251  0.2086
 3469SOL    HW221870   4.473   3.439   4.455 -0.1286 -0.5605 -1.2212
 3470SOL     OW21871   3.635   1.754  11.339 -0.1730 -0.2162  0.2974
 3470SOL    HW121872   3.638   1.796  11.253  0.1404 -1.0884 -0.1211
 3470SOL    HW221873   3.680   1.815  11.398 -0.0203 -1.0932  1.0961
 3471SOL     OW21874   2.272   0.751   6.482 -0.3433  0.6546  0.0929
 3471SOL    HW121875   2.241   0.834   6.445 -0.0901  0.8605  0.3497
 3471SOL    HW221876   2.271   0.767   6.576  0.5200 -0.5910  0.3217
 3472SOL     OW21877   1.655   2.239   0.456  0.1396 -0.3287 -0.0632
 3472SOL    HW121878   1.648   2.155   0.409  2.0399  0.4095 -1.6753
 3472SOL    HW221879   1.582   2.226   0.517  1.0141 -1.5612  0.7072
 3473SOL     OW21880   1.570   0.492   1.671  0.4681  0.5041 -0.0075
 3473SOL    HW121881   1.649   0.460   1.626  0.3070  0.6255 -0.3812
 3473SOL    HW221882   1.591   0.582   1.693  0.4650  0.7668 -1.0534
 3474SOL     OW21883   2.231   2.025   8.795  1.0168 -0.0883 -0.8515
 3474SOL    HW121884   2.153   2.076   8.817  0.0060 -1.9867 -0.0393
 3474SOL    HW221885   2.200   1.941   8.829 -2.1300  2.0758  1.6296
 3475SOL     OW21886   3.491   1.140  11.999  0.3872 -0.0457  0.6205
 3475SOL    HW121887   3.436   1.068  11.969  0.0977 -0.1680  1.4580
 3475SOL    HW221888   3.577   1.108  11.970  0.2069  0.3709 -0.4006
 3476SOL     OW21889   2.804   0.973   9.963 -0.1062 -0.3480  0.4605
 3476SOL    HW121890   2.743   1.027   9.914  0.0140  0.5539  1.2813
 3476SOL    HW221891   2.843   0.913   9.900 -0.7682  1.2325 -1.4662
 3477SOL     OW21892   2.631   0.721   4.371  0.4852  0.3005 -0.4842
 3477SOL    HW121893   2.634   0.811   4.404 -1.0933 -0.6141  2.1097
 3477SOL    HW221894   2.539   0.698   4.380  0.8378 -0.4406  1.2696
 3478SOL     OW21895   3.520   0.406   1.907  0.3022  0.1629 -0.0436
 3478SOL    HW121896   3.481   0.403   1.820 -1.2446 -1.4400  0.6853
 3478SOL    HW221897   3.610   0.385   1.885  0.8596  1.7627  0.6740
 3479SOL     OW21898   4.019   4.624  11.990  0.5835 -0.1716  0.0336
 3479SOL    HW121899   3.947   4.687  11.988 -0.4533 -1.3092  1.5369
 3479SOL    HW221900   3.987   4.557  11.930 -1.1671  1.1550 -0.5270
 3480SOL     OW21901   2.326   2.618   3.271  0.3883  0.0093 -0.1458
 3480SOL    HW121902   2.270   2.676   3.220  0.8408  1.5070  1.0445
 3480SOL    HW221903   2.410   2.630   3.227  1.0458 -1.4954  0.7022
 3481SOL     OW21904   2.744   1.184   3.863  0.3692  0.1835 -0.1797
 3481SOL    HW121905   2.690   1.181   3.943  1.9204 -0.8956  0.8121
 3481SOL    HW221906   2.769   1.095   3.838 -0.0657  0.2344 -0.8128
 3482SOL     OW21907   4.365   1.758   7.247  0.1579 -0.2457  0.1581
 3482SOL    HW121908   4.432   1.735   7.311  0.1228  0.0424  0.2966
 3482SOL    HW221909   4.326   1.835   7.288  0.6830 -0.2760  0.7192
 3483SOL     OW21910   1.780   1.963   3.051 -0.2600  0.2944  0.2763
 3483SOL    HW121911   1.842   1.896   3.025 -0.2607 -0.2360  1.6393
 3483SOL    HW221912   1.735   1.987   2.969  0.5571 -0.2771 -0.3363
 3484SOL     OW21913   3.646   2.168   3.971 -0.7335  0.2434  0.3975
 3484SOL    HW121914   3.572   2.169   4.033 -0.9254  1.0043  0.1544
 3484SOL    HW221915   3.643   2.258   3.939 -0.0783  0.8328  1.9894
 3485SOL     OW21916   0.420   0.298   4.332 -0.0908  0.6020  0.1342
 3485SOL    HW121917   0.330   0.280   4.359  0.0820  0.6330  0.7403
 3485SOL    HW221918   0.400   0.291   4.239  1.9682 -1.9870 -0.1037
 3486SOL     OW21919   3.142   1.367   8.510  0.0199 -0.3060  0.0779
 3486SOL    HW121920   3.095   1.284   8.522 -0.1714 -0.1844  0.1670
 3486SOL    HW221921   3.231   1.352   8.542 -0.0914 -2.1410 -0.4487
 3487SOL     OW21922   3.002   3.763   2.496 -0.4914 -0.2279  0.2068
 3487SOL    HW121923   2.954   3.681   2.501 -0.1471 -0.3043  2.6136
 3487SOL    HW221924   2.951   3.807   2.564 -0.8032  2.2043 -1.6056
 3488SOL     OW21925   0.085   0.427   3.603  0.2446 -0.0822  0.0138
 3488SOL    HW121926   0.134   0.431   3.685  0.0608 -2.9285  0.2452
 3488SOL    HW221927   0.142   0.471   3.539 -0.6792 -3.2382 -3.0259
 3489SOL     OW21928   0.333   4.646   0.418  0.0326 -0.2006  0.5126
 3489SOL    HW121929   0.409   4.700   0.396  0.1150 -0.2230  0.7484
 3489SOL    HW221930   0.261   4.694   0.377 -1.4270 -1.2099  1.9310
 3490SOL     OW21931   1.068   3.869  14.215  0.1305  0.2964  0.1115
 3490SOL    HW121932   1.118   3.839  14.139  0.3411 -0.4419  0.5383
 3490SOL    HW221933   1.067   3.780  14.251  0.6857  0.7556  1.2657
 3491SOL     OW21934   2.652   0.235   1.031 -0.0721 -0.2906 -0.4237
 3491SOL    HW121935   2.645   0.261   0.939 -2.3360 -0.2161 -0.2075
 3491SOL    HW221936   2.741   0.266   1.051  0.5435 -1.1801 -1.7676
 3492SOL     OW21937   2.108   0.425   1.972 -0.1189  0.1367  0.2649
 3492SOL    HW121938   2.045   0.419   2.044 -0.1802 -1.3393  0.0709
 3492SOL    HW221939   2.099   0.518   1.949  1.2594  0.1693 -0.1307
 3493SOL     OW21940   0.470   0.725  15.837  0.0154 -0.6481  0.4641
 3493SOL    HW121941   0.490   0.635  15.863 -2.3997 -0.4378  3.0288
 3493SOL    HW221942   0.528   0.734  15.761 -0.4319  1.9492  0.4215
 3494SOL     OW21943   0.611   4.314   1.982  0.4883 -0.3195 -0.2264
 3494SOL    HW121944   0.643   4.234   2.026  0.3176 -0.6439 -0.6884
 3494SOL    HW221945   0.602   4.278   1.894 -1.0651 -1.4677  0.4043
 3495SOL     OW21946   4.559   3.175  10.199  0.2260 -0.2248  0.5118
 3495SOL    HW121947   4.617   3.170  10.123  1.0354 -0.3257  1.1367
 3495SOL    HW221948   4.474   3.158  10.158 -0.5827  0.5336  1.8751
 3496SOL     OW21949   2.120   0.099   3.676 -0.6776  0.6551 -0.2269
 3496SOL    HW121950   2.062   0.175   3.681  1.0269  2.0769 -1.8832
 3496SOL    HW221951   2.053   0.031   3.672  2.4202 -2.3882 -1.0015
 3497SOL     OW21952   0.594   4.210   4.666  0.2913  0.3786  0.0294
 3497SOL    HW121953   0.627   4.173   4.747  1.3217 -1.2217 -1.1147
 3497SOL    HW221954   0.614   4.139   4.605 -0.3001 -0.6046  0.9935
 3498SOL     OW21955   0.278   2.307   3.110 -0.3276 -0.4673 -0.0160
 3498SOL    HW121956   0.355   2.308   3.054  0.4890 -3.3270  1.0680
 3498SOL    HW221957   0.257   2.214   3.123  0.2838 -1.0251 -2.8925
 3499SOL     OW21958   1.704   2.171   5.400 -0.4093  0.7064  0.6368
 3499SOL    HW121959   1.610   2.163   5.416 -0.3873  0.0431  0.4251
 3499SOL    HW221960   1.732   2.212   5.481  2.5515  0.9601 -0.5185
 3500SOL     OW21961   3.623   0.293  16.135  0.7389 -0.0741 -0.6492
 3500SOL    HW121962   3.579   0.283  16.050  1.3031 -1.7228 -0.7398
 3500SOL    HW221963   3.694   0.352  16.108  0.5785  1.7349  2.9218
 3501SOL     OW21964   2.960   4.709  16.774  0.1653  0.1202 -0.0140
 3501SOL    HW121965   3.000   0.022  16.695 -0.3263 -0.1031 -0.3686
 3501SOL    HW221966   2.919   4.630  16.738 -2.9402  1.2426  1.0253
 3502SOL     OW21967   3.738   0.930  10.477 -0.1381 -0.4261  0.5533
 3502SOL    HW121968   3.786   1.012  10.464  1.3110 -0.8023  3.4447
 3502SOL    HW221969   3.701   0.945  10.565 -2.4621  0.0236 -0.4929
 3503SOL     OW21970   3.605   4.312   2.351 -0.0726  0.5611  0.0757
 3503SOL    HW121971   3.678   4.263   2.389  0.3024  1.2839  0.2987
 3503SOL    HW221972   3.585   4.374   2.421 -2.2602 -0.6567  0.5067
 3504SOL     OW21973   0.598   2.909   8.745  0.2616 -0.4041 -0.2913
 3504SOL    HW121974   0.669   2.895   8.808 -0.3096  1.8432  0.8656
 3504SOL    HW221975   0.636   2.944   8.664  0.7732 -0.5861 -0.1323
 3505SOL     OW21976   0.548   2.462  11.874 -0.3325 -0.1472 -0.0142
 3505SOL    HW121977   0.564   2.425  11.961  0.4250  0.0558 -0.0655
 3505SOL    HW221978   0.590   2.548  11.878  1.1835 -0.8593 -0.7380
 3506SOL     OW21979   3.946   3.974  14.656  0.4083  0.3125  0.4817
 3506SOL    HW121980   4.025   3.989  14.709  0.2452 -2.8522  1.6150
 3506SOL    HW221981   3.876   4.009  14.712 -0.0559  1.2772 -0.6951
 3507SOL     OW21982   4.014   3.396   9.243  0.2194  0.0041  0.3043
 3507SOL    HW121983   3.921   3.378   9.230  0.3611 -0.6555  0.1992
 3507SOL    HW221984   4.057   3.333   9.184  0.6228  0.2320  0.3514
 3508SOL     OW21985   4.698   4.618   4.109  0.5300  0.6038  0.1429
 3508SOL    HW121986   4.693   4.617   4.013  2.1807 -0.8335  0.0756
 3508SOL    HW221987   0.023   4.536   4.115  0.2547  0.2828 -1.8948
 3509SOL     OW21988   1.162   1.776   3.347 -0.2833  0.1427 -0.3106
 3509SOL    HW121989   1.085   1.806   3.395  0.1250 -1.0080  1.0714
 3509SOL    HW221990   1.169   1.859   3.300  1.2988 -0.8344 -1.7915
 3510SOL     OW21991   3.783   2.315  14.902 -0.2544 -0.1327 -0.1380
 3510SOL    HW121992   3.777   2.324  14.807  1.5070  3.1702  0.0623
 3510SOL    HW221993   3.858   2.371  14.923 -0.2188 -0.5063  0.7063
 3511SOL     OW21994   3.168   0.824   5.482 -0.4025 -0.1847 -0.0141
 3511SOL    HW121995   3.103   0.883   5.519  0.5303  0.5683  0.4275
 3511SOL    HW221996   3.179   0.756   5.549  0.7535 -0.5451 -0.5587
 3512SOL     OW21997   3.276   4.057   6.980 -0.0214  0.4960 -0.1800
 3512SOL    HW121998   3.274   4.136   6.925 -1.5955  1.2118  0.9141
 3512SOL    HW221999   3.338   3.997   6.939 -0.9286  0.3677 -1.3688
 3513SOL     OW22000   2.831   3.767   9.906  0.6607  0.1134  0.1490
 3513SOL    HW122001   2.768   3.699   9.883 -1.1377  1.8651 -0.1369
 3513SOL    HW222002   2.780   3.846   9.888  0.6125 -0.3283 -1.6473
 3514SOL     OW22003   2.986   3.721   4.709  1.3009  0.1406 -0.3192
 3514SOL    HW122004   2.955   3.684   4.791  0.7746  1.4437  0.0734
 3514SOL    HW222005   2.946   3.808   4.715 -0.8969 -0.8827 -0.0866
 3515SOL     OW22006   2.952   4.273   7.622  0.1945 -0.1307  0.5202
 3515SOL    HW122007   3.039   4.310   7.636  1.1764 -2.1947 -0.2096
 3515SOL    HW222008   2.955   4.266   7.526 -0.2795  2.1567  0.3395
 3516SOL     OW22009   2.138   1.800  11.792 -0.0530  0.8421 -0.8596
 3516SOL    HW122010   2.134   1.881  11.740  0.6949 -0.0159 -2.2397
 3516SOL    HW222011   2.059   1.757  11.759  0.2985 -0.8288  0.4860
 3517SOL     OW22012   1.980   3.595   4.732 -0.5206 -0.4989 -0.4091
 3517SOL    HW122013   2.072   3.597   4.756 -0.4535  0.1165 -0.7382
 3517SOL    HW222014   1.969   3.510   4.690  2.4608 -2.6205  3.0932
 3518SOL     OW22015   3.895   2.641   4.327 -0.3532 -0.0780 -0.0260
 3518SOL    HW122016   3.918   2.666   4.417 -0.6774 -2.4312  0.7163
 3518SOL    HW222017   3.979   2.626   4.283  0.1427 -0.3637  1.0108
 3519SOL     OW22018   4.128   1.911   8.176 -0.4252  0.0456 -0.6148
 3519SOL    HW122019   4.089   1.986   8.130 -1.4930  0.7992  1.5296
 3519SOL    HW222020   4.205   1.898   8.121  0.9298  0.2238  1.2464
 3520SOL     OW22021   4.255   1.657  11.977 -0.3765 -0.2044  0.0438
 3520SOL    HW122022   4.253   1.686  11.885  0.2429 -4.1233 -1.1818
 3520SOL    HW222023   4.232   1.565  11.973  0.8897 -0.5916  1.6153
 3521SOL     OW22024   0.905   1.341  14.274  0.5389  0.2732  0.2914
 3521SOL    HW122025   0.847   1.414  14.250 -1.2197 -2.1036 -2.8259
 3521SOL    HW222026   0.965   1.336  14.199  0.8300  0.5121  0.5113
 3522SOL     OW22027   3.016   4.052   5.435  0.3377  0.1257  0.0781
 3522SOL    HW122028   2.999   4.125   5.494  0.5434 -0.2948  0.6525
 3522SOL    HW222029   2.939   3.999   5.456 -0.4027  1.0642 -0.2703
 3523SOL     OW22030   0.035   4.031   5.302 -0.1706 -0.0402  0.4131
 3523SOL    HW122031   0.113   4.086   5.294 -1.6289  2.2163  1.6053
 3523SOL    HW222032   0.039   3.983   5.220  2.8433 -1.0910  1.1870
 3524SOL     OW22033   1.465   4.468  13.153  0.2082 -0.4189  0.2640
 3524SOL    HW122034   1.550   4.508  13.173 -0.4107  1.2396 -0.4648
 3524SOL    HW222035   1.497   4.378  13.144  1.6698  0.2466 -1.2328
 3525SOL     OW22036   3.648   2.018  12.456  0.1060  0.2447  0.4178
 3525SOL    HW122037   3.635   2.110  12.433 -0.3937  0.4927  1.7059
 3525SOL    HW222038   3.575   1.979  12.408  1.6009 -0.1185 -1.5454
 3526SOL     OW22039   2.369   1.148  11.249  0.1680 -0.1849  0.6269
 3526SOL    HW122040   2.330   1.066  11.280  0.5979 -1.8814 -3.3856
 3526SOL    HW222041   2.356   1.143  11.155  0.0709  2.1848  0.4968
 3527SOL     OW22042   3.880   1.917   0.413  0.0538  0.7959 -0.1344
 3527SOL    HW122043   3.793   1.911   0.376 -0.2587 -1.1642  0.9353
 3527SOL    HW222044   3.919   1.961   0.337 -0.0017  0.7298 -0.2004
 3528SOL     OW22045   0.838   4.400  15.994 -0.2827  0.6121 -0.5395
 3528SOL    HW122046   0.872   4.446  16.070  0.3991 -0.2635 -0.3171
 3528SOL    HW222047   0.745   4.423  15.998 -0.0569  0.7843  3.8225
 3529SOL     OW22048   1.300   1.688   6.831  0.6115 -0.0926  0.0651
 3529SOL    HW122049   1.312   1.644   6.746  0.3520  0.6351 -0.3478
 3529SOL    HW222050   1.290   1.780   6.807  1.1607  0.4678  2.0080
 3530SOL     OW22051   3.195   4.202   2.474 -0.2491  0.6647 -0.3896
 3530SOL    HW122052   3.213   4.116   2.436 -1.3039 -0.1209  0.8570
 3530SOL    HW222053   3.099   4.203   2.467 -0.3404  0.9826  0.8898
 3531SOL     OW22054   0.569   2.251   3.037  0.4235  0.7472  0.0543
 3531SOL    HW122055   0.531   2.168   3.065  0.6713  0.4295 -0.5616
 3531SOL    HW222056   0.661   2.229   3.048 -0.3222 -1.9652  0.9038
 3532SOL     OW22057   3.493   0.519   8.308 -0.5428  1.1866  0.3516
 3532SOL    HW122058   3.533   0.437   8.278  2.0531  3.4384 -2.3524
 3532SOL    HW222059   3.535   0.580   8.247 -0.0387  0.3339 -0.1684
 3533SOL     OW22060   3.309   3.165   7.670  0.4616 -0.6407  0.4572
 3533SOL    HW122061   3.302   3.184   7.577 -1.4243  1.6904  1.0932
 3533SOL    HW222062   3.286   3.072   7.661  2.5500 -1.0696 -0.4052
 3534SOL     OW22063   2.281   0.497  12.293 -0.1772 -0.1114 -0.2792
 3534SOL    HW122064   2.244   0.549  12.222 -0.3803 -1.1803 -0.9536
 3534SOL    HW222065   2.211   0.502  12.358 -0.3111 -0.8582 -0.3633
 3535SOL     OW22066   3.081   1.024   9.110 -0.1767 -0.3957 -0.7881
 3535SOL    HW122067   2.999   1.074   9.109 -0.2678 -0.5015  3.0142
 3535SOL    HW222068   3.052   0.955   9.049 -2.9726 -0.0659  0.1635
 3536SOL     OW22069   4.646   2.580  15.162  0.3335  0.2351  0.1367
 3536SOL    HW122070   4.574   2.525  15.132 -1.2555  1.5436  1.5310
 3536SOL    HW222071   4.598   2.647  15.211  0.4558 -0.0536  0.6498
 3537SOL     OW22072   0.569   3.797   5.930 -0.1401 -0.7582  0.1178
 3537SOL    HW122073   0.597   3.811   5.839 -2.9444  0.7866 -0.4906
 3537SOL    HW222074   0.633   3.850   5.977  0.8956 -0.1461 -1.9446
 3538SOL     OW22075   1.957   2.670   6.055 -0.4655  0.3149  0.1634
 3538SOL    HW122076   1.865   2.650   6.074 -0.6800 -1.5988 -2.8740
 3538SOL    HW222077   1.951   2.671   5.960  1.1701  0.6758  0.0561
 3539SOL     OW22078   2.460   1.579  15.235  0.0541 -0.1495  0.4339
 3539SOL    HW122079   2.405   1.562  15.158  3.6064 -2.0893 -1.6719
 3539SOL    HW222080   2.472   1.674  15.226  0.3278  0.0350  2.8341
 3540SOL     OW22081   2.030   3.192   5.918  0.1038  0.1223  0.2202
 3540SOL    HW122082   2.018   3.103   5.951 -1.9143  0.3134  0.0130
 3540SOL    HW222083   2.066   3.167   5.833  0.8779  1.0668  0.2661
 3541SOL     OW22084   0.955   1.199   9.542 -0.2613  0.8913  0.1578
 3541SOL    HW122085   0.919   1.216   9.630  2.1609  3.9282  0.5855
 3541SOL    HW222086   0.875   1.228   9.499  0.5806  2.6078 -0.2399
 3542SOL     OW22087   2.674   4.176   6.408  0.2033  0.4459  0.4137
 3542SOL    HW122088   2.604   4.150   6.469  0.8669  0.0441  1.0007
 3542SOL    HW222089   2.744   4.119   6.441 -0.5345 -0.0826  1.0666
 3543SOL     OW22090   2.228   3.629   0.656 -1.1254 -0.1453 -0.6582
 3543SOL    HW122091   2.265   3.637   0.745  1.4729 -2.4691 -1.5355
 3543SOL    HW222092   2.251   3.545   0.617 -0.0230  0.1310 -0.6035
 3544SOL     OW22093   3.240   0.217   7.457  0.0593  0.2716 -0.0029
 3544SOL    HW122094   3.227   0.195   7.549 -1.6237  1.8675  0.1347
 3544SOL    HW222095   3.335   0.218   7.446  0.2900 -0.1481  2.0730
 3545SOL     OW22096   0.373   0.809  17.543 -0.0643 -0.1641  0.5404
 3545SOL    HW122097   0.427   0.853  17.478 -1.1005  1.7195  0.9740
 3545SOL    HW222098   0.341   0.735  17.490  0.8155 -0.7045  0.7623
 3546SOL     OW22099   3.728   2.203   4.312  0.0171 -0.4603 -0.0778
 3546SOL    HW122100   3.672   2.143   4.363  0.4828  0.3757  1.4070
 3546SOL    HW222101   3.667   2.276   4.317  1.9465  1.0397  1.3402
 3547SOL     OW22102   0.789   0.250  14.201  0.3900 -0.3608 -0.0392
 3547SOL    HW122103   0.882   0.237  14.187  0.7305 -0.1944  2.0680
 3547SOL    HW222104   0.787   0.343  14.176  0.5317 -0.1165  0.8460
 3548SOL     OW22105   4.717   0.743   6.787 -0.0962 -0.6256 -0.1305
 3548SOL    HW122106   0.047   0.702   6.719  0.3993  0.1550 -0.2090
 3548SOL    HW222107   4.714   0.683   6.862 -0.7139  1.7133  1.6890
 3549SOL     OW22108   2.350   0.328   0.760 -1.0707 -0.2354 -0.3357
 3549SOL    HW122109   2.319   0.328   0.670 -3.4767  0.3260  0.4857
 3549SOL    HW222110   2.340   0.237   0.789  0.5439 -0.3302 -0.0727
 3550SOL     OW22111   2.979   4.549   0.844 -0.0854  0.8147 -0.0875
 3550SOL    HW122112   2.899   4.603   0.845  0.4593  1.6077  0.8793
 3550SOL    HW222113   3.022   4.582   0.765 -1.3326  0.9557 -0.7066
 3551SOL     OW22114   0.968   4.530   1.465 -0.1508  0.2848  0.1507
 3551SOL    HW122115   1.021   4.465   1.512  1.2974  1.3636  0.0187
 3551SOL    HW222116   0.879   4.532   1.500 -0.0914  1.3133  0.2513
 3552SOL     OW22117   0.714   1.019   4.369 -0.4397  0.1249 -0.7217
 3552SOL    HW122118   0.627   0.995   4.401 -1.4625  3.8170 -0.6618
 3552SOL    HW222119   0.718   0.996   4.277  0.4190 -0.1636 -0.6092
 3553SOL     OW22120   0.430   2.171   8.452  0.3736 -0.5372  0.2785
 3553SOL    HW122121   0.341   2.206   8.452 -1.1197 -4.3100 -2.0553
 3553SOL    HW222122   0.471   2.237   8.397  0.3175 -0.2151  0.6231
 3554SOL     OW22123   2.281   1.060   2.472 -0.2574  0.1394  0.0062
 3554SOL    HW122124   2.283   1.110   2.391  2.7888 -1.9802 -1.2115
 3554SOL    HW222125   2.192   1.075   2.504  0.4169  1.7819  1.1356
 3555SOL     OW22126   1.864   2.840   7.040 -0.5245 -0.2051  0.2829
 3555SOL    HW122127   1.896   2.904   6.977  0.6662  1.7871  2.9125
 3555SOL    HW222128   1.814   2.897   7.099  3.0037 -0.0282  3.1113
 3556SOL     OW22129   3.703   2.666   7.564 -0.2469 -0.3740  0.3250
 3556SOL    HW122130   3.673   2.726   7.632 -1.7010 -0.2297 -0.4492
 3556SOL    HW222131   3.623   2.626   7.529 -1.4737  1.0725  1.4770
 3557SOL     OW22132   2.303   3.147  11.218  0.1557 -0.2336 -0.4517
 3557SOL    HW122133   2.225   3.117  11.172 -0.0164  0.7739 -0.8138
 3557SOL    HW222134   2.291   3.242  11.211 -0.9865 -0.1270  2.5927
 3558SOL     OW22135   4.408   4.307   5.415 -0.6571 -0.4036 -0.3351
 3558SOL    HW122136   4.449   4.390   5.442  1.5049 -1.6696  0.2660
 3558SOL    HW222137   4.470   4.286   5.345 -0.4789 -0.9601 -0.0045
 3559SOL     OW22138   1.394   1.996  11.315 -0.4872  0.2153 -0.3474
 3559SOL    HW122139   1.464   2.018  11.254  0.5057  1.1481  1.1244
 3559SOL    HW222140   1.317   2.030  11.269  0.0227 -0.8304 -1.9835
 3560SOL     OW22141   4.377   2.589   9.861  0.1248  0.1134  0.1005
 3560SOL    HW122142   4.322   2.514   9.884 -1.2460  1.1275  0.0943
 3560SOL    HW222143   4.434   2.610   9.936 -0.4940 -0.1099  0.6369
 3561SOL     OW22144   4.118   1.533   9.509 -0.5041 -0.9951  0.7550
 3561SOL    HW122145   4.079   1.490   9.586  0.0382 -1.3323  0.8388
 3561SOL    HW222146   4.191   1.578   9.553 -2.4632  0.7208  2.3036
 3562SOL     OW22147   2.837   1.089   2.641  0.3184  0.7373 -0.2819
 3562SOL    HW122148   2.851   1.170   2.592  1.5455 -0.6945 -2.2947
 3562SOL    HW222149   2.800   1.027   2.578 -0.3638  0.5191  0.3388
 3563SOL     OW22150   1.231   1.921   9.673  0.1476 -0.1523 -0.2081
 3563SOL    HW122151   1.270   2.000   9.636 -0.4586  0.1080 -0.2873
 3563SOL    HW222152   1.312   1.872   9.688 -1.8360 -2.6828  2.1967
 3564SOL     OW22153   4.622   2.442   7.895 -0.3874  0.1772  0.0797
 3564SOL    HW122154   4.669   2.359   7.888  1.6752  1.5334 -2.0195
 3564SOL    HW222155   4.600   2.451   7.988 -1.5437 -0.3729 -0.1419
 3565SOL     OW22156   3.575   1.089  12.733 -0.3674  0.2684 -0.3948
 3565SOL    HW122157   3.667   1.114  12.722  0.2693 -2.7343 -2.0137
 3565SOL    HW222158   3.530   1.156  12.682  1.2338 -0.5579 -2.9038
 3566SOL     OW22159   3.461   4.012   2.751  0.0445 -0.0319 -0.6616
 3566SOL    HW122160   3.510   3.932   2.768  0.3868  0.6173  1.4019
 3566SOL    HW222161   3.523   4.041   2.683  0.5448  2.4420  0.8413
 3567SOL     OW22162   1.817   1.151  12.567  0.4811 -0.3976  0.5423
 3567SOL    HW122163   1.846   1.066  12.533 -0.3375 -1.3826  2.3157
 3567SOL    HW222164   1.863   1.159  12.650  0.3641 -0.4365  0.6115
 3568SOL     OW22165   1.621   3.995   7.119  0.0195 -0.7703  0.3878
 3568SOL    HW122166   1.574   3.960   7.043 -0.2373  1.8352 -0.6731
 3568SOL    HW222167   1.611   4.090   7.110  0.7826 -0.6684  0.5570
 3569SOL     OW22168   4.127   4.439  13.218 -0.6721  0.2439 -0.1103
 3569SOL    HW122169   4.222   4.448  13.225 -0.7816  0.8719  0.5883
 3569SOL    HW222170   4.118   4.432  13.123  2.5042  2.2554 -0.5681
 3570SOL     OW22171   3.669   3.979   8.342  0.6605  0.5938  0.1399
 3570SOL    HW122172   3.711   3.960   8.426 -0.9732  1.2109  1.0963
 3570SOL    HW222173   3.723   4.054   8.321  0.2729  0.8227 -0.0391
 3571SOL     OW22174   4.572   4.602   6.495 -0.0895 -0.1537  0.0908
 3571SOL    HW122175   4.648   4.544   6.501 -0.5656 -0.6702  1.2229
 3571SOL    HW222176   4.595   4.677   6.550  2.4900 -0.9687  0.1561
 3572SOL     OW22177   0.706   4.478   8.250 -0.2248 -0.1886  0.4541
 3572SOL    HW122178   0.739   4.427   8.323 -1.1619  1.2043  1.8402
 3572SOL    HW222179   0.791   4.491   8.207 -1.0254 -0.0230 -1.1132
 3573SOL     OW22180   1.107   3.792   7.071 -0.2883 -0.7540 -0.5106
 3573SOL    HW122181   1.093   3.698   7.058  1.3260 -0.9031 -1.1599
 3573SOL    HW222182   1.039   3.817   7.133  0.9723 -0.4695  0.7648
 3574SOL     OW22183   2.000   3.108  13.595  0.3300 -0.5270  0.0123
 3574SOL    HW122184   2.090   3.096  13.625  1.0922  3.6110 -0.6664
 3574SOL    HW222185   2.003   3.194  13.554 -0.2869 -0.3897  0.2488
 3575SOL     OW22186   3.341   3.456   8.763 -0.2885  0.1335  0.5144
 3575SOL    HW122187   3.386   3.539   8.776  0.0729 -0.3350  2.2638
 3575SOL    HW222188   3.300   3.448   8.849 -0.0512 -0.0165  0.6148
 3576SOL     OW22189   3.961   2.689   7.450  0.1374  0.3638 -0.0575
 3576SOL    HW122190   3.891   2.706   7.512  0.4069  1.9804 -0.2104
 3576SOL    HW222191   4.013   2.621   7.492 -1.2237 -0.5880  0.1017
 3577SOL     OW22192   3.512   1.578   3.578 -0.2781 -0.1386  0.2747
 3577SOL    HW122193   3.506   1.632   3.500  0.3350  0.2239  0.4765
 3577SOL    HW222194   3.506   1.495   3.530  0.2824 -0.4328  0.7074
 3578SOL     OW22195   1.132   2.707  12.992 -1.1965  0.0701  0.4723
 3578SOL    HW122196   1.070   2.763  13.037 -1.3524  1.0384 -0.9578
 3578SOL    HW222197   1.074   2.632  12.978 -0.2153 -0.1986 -2.0998
 3579SOL     OW22198   0.640   0.653   6.109 -0.5560  0.0606  0.2004
 3579SOL    HW122199   0.673   0.576   6.156  1.1333  0.4129 -0.4156
 3579SOL    HW222200   0.724   0.688   6.080 -1.1134 -0.3891 -1.9706
 3580SOL     OW22201   2.589   0.886   6.605 -0.0915 -0.4671  0.1793
 3580SOL    HW122202   2.609   0.879   6.512  0.2178  0.5719  0.1677
 3580SOL    HW222203   2.681   0.878   6.633 -0.1830 -2.3012 -0.0968
 3581SOL     OW22204   1.732   1.959  12.232 -0.9571  0.1077  0.3953
 3581SOL    HW122205   1.763   1.917  12.152  1.4160  0.1021  1.2927
 3581SOL    HW222206   1.638   1.967  12.217 -0.9939 -0.8299  0.1433
 3582SOL     OW22207   0.337   4.248  13.523 -0.5578  0.0092  0.4499
 3582SOL    HW122208   0.368   4.165  13.557 -0.2319  0.2741  0.8029
 3582SOL    HW222209   0.297   4.225  13.439  0.0398 -1.9502  0.7164
 3583SOL     OW22210   2.686   4.197  12.170 -0.2374 -0.2078  0.2819
 3583SOL    HW122211   2.599   4.195  12.129  0.5801  1.0090 -1.5017
 3583SOL    HW222212   2.730   4.137  12.110  0.2759 -0.1842  0.6433
 3584SOL     OW22213   0.379   3.067   2.413 -0.2839  0.2881 -0.2882
 3584SOL    HW122214   0.453   3.107   2.459 -1.0746  1.3926  0.0136
 3584SOL    HW222215   0.311   3.064   2.480 -1.4461 -0.6002 -1.5150
 3585SOL     OW22216   3.758   0.344  12.293  0.4785 -0.3096 -0.2862
 3585SOL    HW122217   3.669   0.329  12.326  0.9739 -2.5481  0.0074
 3585SOL    HW222218   3.771   0.439  12.286  0.7738 -0.1810  1.8939
 3586SOL     OW22219   2.461   4.363   3.481 -0.7032 -0.0544  0.1200
 3586SOL    HW122220   2.518   4.433   3.450 -0.5802 -0.2813 -0.1698
 3586SOL    HW222221   2.378   4.410   3.475 -1.6233 -1.9926 -2.2430
 3587SOL     OW22222   1.073   0.080   7.876  0.0190  0.1026  0.2221
 3587SOL    HW122223   1.073   0.154   7.936 -0.9361 -0.5553  1.0345
 3587SOL    HW222224   1.118   0.125   7.805 -2.5146  0.3334 -1.2410
 3588SOL     OW22225   3.224   1.501   5.421  0.2001 -0.0369  0.0690
 3588SOL    HW122226   3.260   1.426   5.374  1.9811  0.7340  0.1947
 3588SOL    HW222227   3.165   1.534   5.354 -1.9278  1.5878  2.7176
 3589SOL     OW22228   4.443   3.380   3.718  0.2562  0.0756 -0.0159
 3589SOL    HW122229   4.495   3.300   3.712  0.0292 -0.1610  1.2781
 3589SOL    HW222230   4.363   3.339   3.752 -0.1944  2.2625  1.5268
 3590SOL     OW22231   1.441   0.094   8.885  0.0915 -0.2722 -0.6613
 3590SOL    HW122232   1.502   0.157   8.923 -0.5912 -0.1711  0.2865
 3590SOL    HW222233   1.497   0.057   8.817 -2.6992 -0.2197 -3.0143
 3591SOL     OW22234   4.246   3.817   6.690  0.2589  0.5598 -0.3578
 3591SOL    HW122235   4.276   3.874   6.619  0.1946  0.0895 -0.7570
 3591SOL    HW222236   4.323   3.806   6.747 -0.0670  0.6906  0.1108
 3592SOL     OW22237   3.812   4.551   2.230 -0.4153 -0.5164 -0.4793
 3592SOL    HW122238   3.846   4.467   2.199  0.0116 -0.0558 -1.2697
 3592SOL    HW222239   3.828   4.544   2.324  0.8946  0.1976 -0.6410
 3593SOL     OW22240   0.615   2.421   5.185  0.5307  0.3316 -0.6934
 3593SOL    HW122241   0.683   2.425   5.119 -0.6958 -0.4024 -1.9917
 3593SOL    HW222242   0.584   2.334   5.161 -1.4792  1.3127 -1.6522
 3594SOL     OW22243   0.023   3.979  12.370 -0.6481 -0.2636  0.0099
 3594SOL    HW122244   4.661   4.008  12.336 -1.1466 -1.1232  0.5347
 3594SOL    HW222245   0.083   4.031  12.317  0.2877 -1.1772  0.1683
 3595SOL     OW22246   0.031   2.023   6.823  0.1103 -0.6445  0.3210
 3595SOL    HW122247   4.685   2.084   6.797  0.9605  0.8512  1.5098
 3595SOL    HW222248   0.092   2.092   6.849 -2.0405  1.6612 -0.7731
 3596SOL     OW22249   1.202   3.550   0.644  1.3635  0.4090  0.7618
 3596SOL    HW122250   1.284   3.567   0.692  1.3522  0.5955  0.7154
 3596SOL    HW222251   1.238   3.485   0.584 -0.4250  0.2271 -0.1118
 3597SOL     OW22252   4.135   2.682   7.212 -0.0395 -0.2501  0.1465
 3597SOL    HW122253   4.077   2.673   7.288 -0.2480 -1.7541 -0.1949
 3597SOL    HW222254   4.208   2.625   7.237 -0.0576 -0.9751 -1.4725
 3598SOL     OW22255   3.420   3.477   7.427 -0.0071 -0.4872 -0.1202
 3598SOL    HW122256   3.437   3.521   7.344 -0.9453  0.7540  0.3329
 3598SOL    HW222257   3.503   3.433   7.443  0.9441  1.4656  0.4116
 3599SOL     OW22258   1.416   1.383   5.552 -0.3876  0.5888 -0.0956
 3599SOL    HW122259   1.333   1.404   5.508 -0.0232  2.2438 -0.0048
 3599SOL    HW222260   1.463   1.347   5.477 -0.0973  1.0668 -0.1392
 3600SOL     OW22261   4.652   3.350   8.231 -0.4800  0.7068 -0.2364
 3600SOL    HW122262   4.586   3.416   8.250  0.0064  1.1708 -0.1452
 3600SOL    HW222263   0.012   3.392   8.208 -0.9270  0.6932 -1.8388
 3601SOL     OW22264   2.694   2.503  12.049  0.1805 -0.3412  0.1058
 3601SOL    HW122265   2.631   2.471  12.113  0.4604  0.5854  0.8318
 3601SOL    HW222266   2.761   2.548  12.100  0.4101  0.9542 -1.3190
 3602SOL     OW22267   0.164   0.750   5.126  0.2501  0.2610  0.4009
 3602SOL    HW122268   0.225   0.704   5.067  1.0858  0.3204  1.2133
 3602SOL    HW222269   0.111   0.673   5.147 -0.7430  1.1578  1.1646
 3603SOL     OW22270   4.146   4.250  15.688  0.3855 -0.0519 -0.1004
 3603SOL    HW122271   4.060   4.219  15.713  0.7908 -0.0347  1.2890
 3603SOL    HW222272   4.118   4.304  15.614 -0.4614  0.4705  0.6056
 3604SOL     OW22273   2.535   3.206   8.693 -0.6453 -0.3455 -0.2369
 3604SOL    HW122274   2.466   3.151   8.729  0.5887 -0.7399  1.4993
 3604SOL    HW222275   2.610   3.201   8.752 -1.5488 -1.5867  0.8145
 3605SOL     OW22276   4.246   1.103   3.648 -0.8992 -0.2160 -0.0414
 3605SOL    HW122277   4.259   1.129   3.557  0.4489 -0.4299  0.0908
 3605SOL    HW222278   4.267   1.183   3.695  1.1368 -0.9076  0.2182
 3606SOL     OW22279   1.185   1.983  12.174  0.2187  0.1396  0.6882
 3606SOL    HW122280   1.145   1.915  12.119  1.2622  0.6164 -0.6600
 3606SOL    HW222281   1.155   1.947  12.257 -2.1383 -1.5443 -0.8802
 3607SOL     OW22282   0.898   2.383   7.560  0.8404 -0.6101  0.2578
 3607SOL    HW122283   0.884   2.417   7.648 -2.4591  1.0712 -0.9208
 3607SOL    HW222284   0.810   2.372   7.523  0.5362 -0.4824  0.9369
 3608SOL     OW22285   1.850   3.026  12.875 -0.1246  0.8051 -0.4145
 3608SOL    HW122286   1.800   2.967  12.818  0.3955  0.2615 -0.3108
 3608SOL    HW222287   1.891   2.960  12.931 -0.9267  0.4967 -0.1780
 3609SOL     OW22288   4.485   0.095   5.439 -0.2955  0.1368 -0.1403
 3609SOL    HW122289   4.518   0.050   5.361  0.8025  1.5313 -0.4902
 3609SOL    HW222290   4.454   0.179   5.404 -1.3383  0.0013  0.4593
 3610SOL     OW22291   2.612   0.519   8.772 -0.0287  0.3180  0.3009
 3610SOL    HW122292   2.601   0.424   8.766 -1.3167  0.4316  0.8414
 3610SOL    HW222293   2.573   0.538   8.857 -0.1536  1.0394  0.0795
 3611SOL     OW22294   4.398   2.274   8.806 -0.0975 -0.5767  0.9557
 3611SOL    HW122295   4.402   2.269   8.711  0.4325 -0.6025  0.9783
 3611SOL    HW222296   4.477   2.222   8.819  1.8561  1.9572 -0.7367
 3612SOL     OW22297   2.662   3.265   5.129 -0.2006 -0.1458  0.0149
 3612SOL    HW122298   2.640   3.271   5.036  0.1801 -1.0858 -0.1348
 3612SOL    HW222299   2.639   3.350   5.167  0.2560 -0.2294  0.4842
 3613SOL     OW22300   4.206   1.525  10.855 -0.1837 -0.1165  0.0877
 3613SOL    HW122301   4.244   1.439  10.870  2.3663  1.2000  1.1645
 3613SOL    HW222302   4.145   1.526  10.928  0.2589 -3.2986  0.4760
 3614SOL     OW22303   4.618   0.390  16.086 -0.1403 -0.0213  0.1167
 3614SOL    HW122304   4.700   0.434  16.109 -2.0973  1.6639  3.7344
 3614SOL    HW222305   4.604   0.441  16.006 -0.9515  1.3454  1.1463
 3615SOL     OW22306   1.335   2.445   2.626 -0.2615 -0.3169  0.7654
 3615SOL    HW122307   1.308   2.417   2.539  1.5559 -0.5515  0.2649
 3615SOL    HW222308   1.281   2.389   2.681 -2.2813 -0.9539 -1.8841
 3616SOL     OW22309   4.650   1.191   6.235  0.1087 -0.0898  0.3842
 3616SOL    HW122310   4.671   1.145   6.316 -1.9840 -0.9776  0.4006
 3616SOL    HW222311   0.012   1.186   6.190 -0.8685  0.7112 -1.5296
 3617SOL     OW22312   2.814   2.974   6.416  0.0569 -0.2053 -0.4105
 3617SOL    HW122313   2.836   2.950   6.326  0.0123 -1.7743  0.0067
 3617SOL    HW222314   2.864   2.922   6.478  1.1172 -0.3586 -1.3901
 3618SOL     OW22315   0.553   4.502   6.063 -0.3582 -0.5702 -0.1591
 3618SOL    HW122316   0.614   4.506   6.137 -2.1260  1.0353  1.2079
 3618SOL    HW222317   0.608   4.542   5.996 -1.2388 -1.3112 -1.3232
 3619SOL     OW22318   4.531   3.203   3.217 -0.1101  0.4719 -0.1468
 3619SOL    HW122319   4.585   3.125   3.225  0.0461  0.8217  2.1715
 3619SOL    HW222320   4.601   3.268   3.220  0.9673 -0.7562  1.4501
 3620SOL     OW22321   2.031   3.753   7.784  0.1988  0.3040 -0.0560
 3620SOL    HW122322   2.019   3.808   7.862  2.6728  0.1575  0.4132
 3620SOL    HW222323   2.111   3.793   7.750 -0.7161  0.4160 -2.0618
 3621SOL     OW22324   0.551   4.495   2.680  0.0305 -0.3853 -0.2613
 3621SOL    HW122325   0.631   4.519   2.726 -0.7040 -0.3969  1.0220
 3621SOL    HW222326   0.575   4.513   2.589  1.5205 -0.8220  0.0454
 3622SOL     OW22327   1.993   0.635   3.332  0.4669 -0.9979  0.3931
 3622SOL    HW122328   2.036   0.644   3.247 -0.7194 -0.2985 -0.1365
 3622SOL    HW222329   1.904   0.663   3.309  1.2847  2.1755  1.1368
 3623SOL     OW22330   1.769   2.992   3.074  0.8716 -0.8858 -0.1608
 3623SOL    HW122331   1.786   3.080   3.110  1.3734 -1.2012  0.3649
 3623SOL    HW222332   1.852   2.981   3.028  0.5991 -0.2577 -0.8021
 3624SOL     OW22333   0.506   1.088   9.909 -0.1572  0.5182  0.5240
 3624SOL    HW122334   0.553   1.010   9.937 -1.9794 -0.4833  0.7330
 3624SOL    HW222335   0.441   1.056   9.847 -0.1908  1.0027  0.3039
 3625SOL     OW22336   1.782   0.458   1.514  0.5343  0.4095  0.0144
 3625SOL    HW122337   1.742   0.525   1.458 -0.9303 -0.1892  0.3470
 3625SOL    HW222338   1.872   0.463   1.481  0.5349 -0.7274 -0.1743
 3626SOL     OW22339   3.175   4.415   7.659 -0.2913 -0.4882 -0.0889
 3626SOL    HW122340   3.241   4.411   7.728  1.2155 -2.7131 -1.6503
 3626SOL    HW222341   3.137   4.502   7.675  0.5295  0.0405 -1.0246
 3627SOL     OW22342   0.374   3.260   5.055 -0.1072  0.6274 -0.2829
 3627SOL    HW122343   0.433   3.275   4.982  1.2015  2.6042  1.1969
 3627SOL    HW222344   0.405   3.173   5.080  0.3769  1.4609  1.9877
 3628SOL     OW22345   2.535   1.934   8.545 -0.1113  0.1756 -0.1199
 3628SOL    HW122346   2.528   2.029   8.538 -0.4820 -0.0697 -2.8008
 3628SOL    HW222347   2.598   1.916   8.475 -0.3597 -2.1900  0.2754
 3629SOL     OW22348   3.046   0.966   2.753 -0.0786 -0.5902  0.3825
 3629SOL    HW122349   2.967   1.006   2.716  1.1265  1.3804 -0.0179
 3629SOL    HW222350   3.084   0.935   2.671  3.1626  0.0303  1.6423
 3630SOL     OW22351   2.195   4.499   2.084 -0.6699 -0.2598 -0.2188
 3630SOL    HW122352   2.178   4.421   2.031 -0.8396 -0.8389  0.6899
 3630SOL    HW222353   2.134   4.564   2.050  0.3969  0.7150 -0.2703
 3631SOL     OW22354   4.400   0.825   1.089 -0.3137  0.4641 -0.3635
 3631SOL    HW122355   4.471   0.889   1.096 -0.4925  0.7213 -0.9129
 3631SOL    HW222356   4.323   0.876   1.113  0.5569  1.2401  0.8028
 3632SOL     OW22357   0.733   0.033   2.679 -0.4420  0.0124 -0.1191
 3632SOL    HW122358   0.754   4.680   2.733 -0.9864 -0.6564 -0.8519
 3632SOL    HW222359   0.644   0.063   2.700  0.2358  1.4323  0.7273
 3633SOL     OW22360   3.716   1.313  11.876 -0.4199  0.0659  0.1660
 3633SOL    HW122361   3.769   1.347  11.804  1.1365 -0.9863  0.8325
 3633SOL    HW222362   3.769   1.344  11.949 -0.0541 -2.3796  0.9359
 3634SOL     OW22363   3.597   1.070   4.712 -0.2548  0.1374  0.0148
 3634SOL    HW122364   3.591   1.160   4.744 -1.4986  0.2790 -0.6259
 3634SOL    HW222365   3.518   1.033   4.752 -0.0949  0.4871  0.6521
 3635SOL     OW22366   3.555   0.447   9.814  0.2768  0.2576 -0.0087
 3635SOL    HW122367   3.638   0.494   9.819  0.0057  0.6824  0.6018
 3635SOL    HW222368   3.570   0.380   9.880  1.7829  0.4698 -0.1467
 3636SOL     OW22369   3.114   0.554   5.571  0.1688  0.3910 -0.3916
 3636SOL    HW122370   3.032   0.579   5.528 -0.6979  0.9587  1.6038
 3636SOL    HW222371   3.088   0.511   5.652  0.4193  0.3510 -0.3335
 3637SOL     OW22372   0.129   3.689   4.504  0.1693 -0.0189  0.0210
 3637SOL    HW122373   0.183   3.696   4.425  1.2618  1.6099  0.9085
 3637SOL    HW222374   0.108   3.779   4.530 -1.4223 -0.3444 -0.1096
 3638SOL     OW22375   4.482   2.649   7.448 -0.3896 -0.5697 -0.0991
 3638SOL    HW122376   4.419   2.660   7.519  1.5728  2.2825  1.2166
 3638SOL    HW222377   4.561   2.641   7.502  0.4298  1.5553 -0.9730
 3639SOL     OW22378   2.241   2.121   6.498  0.3338  0.7848 -0.5950
 3639SOL    HW122379   2.247   2.027   6.514 -1.8699  0.7178 -0.2245
 3639SOL    HW222380   2.192   2.155   6.572  2.4470  0.0043  1.1426
 3640SOL     OW22381   0.745   2.385  12.719  0.3546  0.0567 -0.0284
 3640SOL    HW122382   0.835   2.358  12.737 -0.2026 -1.3785  0.5945
 3640SOL    HW222383   0.762   2.433  12.638 -0.8996  1.1249  0.3453
 3641SOL     OW22384   4.350   4.454   3.445  0.4461  0.7309 -0.3595
 3641SOL    HW122385   4.406   4.477   3.371  0.6516 -0.4278 -0.5615
 3641SOL    HW222386   4.294   4.388   3.403  1.0311 -1.4604  2.3188
 3642SOL     OW22387   3.976   3.063   5.405 -0.2456  0.7814  0.2632
 3642SOL    HW122388   3.993   3.132   5.341  1.5597  1.9677  2.0189
 3642SOL    HW222389   4.064   3.042   5.435  0.8162  1.0989 -2.6847
 3643SOL     OW22390   0.273   2.222   2.676  0.0476  0.0073  0.1098
 3643SOL    HW122391   0.179   2.223   2.658  0.3149  2.4756 -1.2291
 3643SOL    HW222392   0.300   2.222   2.584 -1.1248  1.8805 -0.2498
 3644SOL     OW22393   3.887   0.535   2.330  0.4240  0.4956 -0.7195
 3644SOL    HW122394   3.846   0.484   2.260  1.3254 -3.2548  1.4896
 3644SOL    HW222395   3.949   0.596   2.291  0.0934  1.8329  0.8197
 3645SOL     OW22396   3.931   1.241   9.643  0.1208  0.5610 -0.2584
 3645SOL    HW122397   3.940   1.154   9.684 -2.5154  1.6158  2.5430
 3645SOL    HW222398   3.980   1.223   9.563 -1.5959  2.5831 -1.7382
 3646SOL     OW22399   0.529   0.693   8.023  0.2084  0.0315  0.3435
 3646SOL    HW122400   0.564   0.666   8.108  0.6867 -1.8893 -0.4803
 3646SOL    HW222401   0.464   0.761   8.041 -0.1115 -0.1083 -0.2994
 3647SOL     OW22402   3.704   3.207  15.805 -0.4553 -0.2675  0.6002
 3647SOL    HW122403   3.776   3.228  15.864 -1.3050  2.1780  0.7982
 3647SOL    HW222404   3.692   3.115  15.829  0.6546 -0.4662  0.3559
 3648SOL     OW22405   2.841   3.211   3.159  0.0374  0.8003  0.0339
 3648SOL    HW122406   2.759   3.167   3.183 -0.5134  0.8416 -1.7418
 3648SOL    HW222407   2.859   3.253   3.243  1.2624 -0.9098  0.6161
 3649SOL     OW22408   0.918   2.379   2.685  0.4077  0.3924 -0.2878
 3649SOL    HW122409   0.932   2.345   2.596  0.7195 -0.2299  0.0005
 3649SOL    HW222410   1.007   2.375   2.720  1.5233 -0.0582 -3.1008
 3650SOL     OW22411   0.545   2.183   5.100 -0.2899 -0.4323  0.1528
 3650SOL    HW122412   0.487   2.192   5.025 -1.6373 -1.7074  1.0341
 3650SOL    HW222413   0.565   2.089   5.098 -0.4203 -0.4400 -0.6141
 3651SOL     OW22414   3.090   0.527   0.023 -0.5543 -0.1734  0.4787
 3651SOL    HW122415   3.018   0.582  17.684  1.2472  0.7877 -1.9318
 3651SOL    HW222416   3.161   0.557  17.659 -0.5722 -0.9322  0.0658
 3652SOL     OW22417   4.444   0.258   3.944  0.5242 -0.6589  0.2309
 3652SOL    HW122418   4.404   0.174   3.922  1.6720 -1.1821  0.1213
 3652SOL    HW222419   4.371   0.300   3.990  0.7285 -1.3014  1.1503
 3653SOL     OW22420   1.053   3.457   9.655  0.5336 -0.4590  0.1808
 3653SOL    HW122421   1.084   3.444   9.566  0.6359  1.4075 -0.0439
 3653SOL    HW222422   1.023   3.369   9.679  1.4403 -1.1168 -1.0764
 3654SOL     OW22423   2.336   3.355   4.734  0.2380 -0.3389 -0.0232
 3654SOL    HW122424   2.377   3.369   4.648 -0.9596 -0.7713 -0.6617
 3654SOL    HW222425   2.410   3.329   4.789  0.0856 -0.5672  0.0781
 3655SOL     OW22426   2.578   4.354   2.165 -0.2505  0.1533 -0.3952
 3655SOL    HW122427   2.574   4.449   2.169 -1.4897  0.1659 -1.9299
 3655SOL    HW222428   2.631   4.351   2.086 -1.7274 -0.2095 -1.3851
 3656SOL     OW22429   1.331   0.542   4.516 -0.1564 -0.4797 -0.0812
 3656SOL    HW122430   1.327   0.454   4.480  0.3947 -0.4083 -0.3229
 3656SOL    HW222431   1.241   0.562   4.492 -0.3422  0.2671  1.2642
 3657SOL     OW22432   1.538   1.434   9.272 -0.5099  0.5039  0.2736
 3657SOL    HW122433   1.628   1.424   9.241 -1.4552 -1.1190 -1.9595
 3657SOL    HW222434   1.540   1.366   9.339 -0.2385  0.2655  0.0277
 3658SOL     OW22435   2.666   3.909   4.021 -0.3515 -0.2067 -0.2646
 3658SOL    HW122436   2.639   3.958   3.943  0.2925 -1.8938 -1.5717
 3658SOL    HW222437   2.677   3.827   3.973 -1.4972 -0.9104  0.6518
 3659SOL     OW22438   3.386   2.879   0.742 -0.2808  0.1555  0.2947
 3659SOL    HW122439   3.458   2.910   0.796  1.3277 -2.9939 -0.0768
 3659SOL    HW222440   3.319   2.948   0.748  0.7415  1.2027 -0.4027
 3660SOL     OW22441   2.870   4.645  16.179  0.4386  1.0841  0.9521
 3660SOL    HW122442   2.943   4.594  16.215 -1.1393  0.6315  3.4638
 3660SOL    HW222443   2.799   4.594  16.216 -1.1789  1.0081 -2.2485
 3661SOL     OW22444   3.276   0.502   9.840 -0.6866  0.5796  0.5887
 3661SOL    HW122445   3.282   0.597   9.848 -1.9574  0.7722 -0.6679
 3661SOL    HW222446   3.362   0.482   9.804 -0.2491  1.6556  1.0629
 3662SOL     OW22447   1.401   3.784   6.583 -0.1301  0.1934  0.3661
 3662SOL    HW122448   1.343   3.860   6.581  0.7774  0.8742  0.2801
 3662SOL    HW222449   1.443   3.803   6.667 -1.2416 -1.1473  1.2174
 3663SOL     OW22450   3.346   4.547   6.376  0.0774  0.1746 -0.3233
 3663SOL    HW122451   3.355   4.469   6.321  1.3808  1.2295 -1.6225
 3663SOL    HW222452   3.438   4.570   6.365  0.3004 -0.1826  0.8060
 3664SOL     OW22453   3.284   1.657   6.379 -0.3722  0.1669 -0.2773
 3664SOL    HW122454   3.256   1.637   6.468  2.3906 -0.8433  0.3654
 3664SOL    HW222455   3.374   1.675   6.406 -0.4478 -2.5565  1.8262
 3665SOL     OW22456   2.107   1.432  15.694 -0.1456  0.4458 -0.5989
 3665SOL    HW122457   2.155   1.515  15.698  0.5096 -0.0488  1.7904
 3665SOL    HW222458   2.131   1.394  15.609 -0.3297 -0.1625 -0.3752
 3666SOL     OW22459   4.563   4.388   6.978  0.0004 -0.3434  0.1294
 3666SOL    HW122460   4.470   4.406   6.988  0.4322  2.0642 -0.3416
 3666SOL    HW222461   4.598   4.443   6.909 -1.5877  1.8409  1.0802
 3667SOL     OW22462   3.366   1.634   6.649  0.4868 -0.3394 -0.0592
 3667SOL    HW122463   3.312   1.702   6.691 -1.0191 -1.5675 -0.0076
 3667SOL    HW222464   3.452   1.676   6.645  0.0428  0.7511  1.6496
 3668SOL     OW22465   3.212   4.681   4.068 -0.2112  0.5804 -0.0082
 3668SOL    HW122466   3.218   4.586   4.066  0.5369  0.6130  0.9404
 3668SOL    HW222467   3.291   4.702   4.018  2.5130 -1.1149  3.6057
 3669SOL     OW22468   2.136   1.274   6.421 -0.1320  0.2496  0.3804
 3669SOL    HW122469   2.068   1.233   6.474  1.8773 -0.8587  2.0738
 3669SOL    HW222470   2.104   1.364   6.430  0.0856  0.4346 -0.6474
 3670SOL     OW22471   1.588   0.077   7.802  0.3868 -0.3565  0.3150
 3670SOL    HW122472   1.658   0.087   7.738 -0.8500  0.1011 -0.9604
 3670SOL    HW222473   1.621   0.001   7.851 -0.1449 -0.3428  0.6934
 3671SOL     OW22474   3.718   3.002   1.300  0.2759  0.4815  0.4940
 3671SOL    HW122475   3.635   2.996   1.348  1.5461 -0.7117  2.5287
 3671SOL    HW222476   3.726   3.096   1.285  0.1625  1.0849  4.3050
 3672SOL     OW22477   4.532   3.192   9.200 -0.2675 -0.3302 -0.1707
 3672SOL    HW122478   4.518   3.234   9.115 -0.9068  0.3956  0.2980
 3672SOL    HW222479   4.623   3.164   9.199 -0.2438 -0.2532 -0.3632
 3673SOL     OW22480   2.152   4.347   4.887  0.1235 -0.1189  0.3313
 3673SOL    HW122481   2.133   4.274   4.828 -0.5709  0.4946 -0.2104
 3673SOL    HW222482   2.166   4.306   4.972 -0.9559 -1.2043 -0.0269
 3674SOL     OW22483   3.608   1.330  14.286 -0.3194 -0.5405  0.1404
 3674SOL    HW122484   3.609   1.241  14.249 -0.3878 -1.2075  1.7741
 3674SOL    HW222485   3.575   1.385  14.215 -1.5902 -1.5835 -0.0841
 3675SOL     OW22486   2.269   3.471  10.152  0.1543 -0.0233 -0.6703
 3675SOL    HW122487   2.253   3.552  10.200 -0.7313 -0.0954 -0.8355
 3675SOL    HW222488   2.198   3.470  10.088  1.4209  0.6029 -2.0589
 3676SOL     OW22489   3.103   0.937   7.670  0.0273  0.2705  0.2182
 3676SOL    HW122490   3.030   0.992   7.643 -1.4944 -2.3348 -1.0469
 3676SOL    HW222491   3.166   1.002   7.701 -0.4598  0.9524 -0.2416
 3677SOL     OW22492   2.247   0.287   8.579  0.3189 -0.0557 -0.1240
 3677SOL    HW122493   2.231   0.193   8.578  0.7534 -0.1412  1.1802
 3677SOL    HW222494   2.235   0.302   8.672 -2.1090 -0.3145 -0.3861
 3678SOL     OW22495   2.884   0.643   7.450 -0.6661  0.0289  0.4207
 3678SOL    HW122496   2.811   0.652   7.389 -1.0228 -1.0138  0.6841
 3678SOL    HW222497   2.842   0.631   7.535 -0.5982  0.2025  0.4788
 3679SOL     OW22498   0.798   2.279   8.143  0.3654 -0.1442  0.4308
 3679SOL    HW122499   0.866   2.266   8.209  1.1170 -2.5369 -0.8144
 3679SOL    HW222500   0.844   2.300   8.062  1.4820 -1.2766  0.7836
 3680SOL     OW22501   3.844   2.519  12.640  0.0620 -0.4146  0.1411
 3680SOL    HW122502   3.818   2.604  12.606 -0.6783  0.2911  2.4573
 3680SOL    HW222503   3.938   2.535  12.643  0.3966 -2.8285  2.7742
 3681SOL     OW22504   0.900   3.674   3.368 -0.1127 -0.0389  0.5303
 3681SOL    HW122505   0.901   3.677   3.273 -1.0604 -3.5878  0.4076
 3681SOL    HW222506   0.944   3.589   3.372  1.5093  0.7624 -0.3987
 3682SOL     OW22507   0.318   3.803  16.401 -0.7083 -0.4549  0.1279
 3682SOL    HW122508   0.262   3.856  16.458  0.1337  0.7707 -0.1960
 3682SOL    HW222509   0.382   3.791  16.471 -0.6738  0.1289  0.1938
 3683SOL     OW22510   0.537   2.813   6.144 -0.3266  0.0760 -0.3892
 3683SOL    HW122511   0.572   2.902   6.134 -0.1720 -0.0811 -1.2861
 3683SOL    HW222512   0.607   2.757   6.112  0.4127 -0.2258  1.7739
 3684SOL     OW22513   3.938   0.810   9.262  0.0763  0.4402  0.1974
 3684SOL    HW122514   4.011   0.870   9.246 -1.4246  2.8293  2.2874
 3684SOL    HW222515   3.978   0.724   9.270 -1.2112 -0.0055  1.7932
 3685SOL     OW22516   3.916   3.712   0.356  0.0809  0.0759  0.0392
 3685SOL    HW122517   3.907   3.712   0.452  3.4175  1.1973  0.3786
 3685SOL    HW222518   4.010   3.709   0.335 -0.1830 -1.3599 -0.9313
 3686SOL     OW22519   2.255   1.318  15.159  0.1791  0.7116  0.4837
 3686SOL    HW122520   2.336   1.272  15.177  0.3814  0.4139 -1.1355
 3686SOL    HW222521   2.288   1.398  15.120  1.8151  0.5361  1.5394
 3687SOL     OW22522   2.372   0.766   2.586 -0.1900 -0.0279  0.3657
 3687SOL    HW122523   2.386   0.671   2.596 -0.5162 -0.4394 -3.0520
 3687SOL    HW222524   2.306   0.764   2.517  2.0898 -0.7422 -1.7852
 3688SOL     OW22525   0.586   3.372  13.680 -0.2432 -0.2608 -0.2879
 3688SOL    HW122526   0.527   3.441  13.651  0.5050  1.2997  1.9078
 3688SOL    HW222527   0.528   3.299  13.703 -1.0432 -0.0861 -1.7951
 3689SOL     OW22528   3.781   1.274   8.764 -0.3428  1.0821  0.2787
 3689SOL    HW122529   3.864   1.314   8.739  0.8147 -0.3421  1.9198
 3689SOL    HW222530   3.716   1.345   8.770 -0.2394  1.3271 -1.5406
 3690SOL     OW22531   1.355   3.362   3.180  1.1482 -0.1133 -0.4416
 3690SOL    HW122532   1.279   3.341   3.126 -1.5288  3.1751  1.9914
 3690SOL    HW222533   1.380   3.278   3.217 -1.8108 -1.2841 -1.0988
 3691SOL     OW22534   1.530   2.445   9.854  0.2163  0.3306  0.2990
 3691SOL    HW122535   1.620   2.418   9.869  0.0473  0.0834  0.8612
 3691SOL    HW222536   1.517   2.472   9.945 -2.2748 -0.2628  0.1190
 3692SOL     OW22537   1.984   2.602   7.165 -0.3673 -0.4365 -0.7446
 3692SOL    HW122538   1.955   2.648   7.244 -1.2126 -0.4379 -1.0578
 3692SOL    HW222539   1.956   2.665   7.099 -0.2849 -0.1471 -0.5100
 3693SOL     OW22540   0.227   1.191   7.271  0.4229 -0.6458  0.3835
 3693SOL    HW122541   0.305   1.248   7.271 -1.3401  1.8047 -0.7363
 3693SOL    HW222542   0.154   1.250   7.251  2.0431  1.8620  1.7977
 3694SOL     OW22543   0.096   3.487   7.966  0.3711  0.2470 -0.1532
 3694SOL    HW122544   0.156   3.469   7.894  0.2277  0.3376 -0.2939
 3694SOL    HW222545   0.032   3.421   7.936  0.3888 -0.2882  0.9763
 3695SOL     OW22546   3.542   2.353   6.709 -0.4536  0.1703  0.1046
 3695SOL    HW122547   3.628   2.340   6.669 -0.4271  1.4407 -0.2610
 3695SOL    HW222548   3.529   2.434   6.660 -0.6107  1.3409  2.0724
 3696SOL     OW22549   3.630   0.623   5.389 -0.3272  0.4811  0.2868
 3696SOL    HW122550   3.648   0.612   5.482  1.3613  2.7384  0.2316
 3696SOL    HW222551   3.562   0.691   5.385  0.6954  1.3171 -3.4193
 3697SOL     OW22552   4.542   2.348   2.088  0.0436 -0.6043  0.1964
 3697SOL    HW122553   4.579   2.427   2.128  1.4641 -0.2357 -1.8179
 3697SOL    HW222554   4.554   2.288   2.161  0.9231 -1.1862 -0.4323
 3698SOL     OW22555   2.645   2.818   7.810  0.1605  1.0746  0.1741
 3698SOL    HW122556   2.562   2.865   7.821  0.3348  2.1172 -3.1167
 3698SOL    HW222557   2.696   2.879   7.758 -1.0828  3.5349  1.8200
 3699SOL     OW22558   4.420   4.717   1.548  0.2580  0.2192  0.1094
 3699SOL    HW122559   4.471   4.640   1.572  0.3019  0.8198  1.8856
 3699SOL    HW222560   4.339   4.673   1.520  0.7327 -0.5153 -0.1141
 3700SOL     OW22561   3.858   4.287   5.494 -0.7716  0.1137  0.4289
 3700SOL    HW122562   3.842   4.197   5.523  0.8800  0.4058  2.1891
 3700SOL    HW222563   3.949   4.284   5.463 -0.1688  0.1031  2.2372
 3701SOL     OW22564   3.203   2.473  13.927 -0.6985  0.2409  0.2010
 3701SOL    HW122565   3.266   2.409  13.960  0.6379  0.5833 -1.7132
 3701SOL    HW222566   3.178   2.517  14.008 -1.7448 -0.6902  0.3912
 3702SOL     OW22567   0.201   3.595   3.857 -0.5708  0.1506  0.2425
 3702SOL    HW122568   0.295   3.581   3.847 -0.4665  1.1725 -0.1639
 3702SOL    HW222569   0.191   3.607   3.952 -2.8386  3.0539 -0.3418
 3703SOL     OW22570   0.217   1.120  12.752 -0.4139 -0.5228 -0.1211
 3703SOL    HW122571   0.306   1.154  12.743 -0.6790  0.6977  1.8744
 3703SOL    HW222572   0.237   1.048  12.812  0.3437 -1.3432 -1.3613
 3704SOL     OW22573   3.677   4.428  11.959  0.3915 -0.3705  0.0646
 3704SOL    HW122574   3.702   4.517  11.983 -2.4416  0.1807  0.9190
 3704SOL    HW222575   3.592   4.441  11.918  1.0234 -1.5809 -1.6560
 3705SOL     OW22576   2.883   2.664   7.120  0.0741 -0.1179  0.1315
 3705SOL    HW122577   2.787   2.660   7.122 -0.0433  2.9742  1.2534
 3705SOL    HW222578   2.897   2.703   7.034 -1.0693  0.2682  0.1209
 3706SOL     OW22579   4.319   1.047   4.890  0.2664  0.0811 -0.1882
 3706SOL    HW122580   4.224   1.042   4.874  0.0502  0.9032  0.8250
 3706SOL    HW222581   4.312   1.029   4.984 -1.7969 -0.0969 -0.3664
 3707SOL     OW22582   1.571   1.300   6.095 -0.0855 -0.9969  0.0776
 3707SOL    HW122583   1.608   1.300   6.183 -1.4774  0.0668  0.6743
 3707SOL    HW222584   1.632   1.356   6.048  0.5944 -0.7476  1.2848
 3708SOL     OW22585   2.850   2.830  11.755 -0.2566 -0.1772 -0.1531
 3708SOL    HW122586   2.764   2.805  11.788 -0.8065  1.0071 -0.7089
 3708SOL    HW222587   2.850   2.822  11.660  0.2046  0.7321 -0.2311
 3709SOL     OW22588   0.140   0.238   9.054  0.0330 -0.0896 -0.0226
 3709SOL    HW122589   0.152   0.294   9.131  1.2615 -3.5441  2.2582
 3709SOL    HW222590   0.181   0.163   9.096 -0.4504  0.6952  1.8227
 3710SOL     OW22591   1.966   4.111   2.089 -0.1227 -0.1355 -0.2785
 3710SOL    HW122592   1.874   4.095   2.107  0.2206  0.2096  1.8306
 3710SOL    HW222593   2.000   4.128   2.177  0.6206 -0.2529 -0.5432
 3711SOL     OW22594   3.220   2.936   9.005  0.0820  0.1244 -0.0208
 3711SOL    HW122595   3.235   2.855   8.956  0.6914 -0.4236  1.0607
 3711SOL    HW222596   3.165   2.911   9.078 -0.7834 -0.4275 -0.8754
 3712SOL     OW22597   0.314   4.551   3.802 -0.1932 -0.2526 -0.1268
 3712SOL    HW122598   0.231   4.515   3.832  0.9186 -1.5046  1.4967
 3712SOL    HW222599   0.357   4.576   3.884 -1.9720  1.9709  0.1214
 3713SOL     OW22600   0.644   2.322   9.103  0.5666  0.1979 -0.3421
 3713SOL    HW122601   0.662   2.249   9.162 -0.2898 -1.7466 -2.5221
 3713SOL    HW222602   0.593   2.284   9.031 -0.3335 -0.9640  0.9132
 3714SOL     OW22603   0.806   1.839   9.653  0.2739  0.1979 -0.2238
 3714SOL    HW122604   0.825   1.852   9.560  2.2455  0.2101  0.1811
 3714SOL    HW222605   0.876   1.776   9.674  1.7604  1.9393  0.0087
 3715SOL     OW22606   0.318   1.321   5.260 -0.7444  0.0685 -0.0096
 3715SOL    HW122607   0.271   1.248   5.300 -4.1030 -0.0653 -4.2139
 3715SOL    HW222608   0.263   1.334   5.182 -0.7641 -0.5621 -0.0941
 3716SOL     OW22609   1.760   3.276   8.430  0.4006  0.1353  0.1496
 3716SOL    HW122610   1.688   3.333   8.404 -0.8083 -1.1455  0.7022
 3716SOL    HW222611   1.752   3.201   8.370  0.9927 -0.0438  0.2965
 3717SOL     OW22612   1.992   1.306  15.178  0.0657  0.0694  0.1411
 3717SOL    HW122613   2.085   1.310  15.156 -0.6435 -3.0183 -3.3223
 3717SOL    HW222614   1.962   1.377  15.121 -3.6023 -0.7868  0.9887
 3718SOL     OW22615   2.311   2.771   4.104  0.8381 -0.8468 -0.0347
 3718SOL    HW122616   2.336   2.684   4.074  0.4710 -0.7860 -0.5293
 3718SOL    HW222617   2.390   2.822   4.123  1.2134 -1.8739  1.1199
 3719SOL     OW22618   0.698   0.492   4.052 -0.4059  0.2197 -0.0425
 3719SOL    HW122619   0.664   0.496   3.963  0.0396  0.4777 -0.2013
 3719SOL    HW222620   0.620   0.522   4.099 -0.5584 -0.1785 -0.0432
 3720SOL     OW22621   0.078   0.206   9.655 -0.1684 -0.4337 -0.0910
 3720SOL    HW122622   0.098   0.300   9.648 -1.0264 -0.3184 -0.9500
 3720SOL    HW222623   4.708   0.213   9.677 -0.2167  2.2114 -1.0479
 3721SOL     OW22624   4.582   3.696   9.420 -0.3436  0.2531  0.1702
 3721SOL    HW122625   4.557   3.654   9.502 -2.1816  1.2084  0.0967
 3721SOL    HW222626   4.565   3.619   9.365 -0.4984  0.4664 -0.0788
 3722SOL     OW22627   1.369   1.533  16.389 -0.1907  0.3114 -0.3022
 3722SOL    HW122628   1.285   1.545  16.346 -0.2012 -0.9339 -0.6346
 3722SOL    HW222629   1.415   1.611  16.358  2.5972 -1.4280 -0.6037
 3723SOL     OW22630   1.074   2.620   9.133  0.1882 -0.2409 -0.4049
 3723SOL    HW122631   1.098   2.620   9.041  1.3420  0.4125 -0.1136
 3723SOL    HW222632   0.979   2.623   9.143  0.2601  3.8849 -0.9086
 3724SOL     OW22633   1.931   0.777   0.636  0.4725 -0.7964  0.1651
 3724SOL    HW122634   2.009   0.801   0.686  2.9313 -1.0087 -3.5993
 3724SOL    HW222635   1.920   0.685   0.661 -0.1462 -0.8366 -0.2550
 3725SOL     OW22636   2.634   3.079   7.198  0.5766  0.8020 -0.2930
 3725SOL    HW122637   2.711   3.087   7.254 -0.5364 -0.5357  1.4323
 3725SOL    HW222638   2.671   3.099   7.112  1.3942 -1.9710 -0.6008
 3726SOL     OW22639   4.489   3.482   9.274  0.5855  0.4641 -0.0509
 3726SOL    HW122640   4.506   3.472   9.181 -0.2401 -2.2189  0.1010
 3726SOL    HW222641   4.439   3.403   9.294 -1.5113  2.1065  1.2128
 3727SOL     OW22642   0.274   3.855   6.155 -0.0445  0.3401  0.1852
 3727SOL    HW122643   0.201   3.885   6.101 -0.2978 -0.0925  0.2874
 3727SOL    HW222644   0.336   3.841   6.083  0.1794 -0.8003  0.6005
 3728SOL     OW22645   3.379   0.997   6.163  0.0767  0.0454 -0.5999
 3728SOL    HW122646   3.308   0.970   6.222  0.0777 -0.6107 -0.8992
 3728SOL    HW222647   3.435   0.921   6.180  1.0588  0.7634 -0.6872
 3729SOL     OW22648   2.550   4.068   4.513  0.1591  0.2950  0.0895
 3729SOL    HW122649   2.476   4.097   4.567 -0.6788 -0.3206 -0.7424
 3729SOL    HW222650   2.495   4.030   4.445  2.2693 -0.5731 -1.1195
 3730SOL     OW22651   3.900   1.600   6.152  0.5078 -0.2972  0.6317
 3730SOL    HW122652   3.871   1.578   6.241  0.1145  1.9493  1.0629
 3730SOL    HW222653   3.837   1.555   6.096  2.1529 -1.1461 -0.5122
 3731SOL     OW22654   2.251   2.760   6.409  0.4439 -0.3561 -0.5986
 3731SOL    HW122655   2.202   2.704   6.348 -2.0055 -0.0908  1.1219
 3731SOL    HW222656   2.276   2.705   6.483  0.5536  1.1558  0.4628
 3732SOL     OW22657   3.003   3.475   8.533  0.3006 -0.2888 -0.0286
 3732SOL    HW122658   3.095   3.450   8.540 -0.1076 -1.8961 -0.1820
 3732SOL    HW222659   2.959   3.402   8.577  0.0766  0.1703  0.5110
 3733SOL     OW22660   1.168   2.527  17.121  0.6979 -0.2361  0.5824
 3733SOL    HW122661   1.133   2.572  17.197 -0.1501  0.0640  0.0178
 3733SOL    HW222662   1.236   2.593  17.103  0.2425 -0.1376 -0.7842
 3734SOL     OW22663   2.952   1.823   1.047  0.3221 -0.0426  0.5934
 3734SOL    HW122664   2.907   1.907   1.057  0.0793  0.0410 -1.1979
 3734SOL    HW222665   2.961   1.805   0.954 -0.9936 -0.9035  0.6249
 3735SOL     OW22666   1.074   4.359   6.956  0.2141 -0.0575  0.3482
 3735SOL    HW122667   1.025   4.439   6.974  1.3985  0.8588 -0.4694
 3735SOL    HW222668   1.158   4.395   6.926 -0.7284 -1.6444 -4.2888
 3736SOL     OW22669   4.325   4.074   4.459 -0.3290 -0.0261 -0.3174
 3736SOL    HW122670   4.407   4.032   4.432  1.5302  1.9261  2.3400
 3736SOL    HW222671   4.285   4.011   4.518  1.0000 -1.4883 -0.9592
 3737SOL     OW22672   4.155   2.739   3.993 -0.4825  0.2125 -0.1894
 3737SOL    HW122673   4.059   2.741   3.990 -0.4629  1.3837 -0.2107
 3737SOL    HW222674   4.173   2.678   3.922 -1.1741 -1.8488  1.4218
 3738SOL     OW22675   0.244   3.438   2.029  0.0825  0.0677 -0.2460
 3738SOL    HW122676   0.149   3.436   2.042  0.3051  1.4831  1.5510
 3738SOL    HW222677   0.271   3.380   2.100  2.0873  0.8734 -0.3546
 3739SOL     OW22678   1.987   1.974   4.086  0.4753  0.0446 -0.1932
 3739SOL    HW122679   2.026   2.049   4.043 -1.0598  0.2974 -1.1641
 3739SOL    HW222680   2.013   1.904   4.027 -2.2332 -1.2993  0.1884
 3740SOL     OW22681   3.136   2.093  12.850 -0.3597 -0.2570  0.2875
 3740SOL    HW122682   3.128   2.151  12.774 -1.2424 -0.3635  0.2937
 3740SOL    HW222683   3.137   2.007  12.807  2.0016 -0.4420  0.7157
 3741SOL     OW22684   0.760   4.511   7.682  0.4883  0.3059 -0.3832
 3741SOL    HW122685   0.671   4.480   7.701 -1.2072  2.3178 -5.1219
 3741SOL    HW222686   0.793   4.523   7.771  1.2769 -1.7539 -0.3909
 3742SOL     OW22687   3.626   2.828  14.931 -0.1184  0.8828 -0.2935
 3742SOL    HW122688   3.702   2.782  14.897 -1.3267 -0.7520 -0.7217
 3742SOL    HW222689   3.662   2.869  15.010 -1.6517  0.2613  0.7328
 3743SOL     OW22690   3.104   0.215   4.104  0.3577 -0.3120 -0.1019
 3743SOL    HW122691   3.117   0.121   4.091  1.0481 -0.1422 -0.6241
 3743SOL    HW222692   3.183   0.230   4.155 -0.3149  0.6365  0.6427
 3744SOL     OW22693   3.781   1.686   7.671  0.2776  0.0547 -0.0853
 3744SOL    HW122694   3.752   1.776   7.685 -1.5974 -0.9534  2.4658
 3744SOL    HW222695   3.873   1.700   7.650  0.3492  0.0130  0.1937
 3745SOL     OW22696   0.307   4.114   6.309 -0.9137  0.0162  0.5922
 3745SOL    HW122697   0.345   4.161   6.235  1.2757 -1.4719  0.7775
 3745SOL    HW222698   0.288   4.030   6.266  0.8827  0.6314 -1.4021
 3746SOL     OW22699   2.307   0.005   7.868 -0.3594 -0.5641  0.7064
 3746SOL    HW122700   2.294   4.671   7.944 -0.8522 -0.2445  0.8636
 3746SOL    HW222701   2.365   0.072   7.904 -1.3673  0.8047 -0.2218
 3747SOL     OW22702   3.877   3.608   9.646  0.5590 -0.1056  0.2011
 3747SOL    HW122703   3.848   3.588   9.735  1.7461 -1.7412  0.2249
 3747SOL    HW222704   3.897   3.524   9.603  0.4845  1.1402 -2.2866
 3748SOL     OW22705   4.638   2.930   5.258 -0.3706 -0.1087  0.0420
 3748SOL    HW122706   4.572   2.920   5.189  0.0182 -0.5327 -0.2671
 3748SOL    HW222707   4.676   2.844   5.268 -1.7753 -0.5720  1.4571
 3749SOL     OW22708   2.891   4.080  12.396  0.1278  0.2642  0.2129
 3749SOL    HW122709   2.840   4.004  12.368 -0.1195  0.7265 -0.5671
 3749SOL    HW222710   2.975   4.076  12.350  0.3188  0.7394  0.5198
 3750SOL     OW22711   4.187   2.387   3.475  0.1015  0.6039 -0.6915
 3750SOL    HW122712   4.200   2.430   3.560 -0.4175  0.6031 -0.6117
 3750SOL    HW222713   4.233   2.305   3.493  0.1155  0.9371  0.8014
 3751SOL     OW22714   1.114   3.309  11.086  0.0202 -0.2021 -0.1743
 3751SOL    HW122715   1.027   3.342  11.108 -0.2041  0.8004 -2.5590
 3751SOL    HW222716   1.154   3.388  11.049 -0.9151  1.1794  1.7264
 3752SOL     OW22717   4.554   2.755   6.300  0.1898 -0.0294 -0.0424
 3752SOL    HW122718   4.649   2.757   6.290  0.1767 -0.9131 -0.3975
 3752SOL    HW222719   4.509   2.805   6.231 -0.2531  0.5256  0.6493
 3753SOL     OW22720   2.575   4.461  11.415  0.2326  0.3031 -0.0233
 3753SOL    HW122721   2.594   4.551  11.388  0.0011 -0.3814 -2.4640
 3753SOL    HW222722   2.653   4.425  11.372 -0.0910 -0.8817  0.3896
 3754SOL     OW22723   4.048   0.646   1.782  0.0044 -0.5437  0.2003
 3754SOL    HW122724   4.069   0.738   1.801  2.0171 -1.0069  0.2319
 3754SOL    HW222725   4.113   0.635   1.712  2.2492 -0.8661  2.3273
 3755SOL     OW22726   0.936   1.975  16.007 -0.1349  0.0325 -0.0212
 3755SOL    HW122727   1.028   1.955  15.988  0.4794  1.7592  1.1707
 3755SOL    HW222728   0.940   2.031  16.084 -0.6593  1.5956 -1.1330
 3756SOL     OW22729   0.019   4.314  10.462 -0.1025 -0.1586 -0.2737
 3756SOL    HW122730   0.029   4.218  10.462  0.5875 -0.0841  0.5411
 3756SOL    HW222731   0.058   4.346  10.381  1.1744 -1.5334 -0.2161
 3757SOL     OW22732   0.486   1.805   3.349 -0.1240  0.4115  0.5415
 3757SOL    HW122733   0.435   1.724   3.340  3.2857 -1.8832  1.6535
 3757SOL    HW222734   0.442   1.849   3.421  1.5231  0.0151  1.7753
 3758SOL     OW22735   1.687   2.323   4.778 -0.1816 -0.4813  0.3360
 3758SOL    HW122736   1.677   2.315   4.873  2.1373  1.1154  0.7026
 3758SOL    HW222737   1.783   2.318   4.780 -0.1113  1.0787  0.7209
 3759SOL     OW22738   1.247   0.629   7.517  0.3550  0.4524 -0.4087
 3759SOL    HW122739   1.311   0.588   7.459  0.2139  1.9390 -1.5985
 3759SOL    HW222740   1.163   0.601   7.481  0.4877  0.0636 -0.4257
 3760SOL     OW22741   0.954   1.349  10.431 -0.5111  0.0170 -0.1114
 3760SOL    HW122742   0.943   1.371  10.338  0.1037  0.2385 -0.1350
 3760SOL    HW222743   1.014   1.276  10.416  1.0391  1.2804 -0.1264
 3761SOL     OW22744   3.395   1.325   3.813  0.4971  0.2516 -0.1938
 3761SOL    HW122745   3.353   1.345   3.729 -0.6788  1.0481  0.5911
 3761SOL    HW222746   3.339   1.249   3.830  0.1208  0.4678 -0.4456
 3762SOL     OW22747   0.056   0.712   9.096  0.1905 -0.1233  0.5213
 3762SOL    HW122748   0.057   0.632   9.042  0.2184  0.8291 -0.8865
 3762SOL    HW222749   0.104   0.681   9.173  1.5928  2.3629  0.6359
 3763SOL     OW22750   4.678   2.929   2.138  0.4250  0.2449 -0.2290
 3763SOL    HW122751   4.603   2.958   2.086 -0.9424 -0.7907  1.1591
 3763SOL    HW222752   0.007   3.009   2.142  2.0451 -0.7986 -0.2898
 3764SOL     OW22753   4.425   1.342   4.910  0.4434  0.1662 -0.3996
 3764SOL    HW122754   4.482   1.283   4.960  1.9013  4.3143  2.7398
 3764SOL    HW222755   4.387   1.281   4.846  1.2115 -0.2696 -0.4378
 3765SOL     OW22756   3.867   0.542  11.607 -0.0807  0.1186  0.2981
 3765SOL    HW122757   3.903   0.617  11.560 -0.4521 -0.8168 -1.4878
 3765SOL    HW222758   3.771   0.546  11.606  0.0020  1.5810 -2.0210
 3766SOL     OW22759   2.375   3.052  11.464  0.3052 -0.5429  1.1507
 3766SOL    HW122760   2.336   3.069  11.378 -1.7559 -2.3600  1.7462
 3766SOL    HW222761   2.299   3.074  11.517 -0.3223  3.5328 -1.3680
 3767SOL     OW22762   3.678   4.101   8.990 -0.5115  0.6991 -0.3395
 3767SOL    HW122763   3.691   4.172   8.928 -0.4162 -0.0229 -1.1558
 3767SOL    HW222764   3.667   4.151   9.071  1.9281 -1.1579  1.1532
 3768SOL     OW22765   3.017   2.140   4.069 -0.2394 -0.5217  0.2369
 3768SOL    HW122766   3.017   2.097   4.154 -1.6159 -1.1100 -0.0595
 3768SOL    HW222767   2.971   2.222   4.089  1.3404  0.1086  1.3152
 3769SOL     OW22768   1.211   3.050   3.156 -0.8530 -0.1937 -0.0462
 3769SOL    HW122769   1.252   3.053   3.243 -0.2220 -1.1994 -0.3132
 3769SOL    HW222770   1.120   3.034   3.180 -0.9452 -0.7884 -0.8028
 3770SOL     OW22771   0.700   0.514   7.523 -0.2010 -0.3992  0.4115
 3770SOL    HW122772   0.683   0.577   7.593  0.2011  0.2180 -0.0495
 3770SOL    HW222773   0.655   0.563   7.455 -0.6943 -2.5997 -0.8418
 3771SOL     OW22774   0.039   4.139   6.410 -0.5583 -0.1896  0.1819
 3771SOL    HW122775   0.126   4.151   6.372 -0.7521 -0.0036 -0.1991
 3771SOL    HW222776   4.710   4.161   6.333  1.4383 -0.4364 -1.2370
 3772SOL     OW22777   4.562   0.727   5.764 -0.2061 -0.6703 -0.7311
 3772SOL    HW122778   4.556   0.634   5.783  0.0495 -0.7115 -0.8523
 3772SOL    HW222779   4.651   0.756   5.787  0.1772 -0.8478 -1.9941
 3773SOL     OW22780   0.345   0.295  16.967 -0.5237 -0.0094  0.3503
 3773SOL    HW122781   0.318   0.374  17.013 -0.7470  0.5621 -0.7454
 3773SOL    HW222782   0.327   0.222  17.026  0.9634 -0.1647  0.6066
 3774SOL     OW22783   0.397   2.260  13.994 -0.2640  0.0742 -0.5239
 3774SOL    HW122784   0.458   2.266  14.067 -1.8913  2.0707  0.6429
 3774SOL    HW222785   0.338   2.333  14.010  0.5003  0.9536 -1.6277
 3775SOL     OW22786   1.721   1.980   8.289  0.3494  0.2950  0.0871
 3775SOL    HW122787   1.685   1.928   8.216  0.6681  1.6292 -1.0330
 3775SOL    HW222788   1.773   2.036   8.232  1.5330 -1.3160 -0.4258
 3776SOL     OW22789   0.379   2.506   2.814  0.2976 -0.6310 -0.6153
 3776SOL    HW122790   0.349   2.435   2.757  0.6822 -3.1135  2.2866
 3776SOL    HW222791   0.472   2.508   2.791  0.2097  0.3260 -0.9145
 3777SOL     OW22792   3.452   3.932  13.178  0.6288 -0.4677  0.0952
 3777SOL    HW122793   3.403   3.946  13.259  1.8623 -0.4603  0.8504
 3777SOL    HW222794   3.508   3.860  13.208  2.7649  0.7881 -0.8735
 3778SOL     OW22795   2.053   1.541   2.315 -0.7438 -0.4834  0.4334
 3778SOL    HW122796   2.057   1.458   2.269 -2.3611  1.0664 -2.5358
 3778SOL    HW222797   2.105   1.514   2.391 -2.5367 -3.6511  0.5234
 3779SOL     OW22798   2.392   0.514   5.622  0.2511 -0.0490 -0.5629
 3779SOL    HW122799   2.314   0.564   5.644  0.4224  0.5824 -1.3808
 3779SOL    HW222800   2.409   0.548   5.534 -2.2090  0.0664 -0.9953
 3780SOL     OW22801   4.628   3.458   6.553  0.6628 -0.2188  0.1853
 3780SOL    HW122802   4.698   3.436   6.491  1.5889 -0.7175  1.4087
 3780SOL    HW222803   4.547   3.414   6.528  0.6113 -0.2194  0.3545
 3781SOL     OW22804   0.072   1.612  16.330 -0.6895  0.0539 -0.2987
 3781SOL    HW122805   0.078   1.705  16.352 -1.2038 -0.3084  1.3969
 3781SOL    HW222806   0.163   1.605  16.301 -0.9775  1.5655 -1.5760
 3782SOL     OW22807   2.483   3.242   4.486  0.3008 -0.5162  0.0733
 3782SOL    HW122808   2.508   3.316   4.432  4.5085 -1.4472  0.6983
 3782SOL    HW222809   2.573   3.209   4.486  0.9322  1.2500  0.6382
 3783SOL     OW22810   1.849   1.399   7.035  0.3359 -0.5489  0.3902
 3783SOL    HW122811   1.891   1.364   7.113  1.7832 -1.2208 -0.6723
 3783SOL    HW222812   1.905   1.476   7.025 -3.6653  2.2049 -0.5881
 3784SOL     OW22813   3.476   4.166   7.156  0.2339 -0.5765 -0.7150
 3784SOL    HW122814   3.485   4.118   7.238  2.6024 -1.2295 -1.3579
 3784SOL    HW222815   3.406   4.110   7.121  0.3249  0.6691 -2.9355
 3785SOL     OW22816   2.532   4.276  11.612  0.3324 -0.4021  0.1486
 3785SOL    HW122817   2.588   4.209  11.573  0.1727 -0.1301 -0.5606
 3785SOL    HW222818   2.557   4.349  11.554  2.2228 -2.9057 -2.1936
 3786SOL     OW22819   4.031   2.156  11.315 -0.2401  0.5752 -0.7375
 3786SOL    HW122820   4.030   2.187  11.225  0.0245 -2.4637 -1.7856
 3786SOL    HW222821   4.126   2.158  11.326 -0.3965  3.0006  0.2236
 3787SOL     OW22822   0.030   3.195  10.013 -0.1073 -0.1238  0.4093
 3787SOL    HW122823   0.039   3.118   9.956 -2.5503 -0.2331  0.1701
 3787SOL    HW222824   0.097   3.246   9.968 -0.5514 -0.2689 -0.4258
 3788SOL     OW22825   4.243   1.832   9.459  0.2677  0.2833  0.4084
 3788SOL    HW122826   4.250   1.916   9.413  0.8620  0.9160  1.6608
 3788SOL    HW222827   4.167   1.800   9.410  0.1639 -0.1467  0.8562
 3789SOL     OW22828   3.053   4.599   1.755 -0.2573 -0.0325  0.6801
 3789SOL    HW122829   3.117   4.656   1.798  1.0023  0.4014 -1.7783
 3789SOL    HW222830   2.970   4.623   1.796 -0.6462 -1.8722  0.9497
 3790SOL     OW22831   4.189   2.363   8.956  0.1495  0.6996  0.4822
 3790SOL    HW122832   4.176   2.271   8.982 -0.9952  1.2142  1.7540
 3790SOL    HW222833   4.242   2.332   8.882  0.5269  0.9593  0.6462
 3791SOL     OW22834   0.532   3.947  10.184  0.3460 -0.1566  0.4334
 3791SOL    HW122835   0.590   3.981  10.117  0.6482 -0.8036  0.3656
 3791SOL    HW222836   0.523   3.856  10.155  0.9781  0.2336 -0.9881
 3792SOL     OW22837   2.406   3.945   4.309 -0.7213  0.8797 -0.1148
 3792SOL    HW122838   2.423   3.930   4.216 -0.8012 -3.2346  0.5141
 3792SOL    HW222839   2.359   3.863   4.326  0.8288  0.1440  0.6638
 3793SOL     OW22840   0.730   0.917   6.315  0.0996  0.1728 -0.6629
 3793SOL    HW122841   0.677   0.903   6.237  0.2677  0.7764 -0.8858
 3793SOL    HW222842   0.698   1.002   6.346 -0.3967 -0.5875  0.9131
 3794SOL     OW22843   1.883   1.103   2.870 -0.0064 -0.1059  0.6316
 3794SOL    HW122844   1.922   1.022   2.837  0.5089 -0.6453  2.5033
 3794SOL    HW222845   1.898   1.091   2.964  0.9370  0.0103  0.5033
 3795SOL     OW22846   3.751   3.233   8.250 -0.5428 -0.7226 -0.2228
 3795SOL    HW122847   3.786   3.183   8.324 -0.0722 -0.1620 -0.0682
 3795SOL    HW222848   3.729   3.317   8.291  0.0200 -1.7664  2.2563
 3796SOL     OW22849   0.903   3.811   7.751  0.1646 -0.3778 -0.8481
 3796SOL    HW122850   0.987   3.772   7.775  2.1038  3.4532 -1.3148
 3796SOL    HW222851   0.859   3.737   7.710 -1.0583  0.2878 -0.7473
 3797SOL     OW22852   2.500   1.174   7.223 -0.2507  0.2385  0.3444
 3797SOL    HW122853   2.449   1.219   7.290 -1.1073 -0.5319  0.2059
 3797SOL    HW222854   2.581   1.145   7.265 -1.3929 -1.1325  1.6094
 3798SOL     OW22855   2.904   3.960   1.894 -0.4424  0.1763 -0.0180
 3798SOL    HW122856   2.986   3.993   1.858  0.6941 -0.7123  1.7945
 3798SOL    HW222857   2.933   3.915   1.973 -0.3397 -0.8225 -0.6254
 3799SOL     OW22858   1.915   0.694   9.094 -0.1501  0.0829  0.5084
 3799SOL    HW122859   1.891   0.767   9.152 -3.8096 -1.1629  0.5876
 3799SOL    HW222860   1.927   0.743   9.013 -1.2107 -1.8773 -0.8138
 3800SOL     OW22861   3.321   3.168  16.380  0.1677  0.1882  0.3971
 3800SOL    HW122862   3.397   3.148  16.326  0.3389 -0.6463  0.9410
 3800SOL    HW222863   3.355   3.251  16.413  0.2002 -0.9127  3.1371
 3801SOL     OW22864   3.992   1.499  15.631  0.1750 -0.0544 -0.3877
 3801SOL    HW122865   3.965   1.411  15.656 -0.4321  0.9008  2.2373
 3801SOL    HW222866   3.947   1.511  15.547  1.2475  1.1363 -0.7967
 3802SOL     OW22867   2.308   3.227  16.251 -0.3397 -0.2089 -0.3613
 3802SOL    HW122868   2.313   3.322  16.265  0.5887 -0.3222  0.0547
 3802SOL    HW222869   2.224   3.218  16.206 -0.2226  1.3902 -0.9020
 3803SOL     OW22870   3.906   2.293   9.636  0.2756 -0.7049  0.6510
 3803SOL    HW122871   3.989   2.336   9.614 -0.1792 -0.3266 -0.3282
 3803SOL    HW222872   3.947   2.228   9.692  1.7594 -1.0872 -0.8693
 3804SOL     OW22873   4.382   1.469   5.341  0.6581  0.0932  0.9304
 3804SOL    HW122874   4.411   1.420   5.264 -0.0835  1.0800  0.0164
 3804SOL    HW222875   4.425   1.551   5.318 -1.5852  0.1909 -2.9627
 3805SOL     OW22876   1.094   2.036   8.705  0.3687 -0.0108 -0.5021
 3805SOL    HW122877   1.131   1.985   8.778 -2.4848  0.1356  1.0334
 3805SOL    HW222878   1.039   1.966   8.669 -0.2071  0.2290 -0.0925
 3806SOL     OW22879   4.568   4.044   5.043 -0.5870  0.0846 -0.0123
 3806SOL    HW122880   4.618   4.102   4.985  1.4500 -0.7851  0.9117
 3806SOL    HW222881   4.550   3.967   4.989 -1.7437  0.7982 -0.6625
 3807SOL     OW22882   3.282   4.127  11.625 -0.0324 -0.0797  0.1587
 3807SOL    HW122883   3.231   4.141  11.544  1.2733 -1.2426 -0.8678
 3807SOL    HW222884   3.246   4.202  11.673  1.4730  0.1402  0.9395
 3808SOL     OW22885   3.581   3.345   6.975 -0.3422  0.1085  0.4829
 3808SOL    HW122886   3.547   3.306   7.056  0.7366  0.2051  0.9858
 3808SOL    HW222887   3.650   3.279   6.970  0.9835  1.4162  1.6339
 3809SOL     OW22888   0.784   2.488   1.975 -0.1619 -0.0965  0.2168
 3809SOL    HW122889   0.714   2.549   1.998  1.4616  1.1505  1.7986
 3809SOL    HW222890   0.736   2.412   1.940 -2.0853  1.3220 -0.2099
 3810SOL     OW22891   0.945   4.714   1.058  0.1246 -0.3214  0.4702
 3810SOL    HW122892   0.961   0.045   1.135 -0.9812  1.0832 -0.2762
 3810SOL    HW222893   1.034   4.709   1.022 -0.1486  1.2591 -0.4318
 3811SOL     OW22894   0.937   1.022   4.582  0.0065 -0.4341 -0.1735
 3811SOL    HW122895   0.991   0.963   4.530  0.3340  1.4019 -1.9311
 3811SOL    HW222896   0.868   1.044   4.519 -0.7737 -1.8580  0.1937
 3812SOL     OW22897   1.949   1.400  16.480  0.2556  0.2950 -0.2809
 3812SOL    HW122898   2.024   1.341  16.476  1.0091  1.1852  0.6961
 3812SOL    HW222899   1.909   1.354  16.554  0.2770  2.2549  0.9376
 3813SOL     OW22900   1.298   2.685  10.482 -0.3837  0.1116  0.4881
 3813SOL    HW122901   1.259   2.686  10.570 -1.9681 -0.4720 -0.2110
 3813SOL    HW222902   1.392   2.669  10.477 -0.4192 -0.3731  1.2681
 3814SOL     OW22903   4.158   1.508   7.592  0.0117 -0.1872 -0.1266
 3814SOL    HW122904   4.185   1.596   7.565 -2.2124  0.3696 -0.4820
 3814SOL    HW222905   4.075   1.501   7.545 -0.7045  0.5272  1.0393
 3815SOL     OW22906   1.191   1.375   6.768 -0.4494 -0.1080 -0.4948
 3815SOL    HW122907   1.244   1.433   6.714  0.6538  0.2749  0.9955
 3815SOL    HW222908   1.114   1.430   6.782  1.1138  1.9173  0.2178
 3816SOL     OW22909   1.874   1.271  10.609  0.5591  0.4737 -0.0223
 3816SOL    HW122910   1.886   1.312  10.694 -0.0445 -1.2469  0.9032
 3816SOL    HW222911   1.783   1.284  10.582  1.4215  1.4138 -2.5137
 3817SOL     OW22912   0.871   2.899  17.067 -0.5653 -0.5181  0.0022
 3817SOL    HW122913   0.890   2.988  17.036 -0.9470 -1.1017 -1.9195
 3817SOL    HW222914   0.878   2.895  17.162  1.0131 -0.0523 -0.0857
 3818SOL     OW22915   3.310   2.978   9.877  0.4978 -0.7157  0.1657
 3818SOL    HW122916   3.393   3.016   9.846  0.5056 -0.5750  0.3623
 3818SOL    HW222917   3.322   2.898   9.825  2.7111  0.0748 -0.5631
 3819SOL     OW22918   1.910   3.794   3.210  0.1127  0.1873  0.4202
 3819SOL    HW122919   1.916   3.736   3.134 -0.6235  0.8868 -0.1654
 3819SOL    HW222920   1.958   3.741   3.274  0.7472  0.8831  0.5216
 3820SOL     OW22921   2.885   4.203   9.191  0.1289  0.4681  0.1031
 3820SOL    HW122922   2.817   4.136   9.179  0.9499  0.0461 -2.1675
 3820SOL    HW222923   2.961   4.151   9.218 -0.4164 -0.8700 -0.9646
 3821SOL     OW22924   2.444   0.814   7.034  0.1393  0.2172  0.3457
 3821SOL    HW122925   2.481   0.730   7.008 -0.8564 -0.5008  1.1824
 3821SOL    HW222926   2.354   0.785   7.052 -0.1667  1.0394  0.1348
 3822SOL     OW22927   0.265   3.695   6.373  0.0513 -0.2566  0.1185
 3822SOL    HW122928   0.360   3.698   6.367  0.1157 -2.5144  0.1647
 3822SOL    HW222929   0.233   3.761   6.311  0.9565  1.5611  1.5646
 3823SOL     OW22930   4.632   3.802   9.068 -0.3346  0.1421  0.0429
 3823SOL    HW122931   4.722   3.769   9.077 -1.0030 -1.7639 -0.3526
 3823SOL    HW222932   4.629   3.823   8.974 -0.2884 -0.0799 -0.0065
 3824SOL     OW22933   0.746   1.160   2.197  0.0363  0.5738  0.1766
 3824SOL    HW122934   0.701   1.222   2.255 -2.7146  0.7858 -2.1968
 3824SOL    HW222935   0.795   1.107   2.260  0.9876  0.7836 -0.3965
 3825SOL     OW22936   3.568   0.391   1.253 -0.6240 -0.5764  0.3874
 3825SOL    HW122937   3.488   0.362   1.209 -1.4736  3.0218 -0.4310
 3825SOL    HW222938   3.588   0.474   1.211 -1.8065  0.2321  1.4443
 3826SOL     OW22939   3.693   1.291   2.865 -0.1815  0.2099 -0.4145
 3826SOL    HW122940   3.739   1.256   2.789 -0.3824  0.5903 -0.7144
 3826SOL    HW222941   3.758   1.266   2.930 -0.7069  1.6614  0.6773
 3827SOL     OW22942   1.554   1.441   4.353 -0.2640 -0.3384 -0.1100
 3827SOL    HW122943   1.564   1.369   4.291  1.5491  0.8241 -1.1890
 3827SOL    HW222944   1.480   1.416   4.407  0.9453 -1.7280  0.9117
 3828SOL     OW22945   2.249   3.432   5.260 -0.3345  0.1883  0.1184
 3828SOL    HW122946   2.201   3.383   5.193  0.7454  1.8272 -1.8347
 3828SOL    HW222947   2.331   3.384   5.274  0.1807  1.4919  1.5403
 3829SOL     OW22948   1.962   3.364   0.656  0.0557 -0.4035 -0.5598
 3829SOL    HW122949   1.991   3.289   0.604 -0.6408  0.2111 -1.8145
 3829SOL    HW222950   1.986   3.432   0.593  0.9736 -0.5433 -0.3631
 3830SOL     OW22951   0.717   2.016  14.948 -0.8609  0.0174  0.2509
 3830SOL    HW122952   0.701   1.934  14.995 -1.4477 -0.5219 -0.8795
 3830SOL    HW222953   0.725   2.073  15.024  0.0774  2.5250 -1.7423
 3831SOL     OW22954   1.136   4.096  10.811 -0.3378 -0.3652  0.1223
 3831SOL    HW122955   1.217   4.143  10.832 -1.1098  0.1435  1.9271
 3831SOL    HW222956   1.164   4.041  10.737  0.3460  0.6819 -0.3957
 3832SOL     OW22957   0.009   2.205  16.402 -0.6283  0.0307 -0.0987
 3832SOL    HW122958   4.636   2.213  16.393 -0.5629  1.1497  0.3018
 3832SOL    HW222959   0.012   2.151  16.481  0.4239  1.3553  0.7451
 3833SOL     OW22960   4.364   1.778  12.211  0.4396  0.2997 -0.4454
 3833SOL    HW122961   4.365   1.705  12.274 -0.1037  0.4842 -0.2231
 3833SOL    HW222962   4.325   1.738  12.133  0.7129 -0.2149 -0.3202
 3834SOL     OW22963   1.150   3.352   3.696 -0.0979 -0.0734  0.3621
 3834SOL    HW122964   1.240   3.320   3.693 -0.6823 -1.9381  2.5893
 3834SOL    HW222965   1.146   3.372   3.789 -0.0034  0.8080  0.1805
 3835SOL     OW22966   2.264   2.533   6.643  0.3220  0.8871 -0.0886
 3835SOL    HW122967   2.214   2.524   6.724  2.0329 -0.6182  0.7873
 3835SOL    HW222968   2.223   2.469   6.585 -1.8718  0.2094  2.2325
 3836SOL     OW22969   0.806   0.278   5.722  0.2580 -0.2494  0.0516
 3836SOL    HW122970   0.803   0.338   5.797  1.3764  0.3150 -0.3610
 3836SOL    HW222971   0.884   0.225   5.735 -1.1991 -2.4001  0.0467
 3837SOL     OW22972   3.764   3.225  13.984 -0.5396  0.5082 -0.1155
 3837SOL    HW122973   3.673   3.252  13.999 -0.2916  2.6200 -2.3384
 3837SOL    HW222974   3.763   3.130  13.970  2.1811  0.3201  1.0782
 3838SOL     OW22975   3.579   3.758   2.757 -0.2130  0.4982 -0.1625
 3838SOL    HW122976   3.639   3.740   2.685 -0.3277  3.4044 -1.0057
 3838SOL    HW222977   3.637   3.780   2.830 -0.8087  0.8002  0.2239
 3839SOL     OW22978   2.632   3.970   9.441  0.4988 -0.1161  0.1375
 3839SOL    HW122979   2.604   3.926   9.521 -0.4769  1.7664  0.8460
 3839SOL    HW222980   2.642   4.059   9.477 -3.0276  0.3402  0.0029
 3840SOL     OW22981   4.626   2.251  14.587  0.7032  0.1293 -0.2179
 3840SOL    HW122982   4.548   2.279  14.539  1.6734  2.4371 -0.4382
 3840SOL    HW222983   4.590   2.166  14.612  1.6728 -0.4440 -0.7879
 3841SOL     OW22984   3.515   3.724   3.833 -0.6377 -0.5442 -0.2571
 3841SOL    HW122985   3.573   3.677   3.892 -0.2282  0.9025  0.4883
 3841SOL    HW222986   3.558   3.810   3.839  1.6733 -1.8702  2.0468
 3842SOL     OW22987   4.310   3.621   8.793 -0.3780  0.0624 -0.1297
 3842SOL    HW122988   4.232   3.649   8.842 -0.2626  1.6446 -0.8581
 3842SOL    HW222989   4.372   3.594   8.861  0.4455  1.3451 -0.3760
 3843SOL     OW22990   3.937   3.580   2.469  0.0777 -0.2616 -0.1134
 3843SOL    HW122991   3.977   3.545   2.389  0.8285 -1.1284  0.6430
 3843SOL    HW222992   3.916   3.508   2.529 -1.3571  0.1385 -0.1253
 3844SOL     OW22993   2.030   0.882   2.823 -0.0981 -0.0152 -0.1186
 3844SOL    HW122994   2.061   0.803   2.868  0.9634  2.3831  3.3659
 3844SOL    HW222995   2.103   0.894   2.761  0.2342 -3.2137 -0.3288
 3845SOL     OW22996   2.107   0.874   2.177 -0.5603 -0.0825  0.5243
 3845SOL    HW122997   2.024   0.850   2.218 -0.1297  0.7466  1.8491
 3845SOL    HW222998   2.088   0.967   2.166 -0.0110 -0.2569 -1.9887
 3846SOL     OW22999   4.180   3.527   2.837  0.3222 -0.4650 -0.1477
 3846SOL    HW123000   4.211   3.541   2.926 -1.0486  3.9318 -0.3583
 3846SOL    HW223001   4.253   3.481   2.796  0.3085  0.3535 -1.0877
 3847SOL     OW23002   4.305   1.615   4.480 -0.8407  0.2551  0.0310
 3847SOL    HW123003   4.216   1.630   4.446 -1.9234  1.1526  3.1811
 3847SOL    HW223004   4.343   1.550   4.422  2.1640  0.3760  1.8803
 3848SOL     OW23005   1.367   3.998   0.532 -0.0791 -0.3408  0.6104
 3848SOL    HW123006   1.413   4.080   0.519 -1.2997  0.2327 -0.1445
 3848SOL    HW223007   1.285   4.016   0.578  0.1376  4.7029 -1.0259
 3849SOL     OW23008   3.807   1.595  12.705 -0.2195  0.3303 -0.1803
 3849SOL    HW123009   3.818   1.606  12.611 -0.0174 -1.0960 -0.3333
 3849SOL    HW223010   3.875   1.529  12.720 -0.3652  0.2380  0.0789
 3850SOL     OW23011   3.195   2.531   4.247  0.0820 -0.1012 -0.2348
 3850SOL    HW123012   3.166   2.544   4.156 -1.1658 -2.5311 -0.1838
 3850SOL    HW223013   3.202   2.624   4.271 -0.6043 -0.2725  0.6322
 3851SOL     OW23014   3.978   2.394  16.923  0.4061 -0.4005 -0.1469
 3851SOL    HW123015   4.008   2.387  16.832  3.4115 -0.3231  0.8550
 3851SOL    HW223016   3.931   2.311  16.923 -1.8540  0.8722 -0.2111
 3852SOL     OW23017   3.599   1.229   5.524 -0.6922 -0.2402 -0.1802
 3852SOL    HW123018   3.657   1.300   5.550  0.1963 -1.4521  1.1402
 3852SOL    HW223019   3.630   1.171   5.594 -2.5045 -2.7676 -1.4609
 3853SOL     OW23020   2.120   3.849   9.444  0.4590  0.2823 -0.1465
 3853SOL    HW123021   2.102   3.896   9.363  1.2979  0.4279 -0.2411
 3853SOL    HW223022   2.204   3.810   9.422  0.7900  0.6084  0.5573
 3854SOL     OW23023   0.662   3.265   9.446 -0.1039  0.1347  0.5247
 3854SOL    HW123024   0.613   3.193   9.485 -1.6532  0.6162 -0.5430
 3854SOL    HW223025   0.624   3.273   9.359  0.7601  2.5524  0.3811
 3855SOL     OW23026   4.027   2.394   6.420  0.5882 -0.3189 -0.2201
 3855SOL    HW123027   4.007   2.362   6.508  2.6104 -0.1305  0.3157
 3855SOL    HW223028   4.102   2.338   6.397 -0.4136 -1.0420 -1.7515
 3856SOL     OW23029   4.515   3.636  13.652 -0.1980  0.0259 -0.1348
 3856SOL    HW123030   4.567   3.567  13.611  1.8219  0.8196  1.0794
 3856SOL    HW223031   4.431   3.630  13.606  0.4223  0.0814 -1.2474
 3857SOL     OW23032   0.657   4.467   6.795 -0.2356 -0.7680 -0.6626
 3857SOL    HW123033   0.692   4.379   6.783 -1.6444 -1.1973 -1.5984
 3857SOL    HW223034   0.735   4.514   6.823 -0.1579 -1.0175 -0.4567
 3858SOL     OW23035   4.688   1.680  14.584 -0.1070 -0.3761 -0.2076
 3858SOL    HW123036   0.034   1.634  14.631  0.8979 -0.0608 -1.3685
 3858SOL    HW223037   0.023   1.733  14.529  3.7949 -3.0119  1.3582
 3859SOL     OW23038   3.440   4.456   5.959 -0.1167  0.6395  0.0680
 3859SOL    HW123039   3.484   4.437   5.876 -2.2363 -1.1495 -0.6336
 3859SOL    HW223040   3.486   4.392   6.014  0.8575 -0.1809 -1.6908
 3860SOL     OW23041   4.045   1.790   0.899  0.2610  0.4180 -0.4732
 3860SOL    HW123042   3.984   1.726   0.935  1.2405 -0.0633  0.3548
 3860SOL    HW223043   4.000   1.803   0.816 -0.1676  1.5221 -0.0689
 3861SOL     OW23044   4.425   3.077   3.723  0.4362 -0.1905 -0.0218
 3861SOL    HW123045   4.509   3.081   3.677 -0.8768  2.5673 -2.1812
 3861SOL    HW223046   4.434   2.994   3.770 -0.3987  0.2152  0.8478
 3862SOL     OW23047   2.199   1.231   3.998 -0.3404 -0.4880  0.3512
 3862SOL    HW123048   2.167   1.151   4.040 -0.3060 -2.0970 -2.6708
 3862SOL    HW223049   2.279   1.198   3.958 -1.2427 -0.7413 -1.2574
 3863SOL     OW23050   2.880   2.571   8.891  0.0524  0.1305 -0.1291
 3863SOL    HW123051   2.828   2.496   8.920 -0.3662  0.0690 -1.0493
 3863SOL    HW223052   2.871   2.559   8.797  1.2837  0.2081 -0.2577
 3864SOL     OW23053   1.671   0.916   6.605 -0.1686 -0.0189  0.0889
 3864SOL    HW123054   1.622   0.952   6.679 -1.8137 -2.0763 -0.0082
 3864SOL    HW223055   1.702   0.832   6.637  1.1643  0.7019  0.6818
 3865SOL     OW23056   4.326   2.038   7.759  0.2626  0.1195  0.0597
 3865SOL    HW123057   4.359   2.125   7.781 -0.4681  0.7186 -1.2573
 3865SOL    HW223058   4.385   1.976   7.802 -1.1472 -1.1704  0.1196
 3866SOL     OW23059   0.390   0.041   2.565  0.0678  0.1704 -0.7635
 3866SOL    HW123060   0.410   0.128   2.531  2.3306 -0.7174 -1.6913
 3866SOL    HW223061   0.402   0.066   2.657  0.9125 -2.1136 -0.2594
 3867SOL     OW23062   3.593   0.851   3.578  0.1590  0.0460 -0.2763
 3867SOL    HW123063   3.587   0.755   3.576 -1.1048  0.1084  0.6793
 3867SOL    HW223064   3.638   0.854   3.493  0.5127 -2.0100 -0.1748
 3868SOL     OW23065   3.024   1.369  12.986  0.3662  0.0785 -0.7724
 3868SOL    HW123066   3.060   1.304  13.047  0.1219 -1.5735 -2.3768
 3868SOL    HW223067   2.939   1.381  13.028  1.3804  0.0235  1.3074
 3869SOL     OW23068   0.206   3.524  12.970 -0.4798 -0.0490  0.0296
 3869SOL    HW123069   0.220   3.455  13.035 -0.8581 -0.2133 -0.0685
 3869SOL    HW223070   0.140   3.484  12.915 -1.3379  1.6162 -0.1498
 3870SOL     OW23071   2.781   3.222   8.832  0.5516  0.1529  0.0533
 3870SOL    HW123072   2.816   3.219   8.743  1.5895 -1.2139  0.5061
 3870SOL    HW223073   2.867   3.209   8.872  0.2920  0.3115  0.6669
 3871SOL     OW23074   2.607   3.293  11.391 -0.5269  0.4471  0.1783
 3871SOL    HW123075   2.531   3.258  11.345  0.5885 -1.0365 -0.4924
 3871SOL    HW223076   2.676   3.296  11.325 -0.1379 -3.4488  0.4487
 3872SOL     OW23077   2.137   1.746  13.642 -0.3661 -0.8952  0.0176
 3872SOL    HW123078   2.062   1.791  13.603 -0.9010 -2.0703 -0.3152
 3872SOL    HW223079   2.151   1.677  13.577 -1.2929 -1.8204  0.8057
 3873SOL     OW23080   3.114   0.424   9.635  0.5777 -0.1723  0.0306
 3873SOL    HW123081   3.166   0.484   9.582  0.7781  0.6661  1.1738
 3873SOL    HW223082   3.140   0.435   9.727  1.7132  0.6122 -0.3916
 3874SOL     OW23083   2.384   1.786  16.342  0.0626  0.0496  0.4879
 3874SOL    HW123084   2.452   1.720  16.326  1.6885  0.8793  3.8583
 3874SOL    HW223085   2.332   1.740  16.407 -0.6066 -1.3102 -1.0129
 3875SOL     OW23086   2.302   3.173   0.743  0.1969 -0.3122  0.5956
 3875SOL    HW123087   2.242   3.100   0.729  2.9658 -2.1605 -1.4947
 3875SOL    HW223088   2.313   3.165   0.838 -0.9278  1.5300  0.8845
 3876SOL     OW23089   0.259   1.393   3.719  0.9813  0.1744  0.8477
 3876SOL    HW123090   0.295   1.390   3.808  0.6189 -0.1905  0.9819
 3876SOL    HW223091   0.197   1.321   3.725  0.4971  0.4725 -0.5571
 3877SOL     OW23092   2.729   2.998   6.917  0.4686 -0.9392  0.2486
 3877SOL    HW123093   2.665   3.056   6.875  2.9470  2.0564  0.6164
 3877SOL    HW223094   2.703   2.909   6.895 -0.5993 -0.6134  0.1930
 3878SOL     OW23095   2.826   0.527   4.597 -0.1170  0.4581 -0.0283
 3878SOL    HW123096   2.860   0.614   4.621 -1.5117  0.9490  0.1761
 3878SOL    HW223097   2.907   0.483   4.573 -0.9627 -0.5252 -1.0301
 3879SOL     OW23098   4.127   0.350  11.563  0.7463  0.3869  0.1472
 3879SOL    HW123099   4.125   0.434  11.609 -0.9027  1.0230 -1.0734
 3879SOL    HW223100   4.203   0.354  11.505  1.0873  1.3397  0.6607
 3880SOL     OW23101   0.063   1.671   5.948  0.0177 -0.2408  0.0653
 3880SOL    HW123102   4.715   1.721   5.908 -1.3182 -0.9698  1.4750
 3880SOL    HW223103   0.072   1.713   6.034  0.8698 -0.8379  0.2667
 3881SOL     OW23104   0.273   0.215  10.355  0.1338  0.4088 -0.6600
 3881SOL    HW123105   0.340   0.164  10.309 -0.4228  0.4579 -1.5373
 3881SOL    HW223106   0.210   0.144  10.365  2.4028 -1.5236 -0.2490
 3882SOL     OW23107   3.131   2.952   5.994  0.6810  0.3675 -0.0254
 3882SOL    HW123108   3.105   2.937   5.903  2.4922  0.5590 -0.5674
 3882SOL    HW223109   3.166   3.040   6.006  0.5046 -0.1287  4.3086
 3883SOL     OW23110   1.582   1.125   5.060  0.6379  0.3836 -0.0307
 3883SOL    HW123111   1.568   1.154   5.151  0.3678 -0.8332  0.3108
 3883SOL    HW223112   1.551   1.035   5.058  3.2619 -0.5910  2.2931
 3884SOL     OW23113   1.076   2.311   0.415  0.1887  0.4854 -0.6062
 3884SOL    HW123114   0.989   2.299   0.376 -0.9429 -2.4867  2.7570
 3884SOL    HW223115   1.108   2.221   0.410  0.3749  0.6339 -2.0579
 3885SOL     OW23116   0.296   2.852  12.279  0.3025 -0.2540  0.4471
 3885SOL    HW123117   0.304   2.839  12.374  1.4578 -1.1024  0.2369
 3885SOL    HW223118   0.316   2.763  12.250  2.3809  0.2111  0.4266
 3886SOL     OW23119   0.824   1.293   3.075  0.3787  0.0842 -0.1788
 3886SOL    HW123120   0.752   1.253   3.124 -2.1645  3.7650 -0.8943
 3886SOL    HW223121   0.862   1.334   3.153 -0.4065 -0.7340  0.6339
 3887SOL     OW23122   3.955   3.007   4.395  0.6063  0.8482 -0.0294
 3887SOL    HW123123   4.000   3.069   4.452  0.4526  0.1504  0.8508
 3887SOL    HW223124   4.031   2.978   4.344 -0.4902 -0.6223 -0.7994
 3888SOL     OW23125   1.784   1.115  15.586 -0.1335  0.0705  0.0288
 3888SOL    HW123126   1.723   1.056  15.540 -1.3131  1.8680 -0.6954
 3888SOL    HW223127   1.818   1.153  15.505 -2.6397 -0.5176 -1.3342
 3889SOL     OW23128   1.252   4.234   2.773 -0.3713 -0.6099 -0.1551
 3889SOL    HW123129   1.277   4.225   2.865 -0.2351  2.8938  0.1501
 3889SOL    HW223130   1.315   4.296   2.737  0.7393 -0.2997  2.2994
 3890SOL     OW23131   3.952   2.728  11.827  0.0622  0.4947  0.3491
 3890SOL    HW123132   4.030   2.673  11.818 -1.0427 -0.7259 -1.8158
 3890SOL    HW223133   3.970   2.772  11.910  1.4135 -2.0332  1.3976
 3891SOL     OW23134   3.682   1.976   4.442 -0.0004 -0.1937  0.0070
 3891SOL    HW123135   3.774   1.996   4.458 -0.7834  2.4446  1.3167
 3891SOL    HW223136   3.669   1.926   4.522  0.4490  0.8682  0.7380
 3892SOL     OW23137   2.205   3.975   6.398  0.3992 -0.2181 -0.3144
 3892SOL    HW123138   2.211   4.047   6.335  0.4321  2.8238  3.1911
 3892SOL    HW223139   2.144   4.021   6.456 -0.0259  0.9880 -1.7266
 3893SOL     OW23140   2.840   0.793   3.067  0.6379 -0.6498  0.2920
 3893SOL    HW123141   2.837   0.889   3.074  0.4243 -0.6067 -0.3062
 3893SOL    HW223142   2.748   0.770   3.080  0.0852  1.4566  0.1536
 3894SOL     OW23143   3.953   1.584   5.761  0.2714 -0.0206 -0.6544
 3894SOL    HW123144   3.947   1.661   5.818 -1.5986 -0.2897 -0.4765
 3894SOL    HW223145   4.041   1.554   5.786 -0.1117 -1.8227 -1.4598
 3895SOL     OW23146   3.492   0.624   2.032 -0.2632 -0.3342  0.2406
 3895SOL    HW123147   3.533   0.597   2.113 -1.2664 -4.1830 -0.5530
 3895SOL    HW223148   3.491   0.541   1.985  0.2280  0.6155 -1.4945
 3896SOL     OW23149   2.777   4.193   6.085  0.4817  1.4253  0.4206
 3896SOL    HW123150   2.716   4.126   6.115  2.3610  0.3239  1.7751
 3896SOL    HW223151   2.795   4.243   6.164  1.3635  2.4851 -0.4499
 3897SOL     OW23152   3.411   4.319   0.606  0.1426 -0.9531 -0.0798
 3897SOL    HW123153   3.330   4.311   0.657  0.0464  2.2545  0.2764
 3897SOL    HW223154   3.436   4.227   0.604  0.3544 -0.8940 -0.0697
 3898SOL     OW23155   2.312   2.871   1.555  0.2639 -0.5683 -0.6918
 3898SOL    HW123156   2.297   2.812   1.628 -2.1446  0.3052 -0.4814
 3898SOL    HW223157   2.235   2.845   1.505 -0.2717  2.7420 -1.6442
 3899SOL     OW23158   3.086   4.172  16.087  0.0010 -0.1381 -0.0747
 3899SOL    HW123159   3.059   4.167  15.995 -0.3531 -1.2326  0.0996
 3899SOL    HW223160   3.170   4.126  16.080  0.1406 -0.1074  1.4201
 3900SOL     OW23161   2.563   4.563   0.830  0.1272 -0.1541 -0.0716
 3900SOL    HW123162   2.503   4.555   0.756 -0.4645 -1.4845  0.5586
 3900SOL    HW223163   2.504   4.555   0.905 -1.0425  0.0474 -0.9895
 3901SOL     OW23164   0.171   0.005   4.314  0.3258 -0.0749 -0.1508
 3901SOL    HW123165   0.109   4.688   4.253  1.3638 -0.9672 -0.6293
 3901SOL    HW223166   0.165   0.096   4.286  0.2225 -0.0855 -0.1621
 3902SOL     OW23167   0.562   0.774  10.872 -0.0248  0.0916  0.1635
 3902SOL    HW123168   0.621   0.833  10.919  2.9551 -2.8747  0.1443
 3902SOL    HW223169   0.481   0.766  10.921  0.7798  1.1101  1.6878
 3903SOL     OW23170   4.039   3.359   1.626  0.2370 -0.3992 -0.1770
 3903SOL    HW123171   3.978   3.432   1.618 -0.3952 -0.8533  0.5177
 3903SOL    HW223172   3.983   3.286   1.598 -0.8373  1.2655 -2.3293
 3904SOL     OW23173   0.039   0.471   8.946  0.0267 -0.0718  0.2610
 3904SOL    HW123174   0.095   0.462   8.869  0.2979  1.3806  0.2977
 3904SOL    HW223175   0.058   0.394   9.000 -1.7637 -0.8889 -0.2496
 3905SOL     OW23176   2.449   3.410   7.653  0.1602 -0.5381  0.3353
 3905SOL    HW123177   2.368   3.378   7.693  1.2161 -0.9284  2.1586
 3905SOL    HW223178   2.485   3.333   7.609  0.2883  0.4473 -1.2686
 3906SOL     OW23179   4.602   4.067  13.929 -0.7026 -0.5815  0.2030
 3906SOL    HW123180   4.639   4.152  13.904 -3.5410  1.6636  3.5444
 3906SOL    HW223181   4.671   4.030  13.983  0.6585 -2.0432 -2.6086
 3907SOL     OW23182   4.569   0.269   3.280 -0.8733  0.3762  0.1699
 3907SOL    HW123183   4.623   0.319   3.218  0.6438 -0.9740  0.4078
 3907SOL    HW223184   4.518   0.218   3.216  0.0021 -1.6485  1.0923
 3908SOL     OW23185   0.763   4.587   3.128  0.0071  0.4708  0.6205
 3908SOL    HW123186   0.745   4.573   3.221 -0.8283 -0.1662  0.3570
 3908SOL    HW223187   0.858   4.591   3.137  0.0119 -0.8315  1.1313
 3909SOL     OW23188   4.417   0.642  13.754  0.0174 -0.0365  0.4178
 3909SOL    HW123189   4.417   0.651  13.849 -1.8200  1.7923  0.2450
 3909SOL    HW223190   4.349   0.705  13.730 -1.1526 -1.2737  0.5486
 3910SOL     OW23191   3.918   0.090   3.390  0.0995 -0.1436 -0.1721
 3910SOL    HW123192   4.012   0.095   3.403  0.0288  1.3045 -0.2276
 3910SOL    HW223193   3.898   0.004   3.352  3.1051 -1.0332  0.2939
 3911SOL     OW23194   3.077   2.854   2.830 -0.3115  0.2294  0.1108
 3911SOL    HW123195   3.133   2.894   2.897  1.5513 -4.1841  1.2087
 3911SOL    HW223196   3.119   2.777   2.793  0.1320  0.8157 -0.6060
 3912SOL     OW23197   4.559   3.498   4.121  0.7732  0.2026  0.2297
 3912SOL    HW123198   4.634   3.467   4.172  1.7091 -1.3461 -2.1062
 3912SOL    HW223199   4.535   3.584   4.156 -1.9394 -0.2821 -0.4037
 3913SOL     OW23200   0.971   1.783  12.718  0.4687 -0.3979 -0.1302
 3913SOL    HW123201   0.886   1.827  12.710  0.0421 -1.0084  1.0646
 3913SOL    HW223202   0.965   1.722  12.645  3.5457 -0.7029 -0.1151
 3914SOL     OW23203   3.224   0.912  12.143 -0.3862 -0.4451  0.0723
 3914SOL    HW123204   3.208   0.928  12.236 -0.7428 -0.2866 -0.0182
 3914SOL    HW223205   3.159   0.843  12.136 -0.6652 -0.2633  0.9717
 3915SOL     OW23206   0.685   4.596   7.441 -0.0405 -0.2396  0.4662
 3915SOL    HW123207   0.736   4.675   7.424  1.3789 -1.3681 -0.5377
 3915SOL    HW223208   0.732   4.551   7.511  3.2973  1.3330 -0.7747
 3916SOL     OW23209   0.710   0.413   5.253 -0.0176 -0.0923  0.0050
 3916SOL    HW123210   0.778   0.365   5.301 -1.1094 -0.9534  0.6953
 3916SOL    HW223211   0.712   0.499   5.296 -0.2314  0.1608 -0.4939
 3917SOL     OW23212   2.189   2.478   4.901 -0.0326  0.1524  0.3308
 3917SOL    HW123213   2.284   2.468   4.896 -0.1257  1.5340 -3.9476
 3917SOL    HW223214   2.170   2.479   4.995 -1.2159  0.3919  0.0926
 3918SOL     OW23215   0.861   2.000   7.845  0.1565 -0.2937 -0.6601
 3918SOL    HW123216   0.836   1.937   7.913  0.8608 -0.6696 -0.7577
 3918SOL    HW223217   0.919   2.059   7.893  1.5850 -2.3234  0.0864
 3919SOL     OW23218   2.821   4.584   5.787 -0.0532  0.0745  0.3540
 3919SOL    HW123219   2.733   4.604   5.820 -0.8011  1.4038 -2.5244
 3919SOL    HW223220   2.863   4.550   5.867  0.4190  1.3711  0.6449
 3920SOL     OW23221   1.408   4.617   7.617 -0.3987 -0.0976  0.7260
 3920SOL    HW123222   1.455   4.700   7.627 -0.0824 -0.1053 -0.6937
 3920SOL    HW223223   1.375   4.606   7.706  0.1133 -1.2628  0.7728
 3921SOL     OW23224   2.189   4.523  12.978  0.2621 -0.0711 -0.6729
 3921SOL    HW123225   2.257   4.563  12.924 -0.0332 -2.2949 -2.7272
 3921SOL    HW223226   2.117   4.513  12.916  1.0450 -1.5852 -1.3399
 3922SOL     OW23227   0.441   2.196  12.444 -0.4382  0.2270  0.0636
 3922SOL    HW123228   0.384   2.217  12.518 -0.7957 -1.1579  0.1657
 3922SOL    HW223229   0.390   2.136  12.390  2.3921 -1.2946 -0.8952
 3923SOL     OW23230   1.849   4.530  13.008  0.0258 -0.4108  0.1738
 3923SOL    HW123231   1.911   4.536  12.935  0.0286  1.1662  0.3056
 3923SOL    HW223232   1.856   4.436  13.024  0.2285 -0.3484  0.4510
 3924SOL     OW23233   3.216   0.158  15.582 -0.0787  0.0485  0.4372
 3924SOL    HW123234   3.191   0.250  15.586 -0.5095 -0.0707  0.5018
 3924SOL    HW223235   3.129   0.119  15.589 -0.5630  0.9442 -0.6426
 3925SOL     OW23236   2.518   0.585   9.005  0.1115  0.0962  0.4028
 3925SOL    HW123237   2.547   0.652   9.067  1.4971  1.0634 -1.2802
 3925SOL    HW223238   2.435   0.623   8.976  0.1341  0.8615  1.3410
 3926SOL     OW23239   0.599   3.434   9.867  0.0065 -0.4234 -0.1737
 3926SOL    HW123240   0.530   3.500   9.864  1.3555  1.0405  0.9953
 3926SOL    HW223241   0.559   3.352   9.897  0.1862 -0.1203  0.8990
 3927SOL     OW23242   1.425   3.422   3.534 -0.0416 -0.2278  0.0989
 3927SOL    HW123243   1.334   3.446   3.516  0.1895  1.0387  0.6790
 3927SOL    HW223244   1.471   3.504   3.548  0.5781 -0.6281  0.3999
 3928SOL     OW23245   2.801   4.136  10.018 -0.5951  0.1433  0.2876
 3928SOL    HW123246   2.842   4.137  10.105  1.5528 -0.9977 -0.7391
 3928SOL    HW223247   2.716   4.111  10.056 -1.0537  1.2392  0.0006
 3929SOL     OW23248   1.512   3.741  14.399  0.3359  0.2124  0.1695
 3929SOL    HW123249   1.508   3.656  14.442  2.4410  0.1148  0.1636
 3929SOL    HW223250   1.472   3.728  14.313  1.1853 -2.2836  0.1464
 3930SOL     OW23251   4.120   1.167   1.580 -0.5223  0.1474 -0.4013
 3930SOL    HW123252   4.044   1.108   1.581 -1.0758  0.8607 -0.0360
 3930SOL    HW223253   4.118   1.194   1.488 -0.0504  2.6173  0.3315
 3931SOL     OW23254   2.875   2.463   3.527  0.0041 -0.0428 -0.6655
 3931SOL    HW123255   2.821   2.538   3.504  2.1381  1.2937 -1.2174
 3931SOL    HW223256   2.932   2.456   3.451  0.7048 -0.5931 -0.0889
 3932SOL     OW23257   3.430   3.192   6.800 -0.0577 -0.4958 -0.2146
 3932SOL    HW123258   3.488   3.258   6.838 -0.4786 -0.4473  0.3361
 3932SOL    HW223259   3.485   3.152   6.733  0.7513 -0.9292  0.7118
 3933SOL     OW23260   3.504   2.945   7.509  0.6473  0.5503  0.6935
 3933SOL    HW123261   3.536   2.907   7.591 -0.1703  3.6690  2.4758
 3933SOL    HW223262   3.411   2.939   7.531  0.5481  0.6707  0.3005
 3934SOL     OW23263   0.812   3.617   6.315  0.8665  0.3473 -0.1460
 3934SOL    HW123264   0.884   3.675   6.341  1.6493 -0.8131  0.2674
 3934SOL    HW223265   0.866   3.539   6.328  1.5171  0.9844  0.9290
 3935SOL     OW23266   3.610   1.897   9.001 -0.2939 -0.7155  0.1952
 3935SOL    HW123267   3.670   1.971   9.007 -0.7934 -0.2627 -0.4147
 3935SOL    HW223268   3.625   1.846   9.080  0.2937 -0.7628  0.0544
 3936SOL     OW23269   1.573   1.025   6.848  0.5198  0.4464 -0.1816
 3936SOL    HW123270   1.486   1.065   6.855 -0.3235 -1.3171 -0.5790
 3936SOL    HW223271   1.571   1.003   6.941  2.3491 -0.2725 -0.3284
 3937SOL     OW23272   3.848   1.996  11.410  0.9178  0.3048  0.2670
 3937SOL    HW123273   3.895   1.918  11.382  3.3001  1.2480  1.6033
 3937SOL    HW223274   3.911   2.053  11.366 -0.7748  0.5675 -1.8354
 3938SOL     OW23275   2.789   2.815   1.673  0.2903  0.4906  0.5643
 3938SOL    HW123276   2.746   2.784   1.753 -1.5964  0.0071 -0.6498
 3938SOL    HW223277   2.760   2.746   1.614  0.4891  0.2567  0.7401
 3939SOL     OW23278   1.987   1.182   7.623  0.0549  0.0221  0.1396
 3939SOL    HW123279   2.077   1.214   7.619  0.8585 -2.2133  0.0949
 3939SOL    HW223280   1.941   1.242   7.682  0.1609  0.6642 -0.4314
 3940SOL     OW23281   1.871   0.442   4.241  0.5574 -0.1862  0.1055
 3940SOL    HW123282   1.858   0.388   4.319 -1.5286 -1.5437 -1.1707
 3940SOL    HW223283   1.962   0.431   4.214  0.9033  1.7607  0.4786
 3941SOL     OW23284   2.804   4.640   3.223 -0.1915 -0.3994  0.0842
 3941SOL    HW123285   2.738   4.642   3.292 -0.3293 -0.2612 -0.0498
 3941SOL    HW223286   2.882   4.666   3.271 -0.9537  0.0986  1.0549
 3942SOL     OW23287   3.162   2.851  14.060 -0.0900 -0.2498 -0.3829
 3942SOL    HW123288   3.151   2.756  14.053  0.6935 -0.3697 -0.0041
 3942SOL    HW223289   3.069   2.865  14.043 -0.0163  1.0765  0.3353
 3943SOL     OW23290   1.290   2.151   9.447 -0.3526  0.8560  0.7411
 3943SOL    HW123291   1.227   2.189   9.509 -0.9551  0.7486  0.1934
 3943SOL    HW223292   1.350   2.224   9.431  1.3549 -1.1495 -1.9909
 3944SOL     OW23293   2.750   4.344  13.659  0.2726 -0.0133  0.0370
 3944SOL    HW123294   2.802   4.360  13.738 -0.3137 -0.8037  0.5801
 3944SOL    HW223295   2.820   4.330  13.594 -0.0647  1.7093 -0.6922
 3945SOL     OW23296   3.234   3.009   6.664  0.7708  0.3731 -0.2599
 3945SOL    HW123297   3.280   2.928   6.685  0.6403 -0.2475 -2.3544
 3945SOL    HW223298   3.284   3.075   6.713 -2.2813  0.9237  2.0512
 3946SOL     OW23299   0.153   3.952   2.842  0.0967 -0.3407 -0.2753
 3946SOL    HW123300   0.121   3.888   2.779 -1.7215  0.8417 -0.5567
 3946SOL    HW223301   0.183   4.013   2.774  0.2485  0.0786  0.1641
 3947SOL     OW23302   3.425   1.938  15.180  0.2986 -0.5658 -0.3185
 3947SOL    HW123303   3.397   1.957  15.090 -0.8832  0.5211  0.2822
 3947SOL    HW223304   3.511   1.978  15.192 -0.2832  0.2550  1.1406
 3948SOL     OW23305   0.838   0.624   2.801 -0.9557 -0.3399 -0.3237
 3948SOL    HW123306   0.819   0.640   2.893  0.9558  1.0524 -0.1770
 3948SOL    HW223307   0.850   0.706   2.753  0.9447 -1.5552 -1.9399
 3949SOL     OW23308   0.153   2.218   8.442 -0.1222 -0.2763 -0.3165
 3949SOL    HW123309   0.082   2.247   8.499 -0.5377  0.0713 -1.0008
 3949SOL    HW223310   0.107   2.209   8.358  0.7125 -0.2737 -0.7758
 3950SOL     OW23311   2.224   3.423   5.733  0.2150  0.3288  0.1804
 3950SOL    HW123312   2.165   3.475   5.788 -0.8550  0.0751 -0.7471
 3950SOL    HW223313   2.279   3.389   5.804  1.0016  0.4117 -0.3966
 3951SOL     OW23314   1.468   2.546   3.804  0.2232 -0.5826  0.3419
 3951SOL    HW123315   1.424   2.532   3.887  0.3950  1.9104  0.8607
 3951SOL    HW223316   1.553   2.583   3.829  0.3585 -2.1100  2.1366
 3952SOL     OW23317   4.378   2.467   5.495  0.0830  0.4207 -0.6404
 3952SOL    HW123318   4.405   2.455   5.586  2.2185  0.5279 -1.2620
 3952SOL    HW223319   4.379   2.375   5.470 -0.6010  0.0342  0.7409
 3953SOL     OW23320   4.115   1.975   1.675 -0.3363  0.2649 -0.2586
 3953SOL    HW123321   4.075   2.052   1.714  2.2897  0.7073  1.5456
 3953SOL    HW223322   4.177   2.024   1.621 -0.2371  0.8686  0.4231
 3954SOL     OW23323   3.644   0.661   7.235  0.1928 -0.3946 -0.3028
 3954SOL    HW123324   3.590   0.691   7.308 -0.2075 -1.4451 -0.1688
 3954SOL    HW223325   3.623   0.728   7.169 -0.7079  0.4888  0.8947
 3955SOL     OW23326   4.485   2.562   2.461  0.1039 -0.3151 -0.3170
 3955SOL    HW123327   4.430   2.521   2.528  0.3084  1.0249  0.6910
 3955SOL    HW223328   4.537   2.622   2.514  0.3822  0.9787 -2.0515
 3956SOL     OW23329   0.800   2.234   3.882 -0.0678 -0.5638 -0.4830
 3956SOL    HW123330   0.875   2.290   3.862  0.8367 -2.6030 -2.8783
 3956SOL    HW223331   0.724   2.286   3.856 -1.0612 -0.8665  1.8324
 3957SOL     OW23332   1.535   3.939   8.615  0.6722  0.0369  0.0584
 3957SOL    HW123333   1.467   3.880   8.584  1.0719 -0.6581  0.5081
 3957SOL    HW223334   1.487   4.022   8.614  1.5359  0.5300 -0.3584
 3958SOL     OW23335   2.879   4.697   5.219 -0.0129 -0.1866 -0.9471
 3958SOL    HW123336   2.928   0.033   5.162  1.1448 -0.9160 -0.7028
 3958SOL    HW223337   2.930   4.616   5.226  1.1578  0.7783  1.8784
 3959SOL     OW23338   4.211   4.442   6.266  0.6161 -0.4422 -0.6961
 3959SOL    HW123339   4.165   4.417   6.186  0.0104  1.7429 -1.0224
 3959SOL    HW223340   4.174   4.527   6.289  0.1082 -0.5702 -1.0443
 3960SOL     OW23341   0.587   1.305   1.190 -0.0822 -0.2801  0.0769
 3960SOL    HW123342   0.676   1.268   1.188 -1.6332 -3.9341  0.1501
 3960SOL    HW223343   0.577   1.326   1.097 -1.1903 -1.7768 -0.1278
 3961SOL     OW23344   1.611   1.379  10.524  0.1214 -0.4638 -0.4835
 3961SOL    HW123345   1.596   1.330  10.443  0.8682 -0.3355 -0.6956
 3961SOL    HW223346   1.658   1.453  10.488 -0.6002 -0.2463 -0.9737
 3962SOL     OW23347   3.501   4.342  16.031  0.0640 -0.5928 -0.1018
 3962SOL    HW123348   3.443   4.417  16.040  0.7320 -0.1802  0.7521
 3962SOL    HW223349   3.570   4.384  15.979  1.6083 -0.0780  2.3727
 3963SOL     OW23350   2.836   2.657   3.214 -0.4786  0.0662  0.2684
 3963SOL    HW123351   2.898   2.728   3.195  0.5639 -1.2190 -1.1095
 3963SOL    HW223352   2.893   2.581   3.207  1.5598  1.5592  0.7148
 3964SOL     OW23353   1.609   4.117   3.307  0.4894  0.1572 -0.3663
 3964SOL    HW123354   1.680   4.053   3.315  0.2212 -0.2256 -1.0326
 3964SOL    HW223355   1.656   4.200   3.302  0.9075 -0.1117 -0.8477
 3965SOL     OW23356   3.549   0.842   9.090 -0.0303  0.3389 -0.2118
 3965SOL    HW123357   3.471   0.848   9.145  0.0018  1.5376 -0.3074
 3965SOL    HW223358   3.529   0.910   9.025  0.7844  0.9441  0.1833
 3966SOL     OW23359   1.912   1.759  13.449 -0.1190 -0.0507  0.7682
 3966SOL    HW123360   1.862   1.808  13.383  3.8513  2.5216 -0.2719
 3966SOL    HW223361   1.838   1.709  13.483 -0.0379 -1.7368 -1.5796
 3967SOL     OW23362   1.245   1.731   6.252  0.2245 -0.2059 -0.0808
 3967SOL    HW123363   1.277   1.821   6.245  2.4841 -1.0737 -0.9855
 3967SOL    HW223364   1.299   1.684   6.187  0.3157 -2.6519  1.7617
 3968SOL     OW23365   3.391   0.946   3.156  0.0952  0.2022 -0.6985
 3968SOL    HW123366   3.468   1.001   3.149 -1.2535  2.1985  0.2030
 3968SOL    HW223367   3.345   0.960   3.073 -0.1536  0.1986 -0.5633
 3969SOL     OW23368   2.895   0.260   6.086  0.2612  0.2403 -0.0973
 3969SOL    HW123369   2.886   0.347   6.126  0.2432  1.2071 -2.2392
 3969SOL    HW223370   2.951   0.212   6.148 -0.1236  1.4981  1.2276
 3970SOL     OW23371   0.058   3.447  12.738 -0.0574 -0.3692  0.2982
 3970SOL    HW123372   0.054   3.354  12.717  2.6271 -0.5352  0.5636
 3970SOL    HW223373   4.696   3.475  12.704 -0.0604  0.6878  1.1784
 3971SOL     OW23374   2.673   4.373   8.008 -0.6142  0.1741  0.2469
 3971SOL    HW123375   2.683   4.452   8.062 -0.5938  1.1919 -1.2305
 3971SOL    HW223376   2.657   4.300   8.067  1.1913 -0.4762 -0.0839
 3972SOL     OW23377   3.689   2.747  13.824  0.3229 -0.4115  0.6414
 3972SOL    HW123378   3.701   2.734  13.730 -0.6804 -0.9038  0.5736
 3972SOL    HW223379   3.599   2.713  13.830 -0.2702  0.2343 -4.6924
 3973SOL     OW23380   3.892   3.448   3.065  0.0635  0.6193 -0.1362
 3973SOL    HW123381   3.975   3.471   3.107  1.4839  0.6743 -3.0093
 3973SOL    HW223382   3.882   3.356   3.089 -0.5414  0.2365 -1.8412
 3974SOL     OW23383   0.519   4.688   3.636 -0.0821 -0.5241  0.5690
 3974SOL    HW123384   0.588   4.668   3.700  0.7503  2.1718  0.5239
 3974SOL    HW223385   0.445   4.632   3.657  0.6380 -0.5426  3.0219
 3975SOL     OW23386   3.479   4.201   4.669  0.6460  0.0736  0.4463
 3975SOL    HW123387   3.467   4.145   4.592 -1.2059 -0.3291  1.0280
 3975SOL    HW223388   3.497   4.132   4.734 -0.4201 -0.6725 -0.0508
 3976SOL     OW23389   1.512   3.021   8.940 -0.5446 -0.1991  0.0506
 3976SOL    HW123390   1.485   2.970   9.015  1.3464  0.6405  1.3151
 3976SOL    HW223391   1.603   3.041   8.963 -0.5894 -0.9371  0.8221
 3977SOL     OW23392   4.521   3.629   7.896 -0.0285  0.0178  0.2522
 3977SOL    HW123393   4.596   3.685   7.877 -0.5411 -0.0344 -1.9400
 3977SOL    HW223394   4.506   3.586   7.812  1.6173  3.1201 -1.6410
 3978SOL     OW23395   4.239   1.896  11.395  0.1687  0.2786  0.3804
 3978SOL    HW123396   4.284   1.979  11.381  0.7347 -0.0025  0.5241
 3978SOL    HW223397   4.298   1.847  11.337  0.9607  1.8910 -0.1699
 3979SOL     OW23398   3.550   4.035   4.875 -0.5547  0.0224 -0.1681
 3979SOL    HW123399   3.538   4.015   4.968 -0.2460  2.1473  0.3414
 3979SOL    HW223400   3.608   4.109   4.892 -1.6157  0.7775  0.1823
 3980SOL     OW23401   3.843   1.080   9.342 -0.0973 -0.0085 -0.0761
 3980SOL    HW123402   3.938   1.079   9.353 -0.3846  1.0132  2.3671
 3980SOL    HW223403   3.825   1.171   9.319  1.2704  0.5477  1.0861
 3981SOL     OW23404   3.829   2.266   0.473 -0.4666 -0.4959  0.0405
 3981SOL    HW123405   3.864   2.200   0.534  0.4071 -0.9841 -0.9929
 3981SOL    HW223406   3.894   2.333   0.493 -0.6902  0.2982 -1.8978
 3982SOL     OW23407   0.931   4.072   6.399  0.3136 -0.9742 -0.1265
 3982SOL    HW123408   0.947   4.166   6.389  0.5319 -0.9497  0.4749
 3982SOL    HW223409   0.849   4.068   6.350 -1.0106 -2.8428  2.2456
 3983SOL     OW23410   0.216   2.836   9.136  0.4453  0.4149  0.1973
 3983SOL    HW123411   0.311   2.829   9.124  0.4299  0.9059 -0.1735
 3983SOL    HW223412   0.198   2.912   9.191  0.0729  1.7824 -1.8171
 3984SOL     OW23413   2.393   3.174   1.004 -0.2263  0.0284  0.6323
 3984SOL    HW123414   2.320   3.138   1.055 -0.6704  0.4526  0.2991
 3984SOL    HW223415   2.446   3.204   1.078 -0.2152  0.6030  0.3932
 3985SOL     OW23416   0.919   2.936  15.100 -0.7147 -0.3719 -0.1070
 3985SOL    HW123417   0.959   3.016  15.064  0.1580 -0.2129  1.2229
 3985SOL    HW223418   0.832   2.963  15.127 -0.7853  0.3457 -1.0539
 3986SOL     OW23419   4.535   0.430   3.492  0.1472  0.0702  0.1436
 3986SOL    HW123420   4.555   0.398   3.404 -1.4276 -1.5197  0.3547
 3986SOL    HW223421   4.621   0.427   3.535  0.9388 -1.8626 -1.5830
 3987SOL     OW23422   4.564   0.893  13.963 -0.5086 -0.6297 -0.0088
 3987SOL    HW123423   4.492   0.830  13.961 -1.0696 -0.0346  1.1281
 3987SOL    HW223424   4.541   0.947  14.039  1.8907 -0.0638  0.3150
 3988SOL     OW23425   0.612   3.835  14.922  0.0117  0.6316  0.2700
 3988SOL    HW123426   0.567   3.758  14.957  1.7077 -1.0604 -1.2676
 3988SOL    HW223427   0.560   3.908  14.955  0.4937  0.6040  1.0990
 3989SOL     OW23428   1.547   0.197   9.864  0.0786  0.1238 -0.3218
 3989SOL    HW123429   1.632   0.176   9.903  1.1320  0.0279 -2.6919
 3989SOL    HW223430   1.545   0.292   9.881  1.4585 -0.4573  3.0616
 3990SOL     OW23431   4.719   4.463   5.979 -0.0742 -0.5432  0.1738
 3990SOL    HW123432   4.720   4.548   5.935  1.6193 -0.3615  0.5901
 3990SOL    HW223433   4.645   4.425   5.931  0.5697 -0.5023 -0.8381
 3991SOL     OW23434   2.620   3.475   5.381  0.1020  0.0341  0.1569
 3991SOL    HW123435   2.561   3.470   5.456  0.9169  3.1869  0.9764
 3991SOL    HW223436   2.635   3.569   5.386  1.6821 -0.2889  1.6554
 3992SOL     OW23437   3.174   0.432   6.910  0.1393  0.3364 -0.1421
 3992SOL    HW123438   3.111   0.492   6.951  1.4220  0.1198  2.1705
 3992SOL    HW223439   3.256   0.453   6.954 -0.6416 -0.3240  1.6193
 3993SOL     OW23440   1.260   1.426  15.844 -0.0002 -0.2011 -0.5189
 3993SOL    HW123441   1.265   1.334  15.815 -1.4458 -0.1575 -0.8929
 3993SOL    HW223442   1.343   1.473  15.832 -1.0649  1.2856 -2.0224
 3994SOL     OW23443   0.774   1.552   9.463  0.5547  0.1718  0.1366
 3994SOL    HW123444   0.852   1.601   9.436 -1.4799  2.5146 -1.5025
 3994SOL    HW223445   0.810   1.515   9.543  1.5241 -1.0110 -0.8416
 3995SOL     OW23446   1.062   0.420   6.775  0.1377  0.2043 -0.2496
 3995SOL    HW123447   1.101   0.361   6.840  0.6216 -0.1688 -0.8805
 3995SOL    HW223448   1.123   0.411   6.702  0.9997  1.3780  0.3180
 3996SOL     OW23449   1.626   1.575   6.030 -0.1901 -0.2087  0.0567
 3996SOL    HW123450   1.532   1.589   6.021 -0.3598 -2.0272 -0.9752
 3996SOL    HW223451   1.642   1.623   6.111 -2.9170  0.2273  0.3186
 3997SOL     OW23452   2.400   2.778  12.291 -0.1461  0.1577  0.4558
 3997SOL    HW123453   2.476   2.835  12.301 -0.4142  0.4878  0.6351
 3997SOL    HW223454   2.353   2.839  12.233 -1.0915 -3.0249 -2.0946
 3998SOL     OW23455   1.504   3.421   4.358 -0.3952  0.4850  0.1945
 3998SOL    HW123456   1.433   3.376   4.405  0.7268 -2.6429 -1.0535
 3998SOL    HW223457   1.577   3.383   4.408  0.1832  0.4063 -0.7230
 3999SOL     OW23458   3.462   4.378  15.660  0.5470  0.0011 -0.0046
 3999SOL    HW123459   3.557   4.390  15.661  0.7827 -1.9528 -0.5034
 3999SOL    HW223460   3.454   4.285  15.679  1.7577 -0.0077  0.4279
 4000SOL     OW23461   3.165   0.718   5.235  0.1839  0.4007 -0.5520
 4000SOL    HW123462   3.162   0.802   5.190 -2.5013  0.5836 -0.0100
 4000SOL    HW223463   3.157   0.750   5.324 -1.3161  0.2151 -0.6253
 4001SOL     OW23464   2.588   0.319   8.991  0.0899 -0.2664 -0.0122
 4001SOL    HW123465   2.515   0.265   9.021 -1.0056  0.6832 -0.9682
 4001SOL    HW223466   2.558   0.409   9.007 -0.0122 -0.4511  0.8393
 4002SOL     OW23467   1.636   3.391  13.022  1.1808  0.3765  0.3837
 4002SOL    HW123468   1.721   3.372  12.984  0.6162 -4.3118  1.4856
 4002SOL    HW223469   1.629   3.325  13.091  0.6497 -0.1275 -0.1583
 4003SOL     OW23470   2.126   2.967  14.011 -0.5058 -0.2102  0.2326
 4003SOL    HW123471   2.067   2.923  14.072  0.2046 -2.4038 -0.6588
 4003SOL    HW223472   2.168   2.888  13.976  1.1760  1.7893 -2.2229
 4004SOL     OW23473   0.495   1.930   7.760  0.1660  0.3734 -0.6178
 4004SOL    HW123474   0.574   1.929   7.814 -0.8133 -1.0345  0.8177
 4004SOL    HW223475   0.427   1.964   7.818  0.1116  0.0333 -0.4787
 4005SOL     OW23476   1.500   4.309  16.903  0.2709 -0.2103 -0.2632
 4005SOL    HW123477   1.437   4.363  16.949  1.0111  0.3898  0.0423
 4005SOL    HW223478   1.559   4.362  16.850 -0.3952  0.1013 -0.6848
 4006SOL     OW23479   3.977   0.443  12.128  0.7245  0.5402  0.5575
 4006SOL    HW123480   4.041   0.423  12.059  0.6191 -1.4552  1.0484
 4006SOL    HW223481   3.945   0.353  12.133  0.1807  0.6530 -0.8309
 4007SOL     OW23482   0.178   3.050  13.698 -0.1111  0.7338 -0.0522
 4007SOL    HW123483   0.247   3.116  13.696  0.8810 -0.4032 -2.4521
 4007SOL    HW223484   0.147   3.055  13.789  0.2653  0.4188  0.0929
 4008SOL     OW23485   3.381   1.098   5.409  0.2310 -0.0917 -0.0290
 4008SOL    HW123486   3.316   1.117   5.477  2.5107  0.2639  2.0618
 4008SOL    HW223487   3.455   1.144   5.448  0.4517  0.3870 -1.0227
 4009SOL     OW23488   2.537   3.895   3.118  0.3490 -0.2406 -0.1555
 4009SOL    HW123489   2.524   3.831   3.048  0.7582  0.3937 -0.8189
 4009SOL    HW223490   2.627   3.870   3.138  0.7216  0.2425 -1.2059
 4010SOL     OW23491   0.223   1.689   7.069  0.3318 -0.4560 -0.5274
 4010SOL    HW123492   0.187   1.777   7.061  0.4894 -0.1400  2.0229
 4010SOL    HW223493   0.164   1.650   7.134  0.2387  0.2189 -0.2060
 4011SOL     OW23494   0.410   1.694   2.372 -0.6980  0.0676  0.0917
 4011SOL    HW123495   0.451   1.756   2.312 -0.3231  0.1847  0.4669
 4011SOL    HW223496   0.489   1.651   2.405  0.1043  0.8030 -0.8442
 4012SOL     OW23497   1.577   1.006   6.001  0.0985  0.1229 -0.4168
 4012SOL    HW123498   1.501   1.027   5.946 -1.0927 -3.2332 -0.0473
 4012SOL    HW223499   1.581   1.076   6.066 -0.2255 -0.0107 -0.2509
 4013SOL     OW23500   1.893   4.210  10.425  0.1063 -0.3623 -0.3113
 4013SOL    HW123501   1.924   4.298  10.442 -1.6273 -0.0286  1.1080
 4013SOL    HW223502   1.958   4.188  10.357  0.4634 -0.0152 -0.0811
 4014SOL     OW23503   1.068   4.295  12.593 -0.1911 -0.2465 -0.4735
 4014SOL    HW123504   1.015   4.221  12.623  2.7036 -2.2604 -0.3389
 4014SOL    HW223505   1.096   4.337  12.674 -0.3570  1.1452 -1.1344
 4015SOL     OW23506   3.441   3.479   5.371  0.0998  0.0977  0.1327
 4015SOL    HW123507   3.400   3.511   5.290  1.1743  0.9772 -0.0614
 4015SOL    HW223508   3.526   3.443   5.345  0.3750  1.9224 -1.5276
 4016SOL     OW23509   0.293   2.168   4.571 -0.1935  0.3772 -0.1427
 4016SOL    HW123510   0.291   2.240   4.507 -1.9221 -0.7553 -1.3588
 4016SOL    HW223511   0.224   2.117   4.529 -0.0719 -0.7122  0.9971
 4017SOL     OW23512   3.521   2.532   9.639  0.3577  0.0582 -0.0940
 4017SOL    HW123513   3.521   2.436   9.640  1.0011  0.0498 -0.4985
 4017SOL    HW223514   3.522   2.546   9.544  2.2040 -0.8799 -0.2134
 4018SOL     OW23515   0.006   0.070  11.200 -0.1995 -1.0221 -0.0145
 4018SOL    HW123516   4.646   0.100  11.239  1.3874  2.0227  0.9691
 4018SOL    HW223517   0.064   0.052  11.273 -1.6165  0.5003  1.4812
 4019SOL     OW23518   4.309   0.482   7.450 -0.4375  0.4626 -0.6485
 4019SOL    HW123519   4.330   0.575   7.460  0.4228  0.1279  0.5960
 4019SOL    HW223520   4.341   0.457   7.364  0.3341  0.8346 -0.4687
 4020SOL     OW23521   2.227   0.338   6.861  0.0165 -0.6055 -0.8114
 4020SOL    HW123522   2.196   0.273   6.798 -1.3526  0.3462 -1.1265
 4020SOL    HW223523   2.177   0.411   6.824 -2.1517 -2.2386 -1.0804
 4021SOL     OW23524   0.642   2.658  12.224  0.2510 -0.5069  0.2448
 4021SOL    HW123525   0.548   2.642  12.215  0.0733  1.0288 -0.5618
 4021SOL    HW223526   0.663   2.725  12.160 -2.7845 -1.0577 -1.3311
 4022SOL     OW23527   2.242   3.298  10.863  0.3301  0.4756  0.1702
 4022SOL    HW123528   2.244   3.371  10.802  1.2327 -0.5221 -1.0009
 4022SOL    HW223529   2.214   3.231  10.801  2.6307  1.5778 -2.0146
 4023SOL     OW23530   0.636   2.069   9.212 -0.1724 -0.7114  0.7023
 4023SOL    HW123531   0.731   2.078   9.218 -0.1046 -0.0895 -1.3008
 4023SOL    HW223532   0.612   2.039   9.300 -0.7336  1.9079  1.4420
 4024SOL     OW23533   0.341   3.807   2.650 -0.0730 -0.2488 -0.5676
 4024SOL    HW123534   0.321   3.898   2.626  2.7714  1.0050  1.6511
 4024SOL    HW223535   0.257   3.763   2.656 -0.3367  0.2238 -0.8439
 4025SOL     OW23536   0.660   0.495  14.157  0.0178 -0.3876 -0.1241
 4025SOL    HW123537   0.646   0.480  14.064 -0.2489 -2.6377  0.2652
 4025SOL    HW223538   0.575   0.467  14.192  0.1793  3.0692  2.9929
 4026SOL     OW23539   1.051   4.163   3.211 -0.3316 -0.2890  0.1087
 4026SOL    HW123540   0.999   4.183   3.289  0.5062 -0.5419  0.7293
 4026SOL    HW223541   1.132   4.144   3.258  0.5951  0.7687 -1.0605
 4027SOL     OW23542   2.615   3.515   7.881  0.5249 -0.1077 -0.4462
 4027SOL    HW123543   2.597   3.452   7.811  4.7043 -0.6010 -1.1300
 4027SOL    HW223544   2.548   3.492   7.946  0.2478 -0.1712 -0.7570
 4028SOL     OW23545   1.350   4.648  17.236  0.2594 -0.3440  0.0418
 4028SOL    HW123546   1.420   4.653  17.170 -0.7132  0.7424 -0.9287
 4028SOL    HW223547   1.305   4.579  17.189  1.1700  0.7905 -2.5598
 4029SOL     OW23548   1.648   4.377  12.080  0.4051 -0.2273  0.1582
 4029SOL    HW123549   1.609   4.412  12.160 -1.0070 -1.4327 -0.0011
 4029SOL    HW223550   1.702   4.308  12.118  1.2689  0.4442  0.1568
 4030SOL     OW23551   3.031   1.843  10.259 -0.2977  0.3718 -0.8562
 4030SOL    HW123552   3.065   1.931  10.272  0.8571 -0.1359 -0.3946
 4030SOL    HW223553   3.109   1.798  10.226  0.5145  1.5348 -0.5153
 4031SOL     OW23554   2.306   3.453  17.558 -0.4653 -0.3010  0.1546
 4031SOL    HW123555   2.393   3.489  17.573  0.5081 -1.3021 -3.1104
 4031SOL    HW223556   2.275   3.503  17.483 -1.5325 -1.9799 -0.5317
 4032SOL     OW23557   4.402   3.677   5.539 -0.0324 -0.6241  0.9038
 4032SOL    HW123558   4.459   3.742   5.498  1.4125 -2.1078  0.5666
 4032SOL    HW223559   4.359   3.636   5.464  1.7940 -0.0145 -0.4680
 4033SOL     OW23560   1.280   2.430  10.621 -0.4233 -0.3634  0.3898
 4033SOL    HW123561   1.257   2.472  10.538  0.6146  0.8279  0.7016
 4033SOL    HW223562   1.363   2.473  10.640  0.5195 -2.0247 -0.0239
 4034SOL     OW23563   4.306   1.866   6.048 -0.1228 -0.4216  0.8358
 4034SOL    HW123564   4.292   1.785   6.097 -0.8051  0.3140  1.8715
 4034SOL    HW223565   4.313   1.918   6.129  0.0051  2.7714 -1.2323
 4035SOL     OW23566   4.382   2.899   0.740  0.4688  0.5612 -0.4746
 4035SOL    HW123567   4.449   2.966   0.735 -0.2508  1.1585 -2.1734
 4035SOL    HW223568   4.311   2.923   0.681  1.0675  1.8719 -0.6455
 4036SOL     OW23569   3.056   2.482   7.516 -0.3564  0.2331  0.1421
 4036SOL    HW123570   2.962   2.475   7.501 -0.0718  1.2548 -2.1532
 4036SOL    HW223571   3.096   2.470   7.430  1.1900 -1.2031  1.0585
 4037SOL     OW23572   2.720   4.552   4.206 -0.3990  0.6791  0.3524
 4037SOL    HW123573   2.763   4.607   4.142 -0.1952  2.3275  1.9064
 4037SOL    HW223574   2.626   4.549   4.187  0.3635  1.7556 -3.4224
 4038SOL     OW23575   3.442   0.853  12.792 -0.3511 -0.0758  0.2976
 4038SOL    HW123576   3.484   0.771  12.814 -0.9833 -0.8298 -1.2702
 4038SOL    HW223577   3.493   0.887  12.718  1.6001 -1.7019  0.9147
 4039SOL     OW23578   4.600   3.859   6.195  0.0484  0.2596  0.6834
 4039SOL    HW123579   4.598   3.862   6.291  2.7613 -3.0191  0.8162
 4039SOL    HW223580   4.620   3.767   6.179  0.1021  0.3461  0.2383
 4040SOL     OW23581   2.351   1.390   5.058  0.4320  0.2670 -0.3162
 4040SOL    HW123582   2.396   1.423   5.136  0.2337  0.1065 -0.1357
 4040SOL    HW223583   2.308   1.469   5.025  1.1221  1.4236  1.5258
 4041SOL     OW23584   3.429   3.927   5.126 -0.1857 -0.1516  0.5158
 4041SOL    HW123585   3.371   3.918   5.050  0.7249 -0.1834 -0.1754
 4041SOL    HW223586   3.362   3.927   5.194 -2.0796 -1.5691 -1.3344
 4042SOL     OW23587   3.698   3.972   1.415 -0.5744  0.2246 -0.5398
 4042SOL    HW123588   3.747   3.891   1.399 -1.7726 -0.8044  1.0780
 4042SOL    HW223589   3.767   4.037   1.431 -0.9118  0.1203  1.2914
 4043SOL     OW23590   2.056   3.640   4.095  0.2306  0.1442 -0.0930
 4043SOL    HW123591   1.972   3.611   4.129  1.1124 -2.6547 -0.3631
 4043SOL    HW223592   2.125   3.581   4.124 -1.6217 -1.6431  0.6155
 4044SOL     OW23593   1.694   1.038   2.655  0.6753  0.1337 -0.4123
 4044SOL    HW123594   1.739   1.083   2.726 -1.2789  2.0330 -0.3695
 4044SOL    HW223595   1.653   0.964   2.700 -0.5156  1.2985  0.3762
 4045SOL     OW23596   3.896   3.390   7.782 -0.0078  0.1970  0.0569
 4045SOL    HW123597   3.900   3.346   7.867  1.0137  0.1624 -0.0166
 4045SOL    HW223598   3.877   3.481   7.805 -1.3719  0.1303 -0.8249
 4046SOL     OW23599   0.528   0.459  15.879 -0.1977 -0.2576 -0.0194
 4046SOL    HW123600   0.607   0.413  15.906  1.3087  1.4382 -1.5180
 4046SOL    HW223601   0.481   0.394  15.826  1.7076 -3.3194  2.0131
 4047SOL     OW23602   3.520   4.076   0.667 -0.4986  0.5241  1.0875
 4047SOL    HW123603   3.513   4.042   0.757 -1.8508 -1.3848  0.2490
 4047SOL    HW223604   3.600   4.028   0.646 -0.1945  0.6598  1.8978
 4048SOL     OW23605   2.243   1.215   1.353  0.5133 -0.4848 -0.2747
 4048SOL    HW123606   2.255   1.248   1.442  0.4299 -0.5740 -0.2295
 4048SOL    HW223607   2.183   1.143   1.374  0.3274 -0.0272  0.7720
 4049SOL     OW23608   2.928   4.437   2.832 -0.3787 -0.2973  0.1641
 4049SOL    HW123609   2.913   4.472   2.744  0.0358  3.2426  1.5170
 4049SOL    HW223610   3.007   4.386   2.815  0.6977  0.8177  1.9234
 4050SOL     OW23611   2.627   2.725  17.338  0.3561  0.6170  0.4042
 4050SOL    HW123612   2.587   2.808  17.310 -1.4511 -0.7442 -1.0400
 4050SOL    HW223613   2.617   2.731  17.433  1.4878  2.0406  0.4310
 4051SOL     OW23614   3.064   0.094   8.237  0.0917 -0.1931 -0.1072
 4051SOL    HW123615   3.060   0.183   8.201 -1.4472  0.2119  1.0665
 4051SOL    HW223616   3.070   0.042   8.157 -0.3179 -0.7133  0.2001
 4052SOL     OW23617   0.613   1.153   6.382  0.5773  0.0129 -0.3976
 4052SOL    HW123618   0.584   1.237   6.346  2.8951  0.7783 -0.4794
 4052SOL    HW223619   0.650   1.185   6.464  0.0296 -0.0450 -0.1316
 4053SOL     OW23620   4.587   4.274   5.208  0.2875 -0.1445 -0.2529
 4053SOL    HW123621   4.585   4.179   5.213  0.9410 -0.2630 -2.5536
 4053SOL    HW223622   4.588   4.289   5.114  0.3134  0.3770 -0.1738
 4054SOL     OW23623   0.735   2.326   6.422 -0.6286 -0.0142  0.5117
 4054SOL    HW123624   0.820   2.289   6.445  0.1936  2.8678  2.0400
 4054SOL    HW223625   0.750   2.366   6.336 -1.7580  2.5358  1.4957
 4055SOL     OW23626   1.232   0.514  11.433  0.1965  0.1816 -0.0776
 4055SOL    HW123627   1.246   0.553  11.520  0.8842 -1.0934  0.3814
 4055SOL    HW223628   1.313   0.468  11.413  0.0944  0.3301 -0.8461
 4056SOL     OW23629   1.675   0.585   7.331  0.2359 -0.2452 -0.1927
 4056SOL    HW123630   1.691   0.641   7.254  0.0455  1.3485  0.9323
 4056SOL    HW223631   1.581   0.573   7.331  0.6154 -3.2619 -0.2658
 4057SOL     OW23632   0.730   3.779  15.492  0.1380  0.0335  0.3958
 4057SOL    HW123633   0.646   3.818  15.516  0.4666  1.6667 -1.1379
 4057SOL    HW223634   0.738   3.809  15.402 -0.8203 -2.4078 -0.5097
 4058SOL     OW23635   3.865   4.608   7.276 -0.3645 -0.5613  0.2313
 4058SOL    HW123636   3.929   4.679   7.271 -0.7924 -0.2545 -0.9108
 4058SOL    HW223637   3.868   4.584   7.183 -1.0096 -4.1691  1.1493
 4059SOL     OW23638   3.893   2.332   6.201 -0.1119 -0.2672 -0.5054
 4059SOL    HW123639   3.801   2.335   6.229 -0.4039 -0.0456 -1.4684
 4059SOL    HW223640   3.937   2.371   6.276  1.2322  0.1199 -1.4959
 4060SOL     OW23641   3.865   2.000   9.274  0.0044  0.1821 -0.1502
 4060SOL    HW123642   3.802   1.993   9.347  1.5621  0.3897  1.2190
 4060SOL    HW223643   3.820   2.069   9.226 -1.9749 -1.5563 -0.8074
 4061SOL     OW23644   3.707   1.370  12.240 -0.2321  0.1430 -0.0450
 4061SOL    HW123645   3.760   1.419  12.302 -0.2347 -0.5935  0.5340
 4061SOL    HW223646   3.730   1.283  12.271  1.7871  0.9375  0.6891
 4062SOL     OW23647   1.537   2.183   4.368 -0.3693  0.5718 -0.4042
 4062SOL    HW123648   1.627   2.205   4.346  2.1096 -5.0989  3.9982
 4062SOL    HW223649   1.551   2.093   4.398  0.3428  1.1103  0.8686
 4063SOL     OW23650   0.374   2.034   6.933  0.6692  0.3100  0.8184
 4063SOL    HW123651   0.344   1.961   6.878 -2.1333  1.1502  1.2245
 4063SOL    HW223652   0.320   2.106   6.899 -1.8672 -0.7834  2.4984
 4064SOL     OW23653   3.298   1.448  16.321 -0.7519  0.3578 -0.1737
 4064SOL    HW123654   3.222   1.507  16.321 -1.3772 -0.4454 -0.5426
 4064SOL    HW223655   3.360   1.501  16.370 -0.9110  1.8466 -1.5980
 4065SOL     OW23656   4.174   3.052   6.546 -0.2862  0.4500 -0.1807
 4065SOL    HW123657   4.209   3.114   6.610  0.2728 -0.0355 -0.0119
 4065SOL    HW223658   4.203   2.972   6.589  0.2005  0.0850 -1.1805
 4066SOL     OW23659   3.604   3.640   5.768  1.2038  0.0700 -0.2264
 4066SOL    HW123660   3.537   3.585   5.808 -0.9639  1.3217 -2.1401
 4066SOL    HW223661   3.594   3.633   5.673  2.6824 -0.6948 -0.3197
 4067SOL     OW23662   3.650   4.702   7.416  0.3031  0.3744  0.2285
 4067SOL    HW123663   3.701   4.669   7.342  0.5619  2.9032 -0.7234
 4067SOL    HW223664   3.694   4.660   7.489  1.1451 -0.8401 -0.9745
 4068SOL     OW23665   2.544   0.928   2.411  0.3236  0.1751  0.3589
 4068SOL    HW123666   2.520   0.872   2.485  0.1422 -1.9430 -1.2996
 4068SOL    HW223667   2.463   0.973   2.390 -0.2919 -1.6362 -1.1815
 4069SOL     OW23668   2.444   1.646  10.038  0.0723  0.0367  0.8786
 4069SOL    HW123669   2.540   1.638  10.038  0.0563 -0.1693  0.1764
 4069SOL    HW223670   2.432   1.627   9.945 -0.1015 -1.2618  1.1578
 4070SOL     OW23671   2.618   4.131   1.635 -0.4343  0.0082 -0.2116
 4070SOL    HW123672   2.539   4.185   1.641 -0.5669 -0.1939 -0.1171
 4070SOL    HW223673   2.625   4.086   1.719 -1.5557  2.2757  1.0932
 4071SOL     OW23674   3.652   1.531   4.141 -0.7317  0.1900  0.0968
 4071SOL    HW123675   3.616   1.465   4.081  0.6834 -0.3044 -0.1954
 4071SOL    HW223676   3.685   1.593   4.075  1.0694 -1.1555 -0.2515
 4072SOL     OW23677   1.002   1.333   5.281  0.0501  0.4421  0.2436
 4072SOL    HW123678   0.941   1.357   5.211 -1.0976  0.9516  1.4113
 4072SOL    HW223679   0.943   1.340   5.357  1.8162  1.8284  1.4857
 4073SOL     OW23680   2.666   1.538  16.595 -0.1062 -0.4682  0.0395
 4073SOL    HW123681   2.704   1.519  16.681 -1.3178 -1.7271  0.3017
 4073SOL    HW223682   2.614   1.462  16.568 -0.1477 -0.0504 -1.0485
 4074SOL     OW23683   2.296   1.136   8.298  0.6687  0.0284  0.4853
 4074SOL    HW123684   2.279   1.102   8.210 -0.1888 -0.3741  0.8110
 4074SOL    HW223685   2.221   1.104   8.347 -0.4118  0.6528 -0.7507
 4075SOL     OW23686   3.539   2.297   8.145 -0.3396 -0.4556  0.2102
 4075SOL    HW123687   3.574   2.372   8.193  4.3678 -2.1567 -0.4735
 4075SOL    HW223688   3.570   2.318   8.057 -0.3266  0.0044  0.3270
 4076SOL     OW23689   3.124   3.118   7.913  0.0240  0.3703 -0.4636
 4076SOL    HW123690   3.149   3.159   7.829 -1.1607 -0.3568 -1.1617
 4076SOL    HW223691   3.197   3.126   7.974  0.8121 -0.2901 -1.3076
 4077SOL     OW23692   1.926   1.925   6.823  0.5319  0.7107 -0.0248
 4077SOL    HW123693   1.872   1.989   6.776  2.0357  2.2341  0.3099
 4077SOL    HW223694   2.006   1.978   6.821  1.2862 -0.3480  2.1699
 4078SOL     OW23695   4.612   1.332   2.978 -0.0871  0.3634  0.7910
 4078SOL    HW123696   4.562   1.251   2.967 -1.4077  1.4536 -1.2897
 4078SOL    HW223697   4.581   1.370   3.060 -0.6126 -1.6151  1.5203
 4079SOL     OW23698   2.979   4.382   4.229  0.0099  0.0942  0.3416
 4079SOL    HW123699   2.961   4.303   4.178 -1.1892  0.2878  0.4594
 4079SOL    HW223700   2.897   4.388   4.278 -0.1824  0.2676 -0.0038
 4080SOL     OW23701   2.067   3.751   5.095 -0.6072 -0.1441 -0.0718
 4080SOL    HW123702   2.152   3.716   5.123 -0.3288  0.9425  0.4121
 4080SOL    HW223703   2.034   3.799   5.170  2.7299  1.1948  0.5337
 4081SOL     OW23704   1.103   0.146   4.535  0.4173 -0.1705  0.0942
 4081SOL    HW123705   1.131   0.197   4.612  0.0888 -1.0759  0.8058
 4081SOL    HW223706   1.027   0.099   4.567 -1.3789  0.9887 -2.4872
 4082SOL     OW23707   3.179   0.407   0.968 -0.0231  0.2688 -0.0879
 4082SOL    HW123708   3.250   0.442   0.914 -0.3168 -2.2958 -2.0902
 4082SOL    HW223709   3.202   0.314   0.968 -0.7172  0.0887  1.0734
 4083SOL     OW23710   2.036   0.619   8.637 -0.6302  0.1118 -0.5965
 4083SOL    HW123711   1.975   0.551   8.664  1.7377 -1.7839  0.0252
 4083SOL    HW223712   1.989   0.653   8.561 -0.1983  3.0068  0.4084
 4084SOL     OW23713   0.165   0.003   2.397  0.1930  0.8611  0.6265
 4084SOL    HW123714   0.254   4.717   2.432  0.3680  0.8077  0.1696
 4084SOL    HW223715   0.160   4.647   2.344 -1.7798  0.3561  1.5757
 4085SOL     OW23716   2.988   0.150   1.191 -0.5927 -0.2879 -0.2475
 4085SOL    HW123717   3.021   0.141   1.281 -0.8412 -4.0704 -0.5373
 4085SOL    HW223718   3.038   0.090   1.135 -0.5042  0.0565 -0.5338
 4086SOL     OW23719   0.572   1.385   6.256 -0.5429 -0.1503 -0.0856
 4086SOL    HW123720   0.584   1.338   6.174 -0.3759  0.0449 -0.1727
 4086SOL    HW223721   0.621   1.467   6.249 -1.3615  0.3474 -0.0836
 4087SOL     OW23722   4.279   3.389  11.972 -0.3455  0.2278  0.0757
 4087SOL    HW123723   4.328   3.470  11.965 -1.8163  1.2368  1.2737
 4087SOL    HW223724   4.224   3.402  12.050 -2.0552 -0.4139 -1.0073
 4088SOL     OW23725   0.685   0.789   9.871  0.0309 -0.1247 -0.7417
 4088SOL    HW123726   0.726   0.740   9.942 -0.2946  1.6489  0.6498
 4088SOL    HW223727   0.593   0.780   9.894  0.3416 -1.4640 -0.0181
 4089SOL     OW23728   0.356   1.385   2.966 -0.0018  0.2064  0.0778
 4089SOL    HW123729   0.364   1.448   2.895 -1.5193 -0.0433 -0.3083
 4089SOL    HW223730   0.412   1.428   3.031  0.7869 -0.3208 -0.2621
 4090SOL     OW23731   0.813   4.709   8.564 -0.2763 -0.3641 -0.1457
 4090SOL    HW123732   0.738   0.035   8.597 -1.1512 -2.7017  1.3729
 4090SOL    HW223733   0.866   4.691   8.641 -0.8705  0.9168  0.5555
 4091SOL     OW23734   2.173   3.327   4.423  0.0481 -0.1636 -0.0648
 4091SOL    HW123735   2.230   3.397   4.455 -1.4157  1.1217 -0.2267
 4091SOL    HW223736   2.231   3.255   4.400 -1.2632 -1.1053 -0.4621
 4092SOL     OW23737   3.968   0.150   1.893  0.5840  0.0137  0.9750
 4092SOL    HW123738   4.030   0.222   1.885  0.2695  0.0798 -0.8910
 4092SOL    HW223739   4.022   0.071   1.897  0.8390  0.0837 -0.8025
 4093SOL     OW23740   0.758   0.613  12.318 -0.6477 -0.4786  0.1157
 4093SOL    HW123741   0.691   0.677  12.342 -0.1221  0.1402 -0.0800
 4093SOL    HW223742   0.748   0.567  12.401 -0.5372  0.8437  0.8625
 4094SOL     OW23743   1.818   4.077   4.297  0.5204  0.0737  0.5676
 4094SOL    HW123744   1.842   4.169   4.286 -1.9664  0.8213  1.4207
 4094SOL    HW223745   1.723   4.089   4.290  0.2063 -2.0074  1.3783
 4095SOL     OW23746   1.411   3.670  14.690 -0.2565  0.2435  0.6225
 4095SOL    HW123747   1.421   3.608  14.618 -1.1285  0.4686  0.3096
 4095SOL    HW223748   1.322   3.655  14.722  0.3777 -2.0126  1.3102
 4096SOL     OW23749   1.339   2.839  11.690 -0.6032  1.0401 -0.3575
 4096SOL    HW123750   1.412   2.782  11.716 -1.3820 -0.6143 -1.7715
 4096SOL    HW223751   1.274   2.807  11.753  0.4986  0.1506  0.3405
 4097SOL     OW23752   1.514   1.221   3.402  0.2845  0.7307  0.0672
 4097SOL    HW123753   1.445   1.155   3.394  0.3028  0.7553 -0.2920
 4097SOL    HW223754   1.543   1.188   3.487 -0.6577 -0.4570 -0.0748
 4098SOL     OW23755   3.426   2.629   7.484  0.0303  0.2059 -0.5947
 4098SOL    HW123756   3.398   2.591   7.568  1.0433 -0.1983 -0.4422
 4098SOL    HW223757   3.373   2.577   7.424  0.1519 -0.6068  0.0059
 4099SOL     OW23758   3.526   0.765  10.171  0.5702  0.6813  0.5652
 4099SOL    HW123759   3.564   0.763  10.083 -1.7775 -0.8340 -0.4159
 4099SOL    HW223760   3.454   0.825  10.154 -0.6104 -1.0019 -0.4204
 4100SOL     OW23761   4.364   2.752   8.697  0.0087 -0.0773 -0.1710
 4100SOL    HW123762   4.406   2.678   8.742 -0.3636 -0.1737  0.0229
 4100SOL    HW223763   4.386   2.824   8.755  1.3918 -0.5118 -0.1523
 4101SOL     OW23764   0.811   1.453   5.993  0.3206 -0.3299  0.2499
 4101SOL    HW123765   0.856   1.533   6.019 -1.2364  1.0176 -1.2227
 4101SOL    HW223766   0.887   1.397   5.979  0.3151 -0.6625  1.5313
 4102SOL     OW23767   1.643   1.711   1.283 -0.0178  0.2709 -0.2354
 4102SOL    HW123768   1.637   1.690   1.190  2.3736  1.6039 -0.7091
 4102SOL    HW223769   1.570   1.657   1.314  0.6110 -0.0020  0.7826
 4103SOL     OW23770   4.471   1.527   2.840  1.2306  0.1237 -1.4961
 4103SOL    HW123771   4.524   1.454   2.872 -0.9382 -0.4559  0.8003
 4103SOL    HW223772   4.460   1.506   2.747  2.4948 -1.1805 -1.3461
 4104SOL     OW23773   1.392   0.401   1.110 -0.0281  0.7592 -0.0263
 4104SOL    HW123774   1.384   0.390   1.204  0.1185 -1.3863 -0.2617
 4104SOL    HW223775   1.376   0.313   1.076 -0.0354 -0.2086  2.4871
 4105SOL     OW23776   0.238   1.261   2.676 -0.2181  0.0826  0.0851
 4105SOL    HW123777   0.200   1.215   2.751  1.5190  0.4580  1.1955
 4105SOL    HW223778   0.186   1.342   2.673  1.4949  1.2053  0.7321
 4106SOL     OW23779   1.318   2.375   6.212 -0.4095  0.5788  0.2921
 4106SOL    HW123780   1.397   2.355   6.161 -0.8762 -2.4981  0.8047
 4106SOL    HW223781   1.260   2.404   6.142  0.4570  0.3104 -0.5398
 4107SOL     OW23782   0.876   2.468  11.852 -0.1421 -0.2775 -0.9302
 4107SOL    HW123783   0.812   2.444  11.919  2.3036  1.6484  2.1205
 4107SOL    HW223784   0.864   2.563  11.861 -1.6455 -0.5764  0.1456
 4108SOL     OW23785   1.632   3.351   5.741 -0.6191 -0.4174  0.4623
 4108SOL    HW123786   1.642   3.377   5.833  0.9381  0.8010 -0.0406
 4108SOL    HW223787   1.544   3.384   5.724  0.1941  1.4410 -0.2731
 4109SOL     OW23788   3.890   4.015   2.377 -0.1875 -0.4395  0.0928
 4109SOL    HW123789   3.940   3.962   2.439 -1.0805 -0.3713  0.8611
 4109SOL    HW223790   3.894   4.105   2.410 -1.7794 -1.0018  1.8095
 4110SOL     OW23791   3.217   1.155  16.613  0.6613  0.0090  0.3409
 4110SOL    HW123792   3.146   1.178  16.553 -0.7790 -2.2106  1.1599
 4110SOL    HW223793   3.270   1.234  16.608 -1.6322  1.3202 -3.2511
 4111SOL     OW23794   1.004   3.776   6.666  0.0309 -0.4536  0.2854
 4111SOL    HW123795   1.042   3.690   6.684 -0.5890 -1.3131 -2.6308
 4111SOL    HW223796   0.996   3.782   6.571  2.5997 -1.9928 -0.0469
 4112SOL     OW23797   1.001   3.142   3.881 -0.1772 -0.5577  0.0835
 4112SOL    HW123798   1.085   3.109   3.848 -0.8588 -0.9000 -1.3137
 4112SOL    HW223799   0.958   3.180   3.804 -1.2928 -0.7857  0.6025
 4113SOL     OW23800   0.842   1.832   8.453  0.0524  0.5904  0.1866
 4113SOL    HW123801   0.926   1.875   8.436 -0.2343  1.2867  0.5940
 4113SOL    HW223802   0.781   1.903   8.435 -0.4521  0.1334  0.0904
 4114SOL     OW23803   1.222   1.688   3.949 -0.5870  0.2830 -1.0945
 4114SOL    HW123804   1.238   1.642   4.032  2.0355 -1.5650 -2.6333
 4114SOL    HW223805   1.309   1.696   3.911 -0.2047 -2.5042 -0.7887
 4115SOL     OW23806   3.624   2.654  15.649  0.0305  0.3381  0.0638
 4115SOL    HW123807   3.643   2.564  15.623  0.7082  0.7722 -0.9171
 4115SOL    HW223808   3.531   2.636  15.661  0.1435 -0.1236  0.2386
 4116SOL     OW23809   3.944   0.680   9.514 -0.7464 -0.2861  0.0006
 4116SOL    HW123810   3.996   0.611   9.473  0.8492  0.4184  0.8316
 4116SOL    HW223811   4.006   0.753   9.503 -0.2234 -0.6353  0.5892
 4117SOL     OW23812   3.032   3.299   5.318  0.1847 -0.0269 -0.2167
 4117SOL    HW123813   3.028   3.203   5.323  0.4193 -0.1703 -2.5822
 4117SOL    HW223814   3.067   3.325   5.403  2.5101 -0.0938 -1.1756
 4118SOL     OW23815   2.115   1.843   7.141 -1.0083 -0.0379  0.0292
 4118SOL    HW123816   2.102   1.816   7.050  0.0442  0.1036 -0.1639
 4118SOL    HW223817   2.029   1.839   7.183 -1.0596  0.6701 -0.0086
 4119SOL     OW23818   0.926   4.035   4.854 -0.8321  0.0724  0.1119
 4119SOL    HW123819   0.930   4.078   4.769  1.4129 -1.2293 -0.4690
 4119SOL    HW223820   0.850   4.068   4.901 -0.7575 -0.0232  0.3025
 4120SOL     OW23821   1.733   3.349   7.549  0.0974  0.6073  0.1656
 4120SOL    HW123822   1.721   3.280   7.614  0.9699  0.1520 -0.1555
 4120SOL    HW223823   1.696   3.427   7.590 -3.6564 -1.1053  0.0025
 4121SOL     OW23824   3.947   2.090  17.221 -1.0379 -0.8592 -0.1586
 4121SOL    HW123825   3.912   2.057  17.139  0.4297 -3.6744  0.3541
 4121SOL    HW223826   4.026   2.037  17.231 -1.0032 -1.1735 -2.1018
 4122SOL     OW23827   0.461   3.146  13.724 -0.5531  0.0818  0.1936
 4122SOL    HW123828   0.507   3.069  13.690 -0.3563  0.3945 -0.2552
 4122SOL    HW223829   0.458   3.124  13.817 -1.1113 -0.5619  0.0205
 4123SOL     OW23830   3.249   2.112  16.758  0.5017  0.2966  0.0674
 4123SOL    HW123831   3.204   2.138  16.838 -2.2945 -1.3559 -0.9410
 4123SOL    HW223832   3.250   2.189  16.702  0.5508 -2.4800 -3.7707
 4124SOL     OW23833   2.113   2.082   9.172 -0.2259 -0.2121  0.0846
 4124SOL    HW123834   2.201   2.045   9.178  0.0864  0.7328  1.4902
 4124SOL    HW223835   2.095   2.079   9.266 -0.8619  2.1755  0.0300
 4125SOL     OW23836   2.700   0.994   7.366  0.2100  0.6266 -0.0566
 4125SOL    HW123837   2.714   0.899   7.362 -1.6667  0.2711  1.6586
 4125SOL    HW223838   2.635   0.998   7.436 -0.2189  0.0674 -0.4164
 4126SOL     OW23839   1.306   3.373   0.475  0.4177 -0.3427  0.1002
 4126SOL    HW123840   1.355   3.421   0.409  0.6243 -1.7080 -0.7447
 4126SOL    HW223841   1.361   3.294   0.481  1.5751  0.4202 -0.6438
 4127SOL     OW23842   2.117   1.117   6.822  0.2543  0.4596  0.3155
 4127SOL    HW123843   2.161   1.089   6.903 -1.8542  0.1945  1.3635
 4127SOL    HW223844   2.024   1.124   6.842 -0.6967 -1.1299 -3.5703
 4128SOL     OW23845   2.395   3.032   4.668  0.2784 -0.0850  0.1642
 4128SOL    HW123846   2.424   3.105   4.613 -1.2896 -0.6090 -1.3443
 4128SOL    HW223847   2.352   2.975   4.604 -2.6402  0.8282  1.3439
 4129SOL     OW23848   0.883   0.687   6.587 -0.4230 -0.2816  0.3191
 4129SOL    HW123849   0.845   0.773   6.571 -0.5521 -0.5085 -0.6387
 4129SOL    HW223850   0.851   0.664   6.674  2.9099 -1.1761  1.2919
 4130SOL     OW23851   3.464   0.378   0.746  0.2029 -0.2678 -0.6197
 4130SOL    HW123852   3.489   0.286   0.742 -0.2018 -0.4530  1.1983
 4130SOL    HW223853   3.505   0.406   0.664  0.6802 -1.6662 -0.8620
 4131SOL     OW23854   4.340   2.957   7.633 -0.0145  0.3665  0.8167
 4131SOL    HW123855   4.432   2.928   7.628 -0.3416 -0.3053 -1.4109
 4131SOL    HW223856   4.299   2.878   7.599  2.4241 -0.5973  0.0717
 4132SOL     OW23857   1.612   2.533   7.177  0.0419  0.1553 -0.0751
 4132SOL    HW123858   1.518   2.534   7.196 -0.1922 -0.4394 -1.2455
 4132SOL    HW223859   1.653   2.543   7.263  1.2217  2.4530 -0.9100
 4133SOL     OW23860   0.938   3.994   7.440 -0.4141 -0.3452  0.4789
 4133SOL    HW123861   0.981   4.077   7.459 -1.4787  0.5915 -1.2240
 4133SOL    HW223862   0.851   4.020   7.470 -0.6146  0.6074 -0.9352
 4134SOL     OW23863   1.751   2.258  11.249 -0.0387  0.1760 -0.3923
 4134SOL    HW123864   1.721   2.324  11.187 -0.4488 -0.1461 -0.5300
 4134SOL    HW223865   1.688   2.272  11.320 -0.2593  1.9691 -0.9326
 4135SOL     OW23866   0.277   0.540   6.300  0.0916  0.4786 -0.4655
 4135SOL    HW123867   0.223   0.463   6.317 -0.3288  0.6991 -0.8385
 4135SOL    HW223868   0.236   0.580   6.224  0.8632 -1.0596 -1.6916
 4136SOL     OW23869   3.290   1.433  17.290  0.1098  0.0632 -0.6096
 4136SOL    HW123870   3.314   1.483  17.212 -0.0067  0.3353 -0.4709
 4136SOL    HW223871   3.197   1.414  17.280 -0.5980  2.8327  0.6210
 4137SOL     OW23872   2.667   4.320   5.285  0.1410  0.4404 -0.1999
 4137SOL    HW123873   2.743   4.293   5.233  0.6406  0.7682  0.3682
 4137SOL    HW223874   2.592   4.281   5.241 -0.3576  0.9235  0.2276
 4138SOL     OW23875   0.771   2.513   7.765  0.0238 -0.2421  0.5261
 4138SOL    HW123876   0.678   2.519   7.785 -0.0294 -1.1555  0.5413
 4138SOL    HW223877   0.816   2.564   7.832  0.1535 -0.3742  0.5409
 4139SOL     OW23878   1.519   0.266  16.435 -0.3546 -0.2015 -0.1977
 4139SOL    HW123879   1.561   0.304  16.357  0.9844 -0.5104  0.3672
 4139SOL    HW223880   1.527   0.334  16.501  0.4518 -2.4683  2.0258
 4140SOL     OW23881   4.644   3.227   7.574 -0.5197  0.3971 -0.4656
 4140SOL    HW123882   4.629   3.190   7.661 -1.0258 -0.1777 -0.8019
 4140SOL    HW223883   0.015   3.248   7.576 -0.6683  1.0045  0.2501
 4141SOL     OW23884   1.942   3.474  10.257  0.0626  0.4520 -0.5131
 4141SOL    HW123885   1.943   3.565  10.285  1.5296  0.1308  0.4554
 4141SOL    HW223886   1.858   3.441  10.291  0.8791  0.6084  1.6407
 4142SOL     OW23887   4.027   1.264   7.309 -0.2917  0.5666  0.1838
 4142SOL    HW123888   4.013   1.354   7.279 -2.3158 -0.2322 -1.2505
 4142SOL    HW223889   3.941   1.222   7.317  1.1543 -2.3572  0.4467
 4143SOL     OW23890   3.373   0.885   2.490  0.1859 -0.3503 -0.5850
 4143SOL    HW123891   3.373   0.861   2.583 -3.8984 -0.3336 -0.5653
 4143SOL    HW223892   3.282   0.901   2.466 -0.2259  0.2001  1.3592
 4144SOL     OW23893   3.925   0.718   7.246  0.4066  0.1095  0.6242
 4144SOL    HW123894   3.980   0.641   7.261 -0.0567 -0.3335  0.0073
 4144SOL    HW223895   3.835   0.686   7.248  1.4270 -2.6141  3.1894
 4145SOL     OW23896   2.307   2.262  16.194  0.1381  0.2625  0.0066
 4145SOL    HW123897   2.385   2.274  16.248 -0.2099  0.2252  0.5178
 4145SOL    HW223898   2.297   2.168  16.206 -1.8135  0.3503 -0.9286
 4146SOL     OW23899   3.323   1.672   8.688 -0.3296 -0.4314  0.3352
 4146SOL    HW123900   3.299   1.658   8.780  0.8434  0.6091  0.8012
 4146SOL    HW223901   3.418   1.684   8.695 -0.5104  1.2633 -0.1024
 4147SOL     OW23902   2.497   4.499   9.909 -0.3699 -0.1907 -0.7272
 4147SOL    HW123903   2.572   4.525   9.963 -1.5654  1.3126  0.2232
 4147SOL    HW223904   2.541   4.463   9.832 -0.8412  0.3571 -1.2576
 4148SOL     OW23905   3.386   2.854  14.519  0.3689  0.0943  0.1775
 4148SOL    HW123906   3.418   2.890  14.602  2.0199  0.2845 -0.5378
 4148SOL    HW223907   3.425   2.910  14.450  0.2230 -1.8389 -1.4710
 4149SOL     OW23908   1.910   4.236   2.787  0.4463 -0.0277 -0.0350
 4149SOL    HW123909   1.906   4.142   2.770  5.4630  0.2115 -2.2904
 4149SOL    HW223910   2.003   4.228   2.805  0.5104  1.6735  0.4201
 4150SOL     OW23911   3.176   0.138   8.811  0.2167 -0.5596 -0.2007
 4150SOL    HW123912   3.133   0.166   8.730 -1.9694  1.0118  1.4847
 4150SOL    HW223913   3.253   0.194   8.804  0.1665 -0.4621  0.0282
 4151SOL     OW23914   4.411   3.303   6.573  0.2672 -0.3971  0.2643
 4151SOL    HW123915   4.336   3.339   6.621 -0.4128 -1.6588  0.1577
 4151SOL    HW223916   4.431   3.238   6.640 -0.9021 -0.6326  0.3933
 4152SOL     OW23917   4.149   1.067   3.359  0.2946 -0.4297 -0.1373
 4152SOL    HW123918   4.095   0.994   3.330  2.2514 -1.6648 -0.6706
 4152SOL    HW223919   4.184   1.104   3.278  0.2533 -2.1572 -0.9286
 4153SOL     OW23920   0.047   3.081   6.542  0.1719 -0.0588  0.1427
 4153SOL    HW123921   4.691   3.028   6.551 -0.0043  0.2773  0.5589
 4153SOL    HW223922   0.034   3.135   6.620  0.5571 -0.3933  0.4433
 4154SOL     OW23923   0.419   4.005  13.603  0.4143 -0.0568  0.1119
 4154SOL    HW123924   0.449   3.914  13.608 -1.6574 -0.7816 -0.7699
 4154SOL    HW223925   0.493   4.035  13.657  0.6663  0.3329 -0.4485
 4155SOL     OW23926   3.800   4.025   4.054  0.0421  0.5326 -0.0344
 4155SOL    HW123927   3.783   4.102   4.110 -2.2324  0.5765 -0.7890
 4155SOL    HW223928   3.846   3.967   4.114  0.7032 -1.7233 -2.7621
 4156SOL     OW23929   1.669   0.825   2.023 -0.1958  0.5570  0.1991
 4156SOL    HW123930   1.607   0.760   2.057  1.3411 -0.1512  1.6463
 4156SOL    HW223931   1.713   0.853   2.103  1.7734 -1.4680 -0.1815
 4157SOL     OW23932   2.552   2.267   0.792  0.0954 -0.4956 -0.1036
 4157SOL    HW123933   2.493   2.288   0.720  0.5058 -2.3650 -0.9995
 4157SOL    HW223934   2.526   2.328   0.860 -0.9804  0.3730 -1.3018
 4158SOL     OW23935   2.241   1.188   7.542  0.7782 -0.3684 -0.4662
 4158SOL    HW123936   2.185   1.125   7.497 -1.8243  1.2228  0.5637
 4158SOL    HW223937   2.320   1.138   7.522 -0.8682 -2.3091 -2.1862
 4159SOL     OW23938   2.267   0.749   1.999  0.1989  0.1991  0.2532
 4159SOL    HW123939   2.276   0.732   2.093 -0.7623 -2.4617 -0.1357
 4159SOL    HW223940   2.180   0.788   2.007  0.0869  0.0241 -0.0983
 4160SOL     OW23941   2.125   0.645  11.293 -0.2244  0.1042 -0.0175
 4160SOL    HW123942   2.096   0.599  11.371  1.2715 -0.5240  0.1674
 4160SOL    HW223943   2.220   0.647  11.307 -0.1846  0.1863 -0.2852
 4161SOL     OW23944   2.300   3.667   8.266 -0.1975  0.3033  0.0757
 4161SOL    HW123945   2.236   3.731   8.296  0.7778  1.0714  0.5174
 4161SOL    HW223946   2.269   3.641   8.179 -0.0216 -0.7126  0.3157
 4162SOL     OW23947   4.103   3.189  17.313 -0.7452 -0.4554 -0.0325
 4162SOL    HW123948   4.185   3.147  17.288 -1.2307 -1.0747 -0.5496
 4162SOL    HW223949   4.088   3.157  17.402  1.3465  0.1110  0.5319
 4163SOL     OW23950   3.000   4.650   4.297  0.2019 -0.2720  0.5082
 4163SOL    HW123951   3.062   4.640   4.225 -1.6263  3.3136 -1.5235
 4163SOL    HW223952   2.938   4.579   4.280  0.5011 -0.3357 -0.3151
 4164SOL     OW23953   0.151   2.898   7.407  0.1478  0.1268 -0.7282
 4164SOL    HW123954   0.109   2.944   7.335 -0.7237  0.8564  0.2478
 4164SOL    HW223955   0.187   2.817   7.371 -1.6785 -1.6304  1.3860
 4165SOL     OW23956   3.131   4.353   5.853  0.1696  0.3383 -0.8973
 4165SOL    HW123957   3.087   4.352   5.938  2.3123  2.7546  0.2392
 4165SOL    HW223958   3.211   4.402   5.872 -0.9375  2.4245 -1.6392
 4166SOL     OW23959   3.158   0.526   4.535 -0.3650 -0.0927 -0.0009
 4166SOL    HW123960   3.195   0.558   4.617 -0.1181  1.4494 -0.7182
 4166SOL    HW223961   3.185   0.434   4.542  0.8743  0.3010  0.2160
 4167SOL     OW23962   3.706   4.060   2.603 -0.6178  0.1183 -0.3358
 4167SOL    HW123963   3.725   3.967   2.591 -0.5997 -0.0489  0.9615
 4167SOL    HW223964   3.767   4.102   2.542 -1.9469 -0.2948 -1.9583
 4168SOL     OW23965   4.435   3.856  14.170  0.2413 -1.1351  0.1641
 4168SOL    HW123966   4.519   3.841  14.212  0.5202  1.1902  0.4537
 4168SOL    HW223967   4.385   3.790  14.217  0.2600 -2.4647 -1.6805
 4169SOL     OW23968   3.340   1.723   5.777 -0.6555 -0.1097  0.2177
 4169SOL    HW123969   3.390   1.642   5.763 -0.9055 -0.2218 -0.0227
 4169SOL    HW223970   3.391   1.769   5.844  1.2855 -0.2157 -1.1723
 4170SOL     OW23971   2.975   0.644  14.024  0.4216 -0.6614 -0.1545
 4170SOL    HW123972   3.047   0.679  14.076 -0.8822  0.9008  0.6043
 4170SOL    HW223973   3.006   0.636  13.933 -1.8257 -0.6393 -0.9333
 4171SOL     OW23974   3.836   2.014   6.019 -0.4484 -0.4377 -0.2192
 4171SOL    HW123975   3.759   2.018   6.075  1.1269 -1.3149  2.0175
 4171SOL    HW223976   3.898   2.033   6.090 -1.5475  1.8023  0.1274
 4172SOL     OW23977   3.050   4.131   1.698 -0.1966  0.4751  0.0394
 4172SOL    HW123978   3.081   4.200   1.640  2.3855 -1.7011 -1.1442
 4172SOL    HW223979   3.032   4.183   1.776  1.3390 -0.6258  1.1069
 4173SOL     OW23980   1.437   0.408   3.725  1.0023  0.1863  0.0814
 4173SOL    HW123981   1.428   0.492   3.771  1.2763  0.2728 -0.0229
 4173SOL    HW223982   1.409   0.426   3.635  0.7686 -0.2273  0.0730
 4174SOL     OW23983   3.847   1.950   9.682 -0.1193 -0.5533 -0.3907
 4174SOL    HW123984   3.918   2.013   9.697 -0.2795 -0.4142 -0.2299
 4174SOL    HW223985   3.882   1.866   9.710  1.7362  0.5546  0.6032
 4175SOL     OW23986   2.557   2.219   8.515 -0.2682  0.2385  0.3064
 4175SOL    HW123987   2.603   2.283   8.569 -1.6901  1.8299 -0.3972
 4175SOL    HW223988   2.475   2.268   8.516 -1.3247 -1.4915 -0.0642
 4176SOL     OW23989   3.003   3.705   6.861  0.3361  0.4203  0.3809
 4176SOL    HW123990   2.948   3.627   6.861 -0.0143  0.6648 -2.0558
 4176SOL    HW223991   3.049   3.691   6.778 -0.4850 -0.4436  0.0721
 4177SOL     OW23992   3.675   2.210  13.823 -0.4722  0.1681  0.0005
 4177SOL    HW123993   3.721   2.256  13.753  0.0249  0.7825  0.7419
 4177SOL    HW223994   3.732   2.218  13.899  1.3761 -0.9116 -1.2709
 4178SOL     OW23995   4.656   3.109  14.995 -0.4239 -0.3597 -0.4125
 4178SOL    HW123996   4.713   3.082  14.923  1.7558  0.6333  0.9480
 4178SOL    HW223997   4.684   3.043  15.058  1.3324 -0.9665 -1.8413
 4179SOL     OW23998   1.064   2.297   4.518  0.7802 -0.0583  0.0092
 4179SOL    HW123999   1.047   2.322   4.427 -1.7687  1.9464  1.0332
 4179SOL    HW224000   1.159   2.293   4.529  0.7627 -0.0187  0.1711
 4180SOL     OW24001   4.584   2.790   5.512 -0.1198  0.3092 -0.0211
 4180SOL    HW124002   4.589   2.850   5.438  0.7200 -0.9206 -0.9423
 4180SOL    HW224003   4.599   2.851   5.585 -3.6578  0.8242  0.3245
 4181SOL     OW24004   3.198   1.515   4.366 -0.5275 -0.6888  0.1564
 4181SOL    HW124005   3.128   1.499   4.302 -1.0410 -0.4421  0.6514
 4181SOL    HW224006   3.268   1.458   4.334 -0.7796 -1.2509  0.6155
 4182SOL     OW24007   1.028   4.549   7.380  0.1054  0.2033  0.3009
 4182SOL    HW124008   1.000   4.513   7.464 -0.3942 -0.2943 -0.0839
 4182SOL    HW224009   1.102   4.604   7.407 -0.6700  1.2556  0.2671
 4183SOL     OW24010   4.270   4.038   7.379  0.0335 -0.0781 -0.0828
 4183SOL    HW124011   4.293   4.131   7.388  1.0657 -0.3728  0.2942
 4183SOL    HW224012   4.357   4.000   7.376  0.1132 -0.0106  1.3836
 4184SOL     OW24013   4.331   3.190  12.316 -0.3880  0.0746  0.0711
 4184SOL    HW124014   4.308   3.181  12.224  1.8936 -4.2345 -0.0566
 4184SOL    HW224015   4.376   3.274  12.309 -2.4567  1.2525  0.7525
 4185SOL     OW24016   0.478   4.468   5.195 -0.0259  0.1152  0.4672
 4185SOL    HW124017   0.418   4.538   5.170  1.5134  1.6523  1.0079
 4185SOL    HW224018   0.520   4.465   5.109 -1.4950  2.4117 -0.3404
 4186SOL     OW24019   1.163   4.645  15.654  0.4874 -0.3503 -0.3803
 4186SOL    HW124020   1.203   0.007  15.636 -0.6571  0.2893  0.1383
 4186SOL    HW224021   1.090   4.666  15.712  0.1751 -0.2325 -0.8213
 4187SOL     OW24022   4.198   4.172   8.660  0.1237  0.0570 -0.0467
 4187SOL    HW124023   4.279   4.131   8.630 -0.9971 -2.6922  0.6708
 4187SOL    HW224024   4.222   4.264   8.671  2.1464 -0.4200 -0.4107
 4188SOL     OW24025   0.365   2.090  17.273  0.2511 -0.4116  0.2646
 4188SOL    HW124026   0.274   2.068  17.253  0.0666  0.0172  0.6479
 4188SOL    HW224027   0.373   2.034  17.351  1.9195  0.1931  0.5336
 4189SOL     OW24028   0.480   1.637   1.633  0.1546 -0.3430  0.1606
 4189SOL    HW124029   0.420   1.712   1.629 -0.9906 -1.1362  2.2226
 4189SOL    HW224030   0.423   1.561   1.643  0.5724 -0.4217  2.0030
 4190SOL     OW24031   3.721   3.754  17.110  0.4418  0.1657  0.0959
 4190SOL    HW124032   3.708   3.772  17.017  1.1632  2.2535  0.4021
 4190SOL    HW224033   3.629   3.752  17.136 -0.2209 -0.4791 -2.2364
 4191SOL     OW24034   2.125   0.764   6.811  0.4486  0.2355 -0.2607
 4191SOL    HW124035   2.135   0.676   6.773 -2.0371  1.0493 -2.7046
 4191SOL    HW224036   2.084   0.803   6.734 -1.9900 -1.6846  0.0686
 4192SOL     OW24037   0.129   1.287   1.170  0.2395  0.1700  0.1274
 4192SOL    HW124038   0.101   1.329   1.089 -0.6994 -0.3600  0.1803
 4192SOL    HW224039   0.218   1.261   1.145 -0.0344  0.5185 -1.2460
 4193SOL     OW24040   1.857   4.078   9.087  0.8812  0.3837 -0.3050
 4193SOL    HW124041   1.800   4.028   9.030 -1.7408 -0.7181  3.2795
 4193SOL    HW224042   1.793   4.124   9.142 -0.2931  1.1467 -2.3309
 4194SOL     OW24043   0.091   4.585   0.604  0.0320  0.2575 -0.0884
 4194SOL    HW124044   0.027   4.655   0.595 -0.6303 -0.4618 -0.9192
 4194SOL    HW224045   0.148   4.581   0.527  0.3536  0.0803  0.1555
 4195SOL     OW24046   3.338   2.023   7.930  0.1436  0.4156 -0.0703
 4195SOL    HW124047   3.345   1.976   8.013  1.7484 -2.2619 -1.7459
 4195SOL    HW224048   3.359   1.959   7.862 -1.0911 -0.4466  0.3603
 4196SOL     OW24049   2.383   2.143   8.157  0.2492 -0.1908 -0.3472
 4196SOL    HW124050   2.307   2.166   8.104  0.4809  2.7632  0.5997
 4196SOL    HW224051   2.362   2.051   8.173 -0.1026 -0.0797 -0.1735
 4197SOL     OW24052   0.309   0.615   4.664  0.2538  0.0756 -0.1717
 4197SOL    HW124053   0.351   0.607   4.578  2.3901  3.9634  0.5341
 4197SOL    HW224054   0.285   0.708   4.657 -0.2696  0.0623  1.5143
 4198SOL     OW24055   0.489   4.077   7.014 -0.1399 -0.2296  0.0025
 4198SOL    HW124056   0.525   4.087   6.926  2.4966 -1.6380  0.9092
 4198SOL    HW224057   0.480   4.170   7.036  1.6624  0.2448 -1.2953
 4199SOL     OW24058   2.342   3.374   0.546 -0.2515  0.3530  0.3350
 4199SOL    HW124059   2.358   3.325   0.627 -1.6714 -0.8909 -0.1144
 4199SOL    HW224060   2.277   3.311   0.514 -1.7275  3.5101 -2.8234
 4200SOL     OW24061   0.043   2.678   2.108 -0.5817  0.6478 -0.6355
 4200SOL    HW124062   0.013   2.608   2.166  2.6004 -0.8995 -0.8524
 4200SOL    HW224063   0.013   2.759   2.148 -1.1266  0.5076 -0.7705
 4201SOL     OW24064   1.258   4.295   3.531 -0.8950  0.1600 -0.2368
 4201SOL    HW124065   1.285   4.262   3.616  1.6889  2.0968 -0.3176
 4201SOL    HW224066   1.189   4.361   3.542  1.3800  1.5894  4.9330
 4202SOL     OW24067   4.458   3.014   4.409  0.1136  0.3639  0.2794
 4202SOL    HW124068   4.525   3.076   4.381  0.4496  0.7868  2.0355
 4202SOL    HW224069   4.433   2.975   4.325  2.8997  2.9441 -1.7653
 4203SOL     OW24070   3.304   1.340   4.176 -0.1932  0.1488 -0.6102
 4203SOL    HW124071   3.287   1.402   4.105  0.3514  2.0091  0.8917
 4203SOL    HW224072   3.284   1.258   4.131  0.5196  0.1239 -0.8769
 4204SOL     OW24073   0.446   3.036  11.926  0.6571 -0.1389  0.2269
 4204SOL    HW124074   0.406   3.113  11.884  0.9197  0.2330  0.6657
 4204SOL    HW224075   0.511   3.014  11.860 -0.3171 -0.2144 -0.7244
 4205SOL     OW24076   3.168   2.202   0.122  0.5144 -0.2221 -0.4438
 4205SOL    HW124077   3.262   2.207   0.104  1.3166 -2.6606  3.2318
 4205SOL    HW224078   3.142   2.152   0.044 -0.0785  0.5538 -0.7483
 4206SOL     OW24079   1.311   4.528   6.662 -0.1183 -0.3982  0.0785
 4206SOL    HW124080   1.278   4.498   6.746 -1.5326 -1.0261 -0.6940
 4206SOL    HW224081   1.347   4.613   6.685  2.1170 -0.9518 -1.3323
 4207SOL     OW24082   1.294   1.972   5.788 -0.6896  0.0043  0.2436
 4207SOL    HW124083   1.225   1.976   5.722  0.9265  0.1424 -1.4327
 4207SOL    HW224084   1.244   2.006   5.861 -0.8552 -0.4026  0.3187
 4208SOL     OW24085   3.706   0.095   4.140  0.0643 -0.3708  0.7215
 4208SOL    HW124086   3.701   0.053   4.055  1.1897 -0.3611  0.6469
 4208SOL    HW224087   3.787   0.057   4.175  0.2293 -1.6950 -1.1363
 4209SOL     OW24088   0.240   0.325   5.734  0.0831  0.0715 -0.0075
 4209SOL    HW124089   0.223   0.415   5.761  0.6594 -0.2501  1.4674
 4209SOL    HW224090   0.191   0.320   5.652 -2.7747 -0.9253  1.7223
 4210SOL     OW24091   0.222   0.363   3.811 -0.1815  0.1429 -0.4005
 4210SOL    HW124092   0.279   0.287   3.797  1.9638  1.5137  0.8182
 4210SOL    HW224093   0.138   0.325   3.835 -0.0541 -0.6436 -1.2226
 4211SOL     OW24094   1.187   0.230   3.631 -1.1608 -0.2260 -0.0526
 4211SOL    HW124095   1.188   0.140   3.665  0.1660  0.4816  1.7060
 4211SOL    HW224096   1.167   0.215   3.538 -1.4606 -0.3413  0.0286
 4212SOL     OW24097   3.628   0.673   5.687  0.2639 -0.3995  0.6853
 4212SOL    HW124098   3.546   0.706   5.723  0.2595 -0.0006  0.3023
 4212SOL    HW224099   3.703   0.707   5.736  0.1148  1.2330 -0.2149
 4213SOL     OW24100   2.231   1.547   8.722  0.6768 -0.6157 -0.0381
 4213SOL    HW124101   2.164   1.501   8.772  0.0903  2.0458  1.6221
 4213SOL    HW224102   2.183   1.627   8.700 -2.1010 -2.1422  0.4745
 4214SOL     OW24103   0.329   0.771   2.045 -0.1465 -0.0691 -0.3279
 4214SOL    HW124104   0.283   0.777   2.129  1.7519 -1.3630  0.7904
 4214SOL    HW224105   0.280   0.699   2.004  1.2401 -1.1007 -0.1583
 4215SOL     OW24106   4.535   4.210   3.827  0.4993  0.0209  0.3931
 4215SOL    HW124107   4.503   4.266   3.898 -1.9303  0.1999 -0.8565
 4215SOL    HW224108   4.449   4.214   3.786  0.7102 -0.2038 -0.0748
 4216SOL     OW24109   0.182   2.609   4.325 -0.2055 -0.3108 -0.4619
 4216SOL    HW124110   0.246   2.653   4.268  0.2087  1.0220  1.0152
 4216SOL    HW224111   0.097   2.638   4.293 -0.5412  0.7043  1.3228
 4217SOL     OW24112   3.042   2.947   9.808 -0.1003  0.2988 -0.0572
 4217SOL    HW124113   3.052   2.885   9.736  0.8250 -0.9677  1.1763
 4217SOL    HW224114   3.130   2.946   9.844  0.8143  0.3355 -2.2784
 4218SOL     OW24115   1.194   0.144   8.978 -0.5791  0.1288  0.0823
 4218SOL    HW124116   1.173   0.083   9.048  1.1809 -1.7894 -1.0665
 4218SOL    HW224117   1.275   0.107   8.944  0.1684  2.0106 -0.2110
 4219SOL     OW24118   1.782   4.465   2.285 -0.2546 -0.1153 -0.1577
 4219SOL    HW124119   1.766   4.519   2.208 -0.9077  0.9135  0.7055
 4219SOL    HW224120   1.703   4.412   2.285 -0.8307  0.7557  0.3137
 4220SOL     OW24121   2.938   2.647   9.356  0.3286  0.0625 -0.3095
 4220SOL    HW124122   2.991   2.594   9.297 -1.6718 -2.7597  0.4232
 4220SOL    HW224123   2.856   2.599   9.341  0.9444 -0.9761 -0.3263
 4221SOL     OW24124   2.135   0.129  14.283  0.1237 -0.0630  0.6042
 4221SOL    HW124125   2.216   0.179  14.273  0.1142 -0.4818 -1.6784
 4221SOL    HW224126   2.158   0.043  14.248  0.7085  0.1830  0.3769
 4222SOL     OW24127   4.025   4.683  13.292 -0.7659  0.3944 -0.0612
 4222SOL    HW124128   4.058   4.602  13.253 -0.1481  1.0146 -0.8153
 4222SOL    HW224129   4.103   0.010  13.270 -1.6425  0.9168 -1.8999
 4223SOL     OW24130   3.030   1.367   2.896  0.5852  0.1215 -0.4732
 4223SOL    HW124131   2.945   1.400   2.865  2.2819  3.4441 -1.5318
 4223SOL    HW224132   3.074   1.449   2.916 -2.6157  1.5365  0.8317
 4224SOL     OW24133   3.161   0.163   6.824  0.1732 -0.0114  0.2896
 4224SOL    HW124134   3.179   0.254   6.846  0.3131  0.0980 -0.2929
 4224SOL    HW224135   3.092   0.147   6.888  0.2599 -0.5524  0.2476
 4225SOL     OW24136   3.924   1.440   9.028  0.3689  0.0101  0.2191
 4225SOL    HW124137   3.917   1.527   9.066 -0.7832 -0.5099  1.2136
 4225SOL    HW224138   3.932   1.461   8.935  1.2745 -0.6921  0.1319
 4226SOL     OW24139   2.584   3.872   4.793 -0.2898 -0.2297 -0.2846
 4226SOL    HW124140   2.599   3.780   4.813 -2.6226 -0.2720  1.3430
 4226SOL    HW224141   2.512   3.861   4.731  0.9508 -1.3717 -1.4895
 4227SOL     OW24142   1.546   4.253   0.538  0.1564  0.5495 -0.3149
 4227SOL    HW124143   1.631   4.253   0.494 -0.3385  1.3237 -1.2854
 4227SOL    HW224144   1.565   4.271   0.631  1.1570  0.0895 -0.4279
 4228SOL     OW24145   2.038   1.896   3.179 -0.5875 -0.1987 -0.3558
 4228SOL    HW124146   1.944   1.917   3.180  0.0477  2.6310 -1.6355
 4228SOL    HW224147   2.034   1.822   3.118  2.5764  0.2054 -1.0172
 4229SOL     OW24148   2.532   3.294   9.634  0.3696  0.2822 -0.5114
 4229SOL    HW124149   2.468   3.266   9.701  2.1614 -1.1387  0.5867
 4229SOL    HW224150   2.556   3.216   9.585  1.9077  0.2051  0.3816
 4230SOL     OW24151   1.594   4.721  14.358 -0.4898  0.1668 -0.3142
 4230SOL    HW124152   1.682   4.685  14.346 -0.9136 -0.9430 -0.1338
 4230SOL    HW224153   1.546   4.639  14.344  1.3824 -1.0885  0.6072
 4231SOL     OW24154   4.361   0.612   3.801  0.7023 -0.6606 -0.4076
 4231SOL    HW124155   4.397   0.576   3.882 -2.1679 -0.9126  0.7370
 4231SOL    HW224156   4.433   0.606   3.738  1.4109  0.3989  0.2824
 4232SOL     OW24157   3.060   2.396  13.501  0.2236  0.7595  0.6265
 4232SOL    HW124158   3.131   2.404  13.438 -0.7287  0.7082 -0.4514
 4232SOL    HW224159   2.992   2.425  13.441  1.7006 -0.1480 -1.4942
 4233SOL     OW24160   2.620   0.847  10.421  0.8088 -0.1292  0.2583
 4233SOL    HW124161   2.686   0.780  10.434  0.4774 -0.7901 -1.4266
 4233SOL    HW224162   2.683   0.918  10.408  1.6725 -1.0690 -0.6702
 4234SOL     OW24163   0.068   4.023  12.673  0.5230  0.3508  0.2269
 4234SOL    HW124164   0.041   4.009  12.582 -0.5568  0.3015  0.5464
 4234SOL    HW224165   0.117   4.105  12.669  1.2445 -0.0756  0.4277
 4235SOL     OW24166   1.284   2.198   3.705 -0.3622  0.1766 -0.0322
 4235SOL    HW124167   1.262   2.117   3.751  2.7317 -1.0084 -0.6096
 4235SOL    HW224168   1.199   2.201   3.661 -0.6464  0.0012  0.5027
 4236SOL     OW24169   2.282   3.205  12.492  0.2674 -0.3159 -0.8174
 4236SOL    HW124170   2.329   3.287  12.505  1.4919 -1.4086  1.8986
 4236SOL    HW224171   2.241   3.209  12.406 -1.1802 -0.2385 -0.1137
 4237SOL     OW24172   4.458   0.488   8.760 -0.0935  0.3520 -0.1196
 4237SOL    HW124173   4.424   0.407   8.721  2.5382  0.2258 -2.1787
 4237SOL    HW224174   4.522   0.521   8.697  0.6880  0.3239  0.6609
 4238SOL     OW24175   0.624   2.501   8.726  0.3471 -0.1623  0.8980
 4238SOL    HW124176   0.638   2.540   8.813 -3.7034 -1.1006  1.9700
 4238SOL    HW224177   0.627   2.410   8.753  0.5155 -0.6408 -0.7726
 4239SOL     OW24178   1.720   3.019   5.769 -0.1320 -0.3392  0.4191
 4239SOL    HW124179   1.800   2.980   5.735  0.6366  1.0153  0.6805
 4239SOL    HW224180   1.744   3.111   5.771 -0.8940 -0.1172 -0.9054
 4240SOL     OW24181   4.333   1.047   2.136  0.0826 -0.5538 -0.2961
 4240SOL    HW124182   4.353   0.954   2.126 -0.0403 -0.3781 -2.2569
 4240SOL    HW224183   4.416   1.094   2.126  0.6659 -1.7393 -1.0558
 4241SOL     OW24184   0.095   0.051   0.293  0.1072 -0.0167  0.4717
 4241SOL    HW124185   0.014   0.014   0.327  0.1118 -2.4353 -2.1203
 4241SOL    HW224186   0.066   0.135   0.258 -0.7281 -0.3782  0.2929
 4242SOL     OW24187   1.879   1.134   3.349  0.6858  0.4340  0.4883
 4242SOL    HW124188   1.943   1.112   3.281 -1.9874 -0.2383 -1.7826
 4242SOL    HW224189   1.933   1.145   3.428  1.7906  0.6511 -0.2941
 4243SOL     OW24190   1.434   1.755   9.700  0.2733  0.1605  0.1641
 4243SOL    HW124191   1.427   1.692   9.772  3.4129 -0.3506  0.0019
 4243SOL    HW224192   1.451   1.704   9.621  1.4747  2.0394 -0.8050
 4244SOL     OW24193   2.345   3.003   8.798  0.2853 -0.3655  0.1397
 4244SOL    HW124194   2.325   2.965   8.712 -0.7798 -0.3708  0.3932
 4244SOL    HW224195   2.287   3.079   8.803  1.2022  0.2488  1.2874
 4245SOL     OW24196   4.169   1.626   5.539 -0.0331 -0.0223  0.1079
 4245SOL    HW124197   4.157   1.629   5.444 -0.1764 -0.0142  0.1264
 4245SOL    HW224198   4.076   1.625   5.562  0.5187 -0.0330  2.3303
 4246SOL     OW24199   2.149   3.075   1.125  0.8672 -0.5711 -0.0579
 4246SOL    HW124200   2.068   3.125   1.137  1.0032 -0.2235 -0.5961
 4246SOL    HW224201   2.134   2.987   1.159 -0.1071 -1.1285 -1.9109
 4247SOL     OW24202   3.870   3.314   6.667  0.2367 -0.1121  0.4737
 4247SOL    HW124203   3.865   3.402   6.705 -2.0700 -0.7123  1.5545
 4247SOL    HW224204   3.921   3.273   6.737 -0.7174 -1.5168  0.3326
 4248SOL     OW24205   1.959   2.454  14.848  0.5232 -0.2694  0.1958
 4248SOL    HW124206   1.983   2.412  14.931  1.3327  0.7983  0.5027
 4248SOL    HW224207   2.042   2.493  14.820  2.0064 -3.1562  0.5329
 4249SOL     OW24208   0.130   3.666  12.237  0.2983  0.7797 -0.0191
 4249SOL    HW124209   0.068   3.707  12.176 -0.5251  0.9046  0.8874
 4249SOL    HW224210   0.133   3.584  12.189  3.0035  0.3027  0.9530
 4250SOL     OW24211   2.384   4.290   1.360  0.2408  0.2122  0.8937
 4250SOL    HW124212   2.321   4.244   1.305  0.0319 -0.3785  1.6298
 4250SOL    HW224213   2.354   4.255   1.443  2.9272  0.0488  1.7866
 4251SOL     OW24214   2.479   3.763   8.774  0.4891 -0.1286  0.1329
 4251SOL    HW124215   2.427   3.758   8.855  0.9527  2.7775  0.6028
 4251SOL    HW224216   2.488   3.669   8.761 -1.4410 -0.1541 -1.0338
 4252SOL     OW24217   0.324   1.123   5.649 -0.6755  0.4640 -0.1340
 4252SOL    HW124218   0.314   1.152   5.558  0.7432  0.3485 -0.3151
 4252SOL    HW224219   0.414   1.147   5.670 -0.6643  0.3752 -0.0787
 4253SOL     OW24220   4.424   2.021   1.937  0.3045  0.9635 -0.0091
 4253SOL    HW124221   4.454   1.955   2.000 -0.4747  3.6262  3.1464
 4253SOL    HW224222   4.490   2.006   1.868  1.2324  0.6992  0.9362
 4254SOL     OW24223   4.228   4.092  13.961  0.3800 -0.0417  0.1916
 4254SOL    HW124224   4.200   4.118  14.049  1.4584 -2.1191  1.1232
 4254SOL    HW224225   4.183   4.154  13.903  2.1357  1.9302  0.9324
 4255SOL     OW24226   3.015   3.680   4.052  0.0544 -0.5092 -0.0202
 4255SOL    HW124227   3.037   3.772   4.037 -0.3859 -0.1469  1.5686
 4255SOL    HW224228   3.076   3.644   3.987 -0.1430 -2.3581  0.8189
 4256SOL     OW24229   0.104   3.550  17.227 -0.1118 -0.1946 -0.7324
 4256SOL    HW124230   0.050   3.629  17.239  1.0833  0.5534 -0.2404
 4256SOL    HW224231   0.039   3.480  17.231 -0.8448  0.5697  0.6602
 4257SOL     OW24232   1.430   3.878   4.846 -0.9324  0.0918 -0.5476
 4257SOL    HW124233   1.339   3.903   4.832 -1.2929  0.3721  2.2487
 4257SOL    HW224234   1.410   3.807   4.907  0.2555  1.0043  0.9163
 4258SOL     OW24235   1.243   3.685  11.384 -0.1103 -0.2547 -0.0252
 4258SOL    HW124236   1.258   3.760  11.441 -0.5281  0.1182 -0.4070
 4258SOL    HW224237   1.319   3.627  11.391  0.8009  0.5385 -3.1078
 4259SOL     OW24238   0.226   2.768   5.771  0.0613  0.6176 -0.0413
 4259SOL    HW124239   0.217   2.677   5.799 -0.1391  0.0582 -1.9253
 4259SOL    HW224240   0.320   2.782   5.787  0.3074  0.4056 -1.3484
 4260SOL     OW24241   0.829   4.551   1.774  0.3393  0.1002 -0.1150
 4260SOL    HW124242   0.803   4.480   1.716 -2.7526  0.5343  0.7181
 4260SOL    HW224243   0.854   4.511   1.857  1.9603  0.2580 -0.5221
 4261SOL     OW24244   2.308   1.743   4.679 -0.4906 -0.2409  0.2509
 4261SOL    HW124245   2.392   1.726   4.636 -0.4778  0.6652 -0.0737
 4261SOL    HW224246   2.258   1.794   4.616  0.3842 -0.0235 -0.2655
 4262SOL     OW24247   1.503   0.349   5.761  0.0191 -0.2871 -0.3651
 4262SOL    HW124248   1.584   0.314   5.799 -0.3758 -0.7158  0.0751
 4262SOL    HW224249   1.441   0.277   5.756 -0.3090 -0.0679  0.5487
 4263SOL     OW24250   4.674   1.824   9.001  0.6071 -0.6627  0.4096
 4263SOL    HW124251   0.045   1.831   9.020  0.4526 -2.0132  1.6488
 4263SOL    HW224252   4.630   1.869   9.074 -2.5059  0.4407 -2.1585
 4264SOL     OW24253   2.936   3.564   5.472  1.1584  0.0684 -0.1582
 4264SOL    HW124254   3.019   3.600   5.440  0.1816  2.6332  0.1306
 4264SOL    HW224255   2.878   3.553   5.397 -1.1138 -2.2338  1.9414
 4265SOL     OW24256   0.446   0.988   7.088 -0.3982 -0.0590  0.6112
 4265SOL    HW124257   0.476   1.019   7.003 -0.1890  0.4323  0.8633
 4265SOL    HW224258   0.351   0.994   7.083 -0.4056  1.2506  2.2444
 4266SOL     OW24259   2.161   1.384   2.644  0.7311 -0.5215 -0.3152
 4266SOL    HW124260   2.213   1.395   2.724  2.4569 -0.6511 -1.4073
 4266SOL    HW224261   2.076   1.355   2.677 -0.5596  3.1078 -0.4546
 4267SOL     OW24262   2.640   3.053  10.443  0.1222  0.1837 -0.4955
 4267SOL    HW124263   2.681   3.044  10.529 -0.1894  0.5498 -0.3077
 4267SOL    HW224264   2.555   3.092  10.464 -0.4081 -0.8174 -0.7746
 4268SOL     OW24265   0.734   3.888   2.874 -0.0491  0.4592  0.2079
 4268SOL    HW124266   0.693   3.802   2.884  2.3326 -0.8471 -1.3040
 4268SOL    HW224267   0.743   3.901   2.779  0.2464 -0.2525  0.1393
 4269SOL     OW24268   3.360   0.611   9.566 -0.2855  0.2949  0.8079
 4269SOL    HW124269   3.413   0.687   9.589  2.8720 -1.9709  1.0285
 4269SOL    HW224270   3.299   0.664   9.515  0.4061  0.3622  0.0599
 4270SOL     OW24271   2.630   0.106   2.810 -0.0492 -0.2468 -0.8152
 4270SOL    HW124272   2.611   0.200   2.813  1.5205  0.0306  0.4404
 4270SOL    HW224273   2.725   0.106   2.817 -0.1169 -0.2441  0.0849
 4271SOL     OW24274   0.100   0.401  10.491 -0.6313 -0.0258 -0.5898
 4271SOL    HW124275   0.178   0.359  10.455 -0.2438  0.2339 -0.0516
 4271SOL    HW224276   0.144   0.447  10.563  0.0159 -1.3306 -0.1431
 4272SOL     OW24277   4.506   3.955  12.628 -0.0730 -0.5939  0.0479
 4272SOL    HW124278   4.517   4.027  12.566 -1.1930 -2.1164 -1.9288
 4272SOL    HW224279   4.549   3.988  12.706 -1.6190  1.4963  0.0234
 4273SOL     OW24280   3.899   1.699  11.663 -0.0569  0.1277  0.2328
 4273SOL    HW124281   3.809   1.668  11.661 -0.1176  0.3320 -0.1795
 4273SOL    HW224282   3.892   1.770  11.728 -2.4559  0.4068 -0.3547
 4274SOL     OW24283   1.394   0.429  14.459 -0.0399  0.5318 -0.2499
 4274SOL    HW124284   1.342   0.409  14.537 -2.2076  0.1417 -1.8000
 4274SOL    HW224285   1.350   0.504  14.419  0.5403  1.2087  0.3737
 4275SOL     OW24286   1.774   0.115   7.635  0.3263 -0.2156 -0.1279
 4275SOL    HW124287   1.734   0.073   7.558 -0.8704  2.6529 -1.0927
 4275SOL    HW224288   1.859   0.137   7.596 -0.1502 -2.7222 -2.6251
 4276SOL     OW24289   0.238   4.486   8.461 -0.1559  0.1473  0.6740
 4276SOL    HW124290   0.192   4.403   8.474  0.7688 -0.8458 -2.3065
 4276SOL    HW224291   0.256   4.486   8.367 -2.2930  1.4128  0.2827
 4277SOL     OW24292   1.778   1.307   3.651  0.3793  0.4604  0.0451
 4277SOL    HW124293   1.833   1.301   3.730  1.7946  2.8392 -0.7484
 4277SOL    HW224294   1.766   1.215   3.626 -0.6198  0.8227 -0.8004
 4278SOL     OW24295   1.884   3.920  11.682 -0.1924  0.0105 -0.8650
 4278SOL    HW124296   1.832   3.851  11.641  1.2421 -1.1577 -0.7084
 4278SOL    HW224297   1.866   3.987  11.616  1.0780 -0.0397 -1.2549
 4279SOL     OW24298   4.308   2.295  17.484  0.1041  0.5528  0.0530
 4279SOL    HW124299   4.222   2.284  17.444  0.2582  3.5221 -1.1255
 4279SOL    HW224300   4.346   2.348  17.413  1.6172  0.6361  0.9050
 4280SOL     OW24301   1.332   3.283   5.320  0.4540 -0.0144 -0.0138
 4280SOL    HW124302   1.274   3.338   5.266  0.2155  1.0923  1.3905
 4280SOL    HW224303   1.313   3.197   5.281  0.2654 -0.7280  1.6600
 4281SOL     OW24304   2.953   0.138   5.731 -0.8131 -0.7237  0.1266
 4281SOL    HW124305   2.913   0.053   5.747 -1.4089 -1.0419 -3.1254
 4281SOL    HW224306   2.880   0.200   5.729 -0.5907 -0.4604  0.1479
 4282SOL     OW24307   2.861   3.033   7.748 -0.3675 -1.4114  0.1053
 4282SOL    HW124308   2.937   3.091   7.739 -2.1216  1.1758  2.0971
 4282SOL    HW224309   2.885   2.993   7.831  0.4586 -1.2291 -0.0388
 4283SOL     OW24310   2.853   3.288  15.400 -0.4434 -0.6067 -0.1979
 4283SOL    HW124311   2.813   3.287  15.313 -0.0975  2.0475 -0.3888
 4283SOL    HW224312   2.826   3.205  15.438 -3.5677  1.1746  1.5343
 4284SOL     OW24313   0.849   2.695   7.969 -0.2375 -0.3271  0.2819
 4284SOL    HW124314   0.843   2.710   8.064  1.8179  0.2108  0.3194
 4284SOL    HW224315   0.799   2.769   7.935 -2.3642 -2.3943 -1.1563
 4285SOL     OW24316   1.838   4.621   5.696 -0.3327  0.7711  0.1531
 4285SOL    HW124317   1.917   4.669   5.719  0.3565 -0.5729  0.6028
 4285SOL    HW224318   1.843   4.637   5.602 -0.3713 -2.9145 -0.4908
 4286SOL     OW24319   0.839   3.467  11.191 -0.1256 -0.3497  0.1651
 4286SOL    HW124320   0.826   3.522  11.113  1.0709 -0.5391 -0.1668
 4286SOL    HW224321   0.880   3.528  11.253  0.7568 -1.5942  0.7903
 4287SOL     OW24322   2.015   3.967  12.294 -0.9295  0.1148 -0.0168
 4287SOL    HW124323   2.095   3.922  12.267  0.5884  3.0200 -0.3286
 4287SOL    HW224324   2.010   4.047  12.241  0.4604  1.2267  1.5325
 4288SOL     OW24325   2.636   2.756  11.899  0.1004 -0.0771 -0.5869
 4288SOL    HW124326   2.652   2.672  11.942  3.3701  0.7553 -0.1439
 4288SOL    HW224327   2.544   2.759  11.926 -0.0171  1.1318 -1.1082
 4289SOL     OW24328   4.616   0.422  13.282  0.6884  0.0980 -0.4957
 4289SOL    HW124329   4.656   0.336  13.270  0.5440  0.1914 -1.6158
 4289SOL    HW224330   4.668   0.481  13.226  0.0864 -1.9874 -3.2253
 4290SOL     OW24331   1.180   2.320   8.388  0.1552 -0.2445  0.7239
 4290SOL    HW124332   1.182   2.288   8.298  0.0423  1.7893  0.0222
 4290SOL    HW224333   1.272   2.318   8.414  0.2691 -0.7457  0.2969
 4291SOL     OW24334   4.306   3.353   4.635 -0.5185  0.2057  0.1659
 4291SOL    HW124335   4.274   3.422   4.578  1.7301  0.9823 -0.1497
 4291SOL    HW224336   4.241   3.346   4.705 -0.6182 -0.9257 -0.0329
 4292SOL     OW24337   3.972   1.688  12.468  0.2353  0.3790 -0.2264
 4292SOL    HW124338   3.945   1.771  12.427 -1.0880 -0.1583 -0.4593
 4292SOL    HW224339   4.064   1.710  12.477  0.4686 -0.3986 -0.7619
 4293SOL     OW24340   3.563   3.730   8.276  0.0895  0.6763  0.1963
 4293SOL    HW124341   3.471   3.728   8.252  0.3494 -1.3218 -0.5924
 4293SOL    HW224342   3.578   3.824   8.288  3.4646  0.2216 -0.5087
 4294SOL     OW24343   0.363   3.781  12.299  0.5760 -0.0105 -0.5063
 4294SOL    HW124344   0.386   3.762  12.390  0.0538 -1.1966 -0.6105
 4294SOL    HW224345   0.284   3.728  12.282 -0.3717  0.8247  1.2510
 4295SOL     OW24346   4.440   0.903   5.612  0.1462 -0.3247  0.2007
 4295SOL    HW124347   4.490   0.840   5.663  3.0833  1.3290 -0.6202
 4295SOL    HW224348   4.478   0.989   5.630  1.0741 -0.6358 -0.2698
 4296SOL     OW24349   2.959   1.699   6.617 -0.4064 -0.1512  0.0914
 4296SOL    HW124350   2.984   1.606   6.624  0.7857  0.1288 -0.3527
 4296SOL    HW224351   2.992   1.750   6.690  0.7275  0.7440 -1.0390
 4297SOL     OW24352   0.690   2.035   5.414  0.3840 -0.2822  0.2162
 4297SOL    HW124353   0.762   1.978   5.441  0.7307  0.4663  0.8683
 4297SOL    HW224354   0.742   2.089   5.354  0.7377 -0.4451  0.3782
 4298SOL     OW24355   2.465   4.656   8.702  0.5790 -0.2617  0.4751
 4298SOL    HW124356   2.443   4.590   8.637 -0.1317 -1.0910  1.5640
 4298SOL    HW224357   2.404   4.722   8.670  0.1912  0.6337  3.0362
 4299SOL     OW24358   1.310   0.085  10.008 -0.1988 -0.4700 -0.5959
 4299SOL    HW124359   1.374   0.050  10.070 -1.8269 -1.7014  0.3960
 4299SOL    HW224360   1.365   0.134   9.948  0.5688 -0.1436  0.3756
 4300SOL     OW24361   4.430   0.024   1.869 -0.8226  0.6003 -0.0829
 4300SOL    HW124362   4.446   0.085   1.940 -0.4786  0.2634  0.1330
 4300SOL    HW224363   4.449   0.074   1.790 -0.7220 -0.5614 -0.8075
 4301SOL     OW24364   3.116   4.333  13.712 -0.2228  0.9032  0.0680
 4301SOL    HW124365   3.068   4.357  13.633 -1.3623 -2.2447 -0.2097
 4301SOL    HW224366   3.072   4.390  13.775 -2.5249 -0.8709  0.0746
 4302SOL     OW24367   4.466   2.615   7.068 -0.3519 -0.0529 -0.3052
 4302SOL    HW124368   4.502   2.703   7.060  0.7696 -0.4913 -0.0771
 4302SOL    HW224369   4.490   2.580   6.982  2.4616  3.4525 -0.9423
 4303SOL     OW24370   3.445   2.093   8.306 -0.6593  0.3523 -0.0971
 4303SOL    HW124371   3.498   2.092   8.386 -0.6892 -1.2413 -0.0927
 4303SOL    HW224372   3.496   2.150   8.249 -1.5304  0.3933 -0.8291
 4304SOL     OW24373   1.368   0.744   2.409  0.0955  0.2940 -0.0670
 4304SOL    HW124374   1.415   0.661   2.414  0.3740  0.4909  0.6018
 4304SOL    HW224375   1.440   0.805   2.393  0.7383 -0.3160  0.4682
 4305SOL     OW24376   3.710   0.046   9.715 -0.4026 -0.1953  0.0430
 4305SOL    HW124377   3.636   0.030   9.656  0.2046 -1.1844 -0.4505
 4305SOL    HW224378   3.690   4.717   9.792 -1.9608 -1.3062 -1.1067
 4306SOL     OW24379   4.085   4.410   5.740 -0.7363  0.6384  0.2608
 4306SOL    HW124380   4.024   4.476   5.772 -1.2487  0.3761 -0.1740
 4306SOL    HW224381   4.086   4.443   5.650 -0.5936  0.3929  0.1713
 4307SOL     OW24382   2.617   1.876   4.095  0.5893 -0.5329 -0.1559
 4307SOL    HW124383   2.539   1.896   4.148  0.9249 -0.9686  0.5087
 4307SOL    HW224384   2.582   1.837   4.015  1.3297 -0.1809 -0.6511
 4308SOL     OW24385   3.749   4.594   5.871  0.4122 -0.0988  0.0323
 4308SOL    HW124386   3.672   4.630   5.828 -0.7431 -0.8657  1.4571
 4308SOL    HW224387   3.788   4.675   5.906 -0.8152  0.4168  0.1902
 4309SOL     OW24388   1.574   0.769   1.768  0.3271 -0.1190 -0.4562
 4309SOL    HW124389   1.612   0.794   1.852 -1.4867  0.2695  0.2503
 4309SOL    HW224390   1.479   0.773   1.781  0.5378 -0.7929  1.2662
 4310SOL     OW24391   3.272   1.635   0.566 -0.7746  0.3582  0.3158
 4310SOL    HW124392   3.303   1.556   0.611 -0.8698 -0.1565 -0.5209
 4310SOL    HW224393   3.193   1.596   0.528 -1.1594 -0.6127  2.1338
 4311SOL     OW24394   4.053   1.610   5.238  0.5480 -0.4277  0.0655
 4311SOL    HW124395   3.986   1.596   5.305  0.3099  1.4730  0.2026
 4311SOL    HW224396   4.062   1.518   5.211  2.5523  0.0058 -0.7388
 4312SOL     OW24397   2.915   1.570   4.396 -0.3767  0.0034 -0.1103
 4312SOL    HW124398   2.894   1.487   4.354 -1.9950  0.6724 -0.6215
 4312SOL    HW224399   3.003   1.575   4.359 -0.2359  1.7222  0.4638
 4313SOL     OW24400   4.035   0.487   3.582  0.0600 -0.1767 -0.4042
 4313SOL    HW124401   4.104   0.553   3.592 -0.1578 -0.0162  0.0492
 4313SOL    HW224402   4.028   0.471   3.488 -0.4061 -1.3063 -0.1835
 4314SOL     OW24403   1.228   1.909   4.734  0.0392  0.5390 -0.3444
 4314SOL    HW124404   1.301   1.960   4.701  0.2036  1.1923  1.0072
 4314SOL    HW224405   1.267   1.822   4.729 -0.8372  0.0969  0.4267
 4315SOL     OW24406   2.892   3.243   8.554  0.0407  0.2765 -0.2244
 4315SOL    HW124407   2.816   3.276   8.507 -1.9863 -1.5551  1.7486
 4315SOL    HW224408   2.950   3.217   8.483  1.0840  1.6251  0.1169
 4316SOL     OW24409   1.389   4.590   3.670  0.3541 -0.2559 -0.3487
 4316SOL    HW124410   1.480   4.618   3.676  0.0262  1.0341 -1.3740
 4316SOL    HW224411   1.385   4.554   3.581  1.2427  0.9990 -0.8906
 4317SOL     OW24412   4.600   2.902   7.634  0.2489 -0.2461 -0.3321
 4317SOL    HW124413   4.648   2.825   7.665  0.0545 -0.1165  0.2803
 4317SOL    HW224414   4.665   2.941   7.575 -1.4424  0.6508 -1.5854
 4318SOL     OW24415   3.288   1.862   2.643 -0.0627 -0.2878 -0.3617
 4318SOL    HW124416   3.219   1.822   2.590  0.0082  1.9403 -2.1492
 4318SOL    HW224417   3.332   1.783   2.674 -3.7124 -1.5841  1.4360
 4319SOL     OW24418   1.657   4.517   2.588  0.3056  0.0325 -0.5015
 4319SOL    HW124419   1.625   4.570   2.515 -0.6810 -0.0551 -0.1337
 4319SOL    HW224420   1.685   4.438   2.541 -0.0678  0.8470 -2.0951
 4320SOL     OW24421   4.326   4.082   5.189 -0.1760 -0.3423 -0.2426
 4320SOL    HW124422   4.268   4.012   5.158  0.3933 -0.1661 -1.6776
 4320SOL    HW224423   4.408   4.072   5.142 -0.3560 -0.6394 -0.4993
 4321SOL     OW24424   3.309   0.330  12.909  0.0863  0.2631 -0.5142
 4321SOL    HW124425   3.347   0.305  12.824 -0.5836 -0.4371 -0.6079
 4321SOL    HW224426   3.216   0.312  12.901  0.4520 -2.0910  0.5005
 4322SOL     OW24427   3.177   3.839  10.077 -0.0116 -0.3416  0.2132
 4322SOL    HW124428   3.151   3.774  10.012 -3.0074  1.3603 -0.3025
 4322SOL    HW224429   3.110   3.830  10.145  0.9045  0.6487  1.2458
 4323SOL     OW24430   4.560   1.186   9.930  0.6287 -0.1895 -0.3433
 4323SOL    HW124431   4.550   1.144  10.016  0.3496  0.5076 -0.0325
 4323SOL    HW224432   4.647   1.165   9.896  1.5253  2.2790  0.4518
 4324SOL     OW24433   2.216   4.449   3.482  0.5148 -0.5258 -0.4712
 4324SOL    HW124434   2.208   4.543   3.463  0.1270 -0.3312  0.7074
 4324SOL    HW224435   2.126   4.420   3.475 -0.0836  0.8209  1.7327
 4325SOL     OW24436   3.141   0.703   1.481 -0.3815  0.1396 -0.0964
 4325SOL    HW124437   3.157   0.650   1.403 -0.4637  1.4117 -0.9678
 4325SOL    HW224438   3.105   0.783   1.443 -1.0530  0.3938  1.0768
 4326SOL     OW24439   2.641   0.788   9.690 -0.1512 -0.5621 -0.2164
 4326SOL    HW124440   2.702   0.722   9.657  2.0287  0.9576  0.8293
 4326SOL    HW224441   2.604   0.739   9.764 -1.7702 -0.6156 -1.0458
 4327SOL     OW24442   1.328   0.953   0.647  0.3768 -0.2616  0.3059
 4327SOL    HW124443   1.348   0.863   0.621  1.5339  0.0980 -0.0649
 4327SOL    HW224444   1.378   1.003   0.583  2.8647 -0.8007  1.7966
 4328SOL     OW24445   3.086   3.098   3.227  0.0552 -0.3919  0.2962
 4328SOL    HW124446   3.145   3.163   3.266 -0.2476 -1.5605  2.6984
 4328SOL    HW224447   3.014   3.147   3.188 -1.9477 -0.6144  3.7444
 4329SOL     OW24448   4.145   3.685   6.431  0.1976  0.5936  0.1999
 4329SOL    HW124449   4.220   3.628   6.411  0.0217  0.0415  1.1113
 4329SOL    HW224450   4.157   3.706   6.524  0.3565  0.5765  0.1838
 4330SOL     OW24451   2.564   0.512   6.643 -0.6594 -0.2382 -0.1609
 4330SOL    HW124452   2.559   0.546   6.554  0.5551 -0.2420 -0.2263
 4330SOL    HW224453   2.657   0.520   6.667 -0.5339  2.1367 -1.4059
 4331SOL     OW24454   2.104   4.297   1.230 -0.5156 -0.3634 -0.1754
 4331SOL    HW124455   2.040   4.354   1.188  2.0659  2.3411 -0.4459
 4331SOL    HW224456   2.062   4.212   1.215  1.4530 -0.8826 -2.6904
 4332SOL     OW24457   1.981   3.497   5.363  0.5990 -0.7326  0.1736
 4332SOL    HW124458   1.973   3.562   5.433 -2.9778 -0.5535 -0.3794
 4332SOL    HW224459   2.076   3.498   5.354  0.4714 -0.1820 -1.2386
 4333SOL     OW24460   4.361   3.439  13.247  0.7539 -0.3462  0.5038
 4333SOL    HW124461   4.319   3.486  13.319  0.5585 -0.4873  0.4818
 4333SOL    HW224462   4.383   3.515  13.195 -0.8687  0.5560  1.1420
 4334SOL     OW24463   3.761   1.461   0.852 -0.3331  0.2088  0.0226
 4334SOL    HW124464   3.791   1.491   0.766  2.0808  0.1521  0.8386
 4334SOL    HW224465   3.812   1.517   0.910  0.4558  0.7260 -1.1760
 4335SOL     OW24466   0.640   2.160   6.953  0.1526  0.5032  0.2537
 4335SOL    HW124467   0.673   2.176   6.865 -0.2878 -0.2320 -0.0432
 4335SOL    HW224468   0.550   2.134   6.935 -0.3652  2.1474  0.4757
 4336SOL     OW24469   0.810   1.006   3.729 -0.6116 -0.0279  0.1932
 4336SOL    HW124470   0.864   0.973   3.800 -3.1563 -0.5522  1.8849
 4336SOL    HW224471   0.743   1.047   3.784 -0.9748 -1.7156  0.9945
 4337SOL     OW24472   2.720   3.696   7.007 -0.5560  0.1727  0.1073
 4337SOL    HW124473   2.705   3.668   7.097 -0.4365  2.0369  0.6910
 4337SOL    HW224474   2.700   3.617   6.956 -1.2854 -0.6124  1.6086
 4338SOL     OW24475   0.271   3.186  15.734  0.3464  0.2686 -0.3679
 4338SOL    HW124476   0.299   3.231  15.655  1.2614  2.0513  0.9601
 4338SOL    HW224477   0.275   3.101  15.689 -1.9769  0.5606 -1.1113
 4339SOL     OW24478   2.536   0.663  16.301  0.2026  0.3071  0.2447
 4339SOL    HW124479   2.454   0.711  16.298  2.4275  4.1535  0.8756
 4339SOL    HW224480   2.505   0.579  16.334 -0.8725  0.9240  0.8175
 4340SOL     OW24481   4.481   2.664   5.279  0.3550 -0.1340  0.5925
 4340SOL    HW124482   4.573   2.662   5.304  0.6663 -1.0295 -0.6743
 4340SOL    HW224483   4.439   2.631   5.358 -1.4229 -0.6670 -0.5741
 4341SOL     OW24484   2.238   2.478   5.189 -0.2607 -0.5767 -0.6604
 4341SOL    HW124485   2.268   2.413   5.252 -1.0735 -2.5059 -2.2582
 4341SOL    HW224486   2.243   2.558   5.242  0.1858 -0.5916 -0.6859
 4342SOL     OW24487   1.201   0.206   7.650 -0.1498  0.1742 -0.4831
 4342SOL    HW124488   1.263   0.236   7.584  1.8858  0.6756  1.6794
 4342SOL    HW224489   1.259   0.221   7.725 -2.4990 -0.5427  1.4834
 4343SOL     OW24490   0.131   1.517   0.553 -0.0329 -0.2346  0.6685
 4343SOL    HW124491   0.160   1.602   0.588 -1.8967 -0.0394  1.7289
 4343SOL    HW224492   0.199   1.466   0.598 -0.0940 -0.8286  0.0833
 4344SOL     OW24493   1.565   1.329   9.746  0.7921  0.8781 -0.3480
 4344SOL    HW124494   1.572   1.412   9.699 -1.0981  1.0440 -0.3378
 4344SOL    HW224495   1.657   1.304   9.750  0.8170  1.3439  2.4231
 4345SOL     OW24496   1.466   2.793   7.324  0.1850  0.2652 -0.2682
 4345SOL    HW124497   1.370   2.794   7.318  0.2649 -0.6925 -1.6570
 4345SOL    HW224498   1.496   2.836   7.245  0.9659 -1.4341 -0.8960
 4346SOL     OW24499   2.516   2.818  15.493 -0.3186  0.7653 -0.2042
 4346SOL    HW124500   2.440   2.772  15.528 -0.6157  2.3246  1.2217
 4346SOL    HW224501   2.536   2.887  15.556 -2.0956  1.1063 -0.0290
 4347SOL     OW24502   3.265   0.975   1.182  0.7149 -0.3120  0.2462
 4347SOL    HW124503   3.322   0.898   1.186 -0.2441 -0.9552  1.6728
 4347SOL    HW224504   3.275   1.008   1.272  3.8561  0.3989 -0.3433
 4348SOL     OW24505   0.313   4.623   5.869 -0.0616  0.3197  0.3032
 4348SOL    HW124506   0.253   4.550   5.851  0.9726 -0.5845  0.5322
 4348SOL    HW224507   0.333   4.657   5.782  0.6761 -2.6740 -0.6901
 4349SOL     OW24508   3.604   1.702   7.911  0.1814  0.1189 -0.4166
 4349SOL    HW124509   3.527   1.726   7.858  0.4348 -0.9013 -1.2516
 4349SOL    HW224510   3.659   1.665   7.842 -2.1252  0.7840 -2.6639
 4350SOL     OW24511   2.556   1.720  10.669  0.5044  0.0810  0.4458
 4350SOL    HW124512   2.561   1.625  10.663  0.1523 -0.0153  1.5928
 4350SOL    HW224513   2.598   1.743  10.586  0.2588 -0.3855  0.1961
 4351SOL     OW24514   0.244   2.142  13.817 -0.4981 -0.0529 -0.0480
 4351SOL    HW124515   0.167   2.160  13.871  0.4510  1.5094  0.7988
 4351SOL    HW224516   0.309   2.194  13.865 -1.7976 -0.1782  1.8373
 4352SOL     OW24517   3.550   2.278   4.584 -0.0667 -0.4838  0.2141
 4352SOL    HW124518   3.521   2.252   4.672 -3.0201 -0.6083 -0.7940
 4352SOL    HW224519   3.495   2.227   4.524  1.2697 -0.4935 -0.9949
 4353SOL     OW24520   2.755   4.563  13.305 -0.8452  0.0101 -0.0171
 4353SOL    HW124521   2.840   4.607  13.301 -1.2268  0.5495 -2.4831
 4353SOL    HW224522   2.712   4.604  13.230 -1.0850 -0.8458 -0.3452
 4354SOL     OW24523   2.471   3.389   1.698 -0.3098 -0.4382  0.6365
 4354SOL    HW124524   2.500   3.421   1.612  2.4571 -2.2941  0.8896
 4354SOL    HW224525   2.377   3.401   1.681 -0.3532 -0.1560  1.0829
 4355SOL     OW24526   1.045   0.158  11.172 -0.0004 -0.3964 -0.2946
 4355SOL    HW124527   1.012   0.184  11.258  1.7271 -0.9256  0.5089
 4355SOL    HW224528   0.989   0.208  11.112 -1.6109 -1.4845  0.3019
 4356SOL     OW24529   1.163   3.783   5.889 -0.1227 -0.0199  0.2721
 4356SOL    HW124530   1.234   3.747   5.835  0.1709  0.9566 -0.0078
 4356SOL    HW224531   1.149   3.866   5.842 -2.1276 -0.9656 -0.7848
 4357SOL     OW24532   3.743   3.144   7.052 -0.1594  0.0882  0.5101
 4357SOL    HW124533   3.829   3.105   7.070  0.5368  1.2879 -0.2462
 4357SOL    HW224534   3.701   3.099   7.126 -0.4765  2.2467  1.6535
 4358SOL     OW24535   1.683   0.759  12.032  0.0374 -0.1664 -0.4458
 4358SOL    HW124536   1.701   0.849  12.003 -2.3662 -0.3839 -2.5392
 4358SOL    HW224537   1.598   0.746  11.990  0.3250  0.9418 -1.3881
 4359SOL     OW24538   0.091   0.249   2.313 -0.5784  0.0016  0.1399
 4359SOL    HW124539   0.134   0.170   2.346 -0.6211 -0.9782 -2.1212
 4359SOL    HW224540   0.062   0.237   2.222 -3.2846 -1.4801  1.2150
 4360SOL     OW24541   1.610   0.277   9.003  0.3781 -0.1195  0.3323
 4360SOL    HW124542   1.653   0.244   9.081  1.8433  0.7048 -0.1294
 4360SOL    HW224543   1.655   0.357   8.979 -1.2559  0.2161 -1.6234
 4361SOL     OW24544   0.746   2.549  13.211  0.6580 -0.3508  0.2470
 4361SOL    HW124545   0.839   2.534  13.227  0.9473  1.0070 -0.2040
 4361SOL    HW224546   0.703   2.465  13.225 -1.6050  0.7998  0.1393
 4362SOL     OW24547   1.116   2.566   7.488 -0.4352  0.5328 -0.0988
 4362SOL    HW124548   1.085   2.649   7.524  0.6435  0.2364  1.5290
 4362SOL    HW224549   1.036   2.515   7.498  0.0254 -0.0623  0.5705
 4363SOL     OW24550   1.841   3.649  14.979 -0.0173  0.6439  0.4028
 4363SOL    HW124551   1.768   3.635  14.919 -0.0930 -0.7680  0.8165
 4363SOL    HW224552   1.896   3.707  14.926 -1.0520  0.9942 -0.2657
 4364SOL     OW24553   0.382   1.093   8.196 -0.5233 -0.8410 -0.2247
 4364SOL    HW124554   0.311   1.119   8.254  0.1741  0.4855  0.0273
 4364SOL    HW224555   0.462   1.079   8.247  0.2186  0.3527 -1.0397
 4365SOL     OW24556   4.112   4.688   2.564  0.3608 -0.2310 -0.0781
 4365SOL    HW124557   4.170   0.012   2.624  0.7193  0.6397 -1.0907
 4365SOL    HW224558   4.075   0.037   2.512 -0.2493 -1.2196 -0.9977
 4366SOL     OW24559   0.421   4.080   4.069  1.0400 -0.0681 -0.4980
 4366SOL    HW124560   0.438   3.986   4.060 -0.5228 -0.0759 -3.2021
 4366SOL    HW224561   0.353   4.072   4.136  2.4556  1.9569  1.1677
 4367SOL     OW24562   1.143   1.255   8.232 -0.3215 -0.5896  0.0767
 4367SOL    HW124563   1.125   1.207   8.313 -0.9991  0.4020  0.5097
 4367SOL    HW224564   1.181   1.187   8.176  0.1058  1.1933 -1.8120
 4368SOL     OW24565   4.588   2.889  17.234  0.3170 -0.1150  0.1434
 4368SOL    HW124566   4.575   2.858  17.144 -1.3980  0.8210  0.0812
 4368SOL    HW224567   4.536   2.821  17.276  1.1297 -1.4188 -0.9273
 4369SOL     OW24568   4.387   0.911  16.901  0.2137 -0.1312  0.0477
 4369SOL    HW124569   4.362   0.819  16.913  0.5633 -0.1796  0.4068
 4369SOL    HW224570   4.303   0.945  16.872  0.7878  0.6810 -0.6763
 4370SOL     OW24571   3.268   2.490  15.141  0.8743  0.3975 -0.6178
 4370SOL    HW124572   3.354   2.479  15.181 -0.1151 -2.5937  0.6678
 4370SOL    HW224573   3.289   2.562  15.081  1.5475  1.7052  1.2216
 4371SOL     OW24574   4.606   0.044   0.540  0.0995 -0.1690  0.8327
 4371SOL    HW124575   4.542   0.048   0.611 -1.2833 -1.2597 -0.3468
 4371SOL    HW224576   4.568   0.104   0.476  1.7835  2.4608  2.2662
 4372SOL     OW24577   1.270   0.508  16.674 -0.4591  0.1387  0.4504
 4372SOL    HW124578   1.196   0.496  16.615 -0.9635  1.0835  0.8927
 4372SOL    HW224579   1.229   0.508  16.760 -1.0745  1.1181  0.1506
 4373SOL     OW24580   3.397   4.208   2.225  0.4658 -0.1794  0.0048
 4373SOL    HW124581   3.329   4.184   2.289  0.4740 -1.0044 -0.2989
 4373SOL    HW224582   3.471   4.246   2.274 -1.8593  2.1006  1.7265
 4374SOL     OW24583   0.518   3.047   5.635  0.2639  0.0608 -0.1294
 4374SOL    HW124584   0.492   3.138   5.618 -2.2555 -1.0127 -1.9237
 4374SOL    HW224585   0.470   2.994   5.573  0.6899 -1.2019  0.6248
 4375SOL     OW24586   0.612   1.494   2.625 -0.2138  0.0655 -0.2357
 4375SOL    HW124587   0.615   1.579   2.583 -1.2587 -0.0962 -0.6252
 4375SOL    HW224588   0.588   1.516   2.715  0.8544 -0.1432  0.1004
 4376SOL     OW24589   2.198   3.274   2.667 -0.6839  0.1263 -0.5249
 4376SOL    HW124590   2.235   3.187   2.650  1.8643  0.6677  2.2613
 4376SOL    HW224591   2.189   3.312   2.580 -0.6279  1.0757 -0.1173
 4377SOL     OW24592   0.374   4.396  15.649 -0.0712 -0.4518  0.1930
 4377SOL    HW124593   0.278   4.392  15.654 -0.2087 -0.5747 -2.7444
 4377SOL    HW224594   0.397   4.309  15.617 -2.3557 -1.0111  0.0671
 4378SOL     OW24595   4.562   2.335   2.947 -0.0892  0.4273 -0.4483
 4378SOL    HW124596   4.625   2.368   2.882  1.9355  0.5630  1.5844
 4378SOL    HW224597   4.527   2.261   2.896 -0.2998 -0.5250  1.0883
 4379SOL     OW24598   1.751   4.339   9.222 -0.1702 -0.5522  0.2184
 4379SOL    HW124599   1.836   4.314   9.258 -0.5629 -0.6195  1.0944
 4379SOL    HW224600   1.699   4.307   9.296  0.3803 -1.0529  0.3913
 4380SOL     OW24601   1.205   1.482  14.391 -0.1167  1.0049  0.5098
 4380SOL    HW124602   1.260   1.418  14.436  1.0335  0.5626 -1.5384
 4380SOL    HW224603   1.262   1.505  14.317 -1.0541 -0.8185 -0.7553
 4381SOL     OW24604   1.076   3.309   2.886  0.6848  0.2271 -0.3732
 4381SOL    HW124605   1.073   3.250   2.810 -3.2171 -0.8035  0.6109
 4381SOL    HW224606   1.109   3.387   2.840  0.1046  0.2475 -0.7578
 4382SOL     OW24607   0.471   2.017   2.445 -0.4009 -0.2537 -0.4313
 4382SOL    HW124608   0.382   1.987   2.460 -0.9288  1.4640 -0.1610
 4382SOL    HW224609   0.492   1.971   2.363  1.3192 -0.3439  0.0425
 4383SOL     OW24610   0.410   3.500   8.434 -0.1648 -0.2596 -0.2963
 4383SOL    HW124611   0.376   3.413   8.414 -2.7020  0.5890  0.4293
 4383SOL    HW224612   0.456   3.493   8.518 -1.8304  0.0316  0.6248
 4384SOL     OW24613   4.416   1.043   7.548 -0.6788 -0.1876 -0.6804
 4384SOL    HW124614   4.465   1.099   7.488 -0.7279  0.4233 -0.1597
 4384SOL    HW224615   4.389   1.106   7.615  0.5966  0.4847 -0.7958
 4385SOL     OW24616   4.680   3.845   3.043 -0.2512  0.4696 -0.4869
 4385SOL    HW124617   4.594   3.870   3.076  0.3890  1.4625  0.4009
 4385SOL    HW224618   4.710   3.914   2.984  0.9049  0.4683  0.0963
 4386SOL     OW24619   4.053   3.037   2.876 -1.2376 -0.1293 -0.3140
 4386SOL    HW124620   4.062   3.105   2.809  0.7933  0.9325  1.0529
 4386SOL    HW224621   4.009   2.964   2.832 -3.0496 -0.1309  1.5147
 4387SOL     OW24622   2.887   0.757   2.001 -0.4196 -0.2803 -0.3189
 4387SOL    HW124623   2.887   0.840   1.953  3.4796 -0.5242 -0.7979
 4387SOL    HW224624   2.864   0.784   2.090 -1.1566 -0.3517 -0.4910
 4388SOL     OW24625   1.365   3.964   7.723  0.1853 -0.8780 -0.0364
 4388SOL    HW124626   1.379   3.947   7.816  0.2078  0.2778  0.1646
 4388SOL    HW224627   1.371   4.059   7.717  1.6135 -0.9623  0.0943
 4389SOL     OW24628   2.144   3.299  10.308 -0.1944  0.3662 -0.1418
 4389SOL    HW124629   2.197   3.357  10.254 -0.9878  1.1281 -0.0983
 4389SOL    HW224630   2.065   3.353  10.305  0.8218  1.8901  0.3550
 4390SOL     OW24631   2.859   0.081   7.318  0.4552 -0.0697  0.5118
 4390SOL    HW124632   2.889   0.132   7.243  0.5869  0.9917  1.2871
 4390SOL    HW224633   2.829   0.160   7.363 -1.0206  0.3380 -1.1880
 4391SOL     OW24634   2.268   0.205   5.555 -0.3388  0.3751  0.0174
 4391SOL    HW124635   2.285   0.151   5.478 -1.8212  0.2591 -0.2257
 4391SOL    HW224636   2.360   0.209   5.582 -0.9536  0.4205  2.0746
 4392SOL     OW24637   1.237   2.748   2.103  0.1255  0.3638  0.2813
 4392SOL    HW124638   1.279   2.693   2.170  1.1803  0.9133  0.0678
 4392SOL    HW224639   1.211   2.688   2.033  2.4077  1.4198 -1.4584
 4393SOL     OW24640   2.403   3.654   7.328  0.2993 -0.2285  0.0723
 4393SOL    HW124641   2.362   3.665   7.243  0.3875 -0.9220 -0.0660
 4393SOL    HW224642   2.477   3.714   7.323 -1.0785  1.6447  1.9942
 4394SOL     OW24643   2.669   1.852  14.238  0.0152  0.2055  0.4454
 4394SOL    HW124644   2.744   1.846  14.298  0.8658 -0.9188 -0.7250
 4394SOL    HW224645   2.614   1.796  14.292  0.2430  0.0696  0.5349
 4395SOL     OW24646   4.445   2.654   8.453 -0.1647  0.0242 -0.1067
 4395SOL    HW124647   4.406   2.697   8.529  2.0514  0.4202  0.8156
 4395SOL    HW224648   4.517   2.713   8.430 -1.5249  0.8979 -2.2377
 4396SOL     OW24649   4.504   4.380   4.015  0.0645 -0.1837 -0.2321
 4396SOL    HW124650   4.439   4.419   4.073 -0.5356 -0.1568 -0.9346
 4396SOL    HW224651   4.554   4.328   4.079  2.1174 -1.4685 -2.9118
 4397SOL     OW24652   0.081   1.298   5.652  0.3561  0.4507 -0.6089
 4397SOL    HW124653   0.157   1.239   5.657  1.1247  1.2224 -3.0125
 4397SOL    HW224654   0.137   1.375   5.645  2.0645 -0.9621 -2.6774
 4398SOL     OW24655   2.075   0.748   1.490 -0.3045 -0.1568  0.4488
 4398SOL    HW124656   2.002   0.753   1.552 -0.1379 -1.8789  0.7981
 4398SOL    HW224657   2.034   0.754   1.404  0.8808  0.3555 -0.0772
 4399SOL     OW24658   0.040   0.313  17.417 -0.3309  0.3410  0.2994
 4399SOL    HW124659   0.014   0.346  17.331  0.6300 -0.2732 -0.2293
 4399SOL    HW224660   4.681   0.328  17.465 -1.2420 -1.0176 -0.8342
 4400SOL     OW24661   0.033   1.909   4.197 -0.1859  0.2342  0.7050
 4400SOL    HW124662   4.710   1.884   4.116 -0.8116  3.3080  0.1416
 4400SOL    HW224663   4.720   1.997   4.204  1.7311  1.1284 -0.7158
 4401SOL     OW24664   1.079   0.184   5.686 -0.0637  0.1084  0.2603
 4401SOL    HW124665   1.119   0.117   5.630  0.2123  0.1970  0.3533
 4401SOL    HW224666   1.126   0.255   5.643  0.8744 -0.9830 -0.5085
 4402SOL     OW24667   2.682   2.852   3.902 -0.3245  0.0597 -0.4847
 4402SOL    HW124668   2.719   2.924   3.952  0.0345 -0.7960  0.4620
 4402SOL    HW224669   2.740   2.783   3.932 -0.2886  1.7911  3.4377
 4403SOL     OW24670   1.926   3.634   3.008  0.3337 -0.6528  0.1747
 4403SOL    HW124671   1.870   3.578   2.954 -0.3161  0.6577 -0.4940
 4403SOL    HW224672   1.987   3.670   2.944 -0.3324  1.5103  0.7545
 4404SOL     OW24673   0.458   3.131  12.215  0.1463  0.3234 -0.5957
 4404SOL    HW124674   0.404   3.063  12.254  0.3378  0.7433  0.4048
 4404SOL    HW224675   0.434   3.122  12.123  1.1847  0.2879 -0.8573
 4405SOL     OW24676   3.484   2.205  15.338  0.6416 -0.3123  0.6730
 4405SOL    HW124677   3.502   2.203  15.244 -1.2685 -1.4914  0.3472
 4405SOL    HW224678   3.471   2.297  15.358  1.3990  0.4236 -2.1324
 4406SOL     OW24679   3.029   1.276   9.475 -0.1064 -0.0402  0.0600
 4406SOL    HW124680   2.946   1.304   9.514 -0.1750  1.4462 -1.1907
 4406SOL    HW224681   3.059   1.358   9.437  0.9562 -1.1820 -1.5677
 4407SOL     OW24682   4.092   0.620   8.108  0.2131 -0.2776 -0.1343
 4407SOL    HW124683   4.180   0.586   8.094  0.1047 -0.2966 -0.7519
 4407SOL    HW224684   4.108   0.708   8.143  2.0640 -0.7345  0.1668
 4408SOL     OW24685   3.054   1.792   1.327 -0.6789  0.4584  0.6432
 4408SOL    HW124686   3.069   1.819   1.236  0.8145  1.1434  1.0938
 4408SOL    HW224687   2.960   1.774   1.318 -0.6271  0.0721  0.8668
 4409SOL     OW24688   3.609   2.339   7.423 -0.4793  0.0041  0.1323
 4409SOL    HW124689   3.523   2.356   7.384 -0.8285  0.8471  1.2593
 4409SOL    HW224690   3.586   2.358   7.514  0.4047  1.3667  0.0809
 4410SOL     OW24691   1.136   1.680   7.310  0.0296 -0.3710 -0.0640
 4410SOL    HW124692   1.136   1.774   7.296 -2.9079 -0.4162 -0.3599
 4410SOL    HW224693   1.130   1.657   7.218  1.4670  1.3041 -0.5552
 4411SOL     OW24694   0.572   2.172   0.997  0.0218  0.6314  0.0826
 4411SOL    HW124695   0.494   2.121   0.977 -1.6333  1.9872  3.0673
 4411SOL    HW224696   0.569   2.177   1.093  1.5627  0.4459  0.1517
 4412SOL     OW24697   0.136   3.383   4.582  0.0297  0.2385  0.7086
 4412SOL    HW124698   0.163   3.474   4.570  0.8557  0.1322  1.6801
 4412SOL    HW224699   0.085   3.402   4.661 -0.9988 -1.2414  0.3983
 4413SOL     OW24700   0.962   0.997   6.460  0.0418 -0.1877  0.4177
 4413SOL    HW124701   0.938   1.059   6.529 -2.1709 -0.5212 -0.0597
 4413SOL    HW224702   0.876   0.977   6.424  0.6516 -0.3785 -0.9329
 4414SOL     OW24703   2.582   1.830   5.034  0.1283 -0.2742 -0.1392
 4414SOL    HW124704   2.522   1.783   4.976 -1.2267  0.2260  0.8563
 4414SOL    HW224705   2.639   1.873   4.970  1.6626 -0.5016  1.0574
 4415SOL     OW24706   3.064   2.970   8.545 -0.3769 -0.0392  0.2327
 4415SOL    HW124707   3.122   3.027   8.596 -1.9490  0.7490  1.1714
 4415SOL    HW224708   3.032   3.030   8.477 -1.0249 -0.5703  0.0742
 4416SOL     OW24709   2.671   1.958  16.021 -0.1567 -0.2998  0.2936
 4416SOL    HW124710   2.637   1.969  16.110  1.1094 -0.4881  0.7953
 4416SOL    HW224711   2.737   1.890  16.028 -0.3082 -0.6195 -1.4430
 4417SOL     OW24712   3.354   2.595   5.161  0.2163 -0.3733 -0.5950
 4417SOL    HW124713   3.417   2.615   5.230 -0.2506 -2.7374  0.5376
 4417SOL    HW224714   3.271   2.627   5.196  0.6903  1.0208 -0.7518
 4418SOL     OW24715   0.541   1.107   7.551 -0.2179 -0.3341  0.1673
 4418SOL    HW124716   0.448   1.084   7.550 -0.2006 -0.4228  0.5970
 4418SOL    HW224717   0.551   1.158   7.632  0.9279  0.6076 -0.5634
 4419SOL     OW24718   3.701   4.506   4.582  0.1081  0.1196  0.2321
 4419SOL    HW124719   3.785   4.470   4.553 -0.1201  0.3016 -0.6726
 4419SOL    HW224720   3.639   4.508   4.509  0.8384 -2.8875 -0.4614
 4420SOL     OW24721   3.340   3.425   2.567  0.0647  0.8768 -0.2149
 4420SOL    HW124722   3.294   3.341   2.566  0.6726  0.5520 -0.9803
 4420SOL    HW224723   3.421   3.390   2.531  1.0441 -0.0987  2.9356
 4421SOL     OW24724   3.813   2.615  14.014  0.1356  0.4375  0.2575
 4421SOL    HW124725   3.780   2.677  13.949  0.5213  0.3142 -0.0554
 4421SOL    HW224726   3.843   2.532  13.978 -1.4409  0.3848 -0.9703
 4422SOL     OW24727   0.946   2.953   5.069 -0.5962  0.3987 -0.7506
 4422SOL    HW124728   1.029   2.953   5.021  0.9106  0.3040  1.8170
 4422SOL    HW224729   0.934   3.048   5.078  1.2421  0.3877  1.8593
 4423SOL     OW24730   0.506   1.173   2.878 -0.5286 -0.6156 -0.0573
 4423SOL    HW124731   0.570   1.243   2.869 -0.6366 -0.4687  0.3132
 4423SOL    HW224732   0.432   1.230   2.898  0.3830  1.0322 -1.3993
 4424SOL     OW24733   1.801   3.031   0.892  0.2479 -0.3236  0.4002
 4424SOL    HW124734   1.719   3.016   0.941  0.0883 -1.6153 -0.2705
 4424SOL    HW224735   1.769   3.068   0.810 -1.9671 -1.7340  0.6264
 4425SOL     OW24736   3.986   4.005   3.106  0.1928  0.9286  0.8283
 4425SOL    HW124737   3.902   3.975   3.141 -0.2633 -0.6144 -1.5826
 4425SOL    HW224738   4.031   3.924   3.082  1.2029  1.5557  0.6041
 4426SOL     OW24739   1.078   0.058  12.628 -0.4018 -0.3782  0.1725
 4426SOL    HW124740   1.109   0.023  12.712  0.5478 -1.0320 -0.4391
 4426SOL    HW224741   1.157   0.103  12.598 -1.0889 -0.3942 -1.6768
 4427SOL     OW24742   2.777   1.495   2.873 -0.3075  0.4044 -0.3731
 4427SOL    HW124743   2.693   1.530   2.844 -0.2609  2.5277  2.0144
 4427SOL    HW224744   2.744   1.424   2.928  2.2464  0.7209  1.5850
 4428SOL     OW24745   1.313   3.032  16.097 -0.2603 -0.3291  0.2162
 4428SOL    HW124746   1.382   3.085  16.057 -0.1234 -1.2430 -0.7529
 4428SOL    HW224747   1.351   3.010  16.182 -3.2632 -0.2308  1.5582
 4429SOL     OW24748   0.703   0.424   6.259 -0.6808  0.0327  0.3630
 4429SOL    HW124749   0.660   0.411   6.343  0.3434  1.7625  1.1566
 4429SOL    HW224750   0.789   0.423   6.301  0.2066 -2.3358 -1.5501
 4430SOL     OW24751   0.498   3.063   4.226  0.6266 -0.1635 -0.6051
 4430SOL    HW124752   0.513   2.969   4.214 -1.2731 -0.5940  0.3453
 4430SOL    HW224753   0.405   3.056   4.248  0.5198  0.9141 -0.7048
 4431SOL     OW24754   1.808   1.637   3.959  0.5201  0.1240  0.3371
 4431SOL    HW124755   1.734   1.577   3.948  0.5093  0.1986  0.0037
 4431SOL    HW224756   1.889   1.586   3.956  1.6786  1.9156  0.9253
 4432SOL     OW24757   2.983   3.472   9.305 -0.3319 -0.6161  0.2248
 4432SOL    HW124758   2.924   3.541   9.336  1.6059  0.5193  1.3491
 4432SOL    HW224759   3.069   3.508   9.326  0.7943 -3.0815 -0.1428
 4433SOL     OW24760   3.225   2.335  16.087  0.8828 -0.4835 -0.7834
 4433SOL    HW124761   3.169   2.258  16.087  2.4744 -1.6621  2.4763
 4433SOL    HW224762   3.281   2.304  16.016  1.3544 -2.5113  0.4525
 4434SOL     OW24763   3.117   1.770  13.254  0.1296 -0.5865 -0.2568
 4434SOL    HW124764   3.166   1.846  13.223 -2.3459  2.4149  3.1184
 4434SOL    HW224765   3.193   1.725  13.292  1.7639  1.6654 -0.8573
 4435SOL     OW24766   4.535   0.411   1.749 -0.7382 -0.1374 -0.1791
 4435SOL    HW124767   4.616   0.460   1.743 -1.3458  0.9711  0.7401
 4435SOL    HW224768   4.485   0.428   1.669 -2.8093  0.6429  1.2672
 4436SOL     OW24769   0.687   3.324   8.563 -0.1274 -0.3019  0.0036
 4436SOL    HW124770   0.723   3.311   8.650 -1.2913 -1.2664  0.3428
 4436SOL    HW224771   0.657   3.414   8.573  1.8446  0.2540  0.8435
 4437SOL     OW24772   3.102   4.165  11.401  0.3801 -0.2524 -0.1391
 4437SOL    HW124773   3.086   4.072  11.386  0.2220 -0.2812  0.2141
 4437SOL    HW224774   3.140   4.189  11.316  1.6023  0.9107  0.7417
 4438SOL     OW24775   3.951   2.204  12.880 -0.1245 -0.1256  0.1260
 4438SOL    HW124776   3.886   2.216  12.949 -1.6900  0.7236 -1.5235
 4438SOL    HW224777   3.898   2.171  12.808  1.1951 -2.5434  0.2616
 4439SOL     OW24778   3.828   2.055  13.629 -0.3755 -0.3539  0.0210
 4439SOL    HW124779   3.902   2.083  13.576  0.1730 -3.2060 -0.7109
 4439SOL    HW224780   3.766   2.125  13.611  1.2499  1.2110  0.5367
 4440SOL     OW24781   2.929   1.207   4.813  0.4438  0.2542  0.1432
 4440SOL    HW124782   2.949   1.288   4.859  0.6353 -0.4285  1.2491
 4440SOL    HW224783   2.931   1.151   4.890 -1.9249  0.7938  0.5977
 4441SOL     OW24784   2.170   1.321  11.404 -0.2431 -0.0661  0.0313
 4441SOL    HW124785   2.247   1.277  11.368  0.1444  1.1742 -0.6549
 4441SOL    HW224786   2.099   1.270  11.366  0.9990  0.4491 -2.9760
 4442SOL     OW24787   1.105   1.815  16.834  0.2278 -0.2611  0.1559
 4442SOL    HW124788   1.170   1.884  16.825  3.2459 -2.9351  1.4098
 4442SOL    HW224789   1.094   1.791  16.742 -0.4527  0.0611  0.1537
 4443SOL     OW24790   0.119   0.670   3.984 -0.1072  0.3068 -0.2770
 4443SOL    HW124791   0.094   0.665   4.077  2.3683 -0.3092  0.3778
 4443SOL    HW224792   0.041   0.625   3.953 -0.5388  1.7089 -1.1823
 4444SOL     OW24793   2.111   2.935  11.359 -0.5291 -0.3107 -0.2452
 4444SOL    HW124794   2.018   2.938  11.379 -0.3095  1.7013  0.4653
 4444SOL    HW224795   2.107   2.975  11.272 -1.7341 -0.2901 -0.1776
 4445SOL     OW24796   0.481   3.628   6.933 -0.3705  0.0322 -0.0670
 4445SOL    HW124797   0.556   3.609   6.989 -0.5413 -0.6688 -0.0778
 4445SOL    HW224798   0.516   3.641   6.845  1.6127  0.7774  0.8416
 4446SOL     OW24799   4.324   3.323   3.389  0.2324 -0.1123 -0.4531
 4446SOL    HW124800   4.282   3.238   3.398  0.8341 -0.5907 -2.0280
 4446SOL    HW224801   4.415   3.300   3.372  0.3194 -1.3000  1.6875
 4447SOL     OW24802   2.544   0.676   6.130 -0.6483  0.0686  0.4544
 4447SOL    HW124803   2.512   0.673   6.040  1.9200 -0.2200 -0.4633
 4447SOL    HW224804   2.621   0.731   6.114 -0.1476 -0.5569  0.6957
 4448SOL     OW24805   4.274   3.126   7.358 -0.0524  0.9568  0.0293
 4448SOL    HW124806   4.295   3.042   7.317 -0.2242  0.5690  0.7268
 4448SOL    HW224807   4.361   3.165   7.352  1.6380 -2.4761  2.4182
 4449SOL     OW24808   0.495   1.885   2.912 -0.5276  0.0446 -0.3861
 4449SOL    HW124809   0.412   1.927   2.934 -1.1570  0.0827 -2.7753
 4449SOL    HW224810   0.506   1.936   2.831  1.2880 -0.0807 -0.2096
 4450SOL     OW24811   2.375   0.610   7.305 -0.4701  0.0556 -0.0412
 4450SOL    HW124812   2.302   0.630   7.363 -1.8039 -1.1406 -1.2864
 4450SOL    HW224813   2.323   0.610   7.224 -0.8643  0.2587  0.2118
 4451SOL     OW24814   2.155   2.044  11.640 -0.0906  0.0251 -0.1708
 4451SOL    HW124815   2.190   2.079  11.722 -1.1180  0.1948  0.1856
 4451SOL    HW224816   2.140   2.122  11.587 -2.0172 -0.8105 -0.8581
 4452SOL     OW24817   0.396   0.770  11.247 -0.3825 -0.1144 -0.0467
 4452SOL    HW124818   0.449   0.850  11.254  1.3224 -1.2363 -0.2065
 4452SOL    HW224819   0.404   0.741  11.338  0.1782  1.4784  0.4250
 4453SOL     OW24820   0.533   4.414   9.381  0.0376  0.0574 -0.0172
 4453SOL    HW124821   0.567   4.325   9.383  0.1665  0.0756 -1.0633
 4453SOL    HW224822   0.538   4.424   9.286  0.8548  2.0791  0.2309
 4454SOL     OW24823   0.633   3.594  17.249  0.1608 -0.2665  0.2731
 4454SOL    HW124824   0.571   3.555  17.188 -1.0173 -0.3668  1.5452
 4454SOL    HW224825   0.574   3.660  17.286 -0.6865  0.1471 -1.8122
 4455SOL     OW24826   1.174   1.658   2.698  0.5325  0.0781 -0.3057
 4455SOL    HW124827   1.101   1.667   2.638  0.6691 -0.2484 -0.5201
 4455SOL    HW224828   1.210   1.574   2.670  2.6932  0.9065 -0.0141
 4456SOL     OW24829   4.651   1.348   0.771  0.1177 -0.1942  0.2562
 4456SOL    HW124830   4.642   1.252   0.774 -0.2560 -0.1860 -0.4972
 4456SOL    HW224831   4.643   1.347   0.676  2.7932 -0.1727  0.0217
 4457SOL     OW24832   1.529   2.615   3.017 -0.5940  0.5098  0.6150
 4457SOL    HW124833   1.593   2.560   3.062 -0.3692  0.3831  0.1413
 4457SOL    HW224834   1.483   2.550   2.963 -0.7597  0.4111  0.8735
 4458SOL     OW24835   0.343   4.401   1.162 -0.2112  0.1729 -0.2523
 4458SOL    HW124836   0.415   4.360   1.210  1.1105 -0.4313 -2.7802
 4458SOL    HW224837   0.322   4.331   1.100 -0.4898 -0.1189  0.1699
 4459SOL     OW24838   1.147   1.543   3.225 -0.2093 -0.2498  0.2479
 4459SOL    HW124839   1.140   1.629   3.267 -0.2069  0.3152 -0.9184
 4459SOL    HW224840   1.053   1.525   3.236 -0.7365  0.0993 -3.6441
 4460SOL     OW24841   0.994   4.665   9.671  0.2683  0.1833 -0.3681
 4460SOL    HW124842   0.918   4.716   9.642 -0.5519 -1.4881 -1.1193
 4460SOL    HW224843   1.043   0.022   9.692 -0.1244  0.5285 -0.7719
 4461SOL     OW24844   1.392   0.470   3.448 -0.4024  0.0263  0.1362
 4461SOL    HW124845   1.452   0.430   3.385 -0.4954  0.5030 -0.2481
 4461SOL    HW224846   1.319   0.490   3.390 -0.4011  0.4986  0.2995
 4462SOL     OW24847   3.327   2.700  13.466 -0.5034 -0.0482 -0.4130
 4462SOL    HW124848   3.301   2.703  13.374  1.0032 -1.1554 -0.8664
 4462SOL    HW224849   3.360   2.788  13.487 -4.2314  1.3416 -0.3251
 4463SOL     OW24850   1.869   1.637   7.807  0.1966 -0.3537  0.6094
 4463SOL    HW124851   1.812   1.714   7.807  0.0217 -0.4906 -0.4419
 4463SOL    HW224852   1.915   1.645   7.724 -2.0302 -0.9476 -0.6759
 4464SOL     OW24853   4.685   3.642   5.303 -0.3871 -0.0658  0.1167
 4464SOL    HW124854   4.601   3.663   5.261 -0.2250  1.3154  0.4933
 4464SOL    HW224855   4.670   3.555   5.341 -0.1994 -0.8415 -1.5801
 4465SOL     OW24856   3.240   2.576  12.964  0.6987 -0.0760 -0.8748
 4465SOL    HW124857   3.299   2.574  12.889 -0.3130  0.5032 -1.6879
 4465SOL    HW224858   3.239   2.487  12.999 -1.4373 -0.2174 -1.3327
 4466SOL     OW24859   4.108   0.802   3.147 -0.0631  0.6139 -0.1891
 4466SOL    HW124860   4.049   0.805   3.222 -2.1289 -1.9868 -1.7165
 4466SOL    HW224861   4.045   0.780   3.079 -0.5748  0.8488  0.2041
 4467SOL     OW24862   4.657   4.717   5.865  0.3061 -0.4403 -0.6423
 4467SOL    HW124863   4.567   0.016   5.842 -0.3137 -1.4408  0.7777
 4467SOL    HW224864   4.697   4.691   5.782  2.0180 -2.5948  0.8747
 4468SOL     OW24865   0.219   1.846   4.390  0.3700  0.3178 -0.4502
 4468SOL    HW124866   0.158   1.896   4.444 -0.5742 -0.2507 -1.0015
 4468SOL    HW224867   0.173   1.856   4.307  0.2224  0.2154 -0.3804
 4469SOL     OW24868   2.540   3.827   5.250 -0.0528 -0.0719  0.2105
 4469SOL    HW124869   2.530   3.833   5.345 -2.8179 -1.8035  0.0500
 4469SOL    HW224870   2.601   3.899   5.237  0.0657 -0.8445 -3.7179
 4470SOL     OW24871   4.168   3.690   4.054  0.2333 -0.7460  0.1262
 4470SOL    HW124872   4.168   3.630   3.979 -0.8349 -0.4263 -0.1321
 4470SOL    HW224873   4.109   3.758   4.022 -1.0752 -1.0970  1.7685
 4471SOL     OW24874   0.233   2.045   8.982 -0.2204 -0.5778 -0.7019
 4471SOL    HW124875   0.238   2.027   9.076 -0.4266 -1.4898 -0.8597
 4471SOL    HW224876   0.322   2.019   8.958 -0.1149 -0.6666 -0.2019
 4472SOL     OW24877   0.395   1.401   7.249  0.1250 -0.4081 -0.2365
 4472SOL    HW124878   0.423   1.431   7.163 -3.5035 -1.0372 -1.6148
 4472SOL    HW224879   0.456   1.431   7.316  0.0487  3.8722 -2.0970
 4473SOL     OW24880   2.814   3.774   2.111 -0.1166  0.2128 -0.5365
 4473SOL    HW124881   2.877   3.766   2.182 -1.7900 -0.2974  0.8654
 4473SOL    HW224882   2.816   3.685   2.078 -0.7041 -0.3648  1.0244
 4474SOL     OW24883   4.154   2.616   4.246 -0.2418 -0.2915 -0.0306
 4474SOL    HW124884   4.203   2.608   4.328 -1.0251 -1.6731  0.2971
 4474SOL    HW224885   4.218   2.659   4.189 -1.1187  0.9969 -0.0213
 4475SOL     OW24886   3.012   0.509  10.322 -0.3054  0.5052  0.0597
 4475SOL    HW124887   3.064   0.588  10.309  0.5780 -0.1501 -0.4089
 4475SOL    HW224888   3.064   0.441  10.278  0.5808  0.7643  0.7267
 4476SOL     OW24889   2.364   4.607   8.959 -0.5748 -0.0199  0.2753
 4476SOL    HW124890   2.402   4.629   8.874  0.1352  2.9161  1.3363
 4476SOL    HW224891   2.298   4.539   8.944 -1.1370  1.1985 -2.9082
 4477SOL     OW24892   3.050   4.597  12.554  0.5214 -0.2876  0.5593
 4477SOL    HW124893   3.032   4.569  12.464  1.8362 -2.0112  0.8284
 4477SOL    HW224894   3.039   4.517  12.606 -0.9169 -0.1762  0.4170
 4478SOL     OW24895   0.604   2.379   7.444 -0.0682  0.0474  0.2460
 4478SOL    HW124896   0.610   2.286   7.469 -1.6917  0.3371  1.7693
 4478SOL    HW224897   0.522   2.398   7.491  0.1747  0.4647  0.5044
 4479SOL     OW24898   2.229   0.112   0.871 -0.0235 -0.0641 -0.3957
 4479SOL    HW124899   2.217   0.036   0.928 -0.6084 -0.2288 -0.7330
 4479SOL    HW224900   2.195   0.075   0.790  0.1058 -0.6546 -0.1815
 4480SOL     OW24901   2.002   0.145   6.838 -0.6308 -0.6251  0.4978
 4480SOL    HW124902   1.957   0.223   6.807  0.4618 -0.5412 -0.9297
 4480SOL    HW224903   1.972   0.121   6.925 -2.4572  2.8726  0.7955
 4481SOL     OW24904   1.913   3.727  10.371 -0.0643  0.0343  0.3048
 4481SOL    HW124905   1.951   3.712  10.458  1.3530  0.7616 -0.1966
 4481SOL    HW224906   1.931   3.820  10.357  3.9771 -0.7114  0.7065
 4482SOL     OW24907   4.302   0.903   1.342 -0.0609 -0.1430 -0.1709
 4482SOL    HW124908   4.284   0.996   1.357  0.5673 -0.1211  0.4801
 4482SOL    HW224909   4.377   0.895   1.401 -1.0795 -0.2971  1.1102
 4483SOL     OW24910   1.491   0.537  10.603 -0.0308 -0.1246  0.1511
 4483SOL    HW124911   1.477   0.631  10.588  2.8605  0.4870  1.2071
 4483SOL    HW224912   1.550   0.540  10.679  1.1944  1.6794 -0.8829
 4484SOL     OW24913   0.579   1.903   8.223  0.3469  0.3010  0.1598
 4484SOL    HW124914   0.625   1.981   8.251 -1.1895  0.6390  1.7183
 4484SOL    HW224915   0.625   1.884   8.141  2.5267 -0.5072  1.5578
 4485SOL     OW24916   0.348   4.632   1.045 -0.4068 -0.2206 -0.1465
 4485SOL    HW124917   0.305   4.615   0.961 -0.4386  1.2923 -0.4298
 4485SOL    HW224918   0.335   4.554   1.100  0.3024 -2.3574 -2.9817
 4486SOL     OW24919   0.081   0.645   3.268  0.0755  0.1435  0.0707
 4486SOL    HW124920   0.169   0.625   3.300 -0.0274 -0.7580 -0.2113
 4486SOL    HW224921   0.063   0.698   3.346  0.5593 -2.6911  2.1044
 4487SOL     OW24922   3.088   0.447   7.373  0.4854  0.7843 -0.2269
 4487SOL    HW124923   3.022   0.491   7.426  0.4009  1.5014 -0.9165
 4487SOL    HW224924   3.116   0.375   7.429 -1.6489 -2.6460 -3.5796
 4488SOL     OW24925   0.808   1.695   4.344 -0.1372 -0.2279  0.0425
 4488SOL    HW124926   0.902   1.710   4.344 -0.8033  3.9579  0.2562
 4488SOL    HW224927   0.779   1.776   4.387  1.4980  1.0620 -1.3190
 4489SOL     OW24928   1.526   2.136  11.945  0.2494 -0.3250  0.1697
 4489SOL    HW124929   1.431   2.125  11.952  0.3931 -1.3912  0.4081
 4489SOL    HW224930   1.526   2.202  11.876 -0.6725 -0.3130  0.1834
 4490SOL     OW24931   2.078   4.423   4.126 -0.1635 -0.1162  0.0974
 4490SOL    HW124932   2.120   4.502   4.161  0.4815 -0.4396  0.0526
 4490SOL    HW224933   2.009   4.408   4.191 -0.5993  0.0542 -0.3226
 4491SOL     OW24934   0.453   2.772   3.175  0.1497  0.2085  0.3678
 4491SOL    HW124935   0.362   2.767   3.145 -0.0740  1.5072  0.8696
 4491SOL    HW224936   0.486   2.690   3.136  0.6753  1.8915 -2.7443
 4492SOL     OW24937   3.305   1.025   1.465  0.2226  0.2332  0.6846
 4492SOL    HW124938   3.377   1.035   1.528  1.4329 -2.7773 -0.2310
 4492SOL    HW224939   3.257   1.107   1.474 -0.2318 -0.0911  1.2227
 4493SOL     OW24940   3.293   3.015   8.109  0.0236 -0.0223  0.3199
 4493SOL    HW124941   3.295   3.081   8.179  1.2868 -1.1844  1.3830
 4493SOL    HW224942   3.248   2.942   8.153  0.2173  0.1404  0.7942
 4494SOL     OW24943   3.536   2.545  14.288  0.2671  0.4899  0.4372
 4494SOL    HW124944   3.610   2.484  14.280 -1.0342 -0.5688 -3.1730
 4494SOL    HW224945   3.467   2.480  14.275 -0.5833  1.5215 -0.1576
 4495SOL     OW24946   3.918   0.461   3.021 -0.6227  0.0753  0.3250
 4495SOL    HW124947   3.867   0.415   3.088 -0.6356 -1.7707 -0.9454
 4495SOL    HW224948   3.994   0.483   3.076 -0.0476 -0.3934 -0.2780
 4496SOL     OW24949   3.065   0.985   3.525 -0.7412 -0.6659  0.2322
 4496SOL    HW124950   3.138   1.046   3.519 -1.0746 -0.2815  0.0492
 4496SOL    HW224951   3.083   0.936   3.445  1.2337 -1.2192  1.0150
 4497SOL     OW24952   0.530   2.630   4.893  0.1643  0.0821 -0.5631
 4497SOL    HW124953   0.612   2.675   4.913  0.7227 -1.3186  0.3163
 4497SOL    HW224954   0.550   2.536   4.887  0.5477  0.2855 -2.5232
 4498SOL     OW24955   1.614   1.255   7.415  0.1819 -0.0866  0.1445
 4498SOL    HW124956   1.690   1.313   7.420 -1.3092  1.9573 -0.8009
 4498SOL    HW224957   1.663   1.173   7.408 -1.7538 -1.1032 -1.5837
 4499SOL     OW24958   2.210   4.307  13.723  0.2358 -0.0915 -0.6823
 4499SOL    HW124959   2.137   4.298  13.784 -0.2780 -0.7295 -1.4112
 4499SOL    HW224960   2.158   4.315  13.643  1.4866  2.0674 -1.2885
 4500SOL     OW24961   3.586   2.653   6.216 -0.0314  0.0225 -0.3199
 4500SOL    HW124962   3.567   2.736   6.172 -0.4620  0.1903  0.1882
 4500SOL    HW224963   3.670   2.679   6.255  0.2361 -1.4380  0.1039
 4501SOL     OW24964   1.667   2.265   2.858  0.0312  0.6135 -0.9398
 4501SOL    HW124965   1.709   2.231   2.779  0.8829  1.8031 -0.9965
 4501SOL    HW224966   1.745   2.291   2.906 -0.1680 -0.0404 -0.2695
 4502SOL     OW24967   1.811   1.845   2.025 -0.1350  0.5817 -0.1915
 4502SOL    HW124968   1.784   1.754   2.033  0.5919  0.1508 -2.3659
 4502SOL    HW224969   1.737   1.905   2.020  0.8019  1.6007 -2.2574
 4503SOL     OW24970   1.266   3.595   3.292  0.0563 -0.6499  0.5953
 4503SOL    HW124971   1.303   3.524   3.240  0.4444 -0.4964  0.6614
 4503SOL    HW224972   1.172   3.584   3.279  0.0808 -1.9383  1.4649
 4504SOL     OW24973   2.622   1.395  13.207  0.2360  0.4629 -0.5181
 4504SOL    HW124974   2.626   1.486  13.237  5.7982  0.1744 -0.3439
 4504SOL    HW224975   2.684   1.365  13.273  1.0887  2.3287 -0.4619
 4505SOL     OW24976   1.671   1.546  13.137  0.4952 -0.4181 -0.6355
 4505SOL    HW124977   1.634   1.631  13.160 -0.0914 -0.4798 -1.3752
 4505SOL    HW224978   1.599   1.484  13.132  0.0921  0.0751 -0.9038
 4506SOL     OW24979   1.537   3.239   3.363  0.0224 -0.3955  0.0600
 4506SOL    HW124980   1.616   3.285   3.337 -0.2537 -0.8799 -1.5993
 4506SOL    HW224981   1.499   3.313   3.411 -0.1933 -1.2631  1.2269
 4507SOL     OW24982   4.158   2.193   2.489 -0.4042 -0.3054 -0.0923
 4507SOL    HW124983   4.153   2.239   2.572  1.5701 -2.1775  1.0775
 4507SOL    HW224984   4.153   2.264   2.425 -1.1763 -0.7437 -0.5184
 4508SOL     OW24985   0.769   3.228   9.746  1.3057  0.1373 -0.7268
 4508SOL    HW124986   0.862   3.228   9.770  1.3189 -0.5537 -0.7968
 4508SOL    HW224987   0.746   3.136   9.760 -0.7090  0.9463  1.3037
 4509SOL     OW24988   0.322   2.566   9.396  0.2291  0.2645  0.0311
 4509SOL    HW124989   0.310   2.627   9.468 -0.2016  0.0319  0.1558
 4509SOL    HW224990   0.331   2.485   9.446  1.0007  0.2228 -0.1645
 4510SOL     OW24991   4.434   0.510   5.326  0.0932 -0.2478  0.0947
 4510SOL    HW124992   4.403   0.513   5.417 -0.3652  2.0622 -0.1519
 4510SOL    HW224993   4.371   0.569   5.285  0.9487 -0.4343 -1.4929
 4511SOL     OW24994   3.563   2.444   2.981 -0.6171  0.0280 -0.4932
 4511SOL    HW124995   3.622   2.429   2.907  0.4394  2.4147 -0.1430
 4511SOL    HW224996   3.479   2.433   2.937 -0.1982  1.2291 -1.6121
 4512SOL     OW24997   4.617   2.881   8.425  0.0620 -0.5923 -0.1209
 4512SOL    HW124998   4.636   2.921   8.340 -0.8750 -2.4164 -1.1911
 4512SOL    HW224999   4.601   2.953   8.486 -0.7589  0.0215 -1.0583
 4513SOL     OW25000   4.698   2.478   8.854  0.5977  0.3021  0.3634
 4513SOL    HW125001   0.008   2.409   8.911  2.4832 -0.8518 -2.1327
 4513SOL    HW225002   0.032   2.554   8.861  0.7189  0.0519  2.0634
 4514SOL     OW25003   4.449   2.177  12.257  0.4208  0.0168  0.3870
 4514SOL    HW125004   4.499   2.098  12.280  0.2235  0.0273  0.8551
 4514SOL    HW225005   4.401   2.195  12.338 -1.3765  1.2907 -0.9657
 4515SOL     OW25006   4.096   3.862   5.201  0.2982 -0.0287  0.3779
 4515SOL    HW125007   4.028   3.877   5.267  0.0329 -2.1540  0.5808
 4515SOL    HW225008   4.073   3.925   5.133 -1.3245 -1.5289 -0.4449
 4516SOL     OW25009   3.770   2.517   1.364  0.2671  0.0400  0.4561
 4516SOL    HW125010   3.717   2.584   1.321  0.4761 -0.9576 -1.3770
 4516SOL    HW225011   3.833   2.565   1.418 -0.3880  3.0994 -1.5154
 4517SOL     OW25012   2.588   1.730   2.495  0.4004 -0.5239 -0.0952
 4517SOL    HW125013   2.553   1.720   2.406  0.7670  0.0795 -0.3049
 4517SOL    HW225014   2.543   1.810   2.523  2.0020  0.1290  0.5921
 4518SOL     OW25015   4.360   0.496   7.722 -0.1332  0.0978 -0.3328
 4518SOL    HW125016   4.417   0.419   7.728 -0.6988 -0.1876  1.3191
 4518SOL    HW225017   4.314   0.477   7.640  0.5860 -0.3184 -0.6436
 4519SOL     OW25018   0.460   4.204   3.223 -0.3656  0.4278 -0.2008
 4519SOL    HW125019   0.486   4.112   3.224  0.5648  0.7230  1.2006
 4519SOL    HW225020   0.367   4.203   3.196 -0.8563  1.5976  1.4820
 4520SOL     OW25021   1.027   4.480   4.796  0.3800 -0.0879 -0.1212
 4520SOL    HW125022   0.939   4.463   4.763 -1.1261  0.0918  3.8363
 4520SOL    HW225023   1.033   4.575   4.803 -1.6040  0.1232 -1.2870
 4521SOL     OW25024   0.041   0.893   3.014 -0.3693 -0.3829  0.5410
 4521SOL    HW125025   0.070   0.804   2.993  1.7082  0.7042 -1.2158
 4521SOL    HW225026   0.106   0.901   3.084  1.6481 -0.9006 -1.2552
 4522SOL     OW25027   0.639   4.070   1.378 -0.4538 -0.2930  0.0894
 4522SOL    HW125028   0.593   3.996   1.337 -1.5144  1.0012 -1.0491
 4522SOL    HW225029   0.598   4.144   1.334  1.3540  0.8855  0.3852
 4523SOL     OW25030   0.704   0.248   0.925 -0.3649  0.1824 -0.8668
 4523SOL    HW125031   0.668   0.160   0.930 -2.0134  0.9487  0.8752
 4523SOL    HW225032   0.798   0.231   0.922 -0.1167  1.6538 -1.4535
 4524SOL     OW25033   1.754   2.513   8.424  0.2728  0.1533  0.6352
 4524SOL    HW125034   1.800   2.564   8.357  0.2159 -0.8492 -0.1717
 4524SOL    HW225035   1.821   2.469   8.477 -0.0588  0.6781  1.4897
 4525SOL     OW25036   4.233   1.666  15.673 -0.0289 -0.1228 -0.0545
 4525SOL    HW125037   4.154   1.615  15.654  0.6880 -1.1169 -0.3912
 4525SOL    HW225038   4.206   1.728  15.740 -1.0204 -0.7845  0.1559
 4526SOL     OW25039   1.564   4.591   6.017  0.2640 -0.4089 -0.4628
 4526SOL    HW125040   1.547   4.501   5.990 -0.3087 -0.6472  0.6922
 4526SOL    HW225041   1.659   4.585   6.029  0.0837 -2.8979 -0.3441
 4527SOL     OW25042   4.021   2.024  11.827 -0.6163 -0.0180 -0.7100
 4527SOL    HW125043   4.107   2.009  11.788 -0.4437 -0.9412  0.0359
 4527SOL    HW225044   4.044   2.036  11.919  0.3758  0.0087 -0.9638
 4528SOL     OW25045   4.043   2.638   8.337 -0.0747  0.5553  0.2794
 4528SOL    HW125046   4.130   2.666   8.308 -1.6997  2.4288 -2.7283
 4528SOL    HW225047   4.015   2.726   8.362 -0.2965  0.8532 -1.0356
 4529SOL     OW25048   0.524   3.620   1.769 -0.1642 -0.2114 -0.3585
 4529SOL    HW125049   0.561   3.698   1.727  1.6349 -1.0944 -0.4051
 4529SOL    HW225050   0.585   3.611   1.842 -2.9485  2.8604  2.3877
 4530SOL     OW25051   4.029   3.146  15.777  0.3216  0.3422  0.4517
 4530SOL    HW125052   4.017   3.224  15.724  0.6423 -1.9219 -2.9484
 4530SOL    HW225053   4.117   3.153  15.813 -0.6352  1.0778  2.6521
 4531SOL     OW25054   1.326   1.388   1.142  0.2100 -0.0748  0.2425
 4531SOL    HW125055   1.402   1.423   1.096 -0.0538  0.3566  0.1332
 4531SOL    HW225056   1.265   1.451   1.103 -0.1344 -0.6573 -0.1531
 4532SOL     OW25057   4.237   4.252   1.327  0.6570 -0.2614  0.0373
 4532SOL    HW125058   4.220   4.161   1.352 -1.5346  0.0370 -0.3389
 4532SOL    HW225059   4.260   4.287   1.412 -0.8652  0.5022  0.1398
 4533SOL     OW25060   3.225   3.927   2.668  0.3900  0.2500 -0.2959
 4533SOL    HW125061   3.158   3.993   2.684 -0.0355  0.0598 -1.2808
 4533SOL    HW225062   3.308   3.957   2.705  0.9957 -0.6371 -0.9509
 4534SOL     OW25063   0.217   3.322   9.883  0.2510  0.2242  0.0293
 4534SOL    HW125064   0.235   3.397   9.826  1.2884 -0.4142 -0.4727
 4534SOL    HW225065   0.298   3.273   9.897 -0.6150 -0.6121  2.2151
 4535SOL     OW25066   3.044   0.055  15.164  0.4437  0.5584  0.1438
 4535SOL    HW125067   3.047   4.702  15.222 -0.7860 -0.3294 -0.9590
 4535SOL    HW225068   3.015   0.020  15.080  1.0221  0.3404  0.0338
 4536SOL     OW25069   1.894   3.000   5.418 -0.8977  0.7473 -0.3032
 4536SOL    HW125070   1.836   3.070   5.449  0.2877  1.7014 -0.2272
 4536SOL    HW225071   1.949   3.052   5.359  1.2081 -1.6822 -0.5130
 4537SOL     OW25072   2.305   3.625   1.989  0.0878 -0.0587 -0.3541
 4537SOL    HW125073   2.316   3.559   2.057  1.2411  0.4939 -0.0078
 4537SOL    HW225074   2.392   3.665   1.981 -0.4704  1.0821 -0.7798
 4538SOL     OW25075   0.035   1.697  15.622  0.2161  0.0945 -0.4749
 4538SOL    HW125076   0.009   1.661  15.707 -2.2096 -1.2765 -1.7913
 4538SOL    HW225077   0.105   1.638  15.597  0.8755 -0.8151  3.4531
 4539SOL     OW25078   3.337   3.280   0.609 -0.0164  0.1668  0.0811
 4539SOL    HW125079   3.298   3.223   0.675  0.6014  2.0471  2.0838
 4539SOL    HW225080   3.399   3.339   0.652  1.6071 -0.0964 -1.8627
 4540SOL     OW25081   4.155   4.106   1.082  0.3713  0.1610 -0.0644
 4540SOL    HW125082   4.223   4.102   1.149 -1.0880 -1.7455  1.3207
 4540SOL    HW225083   4.206   4.145   1.012 -0.2807 -0.7316 -1.0433
 4541SOL     OW25084   0.304   1.658  14.937  0.3706  0.3267  0.9841
 4541SOL    HW125085   0.270   1.605  14.866  1.1734 -0.2697  1.0405
 4541SOL    HW225086   0.305   1.745  14.896  1.0028 -0.5103 -0.7591
 4542SOL     OW25087   2.009   0.525   0.207 -0.5040 -0.3918  0.0806
 4542SOL    HW125088   1.967   0.489   0.286 -1.2607  0.1748 -0.0633
 4542SOL    HW225089   1.986   0.618   0.205  1.3343  0.0699 -0.0064
 4543SOL     OW25090   0.978   2.318   4.261  0.3976 -0.0984  0.4100
 4543SOL    HW125091   0.939   2.243   4.217 -0.7879  0.1876  0.9813
 4543SOL    HW225092   1.049   2.327   4.197  0.6320  0.7135  0.7785
 4544SOL     OW25093   0.737   3.926   4.191  0.3287 -0.1095  0.5353
 4544SOL    HW125094   0.655   3.937   4.239  0.2644  3.4635 -0.3776
 4544SOL    HW225095   0.759   4.019   4.181 -1.2013  0.1327 -0.5911
 4545SOL     OW25096   2.218   4.220   3.192  0.2324 -0.2824  0.3584
 4545SOL    HW125097   2.247   4.147   3.137 -1.5239 -0.9965  0.4065
 4545SOL    HW225098   2.197   4.287   3.128  0.1197 -0.3653  0.3074
 4546SOL     OW25099   2.351   3.486  16.310 -0.3091 -0.1527 -0.2680
 4546SOL    HW125100   2.406   3.529  16.375 -0.1453 -0.7609  0.0034
 4546SOL    HW225101   2.265   3.518  16.335 -2.3404 -2.9728 -3.5805
 4547SOL     OW25102   4.583   0.626   7.820 -0.1817 -0.7935  0.3244
 4547SOL    HW125103   4.563   0.713   7.785 -3.2175 -1.1322  1.2327
 4547SOL    HW225104   4.511   0.572   7.789  0.4946 -2.2199  1.2381
 4548SOL     OW25105   3.404   1.857   6.016  0.1431 -0.0083 -0.1407
 4548SOL    HW125106   3.470   1.922   6.038  1.2871 -1.4424  0.7009
 4548SOL    HW225107   3.425   1.782   6.073 -3.4931  1.6581  3.4371
 4549SOL     OW25108   1.583   3.705  10.442  0.3139  0.3103 -0.5278
 4549SOL    HW125109   1.555   3.683  10.531  0.5849  1.3018 -0.2063
 4549SOL    HW225110   1.523   3.652  10.390 -1.7631  2.4700 -0.3051
 4550SOL     OW25111   4.511   1.512   1.306 -0.1036 -0.0348  0.5851
 4550SOL    HW125112   4.523   1.480   1.216  0.4410  1.9828 -0.0561
 4550SOL    HW225113   4.449   1.583   1.291 -1.3822 -1.4235 -0.7316
 4551SOL     OW25114   3.094   3.844   7.069 -0.2479  0.2376 -0.1719
 4551SOL    HW125115   3.078   3.800   6.985 -2.3400 -1.8777  1.3395
 4551SOL    HW225116   3.152   3.914   7.040  0.5665 -1.1198 -1.8254
 4552SOL     OW25117   2.644   2.482  17.229  0.0694  0.0392 -0.0039
 4552SOL    HW125118   2.599   2.456  17.309  1.6903  0.0225  0.9090
 4552SOL    HW225119   2.639   2.578  17.233  1.7356  0.1461 -0.6366
 4553SOL     OW25120   4.126   4.377  15.449  0.0344  0.5985 -0.0082
 4553SOL    HW125121   4.054   4.350  15.392 -0.9923 -1.3884  2.2283
 4553SOL    HW225122   4.129   4.470  15.425  2.7353  0.0534 -1.8473
 4554SOL     OW25123   1.140   1.580   1.092 -0.3693  0.6205 -0.3806
 4554SOL    HW125124   1.172   1.661   1.053  0.4451  1.1019  1.2757
 4554SOL    HW225125   1.048   1.592   1.072 -0.6582  0.6808  0.9650
 4555SOL     OW25126   4.312   3.069   3.464  0.6274  0.3415  0.4020
 4555SOL    HW125127   4.226   3.027   3.468 -0.1184  1.7208 -0.9580
 4555SOL    HW225128   4.349   3.023   3.540  2.8960 -2.0733 -2.2023
 4556SOL     OW25129   3.982   2.104   0.665  0.0442  0.4303 -0.8420
 4556SOL    HW125130   3.959   2.012   0.679  1.2656  0.2411 -0.1268
 4556SOL    HW225131   3.960   2.144   0.749  1.2209  0.5060 -0.5772
 4557SOL     OW25132   4.551   2.853   8.104  0.1521 -0.1522  0.0026
 4557SOL    HW125133   4.610   2.912   8.152 -0.7058  0.8697 -0.1883
 4557SOL    HW225134   4.597   2.834   8.023  0.6267 -0.5732  0.3744
 4558SOL     OW25135   3.149   1.597  11.931  0.8543 -0.5136  0.0365
 4558SOL    HW125136   3.160   1.660  11.860  0.4855 -0.5970 -0.0930
 4558SOL    HW225137   3.237   1.588  11.968 -0.3659 -0.8247  2.9073
 4559SOL     OW25138   4.713   0.979   7.909  0.0920 -0.1267 -0.1645
 4559SOL    HW125139   4.698   1.073   7.919  0.1711 -0.0229 -1.0085
 4559SOL    HW225140   4.646   0.953   7.846 -0.7228  0.0917  0.6016
 4560SOL     OW25141   1.793   1.463   3.416 -0.4714  0.2309 -0.2391
 4560SOL    HW125142   1.778   1.427   3.503 -0.1704  1.9136  0.5067
 4560SOL    HW225143   1.721   1.525   3.405 -0.4781  0.1636 -0.5841
 4561SOL     OW25144   1.943   3.779   3.856  0.2997  0.5127  0.2162
 4561SOL    HW125145   2.004   3.744   3.921  2.1255  2.1124 -0.6227
 4561SOL    HW225146   1.902   3.848   3.908 -1.2845  0.0084 -0.3956
 4562SOL     OW25147   4.437   2.506   1.649 -0.1438  0.1365 -0.5541
 4562SOL    HW125148   4.464   2.565   1.579  1.2099 -3.2004 -2.7983
 4562SOL    HW225149   4.343   2.495   1.631  0.0507  2.1211 -2.7197
 4563SOL     OW25150   3.812   0.177   1.039 -0.0799 -0.2192 -0.2438
 4563SOL    HW125151   3.737   0.156   0.983 -1.1786 -1.2241  1.6238
 4563SOL    HW225152   3.871   0.232   0.987  0.3864 -3.4479 -3.1370
 4564SOL     OW25153   1.861   3.286  10.551 -0.4662  0.2487 -0.3742
 4564SOL    HW125154   1.803   3.268  10.477  0.4253 -0.6795 -0.8606
 4564SOL    HW225155   1.857   3.381  10.563  0.3400  0.1708  0.5502
 4565SOL     OW25156   1.585   2.513  11.949  0.0006  0.7792  0.0363
 4565SOL    HW125157   1.601   2.607  11.939 -2.7717  1.2452  0.0966
 4565SOL    HW225158   1.504   2.504  11.899  1.9917 -2.5724 -2.5421
 4566SOL     OW25159   0.228   1.968   9.723  0.2237  0.2605  0.2758
 4566SOL    HW125160   0.260   1.924   9.645  1.8771 -2.3520  2.4403
 4566SOL    HW225161   0.265   1.919   9.796  0.0130  0.2018  0.3417
 4567SOL     OW25162   3.269   4.569   2.025  0.2597 -0.2293  0.1899
 4567SOL    HW125163   3.297   4.617   2.103  0.3028  1.1350 -0.6660
 4567SOL    HW225164   3.241   4.643   1.971  1.1214 -0.8086 -1.0661
 4568SOL     OW25165   3.236   2.959  12.830  0.1218 -0.2141 -0.0657
 4568SOL    HW125166   3.295   2.926  12.898 -0.6200 -0.4494  0.4695
 4568SOL    HW225167   3.223   3.052  12.851  0.5003 -0.7432  2.5339
 4569SOL     OW25168   3.680   1.574   9.206  0.3906  0.0500 -0.4075
 4569SOL    HW125169   3.618   1.639   9.241  0.0817 -0.5402  0.1426
 4569SOL    HW225170   3.758   1.586   9.260  1.7424  0.6932 -2.5123
 4570SOL     OW25171   1.002   3.371  11.991  0.1357 -0.6789 -0.1924
 4570SOL    HW125172   0.916   3.367  11.950 -0.0320  0.4720  0.0264
 4570SOL    HW225173   1.038   3.449  11.948 -1.8523 -0.0126 -0.6326
 4571SOL     OW25174   2.864   3.154   3.739 -0.1988 -0.6406  0.3761
 4571SOL    HW125175   2.936   3.132   3.797 -0.5955  0.0111  1.1140
 4571SOL    HW225176   2.910   3.183   3.660 -1.6780  2.5002  0.6391
 4572SOL     OW25177   2.448   1.463   0.706  0.7245 -0.4828 -0.3596
 4572SOL    HW125178   2.397   1.532   0.664 -1.4241 -2.6387 -1.3074
 4572SOL    HW225179   2.532   1.477   0.662  1.7537 -0.9835  1.4583
 4573SOL     OW25180   2.362   3.370   7.337 -0.3097  0.1056 -0.4637
 4573SOL    HW125181   2.438   3.381   7.394 -2.3884  1.4483  2.0615
 4573SOL    HW225182   2.336   3.460   7.318  2.0586  0.5767 -1.4900
 4574SOL     OW25183   3.730   1.346  15.832 -0.3472 -0.4896 -0.0736
 4574SOL    HW125184   3.774   1.304  15.758  2.2798  2.0347  0.0690
 4574SOL    HW225185   3.800   1.376  15.889 -0.0783  0.4244 -0.8920
 4575SOL     OW25186   1.235   4.319   5.508 -0.2222  0.0362  0.2869
 4575SOL    HW125187   1.286   4.239   5.518  0.4253  0.3847 -0.1996
 4575SOL    HW225188   1.288   4.381   5.558 -1.2620 -0.8611  2.4663
 4576SOL     OW25189   1.803   1.224  13.205  0.0852 -0.5480  0.0149
 4576SOL    HW125190   1.710   1.223  13.182  0.4073  1.3033 -1.2549
 4576SOL    HW225191   1.827   1.315  13.191  3.1235 -1.3331  0.1440
 4577SOL     OW25192   2.141   0.454  15.131 -0.1036 -0.0517  0.0212
 4577SOL    HW125193   2.234   0.441  15.112 -0.1408 -0.0803 -0.1442
 4577SOL    HW225194   2.101   0.371  15.106 -2.5780  0.5390  2.0260
 4578SOL     OW25195   0.625   0.643   7.271  0.1735  0.6999 -0.0363
 4578SOL    HW125196   0.541   0.626   7.315 -0.3860  3.2264 -0.1299
 4578SOL    HW225197   0.636   0.734   7.298 -2.6408  0.7350  1.0290
 4579SOL     OW25198   2.600   1.960  16.311  0.0486 -0.5400  0.0973
 4579SOL    HW125199   2.534   1.893  16.325 -0.1911 -0.0359  1.3945
 4579SOL    HW225200   2.682   1.916  16.333  0.8248  0.3013 -1.0933
 4580SOL     OW25201   2.331   2.569   3.685  0.0252  0.8981  0.6561
 4580SOL    HW125202   2.375   2.614   3.757  1.3774 -0.3429  0.5793
 4580SOL    HW225203   2.386   2.593   3.610  0.8922  0.1243  1.0525
 4581SOL     OW25204   4.266   4.079   8.310  0.4117  0.4185  0.3116
 4581SOL    HW125205   4.317   4.004   8.278 -0.7507  0.0118 -0.5735
 4581SOL    HW225206   4.338   4.135   8.339  0.5374  0.2332  0.3580
 4582SOL     OW25207   2.446   4.393   3.169 -0.4988 -0.0324  0.5215
 4582SOL    HW125208   2.378   4.340   3.210 -0.2229 -2.7561 -2.5277
 4582SOL    HW225209   2.397   4.475   3.156  0.9758  0.7997  0.1188
 4583SOL     OW25210   2.270   0.518   0.033 -0.5117  0.1535 -0.4243
 4583SOL    HW125211   2.187   0.520   0.079 -0.4717 -3.8664 -0.1273
 4583SOL    HW225212   2.258   0.585  17.659  0.0434 -0.1673 -0.8442
 4584SOL     OW25213   4.146   2.511   9.635 -0.2075 -0.0089 -0.5399
 4584SOL    HW125214   4.136   2.510   9.730  0.6948  0.8223 -0.4379
 4584SOL    HW225215   4.242   2.510   9.636 -0.1956  0.5762 -0.9071
 4585SOL     OW25216   1.258   2.597   4.022 -0.9466 -0.0635 -0.3090
 4585SOL    HW125217   1.266   2.512   4.065 -0.8301 -0.3238 -0.8436
 4585SOL    HW225218   1.163   2.610   4.029 -0.7867  1.0413 -0.2586
 4586SOL     OW25219   1.173   4.640   8.152  0.0141  0.4187 -0.0447
 4586SOL    HW125220   1.234   4.713   8.141 -0.2544  0.6244 -0.1490
 4586SOL    HW225221   1.089   4.686   8.158  0.7840  1.9990 -1.6263
 4587SOL     OW25222   0.449   0.096   5.972 -0.2046 -0.0171  0.7107
 4587SOL    HW125223   0.484   0.042   6.043 -2.8237 -0.5617  1.5494
 4587SOL    HW225224   0.391   0.032   5.930  1.9062 -1.8403  0.5655
 4588SOL     OW25225   4.400   2.027   3.991 -0.2891 -0.4621  0.3133
 4588SOL    HW125226   4.352   2.096   3.945 -1.3276 -0.8415  0.8396
 4588SOL    HW225227   4.348   1.947   3.989  0.7240 -1.0092 -3.3263
 4589SOL     OW25228   0.025   4.475   6.759 -0.5794 -0.0434 -0.9540
 4589SOL    HW125229   0.031   4.475   6.663 -2.0157 -0.5746 -1.0480
 4589SOL    HW225230   0.056   4.387   6.779 -1.7137 -0.3115 -0.3848
 4590SOL     OW25231   2.304   4.179   7.688  0.1142 -0.2694  0.2709
 4590SOL    HW125232   2.345   4.234   7.754 -0.2194  3.7124 -2.8083
 4590SOL    HW225233   2.346   4.093   7.689  1.7388  0.5100 -1.6347
 4591SOL     OW25234   3.100   2.400  11.560  0.1539  0.5379  0.1917
 4591SOL    HW125235   3.152   2.347  11.620 -0.3771 -1.0888 -0.7798
 4591SOL    HW225236   3.008   2.378  11.575 -0.0341  0.9171 -0.4021
 4592SOL     OW25237   2.904   2.407   7.834  0.5708 -0.3769 -0.7052
 4592SOL    HW125238   2.833   2.464   7.802 -0.7626 -1.4908  0.2558
 4592SOL    HW225239   2.886   2.412   7.928 -1.1607 -0.5440 -1.0272
 4593SOL     OW25240   0.626   3.111   2.593 -0.7293 -0.1185 -0.0068
 4593SOL    HW125241   0.657   3.067   2.673 -2.0842 -0.5691  0.2584
 4593SOL    HW225242   0.655   3.055   2.521 -3.0622 -1.9288  0.4635
 4594SOL     OW25243   3.370   1.773   7.011  0.5642 -0.6019 -0.1068
 4594SOL    HW125244   3.417   1.805   7.087  1.6733 -0.6346 -0.7807
 4594SOL    HW225245   3.386   1.679   7.017  0.9228 -0.6168 -1.3669
 4595SOL     OW25246   3.936   3.605   6.270 -0.6177  0.9106 -0.0567
 4595SOL    HW125247   3.997   3.641   6.205  1.1695  0.3974  1.3384
 4595SOL    HW225248   3.994   3.621   6.345  0.4638  1.1100 -0.9224
 4596SOL     OW25249   2.139   3.435  12.243  0.0906 -0.0946 -0.3052
 4596SOL    HW125250   2.194   3.368  12.202  1.8306  2.5979 -2.3248
 4596SOL    HW225251   2.088   3.378  12.301  2.0267 -1.0598  0.4533
 4597SOL     OW25252   3.322   4.670   6.033 -0.1897  0.3813 -0.2850
 4597SOL    HW125253   3.362   4.587   6.007  1.9021  1.3513 -0.1468
 4597SOL    HW225254   3.390   0.009   6.058  1.4143 -0.0424 -3.4964
 4598SOL     OW25255   0.307   2.643   7.149 -0.2029 -0.7867  0.0201
 4598SOL    HW125256   0.248   2.698   7.098  1.7471  1.3887  0.1611
 4598SOL    HW225257   0.247   2.573   7.178 -0.7311 -0.9991 -1.6062
 4599SOL     OW25258   1.044   2.139   7.454  0.5777  0.7201  0.5414
 4599SOL    HW125259   0.985   2.210   7.482  0.3003  1.3575 -1.7192
 4599SOL    HW225260   1.104   2.138   7.530  1.9992 -0.0751 -0.6027
 4600SOL     OW25261   2.514   0.890  15.922 -0.0447 -0.3417  0.6177
 4600SOL    HW125262   2.559   0.841  15.854 -3.0073 -2.8029  0.4028
 4600SOL    HW225263   2.576   0.892  15.994 -0.3439 -0.3010  0.8762
 4601SOL     OW25264   3.930   4.317  15.245 -0.0121 -0.9273  0.3254
 4601SOL    HW125265   3.926   4.221  15.245 -0.3411 -0.9124 -0.4870
 4601SOL    HW225266   3.864   4.332  15.177 -0.0084  1.7800  0.9068
 4602SOL     OW25267   3.366   4.618   9.182 -0.3413  0.0219 -0.1161
 4602SOL    HW125268   3.366   4.709   9.153 -1.2253  0.7232  2.1287
 4602SOL    HW225269   3.313   4.619   9.261 -1.6508  0.9813 -1.0091
 4603SOL     OW25270   1.798   1.689   6.904  0.1538  0.0446 -0.3986
 4603SOL    HW125271   1.824   1.776   6.873  0.9958  0.6254  1.8799
 4603SOL    HW225272   1.881   1.650   6.932 -0.0309 -0.5340 -0.6585
 4604SOL     OW25273   3.015   3.563  17.113  0.1151 -1.1645  0.5635
 4604SOL    HW125274   3.078   3.534  17.047  1.1827  2.4150 -0.0071
 4604SOL    HW225275   2.930   3.539  17.077 -0.2178 -0.4480  0.8678
 4605SOL     OW25276   1.250   3.279   4.715 -0.3102 -0.2702  1.0156
 4605SOL    HW125277   1.329   3.236   4.748 -0.5358  0.8249  2.9879
 4605SOL    HW225278   1.205   3.309   4.794  0.1108 -1.6465  1.7855
 4606SOL     OW25279   2.427   1.183  14.555 -0.2977 -0.5191 -0.0054
 4606SOL    HW125280   2.494   1.219  14.496 -0.8730  0.4359 -0.0682
 4606SOL    HW225281   2.403   1.106  14.503  0.7545 -1.5237  0.9846
 4607SOL     OW25282   0.786   1.134   4.117 -0.0429 -0.3718 -0.1471
 4607SOL    HW125283   0.841   1.210   4.139  0.1225 -0.7178  0.6445
 4607SOL    HW225284   0.705   1.182   4.101 -0.0650 -0.6929 -0.9987
 4608SOL     OW25285   2.602   2.277   4.160  0.0022 -0.0130 -0.5728
 4608SOL    HW125286   2.653   2.196   4.167  0.9104  0.4254 -2.1952
 4608SOL    HW225287   2.552   2.268   4.241  1.2250  1.4744  0.3419
 4609SOL     OW25288   0.526   0.173   5.702 -0.0386 -0.6787  0.3120
 4609SOL    HW125289   0.532   0.080   5.679 -2.0628 -0.6684 -0.2560
 4609SOL    HW225290   0.614   0.203   5.682  0.1706 -0.9851  0.7841
 4610SOL     OW25291   3.261   0.116   3.520 -0.3374  0.4351 -0.4016
 4610SOL    HW125292   3.264   0.183   3.589 -0.5768 -0.4953  0.5148
 4610SOL    HW225293   3.345   0.117   3.474  0.4702  0.5062  1.0722
 4611SOL     OW25294   2.949   0.385   0.232 -0.1074 -0.1527 -0.1231
 4611SOL    HW125295   3.017   0.378   0.298 -1.9287 -0.3839  1.7102
 4611SOL    HW225296   2.990   0.456   0.182  0.5362  1.9968  3.4866
 4612SOL     OW25297   2.149   0.340   9.285  0.2452  0.4712  0.5917
 4612SOL    HW125298   2.132   0.400   9.212  0.5527 -0.1904 -0.0365
 4612SOL    HW225299   2.065   0.323   9.328 -0.2620  0.2122 -0.4931
 4613SOL     OW25300   4.643   1.139   8.953 -0.4493 -0.1021 -0.0573
 4613SOL    HW125301   4.708   1.165   8.888  0.5531  0.0502  1.0132
 4613SOL    HW225302   4.693   1.097   9.022 -1.8942 -0.8999  0.5111
 4614SOL     OW25303   2.628   2.353   3.207  0.1994  0.2037 -0.2061
 4614SOL    HW125304   2.532   2.350   3.204  0.2068  0.6289 -1.0840
 4614SOL    HW225305   2.630   2.446   3.182  0.1950  0.2667  0.0252
 4615SOL     OW25306   0.708   0.455   6.971  0.0795  0.5153  0.3776
 4615SOL    HW125307   0.644   0.387   6.990  1.1827 -0.5779  0.2312
 4615SOL    HW225308   0.772   0.443   7.042 -0.9350  0.6994  1.3193
 4616SOL     OW25309   1.869   2.104   7.334  0.4097  0.3649  0.3007
 4616SOL    HW125310   1.916   2.163   7.275  2.4410  0.8843  2.4448
 4616SOL    HW225311   1.791   2.154   7.357 -1.1320 -1.6030 -0.6657
 4617SOL     OW25312   3.456   4.544  16.474  0.6611  0.4432  0.9494
 4617SOL    HW125313   3.507   4.489  16.414  0.4489 -1.2316  2.2968
 4617SOL    HW225314   3.524   4.602  16.508  1.0486  1.1945 -1.1121
 4618SOL     OW25315   1.962   3.760   0.644 -0.3488  0.6829  0.3444
 4618SOL    HW125316   2.040   3.731   0.692 -0.4879  0.1533  0.2564
 4618SOL    HW225317   1.934   3.682   0.597  1.2214  0.7939 -0.7676
 4619SOL     OW25318   0.115   3.162   8.894  0.2456 -0.0120 -0.3143
 4619SOL    HW125319   0.166   3.243   8.890 -2.0609  1.3404 -2.1546
 4619SOL    HW225320   0.166   3.100   8.842 -0.0440  0.2014 -0.8446
 4620SOL     OW25321   4.175   1.637   6.264 -0.1605 -0.3245 -0.2708
 4620SOL    HW125322   4.173   1.671   6.354 -1.7533  0.4192 -0.5903
 4620SOL    HW225323   4.086   1.650   6.232 -0.6331 -0.3478  1.0062
 4621SOL     OW25324   1.652   3.931   0.916  0.2512 -0.0678  0.3124
 4621SOL    HW125325   1.585   3.932   0.848  0.1580 -1.5278  0.3751
 4621SOL    HW225326   1.653   3.840   0.947 -0.7071 -0.7825 -1.7515
 4622SOL     OW25327   3.822   2.292   5.927 -0.0350 -0.0140  0.5521
 4622SOL    HW125328   3.844   2.368   5.982 -1.4034  0.7673  0.0149
 4622SOL    HW225329   3.827   2.228   5.997  0.1824 -1.5355 -0.8606
 4623SOL     OW25330   1.835   0.656   6.624  0.6277 -0.2289  0.2622
 4623SOL    HW125331   1.834   0.666   6.528 -2.0347 -0.1550  0.2845
 4623SOL    HW225332   1.753   0.606   6.624  1.4449 -1.5942 -1.0647
 4624SOL     OW25333   3.586   0.938  15.830 -0.2400  0.3601  0.0523
 4624SOL    HW125334   3.599   0.901  15.743 -5.0108 -1.8120  0.2309
 4624SOL    HW225335   3.578   1.030  15.805 -1.7305 -0.0890 -1.1184
 4625SOL     OW25336   2.078   3.084   1.744  0.0550 -0.1134  0.0280
 4625SOL    HW125337   2.081   3.132   1.661  0.5647 -0.1388  0.0364
 4625SOL    HW225338   2.026   3.012   1.707  0.9871  0.2460 -1.9834
 4626SOL     OW25339   2.034   0.470   7.080 -0.3956  1.3282  0.3484
 4626SOL    HW125340   1.988   0.527   7.019  0.8831  0.4375 -1.4465
 4626SOL    HW225341   2.113   0.439   7.035 -2.7947 -1.2810 -1.9714
 4627SOL     OW25342   3.647   0.395   4.919 -0.0413  0.4368 -0.0774
 4627SOL    HW125343   3.650   0.301   4.935 -0.8089  0.6908  1.5817
 4627SOL    HW225344   3.593   0.424   4.992  0.2238  0.8258 -0.0320
 4628SOL     OW25345   1.597   0.587  10.840  0.5711  0.7913  0.8176
 4628SOL    HW125346   1.617   0.672  10.879  0.6983  1.7932 -1.4158
 4628SOL    HW225347   1.530   0.566  10.905  2.1222  1.0243  2.4871
 4629SOL     OW25348   4.459   1.855   6.627 -0.1746 -0.6067 -0.4204
 4629SOL    HW125349   4.549   1.852   6.658 -0.0966  0.4497 -0.5490
 4629SOL    HW225350   4.448   1.949   6.611  1.6970 -0.6094 -1.6490
 4630SOL     OW25351   4.158   0.065   3.508  0.3748 -0.2290 -0.2017
 4630SOL    HW125352   4.202   4.703   3.516 -0.2888 -0.6554 -1.1174
 4630SOL    HW225353   4.232   0.124   3.495  0.1297  0.2786  0.7106
 4631SOL     OW25354   0.816   4.584  16.218  0.4368  0.2414  0.4722
 4631SOL    HW125355   0.790   4.631  16.297 -0.1634  2.1605 -0.8630
 4631SOL    HW225356   0.783   4.645  16.152  0.0310 -0.5278 -0.0360
 4632SOL     OW25357   3.655   1.582  11.574 -0.5976  0.8473 -0.3385
 4632SOL    HW125358   3.639   1.637  11.497  1.8752 -0.6663 -1.9510
 4632SOL    HW225359   3.631   1.496  11.538 -1.5156  1.2011 -0.5707
 4633SOL     OW25360   3.588   0.710   8.116  0.5373 -0.0902 -0.3286
 4633SOL    HW125361   3.563   0.768   8.043  1.1141  1.1552  0.4603
 4633SOL    HW225362   3.643   0.771   8.164  0.7463  0.1515 -0.8660
 4634SOL     OW25363   4.234   0.687   5.045  0.4204  0.2453  0.2428
 4634SOL    HW125364   4.277   0.772   5.053  1.5674 -0.6311  3.4003
 4634SOL    HW225365   4.206   0.677   5.136  0.1617 -0.4083  0.0912
 4635SOL     OW25366   2.568   3.585  14.829  0.4682 -0.1167  0.1076
 4635SOL    HW125367   2.473   3.590  14.834  0.3010 -1.2915 -1.9549
 4635SOL    HW225368   2.578   3.509  14.771 -3.3940 -1.3697  1.0886
 4636SOL     OW25369   4.461   1.139   3.184  0.0820  0.3577 -0.3891
 4636SOL    HW125370   4.507   1.106   3.107 -0.0121 -1.5141  0.3422
 4636SOL    HW225371   4.373   1.109   3.159 -0.2908  0.8486  0.3403
 4637SOL     OW25372   3.173   1.179   3.739  0.2332 -0.1568 -0.4897
 4637SOL    HW125373   3.119   1.111   3.701 -2.6883  0.0492  3.3515
 4637SOL    HW225374   3.173   1.248   3.672 -1.7809  1.2593  0.9628
 4638SOL     OW25375   3.569   0.300   1.518  0.3376 -0.4538 -0.0522
 4638SOL    HW125376   3.645   0.357   1.527  0.3127 -0.6519  1.4246
 4638SOL    HW225377   3.551   0.310   1.424 -0.5879 -1.0427  0.0553
 4639SOL     OW25378   3.155   3.988   1.373 -0.0042  0.2464  0.1934
 4639SOL    HW125379   3.241   4.014   1.406 -0.5889  1.2672  0.9142
 4639SOL    HW225380   3.101   4.066   1.389  0.9816  0.6737  1.4762
 4640SOL     OW25381   1.828   1.052   8.410  0.4965  0.0800  0.1415
 4640SOL    HW125382   1.798   1.020   8.325 -0.9803  4.1324 -0.8547
 4640SOL    HW225383   1.762   1.027   8.475 -0.7018 -0.4717 -1.2820
 4641SOL     OW25384   0.515   2.077   2.715 -0.2841  1.0828 -0.1720
 4641SOL    HW125385   0.499   2.040   2.629 -1.7011  0.2203  0.4481
 4641SOL    HW225386   0.433   2.124   2.734 -0.1975  0.3669  2.0163
 4642SOL     OW25387   2.737   0.338   8.060 -0.3481  0.3793 -0.3844
 4642SOL    HW125388   2.681   0.350   8.137  1.4612  1.4424  0.7653
 4642SOL    HW225389   2.815   0.388   8.082 -0.1486 -1.0238  2.1567
 4643SOL     OW25390   0.929   3.710   3.082 -0.3827 -0.1735 -0.3147
 4643SOL    HW125391   0.978   3.692   3.002  3.1559 -0.7461  1.9846
 4643SOL    HW225392   0.856   3.654   3.057  0.8793 -1.6361 -0.6969
 4644SOL     OW25393   1.671   1.253   3.191 -0.2944 -0.2361  0.3331
 4644SOL    HW125394   1.741   1.234   3.254  0.1650 -3.9114 -1.2611
 4644SOL    HW225395   1.599   1.264   3.254 -1.0012 -1.3816 -0.2700
 4645SOL     OW25396   3.944   2.257   5.030  0.5783  0.7879 -0.7016
 4645SOL    HW125397   4.018   2.316   5.020 -0.8089  2.2468 -2.4181
 4645SOL    HW225398   3.895   2.273   4.949  1.4045  2.0412 -0.9555
 4646SOL     OW25399   0.215   3.177   8.109  0.0582 -0.2545 -0.4097
 4646SOL    HW125400   0.221   3.113   8.039 -0.5414 -1.4757  0.6705
 4646SOL    HW225401   0.302   3.216   8.098 -0.4646  1.1102  0.1853
 4647SOL     OW25402   1.626   2.681  16.719 -0.1138  0.6488  0.0671
 4647SOL    HW125403   1.595   2.711  16.634  0.3972 -2.3032 -1.1374
 4647SOL    HW225404   1.547   2.694  16.772  0.1899 -4.0522  1.6095
 4648SOL     OW25405   2.826   1.535   4.065  0.0035  0.1945 -0.3267
 4648SOL    HW125406   2.829   1.459   4.123 -0.4618  0.4492  0.0333
 4648SOL    HW225407   2.748   1.513   4.014  0.3744 -2.2741  0.1623
 4649SOL     OW25408   2.554   2.466  14.276  0.7319  0.5316  0.6704
 4649SOL    HW125409   2.558   2.480  14.181 -2.0104 -0.4247  0.4292
 4649SOL    HW225410   2.462   2.446  14.288  1.3054 -1.0103  2.5059
 4650SOL     OW25411   1.905   0.160  12.893  0.2761 -0.1780 -0.0351
 4650SOL    HW125412   1.983   0.169  12.947  0.3519  0.1024 -0.1928
 4650SOL    HW225413   1.850   0.121  12.961  0.3901 -2.0199 -1.0013
 4651SOL     OW25414   3.713   4.306  15.080 -0.3437  0.3007  0.0500
 4651SOL    HW125415   3.750   4.220  15.059 -0.0492  0.2608  0.7138
 4651SOL    HW225416   3.672   4.327  14.997 -0.7179 -1.1699 -0.1453
 4652SOL     OW25417   3.826   2.294  14.618 -0.4228  0.4351 -0.1694
 4652SOL    HW125418   3.778   2.211  14.614 -2.5488  1.7954 -2.9242
 4652SOL    HW225419   3.903   2.273  14.565  0.3959  1.0565  0.7816
 4653SOL     OW25420   1.147   1.806   9.125  0.4218  0.1963  0.1791
 4653SOL    HW125421   1.219   1.745   9.141 -0.5990 -1.4726 -1.5093
 4653SOL    HW225422   1.091   1.744   9.079  0.3992  0.7626 -0.5490
 4654SOL     OW25423   2.170   2.582   0.714  0.5292  0.5129  0.3071
 4654SOL    HW125424   2.089   2.600   0.665 -0.2337 -1.8164  0.7506
 4654SOL    HW225425   2.222   2.658   0.685  1.1122  0.6026  1.5954
 4655SOL     OW25426   2.449   0.001   1.894  0.0394  0.2658  0.4061
 4655SOL    HW125427   2.409   4.637   1.890 -0.3525  0.3183  3.3440
 4655SOL    HW225428   2.503   4.709   1.972  0.5071  0.5695  0.1375
 4656SOL     OW25429   1.233   4.257   6.538 -0.3325 -0.1996  0.0978
 4656SOL    HW125430   1.214   4.299   6.454  2.0759 -0.6250 -0.6536
 4656SOL    HW225431   1.263   4.340   6.574  0.2232  0.0182 -0.8588
 4657SOL     OW25432   4.695   0.351   6.045  0.5324 -0.0373  0.2017
 4657SOL    HW125433   0.030   0.277   6.028 -0.4172 -0.7394  0.0692
 4657SOL    HW225434   0.039   0.420   6.042 -0.9606  1.3810 -1.2777
 4658SOL     OW25435   1.463   4.664   3.138  0.2579  0.2980 -0.1819
 4658SOL    HW125436   1.518   4.691   3.211  0.7243  2.4697 -1.3398
 4658SOL    HW225437   1.518   4.695   3.066  0.4955 -0.6407 -0.4048
 4659SOL     OW25438   2.225   4.474  17.449  0.5119 -0.4688  0.3135
 4659SOL    HW125439   2.303   4.460  17.395 -1.9297  0.2078 -3.3096
 4659SOL    HW225440   2.188   4.546  17.398 -0.6576 -0.1865  1.5654
 4660SOL     OW25441   1.934   4.635   3.813  0.1329  0.1483 -0.3691
 4660SOL    HW125442   1.850   4.649   3.770  1.0200  0.2357 -2.0706
 4660SOL    HW225443   1.932   4.539   3.814 -0.9672  0.1769  0.8578
 4661SOL     OW25444   4.491   1.063   8.756 -0.3047  0.1700  0.0978
 4661SOL    HW125445   4.442   1.139   8.725 -1.8322 -0.9049 -0.1284
 4661SOL    HW225446   4.548   1.102   8.822  4.1029 -2.9388 -1.9516
 4662SOL     OW25447   1.512   2.083  11.538  0.5764 -0.2867  0.7579
 4662SOL    HW125448   1.469   2.048  11.460  0.0456 -0.7619  1.2607
 4662SOL    HW225449   1.437   2.124  11.581 -0.1245  0.4945 -1.1878
 4663SOL     OW25450   1.835   3.254   2.653 -0.3390 -0.9612 -0.0374
 4663SOL    HW125451   1.869   3.222   2.569  1.9777 -0.6260  0.7558
 4663SOL    HW225452   1.888   3.194   2.707  0.5700 -0.9578 -0.9165
 4664SOL     OW25453   1.543   2.684  17.675  0.1660  0.4964 -0.2294
 4664SOL    HW125454   1.530   2.628   0.057  3.3883  0.5050  0.3463
 4664SOL    HW225455   1.461   2.672  17.627 -1.2863 -2.3606  3.0668
 4665SOL     OW25456   4.487   4.633   7.483 -0.2606  0.2775 -0.4542
 4665SOL    HW125457   4.436   4.574   7.427  0.3247  0.1456 -0.8428
 4665SOL    HW225458   4.430   4.709   7.496  1.0307  1.0289  0.8119
 4666SOL     OW25459   0.281   0.891   4.672 -0.7727 -0.5291 -0.4355
 4666SOL    HW125460   0.235   0.908   4.755 -0.2366 -0.2512 -0.1975
 4666SOL    HW225461   0.280   0.977   4.628 -0.4599 -0.5976 -0.5785
 4667SOL     OW25462   1.535   2.310  13.209  0.2448  0.0723 -0.2550
 4667SOL    HW125463   1.609   2.254  13.232  0.6036  1.1561  1.2304
 4667SOL    HW225464   1.537   2.370  13.283 -0.2389 -0.7731  0.4513
 4668SOL     OW25465   1.943   1.102   1.057 -0.2509 -0.0612 -0.1128
 4668SOL    HW125466   1.960   1.023   1.107 -1.8612 -0.0764  0.4072
 4668SOL    HW225467   2.019   1.118   1.001  1.0169  0.1459  1.6921
 4669SOL     OW25468   0.601   2.952   6.545  0.1088 -0.3295  0.2476
 4669SOL    HW125469   0.560   2.866   6.533  0.2447 -0.0466 -2.1885
 4669SOL    HW225470   0.540   3.012   6.587 -0.6721  0.0019 -1.3670
 4670SOL     OW25471   4.492   3.774   6.777 -0.0401 -0.0769 -0.2459
 4670SOL    HW125472   4.542   3.831   6.836  1.0781  0.7359 -1.9765
 4670SOL    HW225473   4.556   3.709   6.749 -0.7187 -1.2182  0.8378
 4671SOL     OW25474   2.393   0.302   4.323 -0.1494 -0.4384 -0.1483
 4671SOL    HW125475   2.400   0.210   4.347  0.1251 -0.9170 -2.0352
 4671SOL    HW225476   2.367   0.350   4.402  1.1254  0.1744 -0.1085
 4672SOL     OW25477   3.397   1.917   3.949 -0.2018 -0.2180 -0.2227
 4672SOL    HW125478   3.448   1.930   4.029  1.3482 -0.3231 -1.2073
 4672SOL    HW225479   3.412   1.824   3.934  2.1356 -0.1673  1.7976
 4673SOL     OW25480   0.017   3.175  10.968 -0.6133  0.4951 -0.0332
 4673SOL    HW125481   4.676   3.211  10.906  1.1645  2.2603 -0.8258
 4673SOL    HW225482   0.034   3.264  10.998  4.6802 -0.0937 -1.2604
 4674SOL     OW25483   3.860   0.511   1.952  0.2016 -0.2368  0.3561
 4674SOL    HW125484   3.813   0.559   1.884  0.4745  1.1914  1.1765
 4674SOL    HW225485   3.946   0.552   1.956  0.6107 -0.9498 -1.6303
 4675SOL     OW25486   4.264   4.560   4.012  0.8044  0.5447 -0.0748
 4675SOL    HW125487   4.205   4.502   3.964  1.3430 -0.1090  0.0605
 4675SOL    HW225488   4.239   4.639   3.962  0.5147  0.7111  0.3320
 4676SOL     OW25489   1.958   0.985   3.906 -0.4916 -0.2576  0.2282
 4676SOL    HW125490   2.035   0.928   3.902 -1.3552 -1.3828 -0.3057
 4676SOL    HW225491   1.917   0.959   3.824  0.2490  1.1287 -0.5753
 4677SOL     OW25492   2.807   4.454   9.282  0.5136 -0.5466 -0.1675
 4677SOL    HW125493   2.747   4.474   9.210  0.2581  0.6371  0.3634
 4677SOL    HW225494   2.827   4.363   9.261  1.9540 -0.5859  1.3288
 4678SOL     OW25495   3.473   1.197  11.688 -0.2705 -0.1114 -0.0269
 4678SOL    HW125496   3.508   1.156  11.609  0.6588 -1.2343  0.9574
 4678SOL    HW225497   3.384   1.162  11.686 -0.1179 -0.4855 -0.2861
 4679SOL     OW25498   3.812   3.208   8.717 -0.5431  0.1146 -0.0975
 4679SOL    HW125499   3.728   3.229   8.756  0.0972 -0.4975  1.6117
 4679SOL    HW225500   3.853   3.294   8.708  0.1978  0.0891  2.8995
 4680SOL     OW25501   0.470   0.353  16.723 -0.1144 -0.4431 -0.0498
 4680SOL    HW125502   0.425   0.346  16.808 -0.2416 -1.0790 -0.1762
 4680SOL    HW225503   0.560   0.348  16.753 -0.6487 -1.9190  1.3324
 4681SOL     OW25504   0.470   0.533   4.441  0.3948 -0.4848  0.8345
 4681SOL    HW125505   0.456   0.460   4.381 -4.0803  0.7411  0.4122
 4681SOL    HW225506   0.542   0.582   4.401  0.5964  0.9045  2.9032
 4682SOL     OW25507   0.560   2.279  17.363 -0.4757  0.1719 -0.2838
 4682SOL    HW125508   0.503   2.203  17.351  0.2327 -0.2979 -0.6558
 4682SOL    HW225509   0.627   2.261  17.297  0.6456 -2.0270  1.4806
 4683SOL     OW25510   0.650   2.321  17.618 -0.4618  0.5600  0.5562
 4683SOL    HW125511   0.606   2.300  17.535  0.8990  3.0322 -0.8096
 4683SOL    HW225512   0.579   2.371  17.659 -0.1222  2.0657 -0.7009
 4684SOL     OW25513   0.997   1.557   6.295 -0.4155 -0.1344 -0.5980
 4684SOL    HW125514   1.080   1.513   6.310  1.9218  4.5139  0.2872
 4684SOL    HW225515   0.933   1.501   6.339  0.8895 -0.8772  0.3511
 4685SOL     OW25516   3.059   3.360   8.165  0.5209  0.0108  0.0390
 4685SOL    HW125517   3.132   3.394   8.113  0.3413  1.3873  0.6798
 4685SOL    HW225518   2.984   3.385   8.111  0.8080  1.0854  0.1324
 4686SOL     OW25519   1.737   3.348   2.286  0.1270 -0.1990 -0.1990
 4686SOL    HW125520   1.785   3.428   2.266  1.3513 -0.5343  1.3961
 4686SOL    HW225521   1.674   3.354   2.214  0.7246 -0.5743 -0.7463
 4687SOL     OW25522   1.236   4.028  10.365 -0.0537  0.4114  0.2769
 4687SOL    HW125523   1.216   3.942  10.328 -0.5646  0.5291  0.2815
 4687SOL    HW225524   1.281   4.065  10.289  1.1140  1.5379  1.5167
 4688SOL     OW25525   0.071   0.089   2.689  0.0857 -0.3643  0.4674
 4688SOL    HW125526   0.119   0.158   2.643 -1.0199 -0.4921 -0.8717
 4688SOL    HW225527   0.029   0.049   2.614  1.8133  0.2781 -0.8379
 4689SOL     OW25528   1.569   4.210   8.361  0.3344  0.5116  0.0480
 4689SOL    HW125529   1.590   4.229   8.270 -2.1544  0.4064 -0.5284
 4689SOL    HW225530   1.474   4.203   8.360  0.4865 -1.6874  0.4416
 4690SOL     OW25531   2.400   4.015  14.564 -0.1767 -0.2208 -0.2594
 4690SOL    HW125532   2.428   3.952  14.630 -1.8651 -1.1720 -0.4626
 4690SOL    HW225533   2.473   4.077  14.565 -0.7042  0.3707  1.6272
 4691SOL     OW25534   4.653   0.262   1.316  0.1734  0.3350 -0.6937
 4691SOL    HW125535   4.644   0.184   1.262  1.9302 -0.6265  0.4067
 4691SOL    HW225536   0.009   0.302   1.279  1.5994 -0.2925  1.6214
 4692SOL     OW25537   4.193   4.083   4.934  0.3807  0.0144  0.3180
 4692SOL    HW125538   4.246   4.145   4.983  0.1047  1.4073 -1.1736
 4692SOL    HW225539   4.106   4.107   4.966  0.0073  0.3457 -0.9377
 4693SOL     OW25540   2.031   1.962   2.797 -0.5575 -0.1290  0.3494
 4693SOL    HW125541   2.025   1.871   2.824 -1.8014 -0.1984 -0.1707
 4693SOL    HW225542   2.065   1.954   2.707  0.7775 -0.9479  0.9282
 4694SOL     OW25543   2.525   2.182   8.885  0.1964  0.0083 -0.1083
 4694SOL    HW125544   2.481   2.124   8.823  0.8257 -1.2049  0.5756
 4694SOL    HW225545   2.455   2.212   8.943 -0.6510 -0.2971 -0.9892
 4695SOL     OW25546   3.393   0.792   7.715 -0.0174 -0.2307 -0.2714
 4695SOL    HW125547   3.447   0.825   7.787  1.3815  0.7022 -1.7524
 4695SOL    HW225548   3.317   0.850   7.718 -0.1150 -0.3122 -1.0168
 4696SOL     OW25549   1.087   0.339   2.946 -0.1455 -0.3842 -0.1740
 4696SOL    HW125550   1.054   0.249   2.940  0.0176 -0.4735  0.2596
 4696SOL    HW225551   1.009   0.384   2.914  1.8190  2.9623 -0.2086
 4697SOL     OW25552   0.057   2.113   0.832  0.1310 -0.8560 -0.0019
 4697SOL    HW125553   0.050   2.018   0.837  1.9016 -1.1282 -2.4817
 4697SOL    HW225554   4.716   2.130   0.762 -2.1139 -1.3470  1.9096
 4698SOL     OW25555   3.658   2.122   5.241 -0.1033  0.3884 -0.1902
 4698SOL    HW125556   3.611   2.048   5.280  0.0796 -0.0952 -0.8895
 4698SOL    HW225557   3.706   2.084   5.167 -0.6168  0.0217 -0.3296
 4699SOL     OW25558   4.034   0.496   2.590  0.0807  0.4632  0.1349
 4699SOL    HW125559   4.092   0.447   2.531 -1.8400 -0.7385 -0.7367
 4699SOL    HW225560   3.993   0.554   2.525 -0.9210 -0.5885 -0.1599
 4700SOL     OW25561   0.422   2.124   5.430 -0.1344  0.1794  0.0099
 4700SOL    HW125562   0.405   2.195   5.368  0.1618 -0.2166 -0.5322
 4700SOL    HW225563   0.517   2.125   5.443  0.0829 -1.2060 -1.3828
 4701SOL     OW25564   0.597   3.964   7.223  0.4098 -0.1321  0.0473
 4701SOL    HW125565   0.572   3.969   7.131 -1.3784 -2.4328  0.4223
 4701SOL    HW225566   0.533   4.022   7.265  0.9238  0.4481  0.0373
 4702SOL     OW25567   0.647   0.676   4.972  0.4587  0.7983  0.3194
 4702SOL    HW125568   0.623   0.604   5.029  0.4266  1.4512  1.1244
 4702SOL    HW225569   0.562   0.721   4.969  0.5202  1.0080  2.0153
 4703SOL     OW25570   4.232   3.244  15.915  0.9128  0.4941 -0.2488
 4703SOL    HW125571   4.317   3.263  15.956 -0.2181 -0.8250  2.6637
 4703SOL    HW225572   4.242   3.299  15.838 -0.0858  0.5358 -0.3433
 4704SOL     OW25573   3.147   3.201   9.721 -0.2035 -0.3129  0.1135
 4704SOL    HW125574   3.135   3.131   9.785  2.0001  0.7876  1.6991
 4704SOL    HW225575   3.056   3.234   9.723 -0.8055 -2.0096  0.5005
 4705SOL     OW25576   2.064   3.999   9.236  0.5702 -0.6387  0.0906
 4705SOL    HW125577   1.985   4.032   9.192 -0.9627 -1.2221  2.4169
 4705SOL    HW225578   2.126   3.995   9.164  1.0064 -0.8466  0.4819
 4706SOL     OW25579   3.928   4.454   9.294 -0.3765 -0.1968 -0.0164
 4706SOL    HW125580   3.921   4.364   9.326  1.5863 -0.6427 -0.7950
 4706SOL    HW225581   3.843   4.489   9.319  0.1793  1.1588  0.0036
 4707SOL     OW25582   1.963   4.187   0.606 -0.0690  0.3272  0.3983
 4707SOL    HW125583   1.947   4.120   0.672  2.0426 -0.5519  0.0015
 4707SOL    HW225584   1.956   4.267   0.658 -3.0086 -0.4152  1.1645
 4708SOL     OW25585   2.553   3.675   5.862  0.2553 -0.3517  0.1213
 4708SOL    HW125586   2.597   3.716   5.936  1.4785 -2.1858  0.4342
 4708SOL    HW225587   2.565   3.748   5.801  1.3472  0.1231  0.9072
 4709SOL     OW25588   2.253   2.516  11.722  0.0376 -0.3568 -0.3188
 4709SOL    HW125589   2.276   2.534  11.631 -0.2572  1.3304 -0.0591
 4709SOL    HW225590   2.158   2.511  11.721  0.0815 -1.1464 -0.4384
 4710SOL     OW25591   1.201   2.414   6.910  0.0347 -0.0581 -1.0407
 4710SOL    HW125592   1.225   2.503   6.883 -0.8094  0.9576  1.5479
 4710SOL    HW225593   1.111   2.412   6.878 -0.4940 -0.2093  0.5020
 4711SOL     OW25594   2.750   0.112   3.536  0.1017  0.2731  0.4618
 4711SOL    HW125595   2.822   0.173   3.553 -0.9071  1.1323  1.6163
 4711SOL    HW225596   2.731   0.121   3.442  2.4334 -1.1420 -0.1592
 4712SOL     OW25597   0.799   2.960   9.868  0.1531  0.6387  0.3252
 4712SOL    HW125598   0.828   2.870   9.881 -2.3794 -0.1887  0.2101
 4712SOL    HW225599   0.860   3.010   9.922  1.3211  0.8585 -1.1759
 4713SOL     OW25600   0.778   2.190   6.011 -0.1427  0.3271 -0.2001
 4713SOL    HW125601   0.781   2.096   5.996 -1.8045  0.0671  1.0707
 4713SOL    HW225602   0.803   2.230   5.927 -0.5336 -1.0139 -0.9565
 4714SOL     OW25603   1.571   2.801   7.577 -0.4195  0.2178 -0.3590
 4714SOL    HW125604   1.536   2.763   7.496 -0.3347 -2.7447  1.0124
 4714SOL    HW225605   1.550   2.894   7.584 -2.9825 -0.4349  0.7778
 4715SOL     OW25606   2.879   2.487   6.481  0.3194  0.2090 -0.8090
 4715SOL    HW125607   2.931   2.524   6.551  1.9981 -1.0029 -1.4153
 4715SOL    HW225608   2.899   2.394   6.470 -0.7581 -0.1258  0.0631
 4716SOL     OW25609   3.139   3.174   5.712 -0.1008  0.1297  0.9165
 4716SOL    HW125610   3.178   3.249   5.668 -0.2820 -0.5987 -0.4947
 4716SOL    HW225611   3.183   3.180   5.796  2.5610 -0.1602 -0.4433
 4717SOL     OW25612   4.612   0.921  11.763  0.6236  0.1160  0.5261
 4717SOL    HW125613   4.678   0.857  11.789  2.1344  1.9041  1.1240
 4717SOL    HW225614   4.619   1.000  11.817 -0.9634  0.0665  0.8339
 4718SOL     OW25615   4.296   1.411   1.143  0.2474 -0.2014  0.4975
 4718SOL    HW125616   4.230   1.430   1.076 -1.9024  2.1077  3.2974
 4718SOL    HW225617   4.249   1.449   1.217  0.6819  1.2084  0.0507
 4719SOL     OW25618   4.452   4.627   8.502  0.2968 -0.4470 -0.1857
 4719SOL    HW125619   4.416   4.685   8.435 -0.1654  1.5380  1.7673
 4719SOL    HW225620   4.495   4.564   8.446  0.8191 -0.3782  0.1438
 4720SOL     OW25621   3.146   0.363   4.982  0.4908  0.2813  0.5603
 4720SOL    HW125622   3.190   0.447   4.996 -0.8374  0.7219  2.0618
 4720SOL    HW225623   3.224   0.321   4.946 -0.7030  0.3488 -2.1343
 4721SOL     OW25624   4.107   4.651  14.115  0.0441 -0.2253  0.0828
 4721SOL    HW125625   4.102   0.023  14.132  1.2026 -0.1638  0.0961
 4721SOL    HW225626   4.192   4.639  14.074  0.4439 -0.8980  1.0954
 4722SOL     OW25627   2.131   3.197  10.604  0.2394 -0.4422 -0.0920
 4722SOL    HW125628   2.163   3.285  10.584 -2.3556  0.8945  1.6626
 4722SOL    HW225629   2.037   3.199  10.585 -0.4960 -0.5266  3.4618
 4723SOL     OW25630   3.845   0.034   5.596  0.0776 -0.4010  0.1447
 4723SOL    HW125631   3.808   4.692   5.536 -1.3111  0.2549  0.2945
 4723SOL    HW225632   3.938   0.017   5.585  0.3096  0.4603  0.7592
 4724SOL     OW25633   1.905   0.340   7.912 -0.1385 -0.4998 -0.1826
 4724SOL    HW125634   1.900   0.394   7.834  1.2811 -0.4251 -0.2188
 4724SOL    HW225635   1.999   0.326   7.917  0.0640  1.5069  1.7681
 4725SOL     OW25636   2.421   0.955   5.055 -0.3489 -0.6195 -0.3515
 4725SOL    HW125637   2.339   0.998   5.034  0.3386 -0.2104 -2.2494
 4725SOL    HW225638   2.481   1.029   5.048 -0.9353 -0.0344  0.9652
 4726SOL     OW25639   2.814   4.025   7.251  0.2993 -0.2109 -0.1626
 4726SOL    HW125640   2.803   3.948   7.196 -0.4163  0.0550 -0.3931
 4726SOL    HW225641   2.860   4.088   7.195  1.9174 -2.4741 -1.3816
 4727SOL     OW25642   3.382   0.205   8.463 -0.5429 -0.1749 -0.1235
 4727SOL    HW125643   3.301   0.157   8.479 -0.4755 -0.7682 -1.4969
 4727SOL    HW225644   3.432   0.140   8.413 -0.5664 -0.7267  0.5713
 4728SOL     OW25645   1.747   0.447  11.603 -0.1195  0.4618 -0.0870
 4728SOL    HW125646   1.753   0.457  11.698 -0.7315 -0.5713  0.0663
 4728SOL    HW225647   1.651   0.443  11.598 -0.0554 -0.3268 -0.7402
 4729SOL     OW25648   2.271   1.921   3.817 -0.5399 -0.0073  0.2304
 4729SOL    HW125649   2.222   1.867   3.879 -0.0559  1.2912  1.7634
 4729SOL    HW225650   2.307   1.985   3.880  1.0855 -0.2202 -0.4944
 4730SOL     OW25651   2.129   3.315   1.579 -0.2439  0.2195  0.7567
 4730SOL    HW125652   2.167   3.340   1.495  0.5673  2.7341  1.8671
 4730SOL    HW225653   2.147   3.392   1.633  0.5087  0.3588  0.3031
 4731SOL     OW25654   1.792   2.126   6.697 -0.0225 -0.9419 -0.7538
 4731SOL    HW125655   1.729   2.064   6.659  0.7031 -0.6776 -2.3797
 4731SOL    HW225656   1.734   2.159   6.765  1.5800  2.1404 -0.9063
 4732SOL     OW25657   4.188   2.240   2.963  0.4334  0.0826  0.1144
 4732SOL    HW125658   4.122   2.194   2.912 -2.2842  2.1744  1.7055
 4732SOL    HW225659   4.147   2.326   2.973  0.7270  0.1626  0.6685
 4733SOL     OW25660   2.225   3.293   7.799  0.0397  0.0977 -0.3558
 4733SOL    HW125661   2.135   3.328   7.802  0.9354  2.3902  0.0269
 4733SOL    HW225662   2.201   3.203   7.821  0.4290  0.2333  0.6186
 4734SOL     OW25663   4.364   0.226   8.023 -0.0065 -0.4566 -0.2121
 4734SOL    HW125664   4.386   0.273   8.103 -0.7721 -0.9977  0.3118
 4734SOL    HW225665   4.396   0.137   8.036 -1.0607 -0.9702 -1.1419
 4735SOL     OW25666   3.812   2.716   6.339  0.0837 -0.4123 -0.3072
 4735SOL    HW125667   3.907   2.723   6.345 -0.1168  0.8309  1.4226
 4735SOL    HW225668   3.787   2.705   6.431  4.2273 -3.3313  0.4813
 4736SOL     OW25669   0.292   0.567  13.475  0.2091 -0.4231 -0.0397
 4736SOL    HW125670   0.314   0.651  13.434  0.4954  0.0009  0.9859
 4736SOL    HW225671   0.224   0.522  13.426 -0.7948  1.2250 -0.1573
 4737SOL     OW25672   3.538   0.206   3.072  0.3710  0.5040 -0.3439
 4737SOL    HW125673   3.579   0.157   3.143 -0.8984  0.2948  0.2297
 4737SOL    HW225674   3.577   0.153   3.002  0.8995  0.8021 -0.2728
 4738SOL     OW25675   2.996   1.800   8.928 -0.0169  0.0811 -0.5421
 4738SOL    HW125676   2.923   1.862   8.928  0.5954  0.7915 -0.9880
 4738SOL    HW225677   2.963   1.742   8.859  2.6924 -3.3487  1.0693
 4739SOL     OW25678   3.251   0.127   9.809 -0.1949 -0.4706 -0.0933
 4739SOL    HW125679   3.321   0.188   9.833  0.0178 -0.7447 -0.0127
 4739SOL    HW225680   3.299   0.044   9.800  0.3098 -0.0633 -1.1925
 4740SOL     OW25681   3.694   3.922   7.442 -0.0454  0.5060  0.2140
 4740SOL    HW125682   3.767   3.960   7.392 -1.8379 -0.2757 -3.0010
 4740SOL    HW225683   3.633   3.994   7.455 -0.8951  0.2949 -2.4944
 4741SOL     OW25684   3.475   0.369   3.397 -0.6988 -0.5184  0.6948
 4741SOL    HW125685   3.532   0.300   3.364  1.7255  1.0341  1.5891
 4741SOL    HW225686   3.398   0.348   3.344 -1.4628 -1.5567  2.2202
 4742SOL     OW25687   0.755   0.554   8.793  0.2053 -0.1815  0.0231
 4742SOL    HW125688   0.678   0.574   8.846 -1.6160 -0.3351 -2.5766
 4742SOL    HW225689   0.744   0.459   8.779  0.1345 -0.6638  3.4215
 4743SOL     OW25690   3.041   4.379  15.619 -0.7606 -0.1100  0.5572
 4743SOL    HW125691   2.977   4.351  15.554  0.1838 -1.5758  0.2390
 4743SOL    HW225692   3.013   4.468  15.638  1.4644  0.7907 -0.3580
 4744SOL     OW25693   1.724   0.771   6.148 -0.5855  0.4298 -0.4147
 4744SOL    HW125694   1.661   0.842   6.138 -1.6561 -0.4974 -0.2092
 4744SOL    HW225695   1.766   0.771   6.062 -1.2467 -1.8540 -0.7326
 4745SOL     OW25696   3.600   3.056   3.440  0.2789 -0.4402  0.3276
 4745SOL    HW125697   3.540   2.999   3.392 -1.3384  0.9360  0.7395
 4745SOL    HW225698   3.677   3.042   3.384 -0.6942  1.4209 -1.4562
 4746SOL     OW25699   1.244   0.909   3.926 -0.1881 -0.0612 -0.7504
 4746SOL    HW125700   1.200   0.823   3.925  1.2156 -0.7561 -2.1849
 4746SOL    HW225701   1.253   0.915   3.831  2.0415 -2.0854 -0.6810
 4747SOL     OW25702   3.979   3.317   6.429 -0.0972  0.5770 -0.1003
 4747SOL    HW125703   3.916   3.376   6.389 -0.5982 -0.4896 -0.9031
 4747SOL    HW225704   3.941   3.313   6.517 -1.7739 -0.3875 -0.8738
 4748SOL     OW25705   0.373   1.230   4.895  0.4763 -0.4273 -0.0827
 4748SOL    HW125706   0.455   1.249   4.939 -0.7200  1.9505  1.1294
 4748SOL    HW225707   0.404   1.224   4.804 -0.7587 -0.9324 -0.4798
 4749SOL     OW25708   4.365   1.939  16.591 -0.2784  0.1403 -0.4949
 4749SOL    HW125709   4.422   1.984  16.654 -2.3214  0.9199  0.7896
 4749SOL    HW225710   4.437   1.913  16.533  0.3266 -1.3808  0.9523
 4750SOL     OW25711   4.518   2.318   5.697 -0.9022  0.5741  0.2046
 4750SOL    HW125712   4.550   2.273   5.619  1.2754  1.2276  0.7208
 4750SOL    HW225713   4.575   2.394   5.688 -0.4975  0.1974 -0.3414
 4751SOL     OW25714   1.060   0.740   0.354  0.3356  0.1787  0.1941
 4751SOL    HW125715   1.143   0.758   0.312 -0.8603  1.8266 -1.4588
 4751SOL    HW225716   1.028   0.830   0.354  1.1499  0.4681  1.7281
 4752SOL     OW25717   4.109   0.614   7.635  0.1168  0.3912 -0.2983
 4752SOL    HW125718   4.174   0.665   7.586 -1.4874  1.9248 -0.8441
 4752SOL    HW225719   4.163   0.546   7.675 -1.1138 -1.3550 -1.5846
 4753SOL     OW25720   2.354   3.057   3.933 -0.1465 -0.3246 -0.2601
 4753SOL    HW125721   2.294   2.984   3.952  1.1028 -1.1426  0.5802
 4753SOL    HW225722   2.437   3.023   3.967  0.1475 -0.7932 -1.4093
 4754SOL     OW25723   3.568   4.510   4.338  0.4107 -0.6116 -0.2459
 4754SOL    HW125724   3.640   4.507   4.276 -0.5314 -0.4819 -1.3491
 4754SOL    HW225725   3.511   4.574   4.295 -1.2691 -2.6379 -1.0301
 4755SOL     OW25726   0.583   3.901   4.645  0.4384 -0.0478  0.4594
 4755SOL    HW125727   0.572   3.919   4.739  1.4615  0.5270  0.4681
 4755SOL    HW225728   0.645   3.829   4.651 -0.7858 -0.9882  1.9881
 4756SOL     OW25729   3.503   0.368   3.835 -0.2402 -0.0648  0.0565
 4756SOL    HW125730   3.538   0.446   3.880 -3.6047  0.2586  2.1033
 4756SOL    HW225731   3.578   0.358   3.776 -0.0229 -1.5741  0.6039
 4757SOL     OW25732   3.954   2.890   6.094 -0.0950 -0.0903 -0.4316
 4757SOL    HW125733   3.984   2.861   6.007 -1.0073  0.6804 -1.0053
 4757SOL    HW225734   3.927   2.811   6.140  0.3719  0.2583  0.4331
 4758SOL     OW25735   1.282   1.917   2.699 -0.2328 -0.2344 -0.2861
 4758SOL    HW125736   1.255   1.826   2.711 -0.8459 -0.0346 -0.1261
 4758SOL    HW225737   1.203   1.960   2.666 -0.2262  1.7038  2.1569
 4759SOL     OW25738   4.108   1.165   8.367  0.3047  0.2539 -0.2571
 4759SOL    HW125739   4.101   1.184   8.460  0.6478 -0.2774 -0.1223
 4759SOL    HW225740   4.135   1.074   8.382 -0.0704  0.2459  0.3959
 4760SOL     OW25741   0.091   2.628   6.250  0.7646  0.1863  0.0958
 4760SOL    HW125742   0.072   2.543   6.210  0.8249  0.0600  0.3385
 4760SOL    HW225743   0.152   2.666   6.186  0.0844  1.1030 -0.0035
 4761SOL     OW25744   2.369   0.053  10.374 -0.3715  0.3035  0.1179
 4761SOL    HW125745   2.337   4.691  10.344 -0.4465  1.1061 -2.1021
 4761SOL    HW225746   2.292   0.108  10.359 -0.5496 -0.0875 -0.3797
 4762SOL     OW25747   4.721   1.996   2.843  0.5021 -0.2507 -0.0286
 4762SOL    HW125748   4.700   1.903   2.847 -1.5316  0.2789  1.6484
 4762SOL    HW225749   4.720   2.006   2.747  0.1474  1.1449  0.1274
 4763SOL     OW25750   1.712   2.261   5.108  0.7542 -0.2755  0.1651
 4763SOL    HW125751   1.696   2.344   5.063 -1.3401 -0.6979  0.0933
 4763SOL    HW225752   1.711   2.277   5.202  0.4163  2.8589 -0.3875
 4764SOL     OW25753   3.351   4.298   6.238  0.4425  0.6039  0.3006
 4764SOL    HW125754   3.393   4.254   6.164 -0.8330 -4.4797  2.6677
 4764SOL    HW225755   3.390   4.245   6.307 -1.5449  0.5779  1.4039
 4765SOL     OW25756   1.444   4.215   0.083  0.4629 -0.6891 -0.6196
 4765SOL    HW125757   1.464   4.286   0.022 -3.2729  1.7181  0.8780
 4765SOL    HW225758   1.409   4.156   0.017  0.0848 -0.0386 -1.0074
 4766SOL     OW25759   3.864   3.238  17.134 -0.6293  0.1097  0.3242
 4766SOL    HW125760   3.953   3.221  17.165 -0.6990  0.4507  0.7155
 4766SOL    HW225761   3.858   3.333  17.144  0.1221  0.3424 -1.4103
 4767SOL     OW25762   3.286   3.860   3.941  0.3749  0.0520 -0.6260
 4767SOL    HW125763   3.267   3.918   4.015 -0.1563 -0.8788 -0.0414
 4767SOL    HW225764   3.371   3.822   3.962 -0.2141 -1.7670 -1.5918
 4768SOL     OW25765   2.073   3.747   0.919 -0.1512 -0.5229  0.8024
 4768SOL    HW125766   2.120   3.819   0.962  1.0404 -1.3872  0.9523
 4768SOL    HW225767   2.137   3.676   0.908  0.7285  0.1350  1.6270
 4769SOL     OW25768   4.278   0.923   2.805  0.3569 -0.4451 -0.0254
 4769SOL    HW125769   4.333   0.967   2.740 -1.4975  0.6453 -0.8477
 4769SOL    HW225770   4.192   0.932   2.765  1.8655 -1.2880 -3.3881
 4770SOL     OW25771   0.117   3.274   8.602  0.1319  0.0513  0.0795
 4770SOL    HW125772   0.152   3.191   8.634 -1.9302  0.3261  3.0503
 4770SOL    HW225773   0.189   3.302   8.546 -0.4408  0.2684 -0.5468
 4771SOL     OW25774   2.812   3.453  13.742  0.5181  0.0674  0.2425
 4771SOL    HW125775   2.772   3.395  13.678 -1.9203  0.0829  1.7637
 4771SOL    HW225776   2.735   3.481  13.792 -1.6642 -1.2324 -2.4293
 4772SOL     OW25777   1.387   2.110  13.021 -0.8729  0.0010 -0.3423
 4772SOL    HW125778   1.467   2.128  12.972 -0.9306 -0.3594 -0.5674
 4772SOL    HW225779   1.403   2.151  13.106  1.1502  0.1575 -0.7965
 4773SOL     OW25780   3.450   2.587   4.898  0.6933  0.3186 -0.6201
 4773SOL    HW125781   3.417   2.580   4.987 -1.2916 -2.2702 -1.5542
 4773SOL    HW225782   3.439   2.495   4.871 -1.0777 -0.2152  1.9368
 4774SOL     OW25783   0.580   0.861  14.342 -0.1299  0.0897  0.0197
 4774SOL    HW125784   0.645   0.870  14.272 -1.1004 -1.1808 -1.0346
 4774SOL    HW225785   0.611   0.934  14.397 -3.9959  0.2953  1.9310
 4775SOL     OW25786   4.547   1.043   2.938  0.7828  0.2596 -0.0764
 4775SOL    HW125787   4.564   1.040   2.844  0.0983 -0.0693 -0.1887
 4775SOL    HW225788   4.609   0.976   2.968  0.1321  0.3362  1.4444
 4776SOL     OW25789   0.636   1.608   8.869  0.4254  0.2365 -0.6343
 4776SOL    HW125790   0.633   1.571   8.781 -0.4160  1.3863 -1.0837
 4776SOL    HW225791   0.717   1.564   8.895  0.9335  1.8967  0.6498
 4777SOL     OW25792   3.104   4.516   7.078 -0.2199  0.7122  0.6901
 4777SOL    HW125793   3.180   4.459   7.084 -1.0703 -0.5500 -0.4247
 4777SOL    HW225794   3.138   4.601   7.105  0.8796  0.2844  0.6585
 4778SOL     OW25795   4.287   4.086   0.847 -0.1927  0.0361 -0.0209
 4778SOL    HW125796   4.201   4.079   0.806  0.4937 -2.4718 -1.0435
 4778SOL    HW225797   4.337   4.129   0.777  3.7638 -2.1794  1.4677
 4779SOL     OW25798   3.532   4.539   2.206 -0.0236  0.4910 -0.2190
 4779SOL    HW125799   3.610   4.584   2.172  1.2124  0.0712  2.0983
 4779SOL    HW225800   3.569   4.476   2.267 -1.2234  0.6412  0.6425
 4780SOL     OW25801   1.828   1.228   6.835  1.0773  0.1244 -0.4601
 4780SOL    HW125802   1.853   1.293   6.901 -0.8038  0.7147 -0.3370
 4780SOL    HW225803   1.736   1.216   6.856  1.1927 -0.5273 -0.3421
 4781SOL     OW25804   4.636   0.696   8.635 -0.6787 -0.2027  0.0592
 4781SOL    HW125805   4.708   0.736   8.685 -0.8819  0.4128 -0.1365
 4781SOL    HW225806   4.663   0.651   8.555  0.4154 -0.5027  0.5938
 4782SOL     OW25807   3.245   1.760  11.736 -0.4743  0.0610  0.0716
 4782SOL    HW125808   3.266   1.853  11.737 -0.3136  0.0234  0.2626
 4782SOL    HW225809   3.239   1.750  11.641  0.5813  0.6642 -0.0624
 4783SOL     OW25810   1.592   2.262  12.257 -0.2001  0.7211 -0.1402
 4783SOL    HW125811   1.525   2.216  12.309 -0.2433 -0.3606 -1.1328
 4783SOL    HW225812   1.547   2.237  12.176 -0.8291  1.8701 -0.1411
 4784SOL     OW25813   1.713   3.488   0.634 -0.2220 -0.1988 -0.7442
 4784SOL    HW125814   1.753   3.523   0.713  1.2477 -0.6082 -1.3103
 4784SOL    HW225815   1.771   3.413   0.623 -0.8866 -0.6555 -1.1390
 4785SOL     OW25816   0.435   3.498   3.756  0.4605 -0.3435  0.3955
 4785SOL    HW125817   0.475   3.549   3.686  1.2332  1.4135  2.1147
 4785SOL    HW225818   0.384   3.431   3.712 -1.2033  1.5056 -0.4895
 4786SOL     OW25819   3.078   2.250  14.193  0.2213 -0.1559  0.2005
 4786SOL    HW125820   3.034   2.224  14.112 -1.3114 -0.4187  1.1196
 4786SOL    HW225821   3.018   2.224  14.263 -0.9146  1.2097 -0.2744
 4787SOL     OW25822   4.532   4.623   5.224  0.0554 -0.1411  0.3312
 4787SOL    HW125823   4.459   4.654   5.170  2.0995  3.1575 -0.5270
 4787SOL    HW225824   4.577   4.559   5.169 -2.0589 -1.1540 -0.2363
 4788SOL     OW25825   2.630   2.654  10.594 -1.1730 -0.4440  0.5491
 4788SOL    HW125826   2.671   2.573  10.624 -0.1618 -0.6204 -1.2717
 4788SOL    HW225827   2.679   2.722  10.640 -0.0726  0.6244 -2.2222
 4789SOL     OW25828   0.132   0.873   6.048  0.1120  0.0065  0.0447
 4789SOL    HW125829   0.074   0.938   6.089  0.2145  1.2973 -1.8222
 4789SOL    HW225830   0.219   0.905   6.070  0.8646 -2.4268  0.5618
 4790SOL     OW25831   0.297   4.082   3.758 -0.6509  0.0504  0.3546
 4790SOL    HW125832   0.249   4.147   3.809  0.5341 -0.6271  2.3404
 4790SOL    HW225833   0.378   4.070   3.807  0.2369  0.4626 -1.0355
 4791SOL     OW25834   4.667   2.208   5.487  0.2358 -0.3455 -0.4390
 4791SOL    HW125835   0.035   2.212   5.517  0.1779 -1.2051 -0.1604
 4791SOL    HW225836   4.682   2.246   5.400  0.3394 -1.7967 -1.0515
 4792SOL     OW25837   0.687   1.222   4.812 -0.1870  0.3329  0.4150
 4792SOL    HW125838   0.701   1.128   4.814 -2.8860 -0.0746  0.5433
 4792SOL    HW225839   0.739   1.265   4.881  1.3167  0.3169 -0.7129
 4793SOL     OW25840   0.472   4.668   9.503  0.5427  0.3144  0.4309
 4793SOL    HW125841   0.458   4.584   9.459  1.9318  0.9283 -1.1670
 4793SOL    HW225842   0.401   4.676   9.568  0.7794  2.2050  0.4387
 4794SOL     OW25843   4.289   3.976   6.478  0.9780  0.0180 -0.3831
 4794SOL    HW125844   4.312   4.068   6.465  3.7921 -0.6528 -0.2754
 4794SOL    HW225845   4.285   3.949   6.386 -0.2522  0.8619 -0.5788
 4795SOL     OW25846   1.291   1.054   1.983  0.0027  0.1339  0.6934
 4795SOL    HW125847   1.372   1.085   1.942  0.6062 -0.5288  1.3915
 4795SOL    HW225848   1.329   1.001   2.053  2.1507 -1.3964 -1.6529
 4796SOL     OW25849   1.768   1.413   6.285 -0.5794  0.1966  0.4365
 4796SOL    HW125850   1.857   1.430   6.317 -0.2905  1.0706 -0.8144
 4796SOL    HW225851   1.720   1.490   6.316 -1.8001 -0.0525 -0.8691
 4797SOL     OW25852   0.820   0.252  17.552  0.4150 -0.1849  0.1214
 4797SOL    HW125853   0.745   0.272  17.496 -0.4541 -0.8303  1.0624
 4797SOL    HW225854   0.867   0.335  17.538  1.1717 -0.6975 -0.3742
 4798SOL     OW25855   0.220   2.785  15.148  0.8512  1.0083  0.5184
 4798SOL    HW125856   0.303   2.830  15.134  0.4949  1.5670  0.1977
 4798SOL    HW225857   0.257   2.699  15.165  1.2614  0.9727 -0.5419
 4799SOL     OW25858   2.924   4.640  15.900  0.4478 -0.1955  0.5798
 4799SOL    HW125859   2.921   4.631  15.995 -1.8120 -0.9835  0.4344
 4799SOL    HW225860   2.868   4.567  15.874 -0.0739  0.8881 -1.3810
 4800SOL     OW25861   3.170   3.487   5.953 -0.3915 -0.1056 -0.0854
 4800SOL    HW125862   3.201   3.563   5.904  0.3785 -0.1502  0.3307
 4800SOL    HW225863   3.139   3.527   6.034  0.6905  2.0930 -0.7431
 4801SOL     OW25864   2.365   0.501   2.579 -0.0649 -0.1196 -0.1293
 4801SOL    HW125865   2.269   0.508   2.577 -0.2540 -2.2127  1.6732
 4801SOL    HW225866   2.382   0.485   2.486  0.0455  1.0961 -0.3238
 4802SOL     OW25867   3.281   1.951  13.095  0.6481  0.3386 -0.4551
 4802SOL    HW125868   3.202   1.994  13.062  0.1936 -0.2727 -0.1686
 4802SOL    HW225869   3.349   2.008  13.059 -0.3247  2.4276  0.9524
 4803SOL     OW25870   4.015   2.410   2.010 -0.4096  0.0242  0.5589
 4803SOL    HW125871   4.050   2.497   1.989  0.5824 -0.4074  0.4472
 4803SOL    HW225872   3.933   2.425   2.057 -0.3007 -0.3044  0.8448
 4804SOL     OW25873   3.770   3.822   2.935 -0.1436 -0.3976 -0.5988
 4804SOL    HW125874   3.808   3.900   2.894 -1.3011  1.7552  2.4054
 4804SOL    HW225875   3.824   3.750   2.901 -1.6998 -1.5161 -0.6839
 4805SOL     OW25876   0.793   1.823  13.217 -0.6190  0.0707  0.4002
 4805SOL    HW125877   0.845   1.785  13.146 -0.8167 -0.3206  0.4669
 4805SOL    HW225878   0.754   1.747  13.260 -0.3956  0.9454  2.1195
 4806SOL     OW25879   3.985   0.158  12.204 -0.4993 -0.7211 -0.8496
 4806SOL    HW125880   4.037   0.211  12.264 -0.7952 -1.8229  0.3659
 4806SOL    HW225881   3.906   0.139  12.254 -1.3153  0.4147 -1.7025
 4807SOL     OW25882   3.456   1.054  17.054 -0.2756 -0.1842  0.4907
 4807SOL    HW125883   3.373   1.084  17.016 -0.3443 -0.6720  0.2598
 4807SOL    HW225884   3.433   1.017  17.139  1.5848 -1.0774  0.6075
 4808SOL     OW25885   4.162   2.878   4.784  0.4621 -0.2563 -0.0523
 4808SOL    HW125886   4.183   2.785   4.775 -3.0499 -0.9445 -1.0962
 4808SOL    HW225887   4.215   2.919   4.716 -1.8373  2.0402 -0.4535
 4809SOL     OW25888   3.259   4.350   5.030  0.1008 -0.0187 -0.2715
 4809SOL    HW125889   3.178   4.306   5.006  1.9632 -3.4272 -0.4167
 4809SOL    HW225890   3.267   4.326   5.122 -1.1004  3.2414  0.6728
 4810SOL     OW25891   2.709   0.278  15.859 -0.2180  0.2523  0.0292
 4810SOL    HW125892   2.750   0.260  15.943 -1.8005  0.4227  0.8312
 4810SOL    HW225893   2.628   0.321  15.883 -0.8398 -1.9646  1.8141
 4811SOL     OW25894   1.645   2.017  11.169  0.8980 -0.1356 -0.0547
 4811SOL    HW125895   1.676   2.045  11.083 -0.6925  1.6166 -0.0573
 4811SOL    HW225896   1.712   2.062  11.221  0.9841 -0.6774  0.3013
 4812SOL     OW25897   3.500   3.339   4.994  0.1124  0.3818 -0.5211
 4812SOL    HW125898   3.419   3.354   4.946 -0.5531  0.7661  0.7189
 4812SOL    HW225899   3.521   3.431   5.007  1.6022  0.1049 -1.0001
 4813SOL     OW25900   2.058   4.083  17.227 -0.1444  0.7065 -0.0158
 4813SOL    HW125901   1.984   4.061  17.171  0.5067 -0.5560 -0.3850
 4813SOL    HW225902   2.118   4.126  17.166  0.8904  1.0891  1.2674
 4814SOL     OW25903   3.501   1.618   5.365  0.2469 -0.0084 -0.5720
 4814SOL    HW125904   3.491   1.570   5.282 -2.0048  1.5828 -1.2117
 4814SOL    HW225905   3.439   1.573   5.422 -1.9827 -0.3585 -3.2859
 4815SOL     OW25906   2.247   2.266   0.878  0.9723 -0.0188 -0.2173
 4815SOL    HW125907   2.281   2.256   0.789  1.8366  3.0611 -0.2425
 4815SOL    HW225908   2.301   2.336   0.916 -0.0287  2.5293 -3.4645
 4816SOL     OW25909   2.587   0.003   4.708 -0.1072 -0.0842 -0.5625
 4816SOL    HW125910   2.653   4.718   4.640 -1.0443  0.1371 -1.4955
 4816SOL    HW225911   2.508   4.689   4.669 -0.7930  0.1448  0.6061
 4817SOL     OW25912   1.771   1.830  15.911 -0.2252 -0.1274 -0.6105
 4817SOL    HW125913   1.731   1.862  15.992  1.0879  0.7435 -0.3137
 4817SOL    HW225914   1.786   1.745  15.953  2.0634  0.4237 -0.3506
 4818SOL     OW25915   0.032   4.409   6.497 -0.3502  0.2404 -0.2509
 4818SOL    HW125916   4.720   4.321   6.478 -0.0364 -0.3689  1.9967
 4818SOL    HW225917   0.083   4.428   6.418  2.1109  0.7589  1.4834
 4819SOL     OW25918   0.631   1.770   9.845  0.5234 -0.1722 -0.0627
 4819SOL    HW125919   0.678   1.789   9.764 -1.5115  0.9998 -0.9479
 4819SOL    HW225920   0.600   1.681   9.829  0.4224 -0.0332 -0.6434
 4820SOL     OW25921   1.524   0.476  16.601  0.5516  0.3953  0.0108
 4820SOL    HW125922   1.437   0.488  16.638  0.4001  2.1211 -0.8784
 4820SOL    HW225923   1.528   0.561  16.556  1.3697 -1.3291 -3.1604
 4821SOL     OW25924   2.518   1.608   6.117  0.6836  0.2121  0.4717
 4821SOL    HW125925   2.507   1.604   6.022  2.6439  0.2720  0.2388
 4821SOL    HW225926   2.541   1.701   6.127 -1.0278  0.6516  0.2366
 4822SOL     OW25927   2.059   1.141   5.638  0.1879  0.2145 -0.1229
 4822SOL    HW125928   2.026   1.097   5.716  0.9313  1.4291  0.8833
 4822SOL    HW225929   2.007   1.096   5.571  1.7269  0.2960 -1.3787
 4823SOL     OW25930   0.078   0.001   8.507  0.1626  0.2297 -0.0547
 4823SOL    HW125931   0.145   0.061   8.538  0.5945 -0.3965  0.2132
 4823SOL    HW225932   0.129   4.655   8.465  0.7134 -0.1668  1.2526
 4824SOL     OW25933   3.146   2.675   5.423  0.4247  0.3906  0.0719
 4824SOL    HW125934   3.075   2.693   5.362  0.5363  0.8536  0.0811
 4824SOL    HW225935   3.156   2.580   5.415  0.8753  0.4502 -0.0955
 4825SOL     OW25936   3.866   4.579  15.667  0.2878 -0.0766 -0.2853
 4825SOL    HW125937   3.816   4.649  15.626 -1.7551 -1.9141 -0.8936
 4825SOL    HW225938   3.833   4.500  15.624 -3.6807  1.3681  0.2095
 4826SOL     OW25939   0.086   2.383   7.553  0.2724  0.1708  0.2870
 4826SOL    HW125940   0.032   2.359   7.478 -0.1486 -0.6313  0.8478
 4826SOL    HW225941   0.172   2.351   7.525 -0.7820 -1.2718 -1.3111
 4827SOL     OW25942   0.209   3.008   4.781  0.3435  0.7481  0.4863
 4827SOL    HW125943   0.194   3.075   4.848 -1.2713  0.5673  0.3078
 4827SOL    HW225944   0.209   2.933   4.842 -0.6991  0.1813 -0.1979
 4828SOL     OW25945   0.119   1.372   5.056  0.3023  0.0340 -0.2537
 4828SOL    HW125946   0.184   1.412   4.999 -0.1831 -2.3225 -2.4362
 4828SOL    HW225947   0.053   1.438   5.034  0.3998  0.7636  1.6667
 4829SOL     OW25948   0.074   3.955  14.136  0.3165  0.4522 -0.5152
 4829SOL    HW125949   0.083   3.863  14.158 -0.0548  0.5337 -0.0285
 4829SOL    HW225950   0.110   3.957  14.047 -3.1602 -2.1626 -1.9698
 4830SOL     OW25951   2.991   0.556   9.932 -0.1833 -0.1793 -0.7512
 4830SOL    HW125952   3.017   0.477   9.980 -0.7103  0.3730  0.4258
 4830SOL    HW225953   3.064   0.615   9.952 -0.6037  0.5059 -1.2574
 4831SOL     OW25954   0.188   4.478   4.642 -0.1933  0.0722  0.5119
 4831SOL    HW125955   0.124   4.546   4.662  1.4922  1.9674 -0.5275
 4831SOL    HW225956   0.245   4.489   4.718  1.0837  0.4566 -0.5005
 4832SOL     OW25957   0.580   1.373   4.043  0.0943  0.4479  0.4545
 4832SOL    HW125958   0.529   1.391   4.121 -1.0564 -2.3947  0.3477
 4832SOL    HW225959   0.629   1.455   4.028  0.4790  0.1132 -0.1249
 4833SOL     OW25960   3.314   0.502   5.412 -0.3297 -0.2540  1.1484
 4833SOL    HW125961   3.263   0.496   5.331 -1.9263 -1.5023  2.2501
 4833SOL    HW225962   3.251   0.528   5.479 -0.7367 -0.1793  0.7289
 4834SOL     OW25963   3.189   1.592   2.944  0.3451 -0.6428 -0.0452
 4834SOL    HW125964   3.121   1.660   2.943  1.1778  0.1736 -1.6504
 4834SOL    HW225965   3.254   1.623   3.006  0.8974  1.5104 -1.6938
 4835SOL     OW25966   2.489   2.246   4.437  1.2576 -0.5137  0.0743
 4835SOL    HW125967   2.565   2.213   4.485  1.0296  1.1913  1.6212
 4835SOL    HW225968   2.421   2.228   4.501  2.7394  1.2364  2.1326
 4836SOL     OW25969   0.455   0.614   1.060 -0.3079  0.8863 -0.1449
 4836SOL    HW125970   0.542   0.590   1.091 -0.0993  0.3984 -1.1284
 4836SOL    HW225971   0.446   0.700   1.102  2.1202  0.7710  0.5687
 4837SOL     OW25972   0.445   0.020   5.369 -0.1056 -0.0885  0.0030
 4837SOL    HW125973   0.534   0.043   5.341  0.2401 -0.7205  0.5876
 4837SOL    HW225974   0.393   0.019   5.288 -0.1190  0.3844  0.0054
 4838SOL     OW25975   4.038   1.110   0.750 -0.0053  0.6111 -0.7930
 4838SOL    HW125976   3.969   1.156   0.798  0.5281 -0.1355  0.6772
 4838SOL    HW225977   4.102   1.119   0.820 -0.2874  2.2705 -0.7467
 4839SOL     OW25978   1.446   2.421  16.346  0.1790  0.0729  0.6053
 4839SOL    HW125979   1.411   2.418  16.435 -1.4188  1.5236  0.0201
 4839SOL    HW225980   1.384   2.487  16.315  1.1653  0.0494 -1.4441
 4840SOL     OW25981   0.287   2.898   5.525  0.3953  0.0175  0.5196
 4840SOL    HW125982   0.341   2.825   5.494  0.1209  0.2368 -0.4745
 4840SOL    HW225983   0.242   2.853   5.597 -1.8021 -0.2584 -1.0208
 4841SOL     OW25984   2.907   0.770  10.130 -0.3700  0.1109 -0.0209
 4841SOL    HW125985   2.873   0.700  10.074  0.3308 -0.4780  0.3017
 4841SOL    HW225986   2.845   0.840  10.107 -0.3462 -0.5126 -2.0359
 4842SOL     OW25987   2.905   0.374   4.319 -0.4510 -0.1346  0.5222
 4842SOL    HW125988   2.828   0.317   4.311 -1.1460  1.1101 -1.8239
 4842SOL    HW225989   2.970   0.308   4.296  0.6312  1.3393 -0.6901
 4843SOL     OW25990   0.016   1.002   5.162 -0.0963  0.2047  0.0765
 4843SOL    HW125991   0.044   0.915   5.131 -1.0172  0.0652 -0.3428
 4843SOL    HW225992   4.674   0.983   5.229 -1.2615  0.5309 -0.9624
 4844SOL     OW25993   4.162   0.877   1.852 -0.0470 -0.4317 -0.2619
 4844SOL    HW125994   4.248   0.853   1.884 -0.7288 -2.3022  0.1810
 4844SOL    HW225995   4.156   0.971   1.869  0.1788 -0.4372 -0.1557
 4845SOL     OW25996   0.281   2.697   6.066 -0.2438  0.1945 -0.3006
 4845SOL    HW125997   0.335   2.624   6.034 -1.6907 -1.0292  0.0254
 4845SOL    HW225998   0.365   2.733   6.096  0.4748 -1.1462 -0.7051
 4846SOL     OW25999   0.216   0.276   1.534 -0.7329 -0.5745 -0.6767
 4846SOL    HW126000   0.250   0.284   1.444  1.1252 -0.1031  0.0564
 4846SOL    HW226001   0.139   0.222   1.520 -2.4719  2.0300 -1.1114
 4847SOL     OW26002   0.515   3.907   5.237  1.0431 -0.3086 -0.5733
 4847SOL    HW126003   0.575   3.876   5.305  0.3100 -3.1148 -1.2065
 4847SOL    HW226004   0.435   3.864   5.266 -0.0032  1.6890 -0.5016
 4848SOL     OW26005   3.903   4.293   4.637  0.1300  0.2773 -0.1809
 4848SOL    HW126006   3.990   4.264   4.664  0.1514 -1.4093 -2.0262
 4848SOL    HW226007   3.875   4.212   4.594 -0.2172  0.2257  0.1361
 4849SOL     OW26008   0.000   4.240   0.629 -0.0989  0.0837 -0.0224
 4849SOL    HW126009   0.092   4.216   0.634  0.2028  1.5161  1.5890
 4849SOL    HW226010   0.009   4.334   0.647 -1.2036 -0.2345  2.2031
 4850SOL     OW26011   2.628   3.866   7.632 -0.3524 -0.7213 -0.0524
 4850SOL    HW126012   2.567   3.792   7.623 -1.8046  0.5294 -0.4930
 4850SOL    HW226013   2.699   3.830   7.685 -0.4227  2.9092  2.5022
 4851SOL     OW26014   1.858   4.159   6.970 -0.2504 -0.1628  0.2768
 4851SOL    HW126015   1.903   4.147   6.886 -2.1599 -2.7658 -0.3701
 4851SOL    HW226016   1.867   4.077   7.018 -1.6211 -0.2484  0.3769
 4852SOL     OW26017   3.856   1.674   0.148  0.6798  0.0279 -0.6991
 4852SOL    HW126018   3.833   1.598   0.094  0.8563 -1.0172  0.6803
 4852SOL    HW226019   3.789   1.670   0.216  2.2967 -2.3753  0.7583
 4853SOL     OW26020   2.423   2.364   3.461 -0.3773  0.3877  0.0784
 4853SOL    HW126021   2.469   2.306   3.523 -0.0352 -0.7425 -1.2418
 4853SOL    HW226022   2.437   2.445   3.511 -1.6468  1.7783 -1.8460
 4854SOL     OW26023   0.200   2.486  11.703  0.1067  0.8682  0.0652
 4854SOL    HW126024   0.160   2.482  11.790  0.3434 -0.4339  0.1106
 4854SOL    HW226025   0.264   2.555  11.724  1.9843 -0.3261 -1.6882
 4855SOL     OW26026   1.091   1.503   4.997 -0.4619  0.4700 -0.0579
 4855SOL    HW126027   1.025   1.546   4.943  0.0211  2.4165  0.9308
 4855SOL    HW226028   1.038   1.423   4.990  0.3763 -0.0805 -0.1426
 4856SOL     OW26029   0.222   1.936   6.128  0.3106 -0.2062 -0.2021
 4856SOL    HW126030   0.192   2.027   6.120  1.0125 -0.0067 -0.5999
 4856SOL    HW226031   0.227   1.910   6.036  0.2400  0.3296 -0.3571
 4857SOL     OW26032   2.836   1.757  10.408 -0.3764  0.8524 -0.6473
 4857SOL    HW126033   2.894   1.782  10.337  0.3482  0.4653 -0.1957
 4857SOL    HW226034   2.818   1.847  10.434 -0.2012  0.9136 -0.7394
 4858SOL     OW26035   0.785   1.381   1.477  0.3361  0.1059  0.3165
 4858SOL    HW126036   0.748   1.294   1.493 -0.2642  0.7517  2.5027
 4858SOL    HW226037   0.813   1.367   1.386 -1.2545  1.1146 -0.3358
 4859SOL     OW26038   3.901   3.507  13.724 -0.2307 -0.1394  0.2255
 4859SOL    HW126039   3.906   3.499  13.819 -1.3625 -0.8514  0.2394
 4859SOL    HW226040   3.846   3.430  13.706  0.8043 -0.8908  0.3014
 4860SOL     OW26041   2.726   1.229   5.607  0.0505 -0.1645 -0.2571
 4860SOL    HW126042   2.809   1.274   5.625  0.6130 -1.4535  0.3575
 4860SOL    HW226043   2.699   1.259   5.521 -0.6541  0.9789  0.3520
 4861SOL     OW26044   2.507   1.609   4.918 -0.1601  0.0555  0.2936
 4861SOL    HW126045   2.436   1.639   4.861  0.4451  0.6775 -0.1332
 4861SOL    HW226046   2.500   1.517   4.894  0.7369  0.4503 -1.4757
 4862SOL     OW26047   3.018   2.771  10.656 -0.2305  0.5570 -0.4674
 4862SOL    HW126048   3.094   2.794  10.710  0.0279 -1.5976  0.0674
 4862SOL    HW226049   3.004   2.681  10.684  1.8832  0.5460  0.5358
 4863SOL     OW26050   4.610   3.896   5.509  0.2764  0.5534 -0.1291
 4863SOL    HW126051   4.655   3.812   5.500 -2.6302 -0.9663 -0.4628
 4863SOL    HW226052   4.675   3.945   5.457  0.8198  2.0584  1.9876
 4864SOL     OW26053   0.949   0.392   3.480 -0.2125 -0.8514  0.5886
 4864SOL    HW126054   1.017   0.399   3.547  0.7633 -0.1090 -0.4642
 4864SOL    HW226055   0.893   0.323   3.515 -0.6003 -0.0723  1.5193
 4865SOL     OW26056   3.197   2.417   5.389 -0.5650 -0.1174 -0.1642
 4865SOL    HW126057   3.273   2.358   5.390  0.6379  1.4702  0.9773
 4865SOL    HW226058   3.160   2.409   5.477 -0.7058 -0.3652 -0.2450
 4866SOL     OW26059   4.471   1.217   4.087 -0.2575  0.3713 -0.7989
 4866SOL    HW126060   4.385   1.173   4.090 -0.2938  0.5453  0.4646
 4866SOL    HW226061   4.453   1.306   4.115 -0.0402 -0.1845  1.0619
 4867SOL     OW26062   0.830   1.560   7.695  0.4126 -0.1396 -0.4110
 4867SOL    HW126063   0.888   1.635   7.696 -0.7555  0.7343  1.3064
 4867SOL    HW226064   0.882   1.502   7.639  1.0381 -0.9474  1.0235
 4868SOL     OW26065   0.436   1.151   3.462 -0.0273 -0.2217  0.4302
 4868SOL    HW126066   0.356   1.162   3.410  0.4139 -0.2800 -0.2609
 4868SOL    HW226067   0.461   1.240   3.488  2.8171 -0.7660 -0.3991
 4869SOL     OW26068   1.185   1.098  12.032  0.4768 -0.4099  0.2417
 4869SOL    HW126069   1.196   1.131  11.943 -0.3549 -1.1655 -0.1383
 4869SOL    HW226070   1.113   1.036  12.023  0.6060 -0.5759  0.3519
 4870SOL     OW26071   0.212   2.611  17.322 -0.6567  0.7328  0.3462
 4870SOL    HW126072   0.182   2.648  17.240  1.0811  0.7075 -0.3028
 4870SOL    HW226073   0.238   2.524  17.291  2.9706  1.6712  0.6982
 4871SOL     OW26074   1.719   1.383   5.866  0.0441  0.5034 -0.1468
 4871SOL    HW126075   1.813   1.402   5.861  0.3702 -1.3040 -1.1785
 4871SOL    HW226076   1.690   1.450   5.927 -1.9160 -1.9923  1.6764
 4872SOL     OW26077   2.558   3.635   4.411 -0.0521  0.2366  0.6055
 4872SOL    HW126078   2.626   3.576   4.376 -0.4068  0.5681 -0.6643
 4872SOL    HW226079   2.620   3.702   4.439  1.7443 -2.3223  2.7021
 4873SOL     OW26080   0.433   1.180   8.727  0.4904  0.3473  0.7139
 4873SOL    HW126081   0.381   1.212   8.654  2.9600  0.5818 -0.9365
 4873SOL    HW226082   0.393   1.215   8.806 -0.5747  0.9782 -0.1055
 4874SOL     OW26083   2.628   2.370  10.383  0.8237 -0.6025  0.3123
 4874SOL    HW126084   2.590   2.397  10.466 -0.2681 -2.5775  0.4635
 4874SOL    HW226085   2.712   2.415  10.382  0.5608 -0.1407 -2.7461
 4875SOL     OW26086   0.400   1.317   2.147 -0.1460  0.6480  0.1238
 4875SOL    HW126087   0.358   1.391   2.103  0.8963  2.5071  2.2895
 4875SOL    HW226088   0.480   1.320   2.095  0.5690 -0.0892  1.2021
 4876SOL     OW26089   3.259   0.999  10.207 -0.0521 -0.1839  0.0362
 4876SOL    HW126090   3.344   1.042  10.219 -0.5611  0.7837  0.1786
 4876SOL    HW226091   3.204   1.077  10.205 -0.2955 -0.3695 -0.3800
 4877SOL     OW26092   2.525   4.372   5.608 -0.1564 -0.2780  0.2576
 4877SOL    HW126093   2.453   4.368   5.671 -0.6317  1.5993 -0.1721
 4877SOL    HW226094   2.576   4.312   5.663 -1.0949  0.3778  1.8396
 4878SOL     OW26095   2.414   3.942   9.673 -0.4193 -0.4072  0.4237
 4878SOL    HW126096   2.372   4.016   9.630 -0.3944  0.1428  1.3538
 4878SOL    HW226097   2.341   3.883   9.652 -1.5315  1.0000  0.3644
 4879SOL     OW26098   2.322   0.411   3.843 -0.0830 -0.4485  0.2020
 4879SOL    HW126099   2.356   0.375   3.761 -1.5202 -1.3792  0.0038
 4879SOL    HW226100   2.344   0.339   3.904  0.8762 -0.1694  0.1887
 4880SOL     OW26101   0.014   0.425   3.140 -0.5602  0.0375 -0.5776
 4880SOL    HW126102   0.089   0.366   3.131 -0.2776 -0.0917  2.4591
 4880SOL    HW226103   0.056   0.511   3.145 -2.1060  0.6612  2.0240
 4881SOL     OW26104   0.250   3.543  16.084  0.2274  0.7855  0.4202
 4881SOL    HW126105   0.211   3.631  16.082 -1.0070  0.2267  0.1617
 4881SOL    HW226106   0.335   3.560  16.124  1.7325 -2.3961 -1.3847
 4882SOL     OW26107   0.997   1.569   8.458  0.1551  0.1900 -0.2054
 4882SOL    HW126108   0.925   1.511   8.431  0.8040 -0.2609 -0.9770
 4882SOL    HW226109   0.951   1.653   8.463 -2.5569 -1.2933  0.2102
 4883SOL     OW26110   4.531   1.805   2.089  0.2860  0.8085  0.6854
 4883SOL    HW126111   4.465   1.769   2.149  0.3295 -0.5234 -0.0578
 4883SOL    HW226112   4.580   1.855   2.153 -0.1921  1.4093  0.5864
 4884SOL     OW26113   0.469   4.588   8.593  0.5391  0.2371  0.1190
 4884SOL    HW126114   0.423   4.594   8.677 -2.3792 -3.1566 -1.2452
 4884SOL    HW226115   0.403   4.533   8.550 -0.5137  0.6696  1.1879
 4885SOL     OW26116   3.185   3.515   6.989 -0.7962 -0.1738 -0.0857
 4885SOL    HW126117   3.213   3.525   6.898  1.0720  1.3182  0.6587
 4885SOL    HW226118   3.125   3.589   6.992 -0.8718 -0.0980 -2.9925
 4886SOL     OW26119   1.351   0.846  15.513 -0.0434  0.2129  0.3946
 4886SOL    HW126120   1.313   0.932  15.532 -0.4119 -0.0273  0.7533
 4886SOL    HW226121   1.428   0.873  15.464  0.3590  0.9863  1.4517
 4887SOL     OW26122   1.031   3.243  14.841 -0.4173  0.1052  0.2501
 4887SOL    HW126123   0.954   3.226  14.786 -1.9665 -0.5572  2.6336
 4887SOL    HW226124   1.007   3.218  14.930 -0.9881  0.4580  0.1948
 4888SOL     OW26125   3.549   1.440   3.082 -0.5046 -0.4052 -0.2655
 4888SOL    HW126126   3.608   1.442   3.007  0.8244  2.6289  0.8272
 4888SOL    HW226127   3.591   1.391   3.153  0.5379  0.4410 -0.2950
 4889SOL     OW26128   3.248   3.922   6.087  0.0345  0.4315 -0.3282
 4889SOL    HW126129   3.160   3.952   6.109  0.9797  2.3104  0.9007
 4889SOL    HW226130   3.236   3.925   5.992  0.6522 -0.2130 -0.4255
 4890SOL     OW26131   4.664   1.506   4.306  0.1872 -0.3972  0.1224
 4890SOL    HW126132   4.627   1.482   4.221  0.6313 -0.9861  0.0933
 4890SOL    HW226133   4.677   1.417   4.339 -1.4896 -1.2124 -1.4406
 4891SOL     OW26134   1.600   3.461   0.937 -0.4859 -0.0995  0.3853
 4891SOL    HW126135   1.684   3.474   0.893 -0.5279  0.2611  0.4109
 4891SOL    HW226136   1.624   3.498   1.022  1.5848  1.3075 -0.8176
 4892SOL     OW26137   1.877   4.508   4.851 -0.1347  0.1169 -0.2016
 4892SOL    HW126138   1.948   4.452   4.881  0.1753  1.0732  0.8543
 4892SOL    HW226139   1.835   4.438   4.801 -0.1296 -1.3400  1.8166
 4893SOL     OW26140   1.717   2.061   3.365 -0.2485 -0.0618 -0.1224
 4893SOL    HW126141   1.811   2.051   3.347 -0.5514 -0.1467 -1.6647
 4893SOL    HW226142   1.704   2.156   3.359  0.3604 -0.0969 -2.1797
 4894SOL     OW26143   2.141   1.815  13.273  0.3700 -0.3632 -0.2572
 4894SOL    HW126144   2.232   1.812  13.301  0.4565 -0.9848 -0.6101
 4894SOL    HW226145   2.098   1.806  13.359  0.7640  0.4464  0.0212
 4895SOL     OW26146   3.744   3.264  13.685 -0.2041 -0.2736 -0.0400
 4895SOL    HW126147   3.685   3.295  13.617  0.9709 -2.3961 -2.0095
 4895SOL    HW226148   3.686   3.248  13.760 -1.2376 -1.2757 -1.0611
 4896SOL     OW26149   3.187   4.328   2.815 -0.3464 -0.2791  0.4780
 4896SOL    HW126150   3.229   4.401   2.862  0.9038 -1.7864  1.7113
 4896SOL    HW226151   3.251   4.308   2.746 -0.0522  0.3717  0.5612
 4897SOL     OW26152   2.709   2.501   0.520  0.8258  0.5634  0.1044
 4897SOL    HW126153   2.713   2.566   0.449 -2.0254 -0.9433 -1.3944
 4897SOL    HW226154   2.783   2.528   0.574  1.8224 -1.9575  0.0109
 4898SOL     OW26155   0.843   3.616   3.981 -0.3207  0.0740  0.7438
 4898SOL    HW126156   0.880   3.568   4.055  1.2854 -1.5037 -1.1052
 4898SOL    HW226157   0.821   3.549   3.917  0.5401  1.1062 -0.6214
 4899SOL     OW26158   3.298   0.757   6.696 -0.0672 -0.4621 -0.3907
 4899SOL    HW126159   3.295   0.688   6.629 -1.3325  0.4901 -1.3249
 4899SOL    HW226160   3.212   0.744   6.738  0.0570  0.7847  0.2313
 4900SOL     OW26161   0.085   0.895   3.839 -0.3939 -0.2856  0.4161
 4900SOL    HW126162   0.015   0.934   3.891 -1.2722 -0.9331 -0.2878
 4900SOL    HW226163   0.117   0.820   3.888 -0.4162 -0.9726 -0.6229
 4901SOL     OW26164   1.011   1.752   7.621  0.5146 -0.4417 -0.1340
 4901SOL    HW126165   1.082   1.782   7.678  1.0416 -0.0948 -0.9716
 4901SOL    HW226166   1.039   1.670   7.580  0.1390 -1.1099  0.9568
 4902SOL     OW26167   4.124   1.893   3.953 -0.6675 -0.0910  0.2627
 4902SOL    HW126168   4.118   1.974   4.004 -1.8618  0.1215 -0.2165
 4902SOL    HW226169   4.046   1.849   3.987 -1.3298 -0.8773 -2.2836
 4903SOL     OW26170   2.328   1.578   6.604 -0.6422  0.3890 -0.8041
 4903SOL    HW126171   2.418   1.611   6.608 -0.5054 -0.0027 -0.7222
 4903SOL    HW226172   2.307   1.606   6.694 -0.0498  2.2096 -1.2271
 4904SOL     OW26173   4.437   2.448  17.270 -0.7189 -0.7292  0.3655
 4904SOL    HW126174   4.380   2.428  17.197 -1.6724  0.7510  0.6987
 4904SOL    HW226175   4.528   2.434  17.243 -0.4144  0.8480  0.5428
 4905SOL     OW26176   2.253   4.112   9.541  0.5479 -0.1023  0.5047
 4905SOL    HW126177   2.159   4.126   9.548  0.1910 -0.2750 -3.9694
 4905SOL    HW226178   2.242   4.070   9.456  0.3992  0.0812  0.4336
 4906SOL     OW26179   3.783   3.664   4.285 -0.8309 -0.2694 -0.1891
 4906SOL    HW126180   3.837   3.730   4.242 -1.1831  0.6136  0.7166
 4906SOL    HW226181   3.755   3.605   4.215  1.8769 -1.4853 -0.2260
 4907SOL     OW26182   3.406   2.302  14.308 -0.3777 -0.2718 -0.3568
 4907SOL    HW126183   3.421   2.208  14.297 -0.4504 -0.5252  1.6659
 4907SOL    HW226184   3.350   2.304  14.386  0.7816 -0.7361  0.4934
 4908SOL     OW26185   4.691   4.632   0.857 -0.8304 -0.2140 -0.2170
 4908SOL    HW126186   0.035   4.628   0.788  0.8808  1.7707  1.3374
 4908SOL    HW226187   4.722   4.555   0.906  0.4545  0.8105  0.5847
 4909SOL     OW26188   0.878   2.794  13.094  0.5546 -0.2688  0.2777
 4909SOL    HW126189   0.857   2.745  13.173 -0.5193  0.2383  0.3054
 4909SOL    HW226190   0.791   2.792  13.055  0.4289  3.0891  0.3093
 4910SOL     OW26191   2.891   1.404   5.331  0.1520 -0.6861  0.3795
 4910SOL    HW126192   2.897   1.491   5.371  0.1692  0.9504 -3.2070
 4910SOL    HW226193   2.974   1.363   5.355 -0.3213 -1.8587  0.0556
 4911SOL     OW26194   3.307   0.359  11.045 -0.6433  0.1924 -0.0377
 4911SOL    HW126195   3.217   0.334  11.021 -0.4298 -0.7059  0.1048
 4911SOL    HW226196   3.349   0.351  10.959 -2.0673  1.2435 -0.8309
 4912SOL     OW26197   0.485   3.701   9.883  0.0868  0.0835  0.0125
 4912SOL    HW126198   0.432   3.766   9.928 -1.8046 -1.1882 -0.4139
 4912SOL    HW226199   0.562   3.692   9.940 -0.5860  1.0743  1.0574
 4913SOL     OW26200   4.574   4.707   3.643 -0.3814 -0.4711  0.3937
 4913SOL    HW126201   4.565   4.678   3.553 -1.1428 -1.8301  0.9064
 4913SOL    HW226202   4.504   0.049   3.652 -0.4354 -0.4377 -0.3249
 4914SOL     OW26203   0.709   0.100   6.155  0.2543  0.0309  0.0520
 4914SOL    HW126204   0.726   0.097   6.249  0.4766  0.9990  0.0378
 4914SOL    HW226205   0.740   0.186   6.129 -2.5903  0.9072 -0.4698
 4915SOL     OW26206   1.183   4.403   3.068 -0.4586 -0.1832  0.9401
 4915SOL    HW126207   1.269   4.408   3.111  0.2104  0.7843 -0.4764
 4915SOL    HW226208   1.132   4.338   3.115 -1.2124 -1.1865 -1.2817
 4916SOL     OW26209   3.126   2.113   9.663  0.1565  0.3923  0.5190
 4916SOL    HW126210   3.141   2.200   9.626 -2.8441  0.7147  0.0530
 4916SOL    HW226211   3.203   2.061   9.637  0.4336  1.5096 -0.8845
 4917SOL     OW26212   3.284   1.665   7.430 -0.3869  0.5804  0.5947
 4917SOL    HW126213   3.220   1.645   7.362  0.6489  1.1708 -0.5557
 4917SOL    HW226214   3.369   1.638   7.396 -1.0557 -0.5552 -0.1779
 4918SOL     OW26215   2.097   0.537   6.651 -0.4926 -0.0853 -0.3080
 4918SOL    HW126216   2.009   0.574   6.651 -0.5687 -0.2761 -2.5441
 4918SOL    HW226217   2.083   0.473   6.581  1.6044 -1.1495  0.2392
 4919SOL     OW26218   2.676   0.421   2.209  0.2436  0.0621  0.4420
 4919SOL    HW126219   2.656   0.477   2.133  2.4066 -1.6794 -1.4315
 4919SOL    HW226220   2.639   0.464   2.286 -1.0409 -0.6956  0.2407
 4920SOL     OW26221   3.200   2.102   3.528  0.3393  0.4470 -0.0138
 4920SOL    HW126222   3.111   2.067   3.525  0.5894 -0.0792 -1.1130
 4920SOL    HW226223   3.259   2.032   3.502 -1.4533 -1.1741  0.2941
 4921SOL     OW26224   3.234   1.910  13.474  0.4871  0.4325  0.0588
 4921SOL    HW126225   3.320   1.928  13.512  0.9406 -0.9346 -0.2998
 4921SOL    HW226226   3.191   1.981  13.520  1.9763  3.0369 -2.5877
 4922SOL     OW26227   3.824   1.506   7.472  0.0311  0.1086  0.1174
 4922SOL    HW126228   3.833   1.418   7.510 -0.9400 -0.0766 -0.0824
 4922SOL    HW226229   3.808   1.551   7.554 -0.4334  1.4738 -0.7272
 4923SOL     OW26230   3.311   0.251   4.249 -0.0607  0.2347  0.1621
 4923SOL    HW126231   3.313   0.262   4.344 -2.6186 -1.9734  0.4809
 4923SOL    HW226232   3.328   0.342   4.227 -0.3313  0.4375  0.7975
 4924SOL     OW26233   0.335   2.109   7.464 -0.2516 -0.5074  0.0281
 4924SOL    HW126234   0.326   2.039   7.400  0.3251 -0.3706 -0.2021
 4924SOL    HW226235   0.430   2.108   7.481 -0.5766 -1.1993  1.7661
 4925SOL     OW26236   0.256   1.082   4.052  0.2866 -0.6432 -0.4302
 4925SOL    HW126237   0.173   1.052   4.016 -0.9235  1.4695  0.5888
 4925SOL    HW226238   0.321   1.053   3.988  0.6634 -0.5804 -0.0708
 4926SOL     OW26239   3.237   1.818  15.351 -0.7192  0.6239  0.6730
 4926SOL    HW126240   3.300   1.827  15.280 -0.9076 -0.5138  0.3668
 4926SOL    HW226241   3.246   1.892  15.411  0.9096  0.9944 -0.0359
 4927SOL     OW26242   4.722   3.187   4.006  0.4023  0.0612 -0.2842
 4927SOL    HW126243   4.630   3.175   4.029  0.3021  0.3141 -0.5572
 4927SOL    HW226244   4.716   3.249   3.933 -2.2163  0.5403  0.3371
 4928SOL     OW26245   3.731   0.180  16.352  0.4662 -0.6919 -0.3146
 4928SOL    HW126246   3.666   0.200  16.284  0.1473  0.1180  0.2349
 4928SOL    HW226247   3.801   0.238  16.320 -0.8078  2.6287  2.9912
 4929SOL     OW26248   2.844   2.691  15.451 -0.1989  0.0773  0.0411
 4929SOL    HW126249   2.758   2.652  15.436 -0.0298 -0.3630  0.2214
 4929SOL    HW226250   2.826   2.760  15.388  1.1793 -2.5813 -3.2188
 4930SOL     OW26251   0.271   1.385   4.019 -0.2638  0.3662  0.2159
 4930SOL    HW126252   0.294   1.392   4.111  1.0790  1.0132 -0.1665
 4930SOL    HW226253   0.267   1.289   4.013 -3.1681  0.5524 -0.6659
 4931SOL     OW26254   1.548   0.259  10.303  0.1108  0.0300 -0.0392
 4931SOL    HW126255   1.486   0.331  10.298 -2.3632 -2.1119  0.1464
 4931SOL    HW226256   1.504   0.185  10.344 -0.2232  2.0753  3.3128
 4932SOL     OW26257   2.207   2.821  13.718  0.5015  0.2776 -0.2251
 4932SOL    HW126258   2.225   2.809  13.625 -1.3639 -0.0155 -0.5545
 4932SOL    HW226259   2.259   2.899  13.739  2.2206 -1.3136  1.4779
 4933SOL     OW26260   3.103   0.346   8.092  0.6768 -0.1519  0.6227
 4933SOL    HW126261   3.174   0.362   8.155  0.4174 -1.0464  1.1471
 4933SOL    HW226262   3.049   0.424   8.103  0.2924 -0.4031  0.4996
 4934SOL     OW26263   3.967   1.420   3.164 -0.4313 -0.0932 -0.0270
 4934SOL    HW126264   4.046   1.400   3.112  0.6153  1.5366  0.9379
 4934SOL    HW226265   3.910   1.352   3.127 -0.6348  0.5986 -0.9909
 4935SOL     OW26266   2.792   4.210   4.573  0.2703 -0.2546 -0.0617
 4935SOL    HW126267   2.713   4.156   4.562 -1.1398  1.6729  0.4865
 4935SOL    HW226268   2.750   4.294   4.594  0.6585  0.4606 -2.1368
 4936SOL     OW26269   4.068   3.504  11.820 -0.2454 -0.3715 -0.1511
 4936SOL    HW126270   4.143   3.505  11.878  0.4529 -2.5536 -1.0190
 4936SOL    HW226271   4.093   3.461  11.738  0.9192 -2.0393  1.0947
 4937SOL     OW26272   1.286   1.970   6.821  0.2044 -0.1798 -0.4989
 4937SOL    HW126273   1.208   1.974   6.765 -1.8933  0.2803  2.4765
 4937SOL    HW226274   1.342   1.997   6.748  0.4211  0.8379  0.0467
 4938SOL     OW26275   2.171   2.328   3.724 -0.1978 -0.3579  0.5516
 4938SOL    HW126276   2.218   2.410   3.708 -1.1145  0.1238  0.3267
 4938SOL    HW226277   2.208   2.264   3.662 -0.2707  0.2064 -0.0751
 4939SOL     OW26278   0.288   2.361  17.206  0.2155  0.2123  0.0500
 4939SOL    HW126279   0.279   2.266  17.211 -0.6778  0.3597  1.0775
 4939SOL    HW226280   0.311   2.381  17.115  0.0958  0.7495  0.1400
 4940SOL     OW26281   2.787   1.432   8.535 -0.1810  0.2013  0.5585
 4940SOL    HW126282   2.749   1.440   8.622 -0.0992  1.1553  0.5118
 4940SOL    HW226283   2.832   1.516   8.527  0.2451 -0.1391 -0.7752
 4941SOL     OW26284   4.038   3.126  11.840 -0.0896 -0.5820 -0.6612
 4941SOL    HW126285   4.113   3.164  11.794  1.0764 -0.3416  1.4468
 4941SOL    HW226286   3.978   3.092  11.773 -0.3247  3.0686 -2.2970
 4942SOL     OW26287   1.216   1.798   7.791  0.1531  0.4287  0.0198
 4942SOL    HW126288   1.303   1.766   7.812  0.6897  0.6802 -1.8145
 4942SOL    HW226289   1.149   1.751   7.841  0.4054 -0.5498 -0.5635
 4943SOL     OW26290   0.949   2.293   7.915  0.0117 -0.4224 -0.1683
 4943SOL    HW126291   1.004   2.369   7.898  0.3044 -0.7373 -0.6467
 4943SOL    HW226292   0.894   2.295   7.837 -0.8906  0.4028  0.4859
 4944SOL     OW26293   3.091   0.319  14.934  1.1159  0.9498 -0.1818
 4944SOL    HW126294   3.091   0.415  14.934  0.9371  0.9676 -2.3688
 4944SOL    HW226295   3.052   0.302  15.019 -0.9104  2.0420 -0.8688
 4945SOL     OW26296   3.659   2.402   2.726 -0.0092  0.1154 -0.2312
 4945SOL    HW126297   3.642   2.310   2.703  0.1500 -0.2384  1.0783
 4945SOL    HW226298   3.742   2.427   2.686 -0.2327  0.2856 -0.5957
 4946SOL     OW26299   3.558   1.539   5.711 -0.1029 -0.5012  0.7841
 4946SOL    HW126300   3.599   1.478   5.650  1.0854 -1.1230  2.2045
 4946SOL    HW226301   3.621   1.611   5.703  0.3030 -0.6660  2.4545
 4947SOL     OW26302   3.155   3.400   1.528 -0.5456  0.2870 -0.1633
 4947SOL    HW126303   3.151   3.495   1.519  2.5313  0.2101 -2.4303
 4947SOL    HW226304   3.245   3.381   1.502 -1.1251  0.2827 -2.1941
 4948SOL     OW26305   3.970   0.051   4.204 -0.3445 -0.2699 -0.0687
 4948SOL    HW126306   4.052   0.082   4.166 -0.3154 -0.6611 -0.3206
 4948SOL    HW226307   3.967   0.116   4.275  2.4825 -0.3586  0.1480
 4949SOL     OW26308   3.843   0.695   7.682 -0.4432  0.5957 -0.4557
 4949SOL    HW126309   3.824   0.653   7.766  0.2361  1.1029 -0.0482
 4949SOL    HW226310   3.935   0.670   7.678 -0.5888  0.3413 -2.1762
 4950SOL     OW26311   1.595   2.065   7.186  0.4966 -0.3825 -0.2507
 4950SOL    HW126312   1.584   1.977   7.149  2.1216 -0.2863 -0.9193
 4950SOL    HW226313   1.612   2.117   7.108 -0.4134  0.5843  0.1992
 4951SOL     OW26314   2.742   0.080   5.981  0.5067  0.2425  0.0872
 4951SOL    HW126315   2.799   0.148   6.018 -0.2606  0.6544  0.5119
 4951SOL    HW226316   2.775   4.722   6.020 -0.8446 -0.0007  0.7164
 4952SOL     OW26317   1.009   3.693   9.492 -0.5980  0.1630 -0.5027
 4952SOL    HW126318   0.916   3.712   9.481 -0.1217  2.4187 -0.6281
 4952SOL    HW226319   1.006   3.653   9.579  2.7162  1.5797  0.2857
 4953SOL     OW26320   1.186   2.500   8.613 -0.1161  0.1975 -0.4580
 4953SOL    HW126321   1.170   2.418   8.568 -1.0756  0.8237 -1.2569
 4953SOL    HW226322   1.254   2.482   8.678 -1.3777 -0.2849  0.7361
 4954SOL     OW26323   4.567   1.117   5.753  0.0585 -0.7423 -0.3589
 4954SOL    HW126324   4.478   1.141   5.778  0.4888 -0.7785  1.1761
 4954SOL    HW226325   4.599   1.193   5.704  0.9651 -0.8364  0.0856
 4955SOL     OW26326   0.885   2.214  10.831  0.5653 -0.5199 -0.0839
 4955SOL    HW126327   0.944   2.289  10.836 -0.6430  0.2844  2.2043
 4955SOL    HW226328   0.865   2.211  10.925  1.9964  0.4725  0.2558
 4956SOL     OW26329   2.135   3.811   1.865 -0.4214 -0.5539  0.3059
 4956SOL    HW126330   2.189   3.887   1.844  1.0975 -1.8028 -0.2856
 4956SOL    HW226331   2.187   3.757   1.925  0.2930 -0.3599 -0.1328
 4957SOL     OW26332   1.999   1.052   2.525 -0.2165  0.8400  0.6621
 4957SOL    HW126333   1.964   1.133   2.488 -2.0998 -0.7401 -1.0247
 4957SOL    HW226334   1.928   1.026   2.584 -0.4931  1.7946  0.7456
 4958SOL     OW26335   0.436   2.782   7.433 -1.0353  0.5222  0.2113
 4958SOL    HW126336   0.394   2.734   7.505 -0.7933 -0.4065 -0.2756
 4958SOL    HW226337   0.394   2.747   7.355 -1.8358 -1.5206  1.5479
 4959SOL     OW26338   0.343   0.839   5.411 -0.0210  0.0125 -0.0363
 4959SOL    HW126339   0.373   0.870   5.497 -0.2088 -1.0913  0.4308
 4959SOL    HW226340   0.335   0.746   5.433  0.2993  0.1588  0.6798
 4960SOL     OW26341   3.484   2.902   7.033 -0.4014 -0.3653  0.0646
 4960SOL    HW126342   3.546   2.869   7.098 -1.5225 -0.1408  1.2342
 4960SOL    HW226343   3.471   2.994   7.055  0.5849 -0.1024 -0.4388
 4961SOL     OW26344   4.436   2.111   4.252 -0.3072  0.2643  0.0744
 4961SOL    HW126345   4.410   2.029   4.295  0.0707  1.2425  2.1726
 4961SOL    HW226346   4.424   2.100   4.158  0.7414 -3.8004  0.4373
 4962SOL     OW26347   1.866   1.794   6.395  0.3516 -0.2369 -0.0117
 4962SOL    HW126348   1.856   1.758   6.306  1.2190  1.9253 -0.9846
 4962SOL    HW226349   1.897   1.721   6.449  0.8339  1.9468  2.6298
 4963SOL     OW26350   0.341   4.204  11.933 -0.1048 -0.2914 -0.5021
 4963SOL    HW126351   0.345   4.109  11.949 -1.7779 -0.1643  0.5912
 4963SOL    HW226352   0.421   4.230  11.979  0.3913 -3.0056  0.2142
 4964SOL     OW26353   3.805   3.935   3.306 -0.2300 -0.3547 -0.4008
 4964SOL    HW126354   3.895   3.905   3.319  0.1522  0.6920 -0.6180
 4964SOL    HW226355   3.757   3.894   3.379  0.4357 -0.0110  0.2279
 4965SOL     OW26356   2.011   1.750  12.063 -0.1139  0.3017  0.6976
 4965SOL    HW126357   1.990   1.802  12.141 -0.0562  1.8570 -0.3248
 4965SOL    HW226358   1.987   1.665  12.100  0.1291  0.4553  1.2166
 4966SOL     OW26359   4.095   2.148   4.739  0.6455  0.2024  0.5855
 4966SOL    HW126360   4.148   2.221   4.708  0.1771  0.6964  0.9384
 4966SOL    HW226361   4.005   2.179   4.751  2.3190  4.4746  1.9568
 4967SOL     OW26362   0.368   4.706   7.050  0.4805 -0.4801  0.1778
 4967SOL    HW126363   0.429   4.721   6.979  1.0225  1.3884  1.0459
 4967SOL    HW226364   0.435   4.706   7.118 -0.7413 -0.3596  1.3733
 4968SOL     OW26365   2.528   1.063   3.577  0.0294  0.0885 -0.5320
 4968SOL    HW126366   2.520   1.004   3.652  1.8961  3.0455  2.0019
 4968SOL    HW226367   2.616   1.036   3.549  0.2138 -1.9688  2.0059
 4969SOL     OW26368   0.761   4.234   3.259 -0.2784 -0.2237 -0.3698
 4969SOL    HW126369   0.765   4.148   3.216 -0.2365  0.3374 -1.4962
 4969SOL    HW226370   0.806   4.220   3.342 -1.6371 -0.1015  0.3846
 4970SOL     OW26371   1.800   0.244   5.275 -0.0234 -0.3414  0.0135
 4970SOL    HW126372   1.782   0.332   5.242  0.6132 -1.2394 -2.7511
 4970SOL    HW226373   1.765   0.181   5.212 -3.0581  4.2020 -2.8351
 4971SOL     OW26374   2.689   1.568   5.878 -0.3233 -0.4806 -0.1828
 4971SOL    HW126375   2.753   1.622   5.925  1.7518 -1.2909 -2.0371
 4971SOL    HW226376   2.669   1.621   5.801 -3.1447  0.4534  1.2060
 4972SOL     OW26377   1.018   2.569   4.691 -0.2063  0.6037  0.3011
 4972SOL    HW126378   1.103   2.613   4.697  0.1125  0.4288 -2.6733
 4972SOL    HW226379   1.011   2.539   4.781  0.6225  2.3738  0.9397
 4973SOL     OW26380   2.764   4.199   2.775 -0.0947 -0.0416  0.3437
 4973SOL    HW126381   2.763   4.291   2.803 -0.0065  0.7513 -2.2775
 4973SOL    HW226382   2.793   4.164   2.859 -0.4641  0.3382  0.6342
 4974SOL     OW26383   4.247   2.935  11.680  0.1358 -0.2174  0.8711
 4974SOL    HW126384   4.160   2.932  11.640  0.7188  0.8879 -0.5178
 4974SOL    HW226385   4.266   3.028  11.692 -0.4841 -0.0856  0.8158
 4975SOL     OW26386   2.310   0.368   3.519  0.7340 -0.1259  0.1803
 4975SOL    HW126387   2.321   0.457   3.487  0.3411 -0.0090  0.3715
 4975SOL    HW226388   2.215   0.357   3.517  0.9540 -2.3748  1.9817
 4976SOL     OW26389   4.065   0.375   6.732 -0.2295  0.6570  0.0466
 4976SOL    HW126390   3.990   0.353   6.678  1.0654  0.3342 -1.6153
 4976SOL    HW226391   4.116   0.431   6.674 -1.6570  0.7749 -1.0808
 4977SOL     OW26392   1.439   0.262  17.492  0.2605 -0.5612  0.2889
 4977SOL    HW126393   1.508   0.201  17.517 -0.5224 -0.7609  1.9920
 4977SOL    HW226394   1.452   0.329  17.560 -1.0530 -2.5430  2.4960
 4978SOL     OW26395   4.356   2.854   7.296  0.4205  0.2205  0.3097
 4978SOL    HW126396   4.390   2.769   7.326 -2.2480 -0.6598  0.9072
 4978SOL    HW226397   4.293   2.829   7.228  0.4789 -1.6741  0.9442
 4979SOL     OW26398   3.983   2.901  15.648  0.3781 -0.4618  0.1044
 4979SOL    HW126399   4.077   2.889  15.634  0.9912  1.1763  2.8098
 4979SOL    HW226400   3.989   2.982  15.699  1.1165 -0.5451  0.1491
 4980SOL     OW26401   0.115   0.337   7.794  0.5074  0.1239 -0.5005
 4980SOL    HW126402   0.159   0.337   7.879 -0.5932 -2.1023  0.0587
 4980SOL    HW226403   0.121   0.429   7.768  1.0251  0.1885 -0.1611
 4981SOL     OW26404   0.754   3.937  15.241  0.0717 -0.5769  0.5738
 4981SOL    HW126405   0.723   3.998  15.174 -1.0113 -0.3527  1.2795
 4981SOL    HW226406   0.800   3.875  15.185 -0.1413 -2.4164  2.4140
 4982SOL     OW26407   3.213   0.080   1.854  0.3992 -0.1940  0.2305
 4982SOL    HW126408   3.201   0.150   1.917  0.6511 -1.3183  1.5302
 4982SOL    HW226409   3.276   0.131   1.803  1.4470 -1.2287  0.4770
 4983SOL     OW26410   3.754   1.928  15.469 -0.4408 -0.0318 -0.8270
 4983SOL    HW126411   3.667   1.939  15.508  0.4001 -0.1071  1.0942
 4983SOL    HW226412   3.741   1.962  15.380  1.1331 -0.1561 -1.0966
 4984SOL     OW26413   3.586   1.368   4.527  0.0445 -0.4410 -0.6512
 4984SOL    HW126414   3.550   1.448   4.567 -0.3135  0.2503 -2.3556
 4984SOL    HW226415   3.513   1.306   4.529  1.7104 -2.2948  2.0456
 4985SOL     OW26416   2.800   2.976   3.376 -0.2190 -0.2313 -0.1731
 4985SOL    HW126417   2.738   2.930   3.434  1.0371 -1.6586  0.0359
 4985SOL    HW226418   2.741   3.028   3.322 -0.4876 -1.4044 -1.0200
 4986SOL     OW26419   0.302   4.195  12.705  0.8375  0.9891 -0.3804
 4986SOL    HW126420   0.341   4.269  12.658 -0.1465  1.9672  0.3563
 4986SOL    HW226421   0.306   4.227  12.795  0.9494 -1.1713  0.3781
 4987SOL     OW26422   0.010   4.542   7.804 -0.3610 -0.4900 -0.1995
 4987SOL    HW126423   4.676   4.513   7.733  0.5229 -0.7240 -0.8003
 4987SOL    HW226424   0.019   4.637   7.794 -1.3096 -0.4213 -0.3936
 4988SOL     OW26425   3.387   3.656   3.602 -0.2973 -0.0856  0.1871
 4988SOL    HW126426   3.444   3.664   3.678 -1.5399 -3.4144  1.4814
 4988SOL    HW226427   3.397   3.738   3.555 -0.0753 -0.4275 -0.3712
 4989SOL     OW26428   4.386   1.133   8.145 -0.2210  0.3179  0.5910
 4989SOL    HW126429   4.415   1.089   8.225 -1.4510 -0.8650  0.3975
 4989SOL    HW226430   4.463   1.179   8.112  0.6741 -0.5041  1.5366
 4990SOL     OW26431   3.805   2.615  14.886 -0.1947  0.8004 -0.7710
 4990SOL    HW126432   3.894   2.580  14.884  0.2283  1.8519 -0.5969
 4990SOL    HW226433   3.784   2.619  14.792 -0.1093 -1.5976 -0.8819
 4991SOL     OW26434   2.514   2.936   4.219 -0.2493  0.2568  0.2968
 4991SOL    HW126435   2.575   2.889   4.275  0.9265 -1.5533 -2.5503
 4991SOL    HW226436   2.560   3.019   4.208  1.0331 -0.8006 -2.2083
 4992SOL     OW26437   2.777   3.973   3.518 -0.2102 -0.1539  0.2861
 4992SOL    HW126438   2.822   3.899   3.476  0.8189 -0.0766  1.2601
 4992SOL    HW226439   2.707   3.994   3.455  1.7296 -2.2861 -2.6190
 4993SOL     OW26440   3.475   1.342   8.550 -0.1828 -0.1675 -0.1252
 4993SOL    HW126441   3.447   1.409   8.487 -0.3520 -0.5794 -0.4917
 4993SOL    HW226442   3.538   1.384   8.608 -1.0849 -0.4892  1.0944
 4994SOL     OW26443   1.041   4.478  13.571 -0.5001 -0.1022 -0.6900
 4994SOL    HW126444   1.044   4.445  13.661 -0.3738  1.5631 -0.0881
 4994SOL    HW226445   1.089   4.410  13.525  2.0576  0.2454  1.4664
 4995SOL     OW26446   1.039   4.652   5.961  0.6320 -0.4100 -0.0255
 4995SOL    HW126447   1.055   0.023   5.964 -2.7557  0.1716 -0.2467
 4995SOL    HW226448   0.970   4.653   5.895  0.1389  0.1742  0.4950
 4996SOL     OW26449   4.411   4.380   6.618  0.0928 -0.4978  0.1309
 4996SOL    HW126450   4.386   4.440   6.687  2.4326  1.6576 -0.9298
 4996SOL    HW226451   4.479   4.425   6.567 -1.5200 -1.2396 -2.7230
 4997SOL     OW26452   3.669   2.557  16.046  0.3008  0.2247 -0.2245
 4997SOL    HW126453   3.661   2.483  15.986 -0.9504 -0.7781  1.1871
 4997SOL    HW226454   3.695   2.630  15.989  0.1549  0.1658 -0.3659
 4998SOL     OW26455   4.073   0.293   5.063  0.6841  0.5557 -0.6025
 4998SOL    HW126456   4.006   0.361   5.071  0.5965  0.4272 -0.2203
 4998SOL    HW226457   4.092   0.267   5.153 -2.5915 -0.9923 -0.3452
 4999SOL     OW26458   2.942   2.297  10.974  0.1742  0.0402 -0.0745
 4999SOL    HW126459   2.973   2.383  11.003 -1.3319  0.4745  0.2685
 4999SOL    HW226460   3.031   2.262  10.968 -0.4585 -1.5426 -0.0342
 5000SOL     OW26461   0.592   0.147  10.364  0.4942  0.1480 -0.1579
 5000SOL    HW126462   0.677   0.122  10.329  0.6711  1.3669 -0.5825
 5000SOL    HW226463   0.528   0.094  10.316  3.7174 -3.8718  0.0091
 5001SOL     OW26464   1.964   2.483   2.925  0.6717 -0.7033 -0.2099
 5001SOL    HW126465   1.965   2.451   2.835  0.6524 -1.6099  0.1146
 5001SOL    HW226466   1.927   2.409   2.972 -1.1746  1.1054  1.2221
 5002SOL     OW26467   3.568   3.896   7.710  0.5116 -0.6357  0.0680
 5002SOL    HW126468   3.616   3.973   7.681 -0.2457  0.7707  2.4877
 5002SOL    HW226469   3.487   3.937   7.738  0.7162  0.1484 -0.5037
 5003SOL     OW26470   2.571   1.223  14.321 -0.4405  0.0363  0.0903
 5003SOL    HW126471   2.596   1.155  14.259 -0.1000  0.4572 -0.2333
 5003SOL    HW226472   2.484   1.243  14.286 -0.2473 -0.0331 -0.4307
 5004SOL     OW26473   1.153   0.679   2.588  0.0058  0.1155 -0.3894
 5004SOL    HW126474   1.210   0.700   2.514  1.1252  2.0559  0.9975
 5004SOL    HW226475   1.147   0.762   2.635  1.6495  0.5358 -0.9087
 5005SOL     OW26476   2.252   3.361   1.338 -0.9958  0.5198 -0.0668
 5005SOL    HW126477   2.306   3.423   1.288 -1.3692 -0.3430 -1.5593
 5005SOL    HW226478   2.183   3.350   1.272 -0.1417 -1.1961 -0.6772
 5006SOL     OW26479   1.877   4.687   0.640 -0.4469 -0.4046  0.6849
 5006SOL    HW126480   1.809   4.718   0.700  0.0452  1.1107  0.4588
 5006SOL    HW226481   1.833   4.661   0.559  0.8131 -0.1438 -0.0742
 5007SOL     OW26482   2.020   2.327   6.888  0.1044  0.3054 -0.0966
 5007SOL    HW126483   2.026   2.287   6.801  1.0313 -2.2569  1.1757
 5007SOL    HW226484   1.988   2.414   6.862 -0.7555 -0.1053 -0.4404
 5008SOL     OW26485   0.248   3.935   8.888 -0.0196 -0.9510 -0.2720
 5008SOL    HW126486   0.247   3.874   8.814 -3.2308 -1.6387  0.3538
 5008SOL    HW226487   0.236   4.019   8.844 -0.4270 -0.9097 -0.0822
 5009SOL     OW26488   3.512   4.447   4.768  0.0888  0.6785 -0.1262
 5009SOL    HW126489   3.581   4.468   4.706  1.2633 -2.7982 -0.0249
 5009SOL    HW226490   3.491   4.360   4.733 -3.2656  1.6279 -0.4685
 5010SOL     OW26491   3.085   1.262   8.796  0.5380 -0.4315 -0.4433
 5010SOL    HW126492   3.113   1.245   8.706 -1.9289  0.1958 -1.3172
 5010SOL    HW226493   2.993   1.235   8.791  0.2336  0.2676  1.3444
 5011SOL     OW26494   3.575   1.834  11.759  0.1189  0.5291  0.0489
 5011SOL    HW126495   3.635   1.901  11.728 -1.1624  2.4406  1.7248
 5011SOL    HW226496   3.487   1.859  11.730 -0.2850  1.1638  1.7799
 5012SOL     OW26497   2.928   3.949   5.741 -0.4899 -0.5557  0.0422
 5012SOL    HW126498   3.022   3.932   5.750  0.1965  2.5213 -1.2649
 5012SOL    HW226499   2.931   4.045   5.743  0.3552 -0.6060  2.4095
 5013SOL     OW26500   0.164   3.930  15.796 -0.6404  0.6099 -0.2356
 5013SOL    HW126501   0.100   3.980  15.746 -3.5157 -3.7960 -0.9921
 5013SOL    HW226502   0.140   3.930  15.889 -1.0736  0.8737 -0.3496
 5014SOL     OW26503   3.444   0.928   9.898  0.1503  0.5260 -0.0856
 5014SOL    HW126504   3.537   0.937   9.916 -0.2300 -0.6000  2.4576
 5014SOL    HW226505   3.453   0.866   9.826  0.6905 -0.3888  0.7686
 5015SOL     OW26506   1.435   4.333   8.065 -0.1118 -0.2542 -0.4068
 5015SOL    HW126507   1.476   4.416   8.090  0.7406 -0.6805 -0.3547
 5015SOL    HW226508   1.356   4.341   8.118  1.2544 -2.4328  1.9827
 5016SOL     OW26509   0.150   3.426   0.530 -0.8775  0.0330 -0.4669
 5016SOL    HW126510   0.227   3.443   0.476  0.2299 -0.2635  1.0092
 5016SOL    HW226511   0.126   3.514   0.558  0.1978 -0.7807  3.0269
 5017SOL     OW26512   3.863   1.323   3.930  0.1060 -0.3737 -0.1646
 5017SOL    HW126513   3.823   1.399   3.887 -2.0076 -2.0255 -1.1223
 5017SOL    HW226514   3.785   1.290   3.974 -0.2821  0.0273 -0.5535
 5018SOL     OW26515   3.757   2.185   6.531  0.1759  0.1666 -0.9083
 5018SOL    HW126516   3.729   2.099   6.564 -0.7684  1.0689  0.6452
 5018SOL    HW226517   3.846   2.190   6.566 -0.2498  0.2305  0.1840
 5019SOL     OW26518   0.836   0.950   2.394  0.0902  0.0752  0.2130
 5019SOL    HW126519   0.759   0.966   2.448 -0.5606  1.1236 -1.0353
 5019SOL    HW226520   0.840   0.854   2.395  1.8730  0.0979 -2.4080
 5020SOL     OW26521   4.024   0.154   9.491  0.6224 -0.1811  0.3963
 5020SOL    HW126522   4.108   0.199   9.482 -0.0080  0.5816 -1.5938
 5020SOL    HW226523   3.974   0.191   9.418  1.4995  0.5758  0.1775
 5021SOL     OW26524   3.838   2.295  11.457 -0.0822 -0.4940 -0.8903
 5021SOL    HW126525   3.904   2.303  11.388 -1.4027  1.6446 -1.8912
 5021SOL    HW226526   3.810   2.205  11.439 -1.4456 -0.6750  2.1538
 5022SOL     OW26527   0.296   1.328   6.368 -0.4056  0.0145  0.2164
 5022SOL    HW126528   0.382   1.353   6.333  0.0939 -0.5505  1.0354
 5022SOL    HW226529   0.253   1.409   6.341 -2.2240 -0.8570  0.5247
 5023SOL     OW26530   4.592   1.754   4.364 -0.1899 -0.2393  0.1149
 5023SOL    HW126531   4.678   1.779   4.332 -0.9472  1.4661 -0.5506
 5023SOL    HW226532   4.588   1.660   4.346  1.1009 -0.4201  0.8010
 5024SOL     OW26533   2.761   2.376   5.362  0.2535  0.1444 -0.1732
 5024SOL    HW126534   2.802   2.462   5.360  1.2056 -0.2840  0.8487
 5024SOL    HW226535   2.678   2.403   5.400  0.4953 -1.6619  1.6344
 5025SOL     OW26536   1.304   2.660  17.530 -0.1092  0.2190 -0.2185
 5025SOL    HW126537   1.237   2.689  17.468 -0.9585  0.3397  0.7517
 5025SOL    HW226538   1.254   2.590  17.573 -0.6711  0.3045 -0.7185
 5026SOL     OW26539   1.932   1.616  11.732 -0.0588 -0.8964 -0.1744
 5026SOL    HW126540   1.863   1.579  11.788 -1.2257  0.9848 -0.3886
 5026SOL    HW226541   1.964   1.533  11.697 -0.3145 -0.7789 -0.6840
 5027SOL     OW26542   4.426   4.682   8.027 -0.9570  0.0917 -0.5754
 5027SOL    HW126543   4.467   0.007   7.955  1.0963 -1.9333 -0.7521
 5027SOL    HW226544   4.431   4.591   7.998 -0.7147  0.1034 -0.5689
 5028SOL     OW26545   3.272   4.585   3.565 -0.1905  0.4617 -0.5006
 5028SOL    HW126546   3.277   4.676   3.534  1.4764  0.5471  0.0472
 5028SOL    HW226547   3.183   4.600   3.597  0.4658 -1.3907  2.1263
 5029SOL     OW26548   0.531   3.031   6.847 -0.4671 -0.2122  0.3443
 5029SOL    HW126549   0.621   3.055   6.869 -0.7742  1.4695 -0.2060
 5029SOL    HW226550   0.504   3.083   6.771 -0.5465  1.5097  1.5582
 5030SOL     OW26551   0.461   0.620  14.427 -0.0663  0.3116  0.7386
 5030SOL    HW126552   0.452   0.578  14.341  1.2337  0.6845  0.4313
 5030SOL    HW226553   0.490   0.704  14.391  0.2546  0.2784  0.9270
 5031SOL     OW26554   0.458   0.875   4.940  0.0940  0.7330 -0.1402
 5031SOL    HW126555   0.390   0.928   4.900  0.8060  0.6703 -1.4117
 5031SOL    HW226556   0.538   0.898   4.894  0.1908 -0.7468 -0.7371
 5032SOL     OW26557   4.335   3.088  10.091  0.1493  0.1949  0.1105
 5032SOL    HW126558   4.330   3.049  10.179 -0.4187  2.2447  1.0054
 5032SOL    HW226559   4.252   3.060  10.052 -0.0593  4.0699 -2.2111
 5033SOL     OW26560   0.757   4.370   4.345  0.1227  0.1423 -0.3597
 5033SOL    HW126561   0.761   4.437   4.413 -1.6577 -0.1384  0.0035
 5033SOL    HW226562   0.671   4.329   4.355  0.5094 -0.8541 -1.1165
 5034SOL     OW26563   0.579   2.990   7.537 -0.0502 -0.3215 -0.0033
 5034SOL    HW126564   0.597   3.043   7.459  0.0098 -2.3806 -1.3836
 5034SOL    HW226565   0.536   2.913   7.500 -0.5246 -0.9925  1.9892
 5035SOL     OW26566   0.697   3.556   8.067 -0.6925 -0.1198 -0.1534
 5035SOL    HW126567   0.709   3.573   8.160  0.8095 -0.3145 -0.3113
 5035SOL    HW226568   0.787   3.562   8.034 -0.0978  1.1683  1.6593
 5036SOL     OW26569   2.382   2.930   3.543  0.1867 -0.3943  0.0533
 5036SOL    HW126570   2.462   2.973   3.572 -0.3184  0.2349  0.5033
 5036SOL    HW226571   2.322   2.986   3.591  2.3768  1.2992  0.8230
 5037SOL     OW26572   1.555   4.150   4.558  0.0036  0.2346  0.6847
 5037SOL    HW126573   1.599   4.068   4.579  2.1263  0.8539 -1.4554
 5037SOL    HW226574   1.482   4.162   4.620  0.3867 -1.2886  1.4170
 5038SOL     OW26575   1.243   0.510  17.619  0.1332  0.2899 -0.0918
 5038SOL    HW126576   1.239   0.479   0.016  0.2520 -0.4381 -0.3352
 5038SOL    HW226577   1.236   0.604  17.632 -0.0694  0.2853 -0.1690
 5039SOL     OW26578   3.283   1.148  14.594 -0.2357 -0.0860  0.0688
 5039SOL    HW126579   3.377   1.136  14.578 -0.2345 -1.1865  0.9752
 5039SOL    HW226580   3.273   1.161  14.688 -1.5036 -0.6936  0.0165
 5040SOL     OW26581   1.855   0.356   2.474  0.0488  0.0104 -0.0634
 5040SOL    HW126582   1.761   0.354   2.458  0.4222  0.2001 -2.1945
 5040SOL    HW226583   1.858   0.351   2.570 -0.7109  2.3315  0.0979
 5041SOL     OW26584   0.694   4.474   6.340 -0.1957 -0.4771 -0.2564
 5041SOL    HW126585   0.751   4.433   6.406  0.0292  0.9619  0.4367
 5041SOL    HW226586   0.616   4.484   6.394  0.5217  1.2861  0.4327
 5042SOL     OW26587   2.192   1.790   2.357 -0.2829  0.0906  0.0512
 5042SOL    HW126588   2.133   1.716   2.345  0.3275 -0.5318  0.8304
 5042SOL    HW226589   2.276   1.749   2.336 -1.5236 -1.3013 -2.0707
 5043SOL     OW26590   2.067   3.798  15.697 -0.0744  0.0056  0.0162
 5043SOL    HW126591   2.060   3.705  15.677 -2.0232 -0.1520  1.4392
 5043SOL    HW226592   2.160   3.812  15.717 -0.6168  0.4292  2.2909
 5044SOL     OW26593   2.039   2.946   6.065  0.0995 -0.4517  0.1652
 5044SOL    HW126594   2.034   2.850   6.071 -0.0844 -0.5312 -1.2854
 5044SOL    HW226595   2.034   2.975   6.156 -3.4905  2.5077 -1.0373
 5045SOL     OW26596   4.713   2.281  13.051  0.0148  0.6264 -0.4142
 5045SOL    HW126597   4.722   2.272  13.146  1.3284  1.1160 -0.4916
 5045SOL    HW226598   4.629   2.238  13.037  0.9320 -0.5669 -2.2478
 5046SOL     OW26599   2.543   0.137   3.107 -0.1512 -0.3317  0.4626
 5046SOL    HW126600   2.509   0.128   3.195 -1.1478 -2.5200 -0.1539
 5046SOL    HW226601   2.627   0.183   3.118 -0.2630  0.1324 -0.5710
 5047SOL     OW26602   0.560   3.552   4.447 -0.3066  0.1637 -0.1163
 5047SOL    HW126603   0.633   3.614   4.440 -1.0934  1.1591  0.5613
 5047SOL    HW226604   0.575   3.491   4.375  1.5601 -0.0016  0.4049
 5048SOL     OW26605   0.192   1.172   3.339 -0.4304 -0.4201  0.3859
 5048SOL    HW126606   0.139   1.220   3.402  1.1530  0.6284  0.9090
 5048SOL    HW226607   0.175   1.222   3.259  1.4399  1.6679  1.3063
 5049SOL     OW26608   1.803   1.741   5.427 -0.0091  0.3246  0.5579
 5049SOL    HW126609   1.714   1.740   5.463 -0.0907  1.1142  0.3775
 5049SOL    HW226610   1.812   1.835   5.412 -1.2497  0.1251 -1.4277
 5050SOL     OW26611   4.162   1.195  12.007 -0.1630 -0.0757  0.1661
 5050SOL    HW126612   4.161   1.261  12.077  0.5014  0.6312 -0.4926
 5050SOL    HW226613   4.176   1.253  11.932  0.5702 -0.1080  0.2738
 5051SOL     OW26614   2.348   2.774  11.356 -0.0874  0.3579  0.7033
 5051SOL    HW126615   2.265   2.808  11.321  0.6473 -0.2148 -1.5785
 5051SOL    HW226616   2.365   2.833  11.429  2.1479 -0.6785  1.0282
 5052SOL     OW26617   0.989   0.460   8.650 -0.3257  0.7117  0.0301
 5052SOL    HW126618   0.936   0.528   8.691 -2.0495 -0.3792 -0.4265
 5052SOL    HW226619   0.998   0.392   8.717  1.1008  0.2975 -0.5612
 5053SOL     OW26620   0.704   0.708   5.711 -0.5519  0.2096 -0.1785
 5053SOL    HW126621   0.643   0.780   5.698  0.5726  0.7056 -2.6673
 5053SOL    HW226622   0.754   0.738   5.786 -0.0135  0.0131 -0.4581
 5054SOL     OW26623   1.293   3.433   8.761  0.4476 -0.6489  0.3168
 5054SOL    HW126624   1.305   3.343   8.792 -0.9136 -1.4671 -1.5360
 5054SOL    HW226625   1.249   3.466   8.839 -1.0186  0.1248 -0.8407
 5055SOL     OW26626   1.826   2.971  15.129 -0.2149 -0.4035 -0.1984
 5055SOL    HW126627   1.805   2.891  15.177  1.5980 -0.1712  0.9876
 5055SOL    HW226628   1.911   2.942  15.094 -0.2507 -1.1007  0.2949
 5056SOL     OW26629   4.269   0.345   3.267 -0.1865 -0.6996 -0.3460
 5056SOL    HW126630   4.361   0.320   3.278  0.4433  2.6382  2.2952
 5056SOL    HW226631   4.277   0.431   3.226  0.1644 -0.9251 -0.7490
 5057SOL     OW26632   2.528   3.584   0.470 -0.1728  0.2292 -0.3087
 5057SOL    HW126633   2.480   3.504   0.493  2.1570 -1.0954  0.0695
 5057SOL    HW226634   2.614   3.562   0.507  0.0980 -0.9490 -1.6051
 5058SOL     OW26635   1.005   2.078   5.008 -0.2301  0.4325 -0.0242
 5058SOL    HW126636   0.914   2.049   4.998  0.0980 -0.9083  1.0094
 5058SOL    HW226637   1.036   2.087   4.918 -1.0899 -0.5334 -0.4227
 5059SOL     OW26638   4.447   1.747   6.988  0.3540 -0.2268  0.6011
 5059SOL    HW126639   4.375   1.687   6.968 -0.9732  1.4849  0.2392
 5059SOL    HW226640   4.424   1.766   7.079  0.5002 -1.7381  0.9512
 5060SOL     OW26641   3.690   0.450   0.921 -0.0081 -0.0566  0.0316
 5060SOL    HW126642   3.630   0.386   0.960  0.6194 -1.2212 -0.9203
 5060SOL    HW226643   3.681   0.427   0.829  0.2924  0.6819 -0.1794
 5061SOL     OW26644   3.937   3.152   5.711 -0.5996 -0.1131 -0.0903
 5061SOL    HW126645   4.027   3.134   5.738 -1.1622 -0.9893  1.1731
 5061SOL    HW226646   3.933   3.138   5.616 -3.3655  0.9905 -0.1303
 5062SOL     OW26647   1.493   3.648   8.696 -0.6430  0.1149  0.0443
 5062SOL    HW126648   1.424   3.706   8.728 -2.6331 -1.2324 -1.8262
 5062SOL    HW226649   1.454   3.562   8.712 -1.0841 -0.1396 -2.5017
 5063SOL     OW26650   0.296   0.321   5.204  0.4832 -0.3443  0.5383
 5063SOL    HW126651   0.340   0.337   5.288  0.5712  2.3263 -0.0103
 5063SOL    HW226652   0.351   0.372   5.145  2.0349 -0.3396  1.9968
 5064SOL     OW26653   4.292   2.618   0.194  0.1093 -0.3477 -0.2469
 5064SOL    HW126654   4.304   2.541   0.139 -2.4187  1.1649 -2.9130
 5064SOL    HW226655   4.293   2.590   0.286  1.6171 -0.9207 -0.4340
 5065SOL     OW26656   3.019   4.465  13.490  0.7930  0.5663 -0.1005
 5065SOL    HW126657   3.043   4.499  13.403  1.6824 -0.4930 -0.2765
 5065SOL    HW226658   3.020   4.553  13.527  0.8200  0.4862  0.0878
 5066SOL     OW26659   4.041   4.013   8.428 -0.5224 -0.6376  0.0688
 5066SOL    HW126660   4.114   4.057   8.386 -1.0045 -3.2672 -3.4943
 5066SOL    HW226661   3.978   4.081   8.454  0.2480  1.6140 -4.0594
 5067SOL     OW26662   0.803   0.226   6.668  0.6527  0.6061  0.1100
 5067SOL    HW126663   0.739   0.203   6.600  0.6784  4.2879 -1.1917
 5067SOL    HW226664   0.846   0.294   6.616 -1.1467  2.6185  1.2685
 5068SOL     OW26665   3.114   1.543   8.309  0.2079 -0.1162 -0.1123
 5068SOL    HW126666   3.136   1.626   8.351  1.7547 -0.5224 -0.1424
 5068SOL    HW226667   3.120   1.478   8.380 -0.7944 -0.2902 -0.1838
 5069SOL     OW26668   1.075   3.253   5.575  0.1352  0.1500  0.2868
 5069SOL    HW126669   1.031   3.262   5.659  0.1556 -0.3814  0.3513
 5069SOL    HW226670   1.146   3.317   5.575 -0.7552  1.1354  1.2930
 5070SOL     OW26671   0.387   3.136   3.754 -0.7087 -0.0966 -0.0121
 5070SOL    HW126672   0.376   3.183   3.836 -0.2333 -1.8505  1.0380
 5070SOL    HW226673   0.343   3.052   3.769  0.3851 -0.6454  0.1150
 5071SOL     OW26674   2.313   1.397   3.400  0.4278  0.0969  0.2131
 5071SOL    HW126675   2.370   1.473   3.413  0.0346  0.0185  2.2964
 5071SOL    HW226676   2.228   1.432   3.425  0.9411  0.3689  1.5420
 5072SOL     OW26677   3.487   3.258  14.055  0.4182 -0.2034  0.0709
 5072SOL    HW126678   3.430   3.184  14.078 -0.7776  0.2666 -1.3384
 5072SOL    HW226679   3.445   3.305  13.983  2.4593  2.1998  0.4788
 5073SOL     OW26680   3.706   0.812  11.326 -0.2600 -0.3581 -0.3058
 5073SOL    HW126681   3.641   0.817  11.255  0.0421  2.2688 -0.3934
 5073SOL    HW226682   3.675   0.738  11.377  0.3579 -1.8530 -2.1141
 5074SOL     OW26683   2.223   4.145   7.099 -0.3711  0.0805  0.3541
 5074SOL    HW126684   2.282   4.202   7.149  1.4427 -1.5568  0.0864
 5074SOL    HW226685   2.138   4.171   7.134 -0.8188 -1.1018  0.1280
 5075SOL     OW26686   0.547   4.215   5.484  0.0958  0.5614  0.2053
 5075SOL    HW126687   0.632   4.227   5.441  1.6186 -1.8621  2.5509
 5075SOL    HW226688   0.573   4.140   5.537  0.7747  0.2742 -0.5264
 5076SOL     OW26689   0.457   2.331   7.149 -0.6628  0.0469  0.6587
 5076SOL    HW126690   0.528   2.309   7.209  0.4550  1.2873 -0.1855
 5076SOL    HW226691   0.504   2.375   7.077 -1.5067  0.5262  0.4025
 5077SOL     OW26692   2.018   2.365   3.313 -0.0365  0.1118 -0.1723
 5077SOL    HW126693   2.019   2.269   3.323 -1.6599 -0.1169 -2.1654
 5077SOL    HW226694   2.077   2.381   3.239 -0.3987 -0.7944 -0.6556
 5078SOL     OW26695   2.004   0.302   7.297  0.1168 -0.7305 -0.3438
 5078SOL    HW126696   1.935   0.335   7.354 -0.0392  0.5370 -1.2555
 5078SOL    HW226697   2.009   0.366   7.225 -0.2177  1.0952  1.2668
 5079SOL     OW26698   0.149   3.953  13.888 -0.1506  0.0894  0.4850
 5079SOL    HW126699   0.209   4.022  13.857 -0.2700  0.4247  0.9875
 5079SOL    HW226700   0.124   3.902  13.811  2.9899  0.6646 -0.9335
 5080SOL     OW26701   2.313   0.098   6.953 -0.1639  0.1938 -0.3908
 5080SOL    HW126702   2.386   0.120   7.011  0.3935 -0.1423 -0.9557
 5080SOL    HW226703   2.261   0.175   6.975  0.8375  1.5194 -2.5820
 5081SOL     OW26704   0.990   3.647  11.368 -0.2513 -0.8559 -0.4418
 5081SOL    HW126705   0.979   3.742  11.375  1.1154 -0.6485 -1.0735
 5081SOL    HW226706   1.084   3.636  11.354 -0.0675  1.8962 -1.5723
 5082SOL     OW26707   0.542   0.479   5.753  0.1923 -0.7771  0.4027
 5082SOL    HW126708   0.509   0.514   5.670  1.5913  0.7934  0.5085
 5082SOL    HW226709   0.617   0.538   5.765 -0.8468  1.6374 -5.1185
 5083SOL     OW26710   3.677   1.131   9.904  0.2040  0.3267  0.2115
 5083SOL    HW126711   3.720   1.207   9.945 -1.6502  1.2775  0.3632
 5083SOL    HW226712   3.736   1.087   9.843 -2.5108 -2.6787 -0.1867
 5084SOL     OW26713   4.372   3.968   1.262 -0.2141 -0.0210 -0.1450
 5084SOL    HW126714   4.417   3.928   1.336  0.5932  0.6056 -0.3000
 5084SOL    HW226715   4.441   3.964   1.196  1.0533  0.2348  1.1901
 5085SOL     OW26716   0.388   3.407   6.532  0.0845 -0.4063 -0.1862
 5085SOL    HW126717   0.468   3.367   6.499  1.4566  2.3180 -0.1556
 5085SOL    HW226718   0.418   3.498   6.534 -1.2172  0.0288 -0.0094
 5086SOL     OW26719   0.332   0.338   4.068  0.0551  0.4101 -0.1637
 5086SOL    HW126720   0.351   0.382   3.986  2.0441 -0.3626 -0.1214
 5086SOL    HW226721   0.250   0.298   4.041  1.7261 -2.5795 -0.9286
 5087SOL     OW26722   2.110   2.585   1.005 -0.5132  0.1493  0.0002
 5087SOL    HW126723   2.127   2.619   0.917  0.6887 -0.9448 -0.1871
 5087SOL    HW226724   2.136   2.493   1.008 -0.4566  0.0547 -3.3297
 5088SOL     OW26725   0.800   1.938  12.575 -0.0265 -0.3374  0.9625
 5088SOL    HW126726   0.740   2.009  12.553  1.2053  0.8024  1.2299
 5088SOL    HW226727   0.753   1.872  12.525  2.1858 -2.3930  1.6002
 5089SOL     OW26728   2.672   4.032   9.187  0.0719 -0.3546  0.4224
 5089SOL    HW126729   2.681   4.002   9.278  1.6075  0.7481  0.6463
 5089SOL    HW226730   2.582   4.066   9.188 -0.1724 -0.9982 -0.0046
 5090SOL     OW26731   4.334   2.199   5.448 -0.1643  1.1602 -0.1749
 5090SOL    HW126732   4.348   2.137   5.519  1.3746  0.3397 -1.1786
 5090SOL    HW226733   4.293   2.137   5.387 -0.6836  0.5902  0.7566
 5091SOL     OW26734   2.674   1.705  16.393 -0.4405  0.3412 -0.4012
 5091SOL    HW126735   2.769   1.708  16.377 -0.7600  3.3936 -1.6938
 5091SOL    HW226736   2.665   1.637  16.460  2.0833 -0.1760 -0.5642
 5092SOL     OW26737   1.394   1.728   0.775  0.1198  0.5980 -0.0869
 5092SOL    HW126738   1.475   1.706   0.728  0.4894  3.0972 -0.6020
 5092SOL    HW226739   1.338   1.652   0.761  0.7465  0.4343 -1.7609
 5093SOL     OW26740   3.342   2.049  14.925  0.2608 -0.3455  0.2845
 5093SOL    HW126741   3.303   2.131  14.894 -0.2300  0.3856  2.8451
 5093SOL    HW226742   3.369   2.007  14.844  1.8080  0.6677  0.2536
 5094SOL     OW26743   3.274   0.709   8.286 -0.2930  0.5930 -0.2727
 5094SOL    HW126744   3.348   0.648   8.292 -1.5777 -0.9516 -0.3124
 5094SOL    HW226745   3.206   0.653   8.322 -0.3246  1.3224  0.8129
 5095SOL     OW26746   3.320   2.305  13.689  0.2197 -0.2096  0.0578
 5095SOL    HW126747   3.368   2.241  13.637 -2.2531 -1.0080 -1.2611
 5095SOL    HW226748   3.390   2.334  13.747  1.0873 -0.2611 -0.9771
 5096SOL     OW26749   3.364   3.055   5.486 -0.2541 -0.1858 -0.4232
 5096SOL    HW126750   3.358   3.124   5.553 -3.5711 -0.4707 -0.4346
 5096SOL    HW226751   3.320   2.987   5.537 -1.7569  1.1096 -0.0036
 5097SOL     OW26752   3.154   2.180  16.986  0.1124  0.3920  0.2830
 5097SOL    HW126753   3.195   2.249  17.038 -0.9948  1.5693 -0.4038
 5097SOL    HW226754   3.068   2.214  16.960 -0.1105  0.7157  1.4623
 5098SOL     OW26755   2.763   1.536   6.797 -0.4644 -0.3420 -0.2851
 5098SOL    HW126756   2.748   1.445   6.770  1.9743 -0.7590 -0.1991
 5098SOL    HW226757   2.751   1.574   6.710 -1.0147  0.0343 -0.0452
 5099SOL     OW26758   0.947   2.508  12.945  0.2092 -0.2388  0.8422
 5099SOL    HW126759   0.862   2.550  12.940  0.5519  0.1742 -1.7515
 5099SOL    HW226760   0.915   2.419  12.961 -1.3918  0.2163  0.2014
 5100SOL     OW26761   3.653   3.786  12.577  0.4180  0.5452 -0.4031
 5100SOL    HW126762   3.619   3.844  12.509  0.5140  0.9781 -0.0808
 5100SOL    HW226763   3.736   3.765  12.533  0.0144 -0.5202 -0.6479
 5101SOL     OW26764   1.048   2.142   6.244  0.4358 -0.5125  0.5986
 5101SOL    HW126765   1.144   2.148   6.251  0.4086  0.0392  0.4702
 5101SOL    HW226766   1.020   2.148   6.336 -2.6017 -1.3430 -0.3084
 5102SOL     OW26767   1.704   4.299   4.046  0.7888  0.0519  0.4347
 5102SOL    HW126768   1.639   4.364   4.019 -0.2901 -1.2348 -0.0934
 5102SOL    HW226769   1.684   4.222   3.993 -3.5526  0.1238  1.9755
 5103SOL     OW26770   0.788   0.587  11.566  0.4569 -0.0423 -0.7232
 5103SOL    HW126771   0.808   0.610  11.657  0.6391 -1.9868 -0.2670
 5103SOL    HW226772   0.782   0.491  11.572 -0.1052  0.0381  0.0190
 5104SOL     OW26773   1.428   0.811   3.707  0.3964 -0.1148  0.3225
 5104SOL    HW126774   1.373   0.804   3.629 -1.1581 -0.2052  1.4181
 5104SOL    HW226775   1.463   0.898   3.687 -0.6967 -0.3418 -2.5669
 5105SOL     OW26776   1.504   0.480   4.133  0.0989 -0.2704 -0.4281
 5105SOL    HW126777   1.479   0.546   4.068 -0.3203  1.1787  1.1910
 5105SOL    HW226778   1.581   0.516   4.177  0.2900  0.4623 -1.3696
 5106SOL     OW26779   1.679   4.689   1.590 -0.3665 -0.2830 -0.2849
 5106SOL    HW126780   1.591   4.701   1.553  0.5053 -2.0450 -2.9679
 5106SOL    HW226781   1.690   0.021   1.667  1.2681 -0.5291 -0.3481
 5107SOL     OW26782   1.309   2.439   3.046 -0.9335 -0.3895 -0.7719
 5107SOL    HW126783   1.258   2.410   3.122  0.2197  0.0274  0.1608
 5107SOL    HW226784   1.394   2.400   3.068  0.3744  1.7912 -1.9926
 5108SOL     OW26785   4.405   2.835  13.170  0.6742 -0.5865  0.0275
 5108SOL    HW126786   4.462   2.912  13.174  2.0764 -1.5931 -0.9573
 5108SOL    HW226787   4.467   2.762  13.160  2.2670  0.8198 -0.3630
 5109SOL     OW26788   2.896   1.394  10.538  0.9764 -0.1764  0.3688
 5109SOL    HW126789   2.938   1.308  10.535  3.0117  0.9186 -2.7230
 5109SOL    HW226790   2.889   1.410  10.444 -1.8695  1.8318  0.9427
 5110SOL     OW26791   3.380   4.008   8.312 -0.4717  0.1925 -0.0351
 5110SOL    HW126792   3.461   4.004   8.263  0.4083 -0.6931  1.4791
 5110SOL    HW226793   3.320   3.959   8.256 -0.8160  3.2257 -2.2901
 5111SOL     OW26794   3.247   3.581   9.322  0.2570  0.4066 -0.0738
 5111SOL    HW126795   3.320   3.610   9.268  0.3426 -0.3875 -0.3850
 5111SOL    HW226796   3.285   3.544   9.402  0.8972 -0.4492 -0.7807
 5112SOL     OW26797   2.159   4.193   0.907 -0.1810 -0.3815  0.1159
 5112SOL    HW126798   2.100   4.269   0.915  1.0522  0.4813  1.0985
 5112SOL    HW226799   2.129   4.140   0.833 -0.3806 -1.0759  0.6918
 5113SOL     OW26800   1.574   1.438  10.832  0.1013 -0.5080 -0.2281
 5113SOL    HW126801   1.620   1.519  10.812 -0.5422 -0.0955 -0.0203
 5113SOL    HW226802   1.573   1.397  10.745  0.1674  3.8636 -2.3030
 5114SOL     OW26803   1.630   3.609   1.146 -0.7058 -0.0014 -0.3749
 5114SOL    HW126804   1.639   3.596   1.241 -2.8456 -0.9026 -0.3003
 5114SOL    HW226805   1.694   3.680   1.137 -0.6197 -0.1161 -0.6673
 5115SOL     OW26806   1.201   2.728   5.320  0.3226 -0.1159 -0.2812
 5115SOL    HW126807   1.237   2.686   5.242  0.6579  1.1500 -0.7962
 5115SOL    HW226808   1.249   2.693   5.395 -1.3506 -2.7762 -0.4244
 5116SOL     OW26809   1.625   0.635   4.797 -0.0135  0.1566 -0.1880
 5116SOL    HW126810   1.555   0.656   4.735  0.9324  2.2528 -0.5348
 5116SOL    HW226811   1.574   0.560   4.828  0.5247 -0.8413 -1.7189
 5117SOL     OW26812   1.486   3.503  10.593 -0.5047 -0.0261  0.1988
 5117SOL    HW126813   1.445   3.417  10.601  2.3176 -1.3522  0.5486
 5117SOL    HW226814   1.567   3.489  10.642  0.4308  2.3225 -0.7075
 5118SOL     OW26815   3.273   3.496   7.993 -0.0097  0.1929  0.1014
 5118SOL    HW126816   3.317   3.428   7.942 -4.2704 -1.2968 -1.5423
 5118SOL    HW226817   3.245   3.545   7.916 -0.1364  2.3715  1.5537
 5119SOL     OW26818   2.922   4.340  13.235 -0.5249 -0.2082  0.0020
 5119SOL    HW126819   2.978   4.311  13.307 -0.0532  0.9983  0.1246
 5119SOL    HW226820   2.861   4.384  13.295 -0.5296 -1.5463  0.9696
 5120SOL     OW26821   3.636   1.069   7.752  0.2486 -0.0674 -0.0362
 5120SOL    HW126822   3.585   1.126   7.693  0.6933  1.7150  1.2848
 5120SOL    HW226823   3.684   1.007   7.697 -1.4500 -0.6513 -0.8683
 5121SOL     OW26824   3.641   3.637   5.501 -0.1130  0.1476  0.4587
 5121SOL    HW126825   3.718   3.584   5.481 -0.2191 -0.1151  0.7385
 5121SOL    HW226826   3.570   3.592   5.455 -1.0188  0.6023  1.3814
 5122SOL     OW26827   0.252   1.272  15.939 -0.5038  0.2284 -0.1272
 5122SOL    HW126828   0.235   1.366  15.949 -3.1159  0.0302 -2.5832
 5122SOL    HW226829   0.195   1.247  16.011 -0.9789  0.1163 -0.5428
 5123SOL     OW26830   3.052   1.362   6.876  0.5640  0.5349 -0.1743
 5123SOL    HW126831   3.055   1.396   6.787  0.3822  0.7373 -0.1021
 5123SOL    HW226832   3.017   1.437   6.923  2.0583  1.6018 -0.7555
 5124SOL     OW26833   1.094   0.680   3.914  0.5954 -0.0426 -0.3487
 5124SOL    HW126834   1.023   0.715   3.860 -0.8096  0.1199  1.5952
 5124SOL    HW226835   1.105   0.599   3.864 -0.6881 -1.7459  2.0904
 5125SOL     OW26836   0.111   2.441   3.296 -0.3661 -0.2036  0.1710
 5125SOL    HW126837   0.172   2.397   3.355 -0.2977  0.2341  0.4291
 5125SOL    HW226838   0.115   2.393   3.213 -1.1337  0.3136 -0.1659
 5126SOL     OW26839   0.482   1.901   4.232  0.1757 -0.3584  0.4806
 5126SOL    HW126840   0.503   1.992   4.211 -0.8031  0.3029  2.3708
 5126SOL    HW226841   0.401   1.909   4.282  0.0376  3.1031 -0.3008
 5127SOL     OW26842   2.092   2.629   2.327 -0.5477  0.4455  0.0145
 5127SOL    HW126843   2.082   2.536   2.307 -1.1081  0.7991 -1.2833
 5127SOL    HW226844   2.025   2.659   2.266 -0.4388  0.0003 -0.3170
 5128SOL     OW26845   2.431   3.589   9.169  0.0369  0.2667 -0.0785
 5128SOL    HW126846   2.398   3.521   9.227  1.2287  1.2284  1.6980
 5128SOL    HW226847   2.486   3.540   9.108 -2.2318 -0.8857 -1.2252
 5129SOL     OW26848   1.061   3.796   5.520 -0.2155  0.1166 -0.1937
 5129SOL    HW126849   1.093   3.869   5.467  2.4448 -1.8878 -1.2644
 5129SOL    HW226850   1.007   3.845   5.583  1.2534  0.2048  0.9776
 5130SOL     OW26851   0.292   3.599   4.815  0.2221 -0.3279 -0.2420
 5130SOL    HW126852   0.329   3.628   4.899  2.0673  2.0534 -1.8696
 5130SOL    HW226853   0.260   3.686   4.789  1.9419  0.7349  1.1663
 5131SOL     OW26854   3.043   2.055  11.709  0.5292 -0.5189 -0.0470
 5131SOL    HW126855   3.008   2.038  11.797 -0.6889  1.1409 -0.2073
 5131SOL    HW226856   2.957   2.066  11.668  0.0692  1.1892  1.3658
 5132SOL     OW26857   2.270   4.484   2.561 -0.5146  0.4131 -0.2396
 5132SOL    HW126858   2.212   4.553   2.593 -1.7901  0.3526 -2.3899
 5132SOL    HW226859   2.292   4.518   2.474  4.2983 -3.8073 -0.6869
 5133SOL     OW26860   2.704   4.414   6.273  0.0148  0.3281  0.4425
 5133SOL    HW126861   2.677   4.337   6.324 -0.6212  0.7817  0.7937
 5133SOL    HW226862   2.718   4.478   6.342 -1.0041 -0.1355  1.0818
 5134SOL     OW26863   0.226   4.406   5.707 -0.1050  0.2409  0.5324
 5134SOL    HW126864   0.205   4.315   5.726 -0.3792  0.4052  1.0133
 5134SOL    HW226865   0.285   4.385   5.635  1.7686 -0.2249  2.2238
 5135SOL     OW26866   3.076   2.788   3.313  0.0061 -0.6431  0.8243
 5135SOL    HW126867   3.136   2.769   3.241 -0.8025  1.9279 -0.5223
 5135SOL    HW226868   3.110   2.711   3.359  1.0563  0.1949  1.4544
 5136SOL     OW26869   3.345   4.312   1.956 -0.2175 -0.3691 -0.1864
 5136SOL    HW126870   3.316   4.403   1.962  2.0902  0.3377  0.5033
 5136SOL    HW226871   3.368   4.307   2.049  1.2790  1.5662 -0.4457
 5137SOL     OW26872   0.937   1.116   9.910 -0.5577 -0.2465  0.3986
 5137SOL    HW126873   0.999   1.113   9.982  0.0553 -1.4298 -0.1795
 5137SOL    HW226874   0.877   1.053   9.948 -0.6278  0.9084  2.2003
 5138SOL     OW26875   0.413   0.411   0.897 -0.7147  0.4352 -0.6879
 5138SOL    HW126876   0.430   0.493   0.942  3.0814 -2.0609  2.4274
 5138SOL    HW226877   0.463   0.423   0.816  1.5499  0.8154  0.7608
 5139SOL     OW26878   0.120   1.273  16.187  0.1072 -0.4369 -0.2285
 5139SOL    HW126879   0.176   1.300  16.260 -1.1264 -0.5595  0.7777
 5139SOL    HW226880   0.129   1.178  16.194  0.1907 -0.6718 -3.5658
 5140SOL     OW26881   1.370   4.413   7.414  0.6719  0.2363 -0.0104
 5140SOL    HW126882   1.361   4.494   7.463  1.3566  0.0554  0.4203
 5140SOL    HW226883   1.359   4.344   7.479  0.6224  0.1210 -0.1404
 5141SOL     OW26884   1.669   3.971   1.433 -0.4205 -0.5689 -0.0272
 5141SOL    HW126885   1.651   3.990   1.341 -0.1847  0.5169  0.1538
 5141SOL    HW226886   1.738   4.036   1.441  0.4020 -1.3598 -0.7753
 5142SOL     OW26887   1.752   2.873   8.621  0.7202  0.4432 -0.3364
 5142SOL    HW126888   1.724   2.811   8.688  0.3924 -1.6136 -2.3634
 5142SOL    HW226889   1.762   2.958   8.664 -0.2649 -0.3667  1.5000
 5143SOL     OW26890   4.687   0.177   6.344 -0.5262  0.4845 -0.3256
 5143SOL    HW126891   4.646   0.119   6.280 -1.1480 -1.0542  1.4746
 5143SOL    HW226892   0.041   0.197   6.290  0.0574 -0.8449  0.0338
 5144SOL     OW26893   4.345   4.198  13.076 -0.3826  0.1104  0.2732
 5144SOL    HW126894   4.333   4.286  13.110 -0.9073  0.7586 -1.6409
 5144SOL    HW226895   4.387   4.206  12.990 -0.6620 -0.4342  0.0817
 5145SOL     OW26896   3.425   0.863  13.090  0.1611 -0.5843  0.2113
 5145SOL    HW126897   3.454   0.954  13.094 -2.4946  0.4153 -3.3057
 5145SOL    HW226898   3.393   0.847  13.001 -3.2663 -0.6945  1.4917
 5146SOL     OW26899   2.788   1.740   1.441  0.1752  0.6687 -0.3639
 5146SOL    HW126900   2.839   1.720   1.519 -1.4803  1.0922  0.8387
 5146SOL    HW226901   2.755   1.820   1.481 -0.2389  0.5774 -0.5211
 5147SOL     OW26902   0.028   0.189   6.752 -0.4740 -0.2514  0.0853
 5147SOL    HW126903   0.077   0.148   6.824 -0.5381  1.3916  1.0610
 5147SOL    HW226904   4.664   0.187   6.790 -0.7837 -2.6904 -0.7323
 5148SOL     OW26905   2.872   3.940   1.018  0.5802 -0.0356  0.1817
 5148SOL    HW126906   2.788   3.984   1.004  0.3679 -1.3567 -2.5478
 5148SOL    HW226907   2.927   3.997   0.964 -0.4362 -1.1937 -2.0416
 5149SOL     OW26908   0.237   0.406   2.969  0.4112 -0.2624  0.3091
 5149SOL    HW126909   0.314   0.416   3.023 -0.8506  0.5042  1.9476
 5149SOL    HW226910   0.221   0.499   2.957 -1.7013 -0.6528 -0.0524
 5150SOL     OW26911   3.312   3.288   4.482 -0.3625  0.1226 -0.3692
 5150SOL    HW126912   3.283   3.326   4.565 -0.4901 -1.4349  0.3009
 5150SOL    HW226913   3.331   3.198   4.507 -0.9984 -0.5818 -2.4099
 5151SOL     OW26914   4.298   3.322   0.508 -0.2102 -0.0742  0.2107
 5151SOL    HW126915   4.383   3.357   0.483 -0.5814  1.1101  0.5992
 5151SOL    HW226916   4.319   3.302   0.599  1.0165  1.5712  0.2871
 5152SOL     OW26917   0.550   1.535   5.364  0.0825 -0.5278  0.1973
 5152SOL    HW126918   0.533   1.596   5.292  2.8557 -0.1264 -0.1067
 5152SOL    HW226919   0.461   1.506   5.387 -0.4339  2.0629  1.5148
 5153SOL     OW26920   4.324   0.659  16.975  0.1331 -1.1557  0.3097
 5153SOL    HW126921   4.324   0.568  16.946 -0.3852 -1.1117  0.1702
 5153SOL    HW226922   4.257   0.658  17.044 -0.3978 -3.3105 -0.2425
 5154SOL     OW26923   2.424   0.221   5.110  0.3601  0.3622 -0.2598
 5154SOL    HW126924   2.465   0.232   5.024 -1.4781  0.0601 -1.1633
 5154SOL    HW226925   2.490   0.264   5.165 -2.5682  1.6294  2.2248
 5155SOL     OW26926   3.027   3.990   7.465  0.6616 -0.0242 -0.0485
 5155SOL    HW126927   3.044   3.907   7.419 -0.6550 -0.4096  0.1542
 5155SOL    HW226928   2.988   4.040   7.393 -0.5032 -0.7437  0.0650
 5156SOL     OW26929   4.068   4.164   6.243  0.0951  0.1285 -0.2903
 5156SOL    HW126930   4.114   4.191   6.322  0.3578  1.6315 -0.9509
 5156SOL    HW226931   4.135   4.163   6.175  0.0166 -1.0370 -0.3571
 5157SOL     OW26932   1.710   0.584   2.953  0.0665  0.2669  0.1870
 5157SOL    HW126933   1.797   0.552   2.929 -0.3278 -0.7416  0.0975
 5157SOL    HW226934   1.662   0.539   2.884 -1.0226 -1.1847  1.8923
 5158SOL     OW26935   0.348   1.854   1.569 -0.2752 -0.2360 -0.1605
 5158SOL    HW126936   0.384   1.864   1.480 -0.0445 -2.5581 -0.3118
 5158SOL    HW226937   0.271   1.799   1.561 -0.4370  0.0515 -0.6034
 5159SOL     OW26938   0.108   0.603   4.254 -0.5010  0.2403 -0.2771
 5159SOL    HW126939   0.059   0.523   4.235  1.5124 -1.2015  0.5453
 5159SOL    HW226940   0.092   0.612   4.348 -1.1489  0.7138 -0.4352
 5160SOL     OW26941   3.859   4.635   7.002  0.2702  0.5351  0.3303
 5160SOL    HW126942   3.834   0.004   6.992  1.7339  0.8800 -0.1081
 5160SOL    HW226943   3.829   4.595   6.921 -0.6863 -0.9356  1.4277
 5161SOL     OW26944   0.026   3.286   6.045 -0.2987  0.0456 -0.4566
 5161SOL    HW126945   0.052   3.266   6.135 -2.4757  3.8913  1.0148
 5161SOL    HW226946   4.707   3.206   6.014 -1.5489  1.5493 -2.5954
 5162SOL     OW26947   0.648   1.938   5.814  0.0233  0.4045 -0.2152
 5162SOL    HW126948   0.609   1.871   5.758  0.0051  0.6845 -0.5431
 5162SOL    HW226949   0.681   1.873   5.876  1.3381  0.6507 -0.6614
 5163SOL     OW26950   1.230   1.167   5.327 -0.1259 -0.1250  0.6248
 5163SOL    HW126951   1.234   1.237   5.392 -0.6655 -1.2844  1.9223
 5163SOL    HW226952   1.150   1.191   5.281  0.0811 -1.1939 -0.2886
 5164SOL     OW26953   0.719   4.007  11.907 -0.3860  0.5992  0.1510
 5164SOL    HW126954   0.721   3.950  11.830 -0.6642 -0.8122  1.1858
 5164SOL    HW226955   0.806   4.046  11.905 -0.4489  0.6501 -1.2090
 5165SOL     OW26956   4.177   1.819   9.949  0.0940  0.1894 -0.3554
 5165SOL    HW126957   4.180   1.883  10.020 -0.9777 -0.1692  0.0211
 5165SOL    HW226958   4.270   1.798   9.948 -0.3977 -1.9447 -1.1237
 5166SOL     OW26959   2.860   1.942   5.696 -0.3727  0.3733  0.0147
 5166SOL    HW126960   2.825   2.016   5.646 -1.9345  0.2614  0.9504
 5166SOL    HW226961   2.952   1.967   5.711 -0.9095  2.6336 -0.4517
 5167SOL     OW26962   3.780   4.489   8.099 -0.4380 -0.7114 -0.2649
 5167SOL    HW126963   3.817   4.530   8.177  0.1686  0.9377 -1.4118
 5167SOL    HW226964   3.702   4.543   8.086  0.3872  0.0712 -1.9278
 5168SOL     OW26965   4.575   4.165   8.418  0.2095  0.2264  0.3790
 5168SOL    HW126966   4.549   4.225   8.348  0.5369 -1.1917 -0.9439
 5168SOL    HW226967   4.623   4.098   8.369  0.1925 -0.0722  0.7680
 5169SOL     OW26968   4.700   0.461   8.459 -0.2753 -0.0837 -0.4102
 5169SOL    HW126969   0.058   0.434   8.503  0.2752  1.6430 -0.3733
 5169SOL    HW226970   4.663   0.375   8.438 -0.8012 -0.8249  3.5594
 5170SOL     OW26971   1.132   4.155   7.659 -0.2489  0.1269 -0.4647
 5170SOL    HW126972   1.075   4.129   7.731 -0.5564  0.6386 -0.5176
 5170SOL    HW226973   1.203   4.201   7.704 -2.2107  2.0063  0.7554
 5171SOL     OW26974   3.779   3.034   3.240 -0.4656  0.3613 -0.2353
 5171SOL    HW126975   3.711   3.031   3.172  0.3553 -2.2053 -0.9605
 5171SOL    HW226976   3.841   3.075   3.180 -0.9826  1.0043 -0.3244
 5172SOL     OW26977   1.383   3.689   2.380  0.2685  0.2399  0.1946
 5172SOL    HW126978   1.397   3.769   2.430  1.2932 -0.4109  0.9368
 5172SOL    HW226979   1.288   3.677   2.389  0.0055  0.1611 -2.7076
 5173SOL     OW26980   0.986   4.525   8.383 -0.2608  0.0661  0.6054
 5173SOL    HW126981   0.945   4.563   8.461  0.0160 -3.7743  2.6614
 5173SOL    HW226982   0.967   4.589   8.315  0.2975 -0.4617 -0.0495
 5174SOL     OW26983   2.084   1.362   4.228 -0.2028 -0.2704  0.2898
 5174SOL    HW126984   2.102   1.366   4.134 -1.8696  0.2849 -0.0027
 5174SOL    HW226985   2.127   1.280   4.255 -2.5163 -1.1884  1.2017
 5175SOL     OW26986   2.698   2.181   5.147  0.3228  0.1547  0.3909
 5175SOL    HW126987   2.717   2.104   5.201 -1.1613 -0.8968 -0.6040
 5175SOL    HW226988   2.716   2.244   5.217 -1.0363 -0.6014  1.4233
 5176SOL     OW26989   2.759   0.777   5.533  0.2397  0.3135 -0.6110
 5176SOL    HW126990   2.665   0.794   5.538 -0.1204 -1.3137 -1.6686
 5176SOL    HW226991   2.771   0.684   5.513 -1.4241  0.5247 -2.5561
 5177SOL     OW26992   2.796   3.778   9.086  0.1655  0.1800  0.0518
 5177SOL    HW126993   2.852   3.760   9.011 -0.5824 -0.0385 -0.4533
 5177SOL    HW226994   2.765   3.867   9.069 -0.5036  0.2318  1.5039
 5178SOL     OW26995   4.467   1.800  11.671 -0.7197  0.3214  0.1208
 5178SOL    HW126996   4.423   1.721  11.640  2.3930 -0.8146 -1.3811
 5178SOL    HW226997   4.454   1.795  11.766 -0.1361 -2.3663  0.0515
 5179SOL     OW26998   2.789   0.860   7.996  0.2778 -0.0880  0.2531
 5179SOL    HW126999   2.872   0.822   7.966 -0.0705 -0.2967 -0.4440
 5179SOL    HW227000   2.740   0.781   8.018 -2.4500  1.8077  0.8627
 5180SOL     OW27001   1.474   2.408   6.729  0.6201  0.6360 -0.0364
 5180SOL    HW127002   1.438   2.481   6.780 -0.7339 -1.0930  1.4725
 5180SOL    HW227003   1.413   2.341   6.759  2.1518 -1.0722 -0.7271
 5181SOL     OW27004   1.659   0.128   2.582 -0.3689 -0.5649  0.2008
 5181SOL    HW127005   1.618   0.212   2.561  0.0962 -0.6384 -1.0346
 5181SOL    HW227006   1.629   0.063   2.518  0.8038 -0.9927  0.0734
 5182SOL     OW27007   2.796   3.427  17.008 -0.2831 -0.4351 -0.8886
 5182SOL    HW127008   2.830   3.342  16.982 -1.4283 -1.2405  0.2647
 5182SOL    HW227009   2.805   3.465  16.921  1.4303 -0.4255 -0.7065
 5183SOL     OW27010   0.393   2.494   9.014  0.0598 -0.2868  0.6449
 5183SOL    HW127011   0.299   2.502   9.032 -0.1938  2.3414 -1.8652
 5183SOL    HW227012   0.389   2.437   9.091  2.1931 -1.3367 -0.0364
 5184SOL     OW27013   1.759   3.129   8.996  0.1609  0.3024  0.1682
 5184SOL    HW127014   1.767   3.194   8.927  4.8793  0.1113  0.5647
 5184SOL    HW227015   1.850   3.103   9.011 -0.2623 -1.3320 -0.1387
 5185SOL     OW27016   3.881   0.200   8.377  0.0199  0.1173  0.3016
 5185SOL    HW127017   3.916   0.288   8.366 -0.6909  0.6800  2.6433
 5185SOL    HW227018   3.799   0.212   8.425  0.7894  1.8801  1.1681
 5186SOL     OW27019   0.985   4.451   4.141  0.3028  0.5330  0.2457
 5186SOL    HW127020   1.036   4.420   4.066 -1.7656  2.0420 -1.7795
 5186SOL    HW227021   0.952   4.367   4.172  0.7637 -0.0457 -0.8337
 5187SOL     OW27022   3.396   2.489   9.225 -0.6537 -0.5303 -0.4612
 5187SOL    HW127023   3.367   2.398   9.229 -0.8033 -0.4592  0.0907
 5187SOL    HW227024   3.470   2.496   9.165 -2.4449  2.6935 -2.2823
 5188SOL     OW27025   3.151   2.155   4.948  0.3973  0.1323  0.1314
 5188SOL    HW127026   3.064   2.145   4.910  0.1254  2.0117  0.2500
 5188SOL    HW227027   3.192   2.070   4.931 -0.6894 -0.2841 -0.3562
 5189SOL     OW27028   1.851   4.236   8.275 -0.0177  0.3917 -0.4384
 5189SOL    HW127029   1.922   4.172   8.269 -1.3451 -0.9965 -1.2048
 5189SOL    HW227030   1.877   4.283   8.196 -1.6793 -1.0541 -1.8413
 5190SOL     OW27031   0.346   2.000   7.224 -0.0210 -0.4140 -0.0723
 5190SOL    HW127032   0.298   2.000   7.142 -0.1206 -0.5847 -0.0141
 5190SOL    HW227033   0.434   2.009   7.189  2.0144 -2.8636  4.4127
 5191SOL     OW27034   4.661   1.212   6.661 -0.3066  0.0294 -0.5938
 5191SOL    HW127035   0.031   1.204   6.640 -0.2197  0.8595 -0.5570
 5191SOL    HW227036   4.646   1.305   6.644 -1.2685  0.0959  0.6331
 5192SOL     OW27037   2.295   3.606  14.766  0.0953  0.8631 -0.1995
 5192SOL    HW127038   2.273   3.519  14.732 -0.6552  1.2080 -0.5828
 5192SOL    HW227039   2.224   3.656  14.725  0.1769 -0.9392 -2.5505
 5193SOL     OW27040   1.265   0.796   8.095 -0.3382 -0.7010 -0.0582
 5193SOL    HW127041   1.216   0.725   8.136 -1.3333 -0.4363 -0.7599
 5193SOL    HW227042   1.226   0.799   8.007 -0.8605  0.9294  0.2325
 5194SOL     OW27043   2.478   2.766   2.100 -0.1937 -0.2858  0.4547
 5194SOL    HW127044   2.428   2.690   2.127 -1.3296  0.3836  0.2332
 5194SOL    HW227045   2.428   2.835   2.143  0.3428 -0.5239  1.4574
 5195SOL     OW27046   1.626   4.310   3.710 -0.1659  0.0447  0.1032
 5195SOL    HW127047   1.538   4.331   3.742 -0.8048  2.9422 -3.5516
 5195SOL    HW227048   1.637   4.245   3.780  1.3596  0.7169  0.4899
 5196SOL     OW27049   1.874   3.384   6.064 -0.0259 -0.4252  0.5713
 5196SOL    HW127050   1.934   3.320   6.026 -1.3488 -2.1998  1.4543
 5196SOL    HW227051   1.794   3.331   6.059 -0.5477  0.5519 -1.1844
 5197SOL     OW27052   2.736   0.483   3.357  0.0805 -0.0097  0.1165
 5197SOL    HW127053   2.829   0.504   3.370  0.5768 -1.1130 -1.5521
 5197SOL    HW227054   2.702   0.566   3.390  0.7110  0.2029  0.2394
 5198SOL     OW27055   1.911   2.164   2.373 -0.1978  0.0247 -0.6024
 5198SOL    HW127056   1.981   2.128   2.319  0.3598  0.5796 -0.2628
 5198SOL    HW227057   1.865   2.212   2.304  1.0870  1.9179 -0.1573
 5199SOL     OW27058   1.566   0.441   9.946 -0.4196  0.2207  0.0894
 5199SOL    HW127059   1.549   0.495  10.023 -1.4758 -2.4590  1.7313
 5199SOL    HW227060   1.650   0.470   9.911 -1.1668 -0.1124 -1.9477
 5200SOL     OW27061   3.684   0.020   8.566  0.1487  0.1820  0.2552
 5200SOL    HW127062   3.619   0.033   8.497  1.5723 -0.7518 -1.2598
 5200SOL    HW227063   3.630   0.055   8.636  0.7580  0.6332  0.4986
 5201SOL     OW27064   4.628   4.214   6.131  0.3788  0.2680 -0.3085
 5201SOL    HW127065   4.611   4.217   6.037  0.3207  0.7616 -0.2824
 5201SOL    HW227066   4.606   4.302   6.161  0.9934 -0.3687  2.0664
 5202SOL     OW27067   3.427   3.660   6.126 -0.3184  0.7636  0.2817
 5202SOL    HW127068   3.517   3.639   6.150 -0.1303 -0.7201 -1.7543
 5202SOL    HW227069   3.427   3.740   6.073 -2.5613 -0.1748 -1.1148
 5203SOL     OW27070   0.931   3.300   3.104  0.0927 -0.3533  0.3211
 5203SOL    HW127071   0.924   3.210   3.137  0.5688  0.4891  2.7124
 5203SOL    HW227072   0.996   3.284   3.035  0.0833 -3.7352  1.0782
 5204SOL     OW27073   3.519   0.215   7.373 -0.2412 -0.1065 -0.5804
 5204SOL    HW127074   3.562   0.130   7.368 -0.3597 -0.1083 -1.5560
 5204SOL    HW227075   3.543   0.253   7.289 -3.9651  0.5732 -1.3329
 5205SOL     OW27076   1.305   0.181   6.495 -0.2258  0.1803 -0.3374
 5205SOL    HW127077   1.392   0.196   6.533 -0.5511  0.0216  0.4645
 5205SOL    HW227078   1.261   0.256   6.536 -1.2637 -2.2353  2.9535
 5206SOL     OW27079   1.648   2.027   5.962 -1.0176 -0.3791 -0.5361
 5206SOL    HW127080   1.729   2.050   6.008 -0.9319  1.1936 -1.5059
 5206SOL    HW227081   1.677   1.978   5.885 -1.2296 -2.0139  0.4074
 5207SOL     OW27082   3.633   4.264   6.735  0.5378 -0.1082  0.2439
 5207SOL    HW127083   3.591   4.222   6.660  3.9527 -2.4804 -0.3660
 5207SOL    HW227084   3.673   4.186   6.773 -0.8802 -1.5309 -1.2099
 5208SOL     OW27085   3.264   2.675   6.601  0.2102  0.9181 -0.3797
 5208SOL    HW127086   3.311   2.679   6.684  1.2233 -0.9789 -0.8593
 5208SOL    HW227087   3.256   2.580   6.595 -1.6904  0.9845  1.2842
 5209SOL     OW27088   2.614   2.829  12.721 -0.0419  0.1149  0.5605
 5209SOL    HW127089   2.558   2.751  12.719  0.9020 -0.5406 -0.8718
 5209SOL    HW227090   2.562   2.890  12.669  0.6433  0.0462 -0.2099
 5210SOL     OW27091   3.014   3.678  10.933  0.0536 -0.3736 -0.4517
 5210SOL    HW127092   3.104   3.656  10.911  0.4444 -0.4549  1.2675
 5210SOL    HW227093   2.994   3.593  10.972 -0.5623  0.0267  0.1093
 5211SOL     OW27094   0.343   3.477   5.938 -0.0311  0.0064 -0.4605
 5211SOL    HW127095   0.372   3.390   5.911 -2.7837 -0.8556 -0.6260
 5211SOL    HW227096   0.381   3.475   6.026 -1.6933 -1.0273  0.2149
 5212SOL     OW27097   2.320   2.355   3.219  0.6240  0.7328 -0.0454
 5212SOL    HW127098   2.342   2.314   3.303  2.6778  0.3311 -0.7857
 5212SOL    HW227099   2.308   2.442   3.258 -0.8480  0.8494 -0.7707
 5213SOL     OW27100   2.734   0.394  14.221  0.2148  0.1680  0.3813
 5213SOL    HW127101   2.665   0.406  14.156 -0.2080  0.9004  0.9683
 5213SOL    HW227102   2.759   0.305  14.197 -1.1165 -0.2620  0.6046
 5214SOL     OW27103   3.207   3.503   0.459  0.8517 -0.2139 -0.4813
 5214SOL    HW127104   3.285   3.549   0.427  0.7751 -0.1862 -0.6253
 5214SOL    HW227105   3.154   3.579   0.434 -0.8249 -0.7761  1.3792
 5215SOL     OW27106   0.603   4.723  15.390 -0.7618 -0.5434 -0.1581
 5215SOL    HW127107   0.673   0.062  15.409  0.5182 -2.0211 -0.0194
 5215SOL    HW227108   0.561   4.717  15.476  1.3123 -1.8878  0.7710
 5216SOL     OW27109   2.003   0.536  11.486 -0.0462  0.1919  0.3120
 5216SOL    HW127110   2.004   0.625  11.521 -2.7957  0.5426 -0.4813
 5216SOL    HW227111   1.908   0.521  11.490 -0.1174  0.1051 -1.7397
 5217SOL     OW27112   4.715   2.945  15.181 -0.2018 -0.0193  0.6725
 5217SOL    HW127113   4.668   2.914  15.258 -1.0210  2.2494  1.0857
 5217SOL    HW227114   0.056   2.874  15.181  0.4307  0.5405 -2.7429
 5218SOL     OW27115   4.304   4.332   1.564  0.5308 -0.9446 -0.4283
 5218SOL    HW127116   4.253   4.276   1.624 -1.6388  0.0789 -1.3089
 5218SOL    HW227117   4.389   4.336   1.607  1.5157  0.6293 -2.5268
 5219SOL     OW27118   2.365   2.242   5.975 -0.0850  0.3422  0.2484
 5219SOL    HW127119   2.402   2.162   5.938  1.6410  1.7038 -0.9992
 5219SOL    HW227120   2.280   2.244   5.930 -0.3470  0.7309  0.7612
 5220SOL     OW27121   1.668   4.420  15.666  0.1654  0.0990 -0.2311
 5220SOL    HW127122   1.666   4.326  15.681 -1.2429 -0.0984 -1.5839
 5220SOL    HW227123   1.584   4.444  15.705  0.2289  2.5191 -1.5469
 5221SOL     OW27124   0.097   4.228  14.181 -0.4865 -0.1089  0.5757
 5221SOL    HW127125   0.105   4.133  14.180 -0.8575 -0.1329  0.1447
 5221SOL    HW227126   0.097   4.247  14.275  0.6613 -1.7695  0.9082
 5222SOL     OW27127   2.821   1.036  13.383  0.5711  0.6531 -0.5344
 5222SOL    HW127128   2.771   1.050  13.464  1.0391 -0.5589 -0.0436
 5222SOL    HW227129   2.809   1.128  13.357 -0.3335  0.6887  0.0149
 5223SOL     OW27130   0.959   3.266   4.112 -0.6583 -0.0495 -0.0964
 5223SOL    HW127131   0.942   3.223   4.028 -0.4046  0.1163 -0.2326
 5223SOL    HW227132   1.012   3.201   4.159  0.3327  0.5304 -0.4015
 5224SOL     OW27133   2.241   4.583   9.971  0.2427  0.3885  0.3632
 5224SOL    HW127134   2.174   4.528   9.932 -1.2151  2.3879  0.0466
 5224SOL    HW227135   2.321   4.538   9.945 -0.8097 -0.5820 -1.1395
 5225SOL     OW27136   0.466   0.375   3.133  0.4993 -0.3697  0.2773
 5225SOL    HW127137   0.474   0.404   3.224  1.1098 -0.2299  0.1748
 5225SOL    HW227138   0.555   0.379   3.099  0.9632  1.6946  1.7275
 5226SOL     OW27139   0.566   0.902   2.542 -0.2146  0.5169  0.0412
 5226SOL    HW127140   0.551   0.992   2.572  2.2801  1.2262 -0.7950
 5226SOL    HW227141   0.489   0.896   2.486 -0.1151 -1.7723  0.1513
 5227SOL     OW27142   2.465   1.970   4.343  0.2513  0.0988 -0.2295
 5227SOL    HW127143   2.466   2.064   4.362  1.5680 -0.0153  0.2602
 5227SOL    HW227144   2.375   1.942   4.358  0.2251  0.2655 -0.0743
 5228SOL     OW27145   2.728   0.948   6.374  0.2993  0.2054  0.0416
 5228SOL    HW127146   2.644   0.979   6.342 -0.1964 -0.3172  0.8496
 5228SOL    HW227147   2.747   1.011   6.443  0.2297 -0.6851  0.8755
 5229SOL     OW27148   3.782   0.813  12.641  0.1077  0.1127 -0.6805
 5229SOL    HW127149   3.719   0.744  12.618 -1.1682  0.7966  0.8242
 5229SOL    HW227150   3.824   0.773  12.717  1.1051  1.6560 -0.4210
 5230SOL     OW27151   3.787   1.141   7.311 -0.0837 -0.3454 -0.0281
 5230SOL    HW127152   3.752   1.111   7.227  2.3331  0.1469 -1.1889
 5230SOL    HW227153   3.710   1.155   7.367  0.0297 -0.3489  0.1291
 5231SOL     OW27154   3.608   4.108  16.367 -0.1007 -0.4208 -0.2463
 5231SOL    HW127155   3.576   4.053  16.295 -0.5524 -0.3790 -0.0775
 5231SOL    HW227156   3.701   4.112  16.347  0.4148 -0.3005  2.2428
 5232SOL     OW27157   1.998   1.252   1.735 -0.1852 -0.1170 -0.1451
 5232SOL    HW127158   2.029   1.171   1.776  0.2047  1.2212  2.2383
 5232SOL    HW227159   2.073   1.277   1.680  0.4989 -1.4397  0.1898
 5233SOL     OW27160   4.208   0.206   0.434  0.3858  0.3939  0.3524
 5233SOL    HW127161   4.202   0.230   0.526 -2.7660 -0.4625  0.3577
 5233SOL    HW227162   4.281   0.261   0.405 -0.5855  0.6643 -1.6023
 5234SOL     OW27163   3.863   4.078   2.850 -0.0517 -0.6310  0.1341
 5234SOL    HW127164   3.815   4.078   2.767 -0.6787  0.0648  0.4985
 5234SOL    HW227165   3.948   4.044   2.822  1.3481  1.1143  2.2138
 5235SOL     OW27166   1.987   3.900   5.319 -0.0264 -0.5095 -0.0392
 5235SOL    HW127167   2.018   3.912   5.409 -1.4561 -1.9842  0.6359
 5235SOL    HW227168   1.908   3.955   5.317  0.0912 -0.3511 -0.3292
 5236SOL     OW27169   1.134   3.645   3.602  1.0778  0.5531 -0.1746
 5236SOL    HW127170   1.098   3.588   3.534  0.7823  2.6934 -1.8044
 5236SOL    HW227171   1.169   3.720   3.555  2.5103  0.0169  0.0292
 5237SOL     OW27172   3.348   0.561  13.066  0.0361  0.4016 -0.3334
 5237SOL    HW127173   3.329   0.468  13.056  1.6439  0.0675 -0.3211
 5237SOL    HW227174   3.263   0.600  13.085  0.0605  0.1073  0.3847
 5238SOL     OW27175   1.817   3.677   4.392  0.1615  0.8993  0.2890
 5238SOL    HW127176   1.889   3.614   4.392  0.5305  1.3278  0.1264
 5238SOL    HW227177   1.781   3.645   4.310  1.2626 -2.7582  1.2234
 5239SOL     OW27178   2.963   0.918   1.408  0.2094  0.6052 -0.8570
 5239SOL    HW127179   2.922   1.000   1.381 -0.0409  0.3574 -1.2211
 5239SOL    HW227180   2.915   0.863   1.346 -0.4218 -1.1838  1.2398
 5240SOL     OW27181   4.229   3.930   5.881 -0.1477 -0.0020  0.1921
 5240SOL    HW127182   4.289   4.004   5.887 -0.6619  0.4727 -0.5929
 5240SOL    HW227183   4.149   3.962   5.922 -0.1131  0.3996 -0.0532
 5241SOL     OW27184   4.171   2.477   6.761 -0.2417 -0.3712  0.0131
 5241SOL    HW127185   4.134   2.393   6.786 -0.6447  0.7845  3.3871
 5241SOL    HW227186   4.095   2.528   6.733 -0.8741 -0.8017  0.9337
 5242SOL     OW27187   0.739   0.042   3.893 -0.2136  0.2711  0.1851
 5242SOL    HW127188   0.797   0.036   3.817  1.1847  2.8976  1.0796
 5242SOL    HW227189   0.767   0.125   3.931  0.6743  0.4483 -0.8544
 5243SOL     OW27190   4.355   4.393   8.664 -0.1092 -0.1044 -0.0629
 5243SOL    HW127191   4.409   4.381   8.742  0.8565 -1.2786 -0.9059
 5243SOL    HW227192   4.365   4.485   8.640  0.0466  0.3085  1.6015
 5244SOL     OW27193   3.378   3.311   9.794 -0.0117 -0.4719 -0.6119
 5244SOL    HW127194   3.418   3.311   9.707  0.5954  1.7311 -0.3469
 5244SOL    HW227195   3.294   3.271   9.773  1.0351 -1.8493 -2.1671
 5245SOL     OW27196   4.044   4.006  12.533 -0.4349 -0.0458 -0.6614
 5245SOL    HW127197   4.016   4.064  12.462 -0.1332  3.8151  2.4163
 5245SOL    HW227198   4.103   4.059  12.585 -0.0937 -1.6786  0.6176
 5246SOL     OW27199   1.045   1.951  12.431  0.0018 -0.2407  0.2487
 5246SOL    HW127200   0.977   1.916  12.489 -1.8607  1.2684 -1.0570
 5246SOL    HW227201   1.127   1.904  12.448 -0.8346 -1.5542  0.7213
 5247SOL     OW27202   2.061   2.788   5.219  0.3211 -0.3892  0.1790
 5247SOL    HW127203   2.060   2.847   5.144 -0.1265  1.0756  1.3319
 5247SOL    HW227204   1.997   2.813   5.286  0.1314  2.7137 -1.2056
 5248SOL     OW27205   1.255   3.310   7.065  0.4130  0.3965  0.3802
 5248SOL    HW127206   1.259   3.215   7.077  4.0544  0.8504  2.6720
 5248SOL    HW227207   1.219   3.316   6.977  1.8911 -2.3287 -0.4143
 5249SOL     OW27208   2.503   4.070   5.980  0.3300  0.1161  0.0006
 5249SOL    HW127209   2.519   4.163   5.996  1.8513 -0.1371 -0.0569
 5249SOL    HW227210   2.534   4.014   6.052  2.0417  0.8057 -0.1988
 5250SOL     OW27211   0.993   1.916   4.037 -0.0720  0.1729 -0.6214
 5250SOL    HW127212   1.080   1.924   3.996 -0.0780 -0.7669 -0.8344
 5250SOL    HW227213   1.017   1.930   4.129  0.3193  0.1371 -0.7172
 5251SOL     OW27214   2.229   2.387   5.690  0.1137  0.0610 -0.2032
 5251SOL    HW127215   2.150   2.416   5.643  0.1768 -0.7749 -0.8132
 5251SOL    HW227216   2.201   2.310   5.740 -1.5895  2.1395  2.0868
 5252SOL     OW27217   1.440   2.733  15.309 -0.0606  0.4045  0.2167
 5252SOL    HW127218   1.362   2.786  15.295  1.5248  1.8260 -3.2803
 5252SOL    HW227219   1.451   2.708  15.401 -2.0469 -1.0010  0.0559
 5253SOL     OW27220   0.062   3.463   6.332 -0.1667 -0.3003  0.2103
 5253SOL    HW127221   0.148   3.504   6.322 -0.0337 -0.7853 -0.6223
 5253SOL    HW227222   4.722   3.525   6.295  0.7252  1.0474  0.9498
 5254SOL     OW27223   3.687   1.276  11.448 -0.5123  0.0492  0.1409
 5254SOL    HW127224   3.780   1.291  11.459 -0.1007 -1.9729 -0.4671
 5254SOL    HW227225   3.672   1.183  11.468 -0.5607 -0.1020 -0.5927
 5255SOL     OW27226   0.906   3.493   4.230  0.6123 -0.0695  0.6771
 5255SOL    HW127227   0.896   3.462   4.320 -2.4431 -0.3164  0.2738
 5255SOL    HW227228   0.914   3.413   4.179 -2.7553 -0.4717  0.7499
 5256SOL     OW27229   3.978   1.712  12.100 -0.2561 -0.5762  0.3690
 5256SOL    HW127230   3.896   1.760  12.094  1.3482  2.1075 -0.0100
 5256SOL    HW227231   4.047   1.775  12.079 -0.2153  0.3652  3.3072
 5257SOL     OW27232   1.152   2.201  10.683  0.0039 -0.0136 -0.0325
 5257SOL    HW127233   1.075   2.234  10.730 -0.3230  1.6831 -1.7404
 5257SOL    HW227234   1.186   2.287  10.658 -0.9135  0.8110  1.5450
 5258SOL     OW27235   3.101   4.181  11.134  0.0916  0.0414  0.3328
 5258SOL    HW127236   3.027   4.121  11.130  2.1187 -2.4808 -0.2250
 5258SOL    HW227237   3.047   4.258  11.119  1.0015  1.1720  2.9106
 5259SOL     OW27238   1.743   3.630   8.573 -0.4312 -0.5094  0.3186
 5259SOL    HW127239   1.798   3.707   8.585 -2.2347  0.7610  0.3787
 5259SOL    HW227240   1.666   3.647   8.627  0.7101 -0.9165  2.0849
 5260SOL     OW27241   3.310   2.725   4.460 -1.0092  0.0986 -0.3171
 5260SOL    HW127242   3.406   2.719   4.459 -0.9421  1.3550 -0.7927
 5260SOL    HW227243   3.301   2.705   4.553  1.4238 -1.0933 -0.3346
 5261SOL     OW27244   1.005   3.816   6.392 -0.4908  0.4067  0.0660
 5261SOL    HW127245   1.046   3.835   6.308 -2.7894  1.4027 -0.8423
 5261SOL    HW227246   0.970   3.904   6.408  0.9397  0.8319  0.7847
 5262SOL     OW27247   3.500   3.199   6.435 -0.0586  0.2650 -0.6835
 5262SOL    HW127248   3.477   3.108   6.417 -3.8046  1.2578 -0.7484
 5262SOL    HW227249   3.561   3.190   6.509 -0.1985  0.0488 -0.5969
 5263SOL     OW27250   0.121   4.474   2.792  0.4687  0.0512 -0.5944
 5263SOL    HW127251   0.097   4.480   2.700  0.4816 -0.3310 -0.6210
 5263SOL    HW227252   0.214   4.449   2.785  0.0618 -1.4720 -0.5980
 5264SOL     OW27253   2.080   3.431   1.097  0.1824 -0.2591 -0.1276
 5264SOL    HW127254   2.016   3.361   1.088  0.8492 -1.1588  2.2412
 5264SOL    HW227255   2.024   3.495   1.140  3.7254  3.8438 -1.6012
 5265SOL     OW27256   3.155   1.588  10.774  1.0969 -0.0574  0.0125
 5265SOL    HW127257   3.075   1.600  10.825  1.2131 -0.1291  0.2108
 5265SOL    HW227258   3.120   1.604  10.686  0.9791  0.2873  0.1182
 5266SOL     OW27259   3.838   3.536   4.866 -0.1809 -0.2562 -0.2315
 5266SOL    HW127260   3.876   3.623   4.861 -0.7014  0.0695  1.8093
 5266SOL    HW227261   3.755   3.551   4.910  0.0877  0.9059 -0.1229
 5267SOL     OW27262   1.688   1.366  16.151 -0.8126 -0.3487  0.3017
 5267SOL    HW127263   1.639   1.297  16.196  2.5514 -2.6455  0.4276
 5267SOL    HW227264   1.773   1.329  16.130 -1.3932 -2.1250  1.1122
 5268SOL     OW27265   0.553   0.246   7.053 -0.5365  0.3463  0.6608
 5268SOL    HW127266   0.541   0.204   6.969  0.4107  1.6473 -0.1244
 5268SOL    HW227267   0.587   0.172   7.104 -3.8602 -1.0173  0.9123
 5269SOL     OW27268   0.592   3.219   1.409  0.5585 -0.4143 -0.1278
 5269SOL    HW127269   0.569   3.128   1.387  1.5119 -0.6245 -0.2463
 5269SOL    HW227270   0.548   3.212   1.494  0.4469 -1.0047 -0.2287
 5270SOL     OW27271   2.503   0.030  17.072 -0.2023 -0.1983  0.2051
 5270SOL    HW127272   2.446   0.096  17.110  0.4662  0.2382  0.4555
 5270SOL    HW227273   2.586   0.078  17.067 -0.7866  0.6401 -1.5606
 5271SOL     OW27274   3.881   3.855   1.625 -0.4038 -0.0662  0.5862
 5271SOL    HW127275   3.934   3.820   1.554  0.7106 -2.0539  2.3862
 5271SOL    HW227276   3.884   3.949   1.611  1.3523 -0.4058 -1.3760
 5272SOL     OW27277   1.141   4.677   3.711  0.2579  0.1892  0.4672
 5272SOL    HW127278   1.230   4.642   3.709 -0.6456 -1.9965 -0.9599
 5272SOL    HW227279   1.141   4.718   3.798 -0.8745  2.1220 -0.4312
 5273SOL     OW27280   4.199   4.162  12.698 -0.2012 -0.3265  0.0567
 5273SOL    HW127281   4.138   4.234  12.712  1.5632  1.8039 -3.2478
 5273SOL    HW227282   4.259   4.166  12.773 -0.3453 -0.8418  0.2030
 5274SOL     OW27283   3.026   1.981   4.369  0.0364  0.6777 -0.0845
 5274SOL    HW127284   3.085   2.038   4.418 -0.0999  0.2853  0.5436
 5274SOL    HW227285   3.091   1.934   4.316  2.0407  1.3235  1.7610
 5275SOL     OW27286   3.462   2.438   3.527 -0.9623  0.6314  0.2078
 5275SOL    HW127287   3.539   2.391   3.495 -1.4293 -0.5002  0.7717
 5275SOL    HW227288   3.415   2.377   3.583  1.0753 -3.2934 -2.3646
 5276SOL     OW27289   0.619   0.649   7.752  0.5624 -0.4308 -0.0933
 5276SOL    HW127290   0.620   0.660   7.847 -1.4267 -0.9173 -0.0039
 5276SOL    HW227291   0.552   0.713   7.726  2.1972  0.9629 -0.8201
 5277SOL     OW27292   1.805   3.652   6.093  0.2712 -0.5103  0.4127
 5277SOL    HW127293   1.847   3.670   6.177  0.6805  2.4474 -0.4416
 5277SOL    HW227294   1.835   3.561   6.080  1.9856  0.0820  0.2180
 5278SOL     OW27295   2.322   1.705   7.850  0.1137  0.0631 -0.2798
 5278SOL    HW127296   2.303   1.673   7.938  0.5912 -0.5450 -0.4009
 5278SOL    HW227297   2.252   1.769   7.840 -0.1177 -0.1113  0.1996
 5279SOL     OW27298   0.576   0.435   3.808  0.2924 -0.8375 -0.4077
 5279SOL    HW127299   0.614   0.393   3.731  0.4418 -0.0892 -0.7425
 5279SOL    HW227300   0.557   0.360   3.864  0.2224 -1.3073 -1.0561
 5280SOL     OW27301   3.485   4.555   1.700  1.1801 -0.0555 -0.0520
 5280SOL    HW127302   3.426   4.487   1.666 -0.7893  0.5190  2.2143
 5280SOL    HW227303   3.455   4.620   1.638  1.4627 -1.6305 -1.8400
 5281SOL     OW27304   4.127   2.315  11.108 -0.1852 -0.4345 -0.1368
 5281SOL    HW127305   4.135   2.351  11.019  1.0139  1.6974  0.8575
 5281SOL    HW227306   4.186   2.372  11.157  0.3536 -1.6413  0.5899
 5282SOL     OW27307   0.148   3.094  12.919 -0.4624 -0.0075 -0.2595
 5282SOL    HW127308   0.116   3.121  12.833 -1.0215 -0.7281 -0.2808
 5282SOL    HW227309   0.077   3.033  12.941 -0.1972 -0.6775 -1.2267
 5283SOL     OW27310   2.232   2.605  12.499  0.2684 -0.4757  0.0997
 5283SOL    HW127311   2.270   2.652  12.424 -2.2378 -1.7670 -1.9907
 5283SOL    HW227312   2.265   2.655  12.573  1.9960 -0.1995 -0.8520
 5284SOL     OW27313   0.890   1.575   7.367 -0.3354  0.1141 -0.2865
 5284SOL    HW127314   0.872   1.576   7.273 -0.7280  0.2915 -0.2094
 5284SOL    HW227315   0.981   1.604   7.367 -0.6027  0.9563 -0.7685
 5285SOL     OW27316   0.908   4.160   8.882 -0.1924  0.2365  0.0567
 5285SOL    HW127317   0.947   4.133   8.798 -0.2799  2.5739 -0.7430
 5285SOL    HW227318   0.875   4.247   8.857  0.2111  0.6437  0.9279
 5286SOL     OW27319   3.589   0.724   0.217  0.3092  0.2433  0.3053
 5286SOL    HW127320   3.616   0.706   0.127  0.0350 -0.5498  0.3816
 5286SOL    HW227321   3.495   0.740   0.210  0.2399 -0.1757  0.3049
 5287SOL     OW27322   4.125   0.651  11.605  0.4379  0.6721 -0.3381
 5287SOL    HW127323   4.116   0.703  11.685  0.1500 -0.6707  0.5070
 5287SOL    HW227324   4.217   0.663  11.580  0.5316 -1.9116 -1.2265
 5288SOL     OW27325   0.209   3.976   6.725 -0.1337  0.2800 -0.0780
 5288SOL    HW127326   0.217   3.922   6.804  0.7569 -0.6533 -0.7989
 5288SOL    HW227327   0.141   3.937   6.669  0.6247  1.1257 -1.5859
 5289SOL     OW27328   3.865   3.053  12.068  0.4505 -0.7449 -0.0721
 5289SOL    HW127329   3.921   3.096  12.004 -1.6828  0.7523 -0.9436
 5289SOL    HW227330   3.889   2.961  12.057  0.7805 -0.2377 -3.7319
 5290SOL     OW27331   1.746   2.319   3.913 -0.2234  0.0141 -0.1085
 5290SOL    HW127332   1.827   2.278   3.943  1.5372  1.4288 -2.9115
 5290SOL    HW227333   1.788   2.395   3.874  3.3411 -2.0875 -0.3616
 5291SOL     OW27334   4.034   0.593   8.528 -0.1390  0.6088  0.1053
 5291SOL    HW127335   4.005   0.512   8.571 -2.0999  0.7840 -0.8893
 5291SOL    HW227336   4.105   0.621   8.586  0.4355  3.1288 -1.8201
 5292SOL     OW27337   4.276   0.241   5.957  0.0531 -0.3610  0.0239
 5292SOL    HW127338   4.292   0.206   6.045 -0.7045 -1.8899 -0.4513
 5292SOL    HW227339   4.297   0.333   5.974  1.8436 -0.5608 -1.1462
 5293SOL     OW27340   1.676   2.025   1.726 -0.0592 -0.2395 -0.0174
 5293SOL    HW127341   1.649   2.111   1.756  0.4144  0.2415 -0.9773
 5293SOL    HW227342   1.728   1.989   1.798  0.2450 -0.2531 -0.2426
 5294SOL     OW27343   0.005   1.769   6.692  0.0505 -0.2014 -0.5542
 5294SOL    HW127344   0.003   1.810   6.605 -3.3547 -2.0118 -1.3286
 5294SOL    HW227345   0.021   1.842   6.751 -0.8205 -1.7894  1.6426
 5295SOL     OW27346   4.592   1.197   6.965  0.3927  0.2173 -0.1815
 5295SOL    HW127347   4.619   1.180   6.875 -0.6355  2.6460 -0.9304
 5295SOL    HW227348   4.564   1.112   7.001 -0.3041  0.3173 -0.4999
 5296SOL     OW27349   0.965   1.701   8.932  0.2034 -0.0144 -0.3163
 5296SOL    HW127350   0.940   1.777   8.880  2.0985 -1.3761 -3.2481
 5296SOL    HW227351   0.932   1.623   8.887  0.7951  0.3337 -1.3518
 5297SOL     OW27352   0.040   1.010   6.404  0.0917  0.0303 -0.4219
 5297SOL    HW127353   0.076   1.018   6.492  2.0849  1.0970 -1.3303
 5297SOL    HW227354   4.696   0.945   6.425  0.7369  0.1553  1.9764
 5298SOL     OW27355   4.195   1.122   4.153 -0.3424  0.0116  0.1017
 5298SOL    HW127356   4.114   1.098   4.199 -1.0946  0.9018 -0.7419
 5298SOL    HW227357   4.157   1.185   4.091 -1.5407  0.0631  0.8772
 5299SOL     OW27358   4.113   3.482   3.873 -0.0279  0.2571  0.1860
 5299SOL    HW127359   4.060   3.526   3.807  1.6099  0.9856 -0.6608
 5299SOL    HW227360   4.140   3.410   3.817 -0.7170  0.5766 -0.5487
 5300SOL     OW27361   1.836   3.407   3.759  0.4049 -0.0079  0.4197
 5300SOL    HW127362   1.879   3.402   3.674  0.5258  0.1190  0.4733
 5300SOL    HW227363   1.881   3.340   3.809  1.0237 -1.6420 -2.2951
 5301SOL     OW27364   2.468   2.116  17.502 -0.1340 -0.1418  0.2300
 5301SOL    HW127365   2.478   2.208  17.480  0.2237 -0.6554 -1.7350
 5301SOL    HW227366   2.545   2.092  17.451  1.2475  1.0943  1.7058
 5302SOL     OW27367   4.548   1.951  11.453  0.5421 -0.0807 -0.1007
 5302SOL    HW127368   4.516   1.876  11.403  2.1043 -0.4800 -0.5045
 5302SOL    HW227369   4.538   1.915  11.542 -1.7915  0.2556 -0.2363
 5303SOL     OW27370   1.094   0.337   0.445 -0.1334  0.5624 -0.3844
 5303SOL    HW127371   1.032   0.359   0.377 -1.2860  0.6693  0.6975
 5303SOL    HW227372   1.124   0.251   0.416 -0.7020  1.0826 -2.4700
 5304SOL     OW27373   0.906   1.453  11.809  0.1856  0.7140  0.0427
 5304SOL    HW127374   0.995   1.423  11.789  0.2450  0.9466 -0.0447
 5304SOL    HW227375   0.864   1.419  11.731  0.3094  1.4297 -0.3369
 5305SOL     OW27376   2.391   2.987  12.570  0.3095  0.0450  0.0477
 5305SOL    HW127377   2.352   3.068  12.537  0.5490 -0.2430 -0.9371
 5305SOL    HW227378   2.448   2.960  12.498 -1.6049  2.0267 -2.2001
 5306SOL     OW27379   3.798   1.523   4.598  1.2185  0.3029  0.0907
 5306SOL    HW127380   3.739   1.453   4.572 -0.6973  1.3393  1.5827
 5306SOL    HW227381   3.786   1.576   4.520 -0.5258  0.3963  0.4346
 5307SOL     OW27382   3.119   0.623   2.012 -0.2587 -0.4694 -0.5431
 5307SOL    HW127383   3.044   0.567   2.032  0.3120 -0.9791  0.2027
 5307SOL    HW227384   3.065   0.695   1.980 -2.0048 -1.2959  0.5452
 5308SOL     OW27385   3.167   3.996   9.770  0.1664  0.2676 -0.5035
 5308SOL    HW127386   3.076   4.017   9.748 -1.1131 -2.3085  2.3006
 5308SOL    HW227387   3.159   3.908   9.807 -1.0540  0.7134  0.2942
 5309SOL     OW27388   1.465   1.996  12.208  0.3460  0.6618  0.0321
 5309SOL    HW127389   1.387   2.003  12.154 -0.1144 -1.2416  0.4576
 5309SOL    HW227390   1.429   1.961  12.289  2.8301 -0.8958  0.4734
 5310SOL     OW27391   2.357   1.044  13.667 -0.0019  0.2522  0.4932
 5310SOL    HW127392   2.397   0.988  13.600 -1.1837 -0.3831  0.3166
 5310SOL    HW227393   2.285   1.089  13.622 -1.4623 -2.0694  0.4893
 5311SOL     OW27394   1.939   4.584   6.957  0.5878  0.7778 -0.2302
 5311SOL    HW127395   1.922   4.505   7.008 -1.0686  1.6936  0.6463
 5311SOL    HW227396   2.023   4.611   6.994  0.2449 -1.0246  1.8619
 5312SOL     OW27397   1.161   0.063   3.960  0.7941 -0.2925  0.4429
 5312SOL    HW127398   1.131   0.047   4.049  1.9917 -1.1510  0.6919
 5312SOL    HW227399   1.202   0.149   3.965 -0.8436  0.4398  1.1903
 5313SOL     OW27400   3.724   0.321   3.638  0.1298  0.0669  0.5546
 5313SOL    HW127401   3.678   0.237   3.637  0.4208 -0.0536 -1.9802
 5313SOL    HW227402   3.777   0.317   3.559 -2.0215  0.0080 -0.8860
 5314SOL     OW27403   2.403   1.304   3.058  0.5842  0.0275  0.3251
 5314SOL    HW127404   2.484   1.337   3.097  0.6310  0.1591  0.1144
 5314SOL    HW227405   2.336   1.325   3.123 -0.0783 -0.7412 -0.1054
 5315SOL     OW27406   1.547   1.776  14.090 -0.5959 -0.2646  0.0303
 5315SOL    HW127407   1.455   1.791  14.068 -0.6911 -0.2119  0.4601
 5315SOL    HW227408   1.563   1.852  14.147  0.6527 -1.3831  1.1525
 5316SOL     OW27409   4.077   4.579  11.611 -0.3227 -0.6402 -0.3441
 5316SOL    HW127410   4.078   4.529  11.693 -0.4518  0.0045  0.0529
 5316SOL    HW227411   4.067   4.668  11.646 -0.0864 -1.4228  1.7261
 5317SOL     OW27412   0.455   2.540  17.410  0.5682  0.1852 -0.1947
 5317SOL    HW127413   0.460   2.448  17.385 -1.0988  0.2481 -0.7467
 5317SOL    HW227414   0.366   2.567  17.388  0.8163  1.7996  0.7786
 5318SOL     OW27415   1.707   3.216   1.296  0.2354 -0.1692 -0.5895
 5318SOL    HW127416   1.690   3.308   1.315 -0.5103  0.2043 -3.0628
 5318SOL    HW227417   1.710   3.184   1.386 -1.0367  1.4650  0.0233
 5319SOL     OW27418   4.039   2.685  16.210 -0.4671  0.2692 -0.4023
 5319SOL    HW127419   4.029   2.780  16.202  0.2666  0.1171 -2.8826
 5319SOL    HW227420   3.948   2.659  16.225 -0.8391  2.2354  0.8374
 5320SOL     OW27421   0.204   4.462  11.828  0.1960  0.3905 -0.8013
 5320SOL    HW127422   0.153   4.499  11.900 -0.4083 -0.8317 -0.6096
 5320SOL    HW227423   0.284   4.430  11.870 -1.2889 -1.4870  0.6002
 5321SOL     OW27424   2.501   3.009   6.093 -0.4179  0.3677 -0.4404
 5321SOL    HW127425   2.568   3.076   6.105  0.5446 -0.6645  0.0027
 5321SOL    HW227426   2.551   2.975   6.018 -0.5294 -2.4725  0.7620
 5322SOL     OW27427   1.326   0.026   4.214 -0.0064 -0.0471 -0.2278
 5322SOL    HW127428   1.350   4.657   4.213 -1.2203 -0.3704  0.1657
 5322SOL    HW227429   1.322   0.051   4.122 -0.9181 -1.0409 -0.4573
 5323SOL     OW27430   2.056   0.113   5.709 -0.2378  0.3540  0.0064
 5323SOL    HW127431   2.010   0.164   5.642  0.0007  0.3764 -0.1405
 5323SOL    HW227432   2.145   0.145   5.699 -1.0083  2.9365  1.3832
 5324SOL     OW27433   0.828   1.263   6.889  0.1909  0.3676  0.2676
 5324SOL    HW127434   0.894   1.196   6.905 -0.0112  0.0178 -0.3684
 5324SOL    HW227435   0.804   1.273   6.981 -1.1694  0.1677 -0.0626
 5325SOL     OW27436   0.201   2.032   3.320 -0.6671 -0.5392 -0.0185
 5325SOL    HW127437   0.107   2.013   3.323 -0.0045 -3.6864  1.1590
 5325SOL    HW227438   0.223   2.053   3.411 -0.3294 -3.3892  0.5561
 5326SOL     OW27439   2.720   2.956   8.945 -0.0321 -0.1599  0.1320
 5326SOL    HW127440   2.727   3.051   8.952  2.2006 -0.2169 -1.2711
 5326SOL    HW227441   2.799   2.919   8.905  0.9124  0.1834  1.6706
 5327SOL     OW27442   1.735   2.493   5.982 -0.2807 -0.0984  0.5106
 5327SOL    HW127443   1.802   2.428   6.002  2.4348  2.7571  0.7138
 5327SOL    HW227444   1.661   2.459   6.032 -1.3512 -1.3616 -1.9097
 5328SOL     OW27445   0.290   3.605  12.710  0.1957  0.6193 -0.0216
 5328SOL    HW127446   0.213   3.556  12.680  0.1366  1.4385 -1.2526
 5328SOL    HW227447   0.267   3.599  12.802 -0.8071 -1.7146 -0.4221
 5329SOL     OW27448   1.765   0.278   1.283  0.4819 -0.4222  0.0433
 5329SOL    HW127449   1.822   0.343   1.326  1.5406 -1.0552 -0.3969
 5329SOL    HW227450   1.768   0.207   1.347 -1.7627 -0.0412  0.5666
 5330SOL     OW27451   2.036   1.995   5.647  0.2228 -0.6776 -0.6196
 5330SOL    HW127452   2.054   1.938   5.722  2.5756 -0.4278 -1.0149
 5330SOL    HW227453   1.941   1.984   5.645 -0.0237  1.5840 -1.5776
 5331SOL     OW27454   0.536   3.564  16.923 -0.6524 -0.3799 -0.0653
 5331SOL    HW127455   0.617   3.607  16.951 -2.0227  2.1199 -0.0357
 5331SOL    HW227456   0.483   3.558  17.003 -0.6286  1.6418  0.1001
 5332SOL     OW27457   3.842   1.945   7.914  0.1390  0.4892 -0.0390
 5332SOL    HW127458   3.826   1.994   7.994  0.3495  0.8579 -0.2254
 5332SOL    HW227459   3.878   1.874   7.967 -3.8148  0.0428  2.0388
 5333SOL     OW27460   3.800   2.167   6.957  0.4776 -0.8422  0.8547
 5333SOL    HW127461   3.784   2.084   7.001 -0.8629 -0.9306  0.2045
 5333SOL    HW227462   3.709   2.197   6.946 -0.0431 -2.8606 -0.2260
 5334SOL     OW27463   1.619   1.940   1.414 -0.1557 -0.6266 -0.0703
 5334SOL    HW127464   1.560   1.998   1.365 -0.1881  1.0633  2.0046
 5334SOL    HW227465   1.620   1.867   1.352 -1.3848  0.1847 -1.0603
 5335SOL     OW27466   2.641   1.163   4.375 -0.3376  0.4293 -0.6430
 5335SOL    HW127467   2.722   1.148   4.423 -1.7423 -0.7331  1.4080
 5335SOL    HW227468   2.579   1.109   4.425 -0.3105  0.2418 -0.8133
 5336SOL     OW27469   4.215   1.081   6.740  0.0905  0.9969 -0.4041
 5336SOL    HW127470   4.127   1.051   6.719  0.2069 -0.2900  0.9033
 5336SOL    HW227471   4.208   1.085   6.835  1.9743 -1.6942 -0.1275
 5337SOL     OW27472   0.289   1.284  16.407 -0.0697 -0.2869 -0.4899
 5337SOL    HW127473   0.312   1.233  16.484  2.0511  0.7852 -0.4272
 5337SOL    HW227474   0.321   1.375  16.410 -1.2730  0.1235  0.0369
 5338SOL     OW27475   1.953   2.395   2.561  0.2477  0.9342 -0.3114
 5338SOL    HW127476   1.892   2.327   2.590 -1.3109  2.2209 -0.5559
 5338SOL    HW227477   2.027   2.336   2.554 -1.1770 -1.0692  1.3716
 5339SOL     OW27478   2.864   1.801   4.124  0.7903  0.7100  0.2047
 5339SOL    HW127479   2.771   1.822   4.113  0.5404 -0.0604  0.8648
 5339SOL    HW227480   2.860   1.706   4.118  1.2753  0.7854 -1.2967
 5340SOL     OW27481   3.967   4.145   5.045 -0.0149  0.1672 -0.1561
 5340SOL    HW127482   3.961   4.217   5.109  1.4738 -0.2655  0.4554
 5340SOL    HW227483   3.891   4.165   4.990  0.2052  0.4875 -0.3475
 5341SOL     OW27484   3.201   1.534   6.167  0.4202  0.0782 -0.4999
 5341SOL    HW127485   3.231   1.581   6.244 -0.7671  1.0634 -0.6381
 5341SOL    HW227486   3.146   1.594   6.117 -1.8902 -2.2508 -0.7505
 5342SOL     OW27487   4.057   4.441   8.686  0.4277 -0.0461  0.5143
 5342SOL    HW127488   4.117   4.487   8.627 -0.3965  2.4980  1.6329
 5342SOL    HW227489   3.993   4.411   8.622 -0.8304  0.2938  1.6065
 5343SOL     OW27490   0.792   2.407   3.224  0.1447  0.0459  0.3446
 5343SOL    HW127491   0.833   2.322   3.213 -1.2636 -0.7458  1.3535
 5343SOL    HW227492   0.737   2.384   3.298  0.9301 -1.6091  0.4149
 5344SOL     OW27493   1.619   0.128   0.190 -0.3850  0.0211  0.2043
 5344SOL    HW127494   1.558   0.139   0.263 -0.2755  2.4813 -0.0693
 5344SOL    HW227495   1.686   0.074   0.233  0.2045  0.7453  0.2115
 5345SOL     OW27496   3.150   4.478   4.807  0.5840 -0.5655 -0.3519
 5345SOL    HW127497   3.205   4.475   4.728 -0.3099  1.0544 -1.0202
 5345SOL    HW227498   3.176   4.401   4.859  0.1347  0.1816  0.9590
 5346SOL     OW27499   0.398   3.144   6.607  0.5306  0.0521 -0.0636
 5346SOL    HW127500   0.395   3.239   6.595 -3.9001  0.3228  3.1598
 5346SOL    HW227501   0.377   3.111   6.519  0.9291 -1.0412  0.2571
 5347SOL     OW27502   1.782   0.717  12.308  0.6596  0.2410 -0.3105
 5347SOL    HW127503   1.757   0.751  12.223  0.8389  0.6232 -0.2123
 5347SOL    HW227504   1.754   0.626  12.294 -1.0473  0.6812  0.2720
 5348SOL     OW27505   2.269   3.660  11.993 -0.3922 -0.1494  0.2045
 5348SOL    HW127506   2.341   3.722  11.986  0.1689 -0.8411 -0.1747
 5348SOL    HW227507   2.291   3.612  11.913  3.1588  0.7225  0.6659
 5349SOL     OW27508   0.231   2.973   9.401 -0.3375  0.3287 -0.0749
 5349SOL    HW127509   0.308   2.916   9.392 -0.5766 -0.0300  0.1488
 5349SOL    HW227510   0.226   2.983   9.496  2.8130  0.1540  0.1250
 5350SOL     OW27511   3.743   2.823  15.843 -0.1050  0.6514  0.0414
 5350SOL    HW127512   3.826   2.793  15.880 -0.7814 -0.1502  0.9103
 5350SOL    HW227513   3.733   2.758  15.773  1.5771 -0.1916  0.5773
 5351SOL     OW27514   0.868   0.693   9.644 -0.0709  0.4110 -0.2491
 5351SOL    HW127515   0.826   0.644   9.574  1.0086 -2.1857  0.9147
 5351SOL    HW227516   0.799   0.707   9.710 -0.8837  3.0203 -1.6605
 5352SOL     OW27517   0.155   3.971   5.015 -0.4722  0.5483 -0.1753
 5352SOL    HW127518   0.203   4.044   5.056 -0.8264  0.9576 -0.4987
 5352SOL    HW227519   0.210   3.892   5.021 -1.7759 -0.2436  1.3084
 5353SOL     OW27520   4.644   2.821  16.716  0.3143 -0.6033  0.4792
 5353SOL    HW127521   4.641   2.805  16.621 -0.9449  0.5379  0.3208
 5353SOL    HW227522   4.690   2.905  16.713  1.2454 -1.1028  0.7791
 5354SOL     OW27523   0.040   2.214   7.915  0.2733  0.1053  0.1490
 5354SOL    HW127524   0.068   2.138   7.966  1.7344  0.0225 -0.7762
 5354SOL    HW227525   0.069   2.193   7.826  2.9466  1.0320  0.7939
 5355SOL     OW27526   0.046   4.230   7.073 -0.2883  0.2588  0.6693
 5355SOL    HW127527   4.701   4.292   7.047 -2.0110 -1.1806  1.7430
 5355SOL    HW227528   0.093   4.214   6.991 -0.8507 -3.2213  1.0260
 5356SOL     OW27529   3.922   0.666  12.282  0.4308 -0.1673  0.2297
 5356SOL    HW127530   3.973   0.649  12.361  0.3709  0.0425  0.3152
 5356SOL    HW227531   3.948   0.586  12.237 -1.2546 -0.6598  0.1511
 5357SOL     OW27532   3.182   1.891   6.832  0.0445 -0.3095  0.2443
 5357SOL    HW127533   3.149   1.942   6.906 -1.8270 -0.5227 -0.4316
 5357SOL    HW227534   3.243   1.838   6.884  0.2727  0.4584  0.7628
 5358SOL     OW27535   2.464   3.867  11.937 -0.0107  0.1148 -0.3323
 5358SOL    HW127536   2.384   3.919  11.938  0.2445  0.4507  1.5774
 5358SOL    HW227537   2.517   3.911  11.870  0.0808  0.3610 -0.0989
 5359SOL     OW27538   3.648   4.483  10.257 -0.5836  0.0394 -0.1476
 5359SOL    HW127539   3.619   4.413  10.315 -0.4565  0.7936  0.8308
 5359SOL    HW227540   3.692   4.445  10.181 -2.4486 -1.3399 -0.5216
 5360SOL     OW27541   1.306   4.672   6.269  0.2680  0.2853 -0.2992
 5360SOL    HW127542   1.277   0.001   6.344  0.7967  0.9399 -0.5439
 5360SOL    HW227543   1.397   4.654   6.296 -0.4378 -3.9477 -0.7731
 5361SOL     OW27544   3.887   3.023  14.940 -0.0963  0.3317  0.1948
 5361SOL    HW127545   3.827   3.035  15.014 -1.9373  0.5155 -1.3110
 5361SOL    HW227546   3.849   3.087  14.880  1.8944 -0.0223 -1.4117
 5362SOL     OW27547   1.339   2.021   2.969  0.3878 -0.0659 -0.5713
 5362SOL    HW127548   1.330   2.019   2.874 -0.4335 -0.8579 -0.4717
 5362SOL    HW227549   1.435   2.024   2.965  0.4108  1.4247  0.8984
 5363SOL     OW27550   0.140   0.152   5.971  0.5599 -0.6617  1.0467
 5363SOL    HW127551   0.151   0.184   5.881  0.3888 -0.3604  1.1325
 5363SOL    HW227552   0.066   0.094   5.952  0.2060  0.5260 -1.1479
 5364SOL     OW27553   0.441   1.552   7.027  0.1619 -0.2100  0.0007
 5364SOL    HW127554   0.451   1.518   6.938  0.8371 -1.0548  0.3998
 5364SOL    HW227555   0.355   1.595   7.020  1.4015  2.6065  2.1386
 5365SOL     OW27556   0.780   2.233  11.091  0.1307 -0.9748  0.6277
 5365SOL    HW127557   0.696   2.205  11.127 -0.5964  0.5615  0.1008
 5365SOL    HW227558   0.742   2.314  11.057 -2.8546 -2.6068  0.0752
 5366SOL     OW27559   3.028   3.728   8.878  0.6254 -0.0675 -0.3268
 5366SOL    HW127560   3.113   3.755   8.912  0.2474 -0.2471  0.7556
 5366SOL    HW227561   3.065   3.719   8.791 -0.8173 -1.4302 -0.7920
 5367SOL     OW27562   3.200   3.161   9.463 -0.3933 -0.3472  0.1361
 5367SOL    HW127563   3.115   3.145   9.504  0.2148  1.3817  2.0632
 5367SOL    HW227564   3.237   3.199   9.543  1.3147  0.3268 -0.9791
 5368SOL     OW27565   3.270   3.514   8.498 -0.0510  0.3876  0.3885
 5368SOL    HW127566   3.324   3.476   8.567 -0.1018 -0.0077  0.2115
 5368SOL    HW227567   3.314   3.482   8.419  1.2429  0.8037  0.9291
 5369SOL     OW27568   0.487   4.205   5.864  0.4428 -0.0595  0.3561
 5369SOL    HW127569   0.517   4.285   5.821 -2.2554  0.5369 -0.4186
 5369SOL    HW227570   0.523   4.142   5.802 -0.4589 -1.7796  1.5697
 5370SOL     OW27571   4.239   3.596   1.182 -0.3188 -0.3906  0.1700
 5370SOL    HW127572   4.243   3.609   1.087  2.0586  1.2768  0.4896
 5370SOL    HW227573   4.319   3.545   1.186 -0.0258  0.1363  1.0715
 5371SOL     OW27574   0.706   0.267   3.599  0.9217 -0.4552  0.2164
 5371SOL    HW127575   0.653   0.221   3.533  1.7076  0.7292 -1.2579
 5371SOL    HW227576   0.742   0.188   3.640  3.9086  0.4313 -0.7279
 5372SOL     OW27577   4.374   4.042   3.431  0.0043  0.2487  0.5929
 5372SOL    HW127578   4.426   4.094   3.370 -0.0463 -1.7980 -1.1799
 5372SOL    HW227579   4.439   3.973   3.445  2.3506  2.3512  0.1847
 5373SOL     OW27580   0.176   3.264  14.325  0.2438  0.0081  0.7109
 5373SOL    HW127581   0.174   3.348  14.278 -0.5606  0.5241  1.6845
 5373SOL    HW227582   0.255   3.274  14.378  0.9485 -0.8877 -0.1686
 5374SOL     OW27583   2.975   1.253   3.438  0.0527  0.6882  0.1602
 5374SOL    HW127584   3.055   1.200   3.434 -1.2263 -1.2940  0.8060
 5374SOL    HW227585   2.967   1.271   3.345 -0.0410  1.0134  0.2324
 5375SOL     OW27586   1.769   1.814   4.190  0.1449  0.2126  0.4527
 5375SOL    HW127587   1.774   1.733   4.140  0.1828  0.4327  0.0967
 5375SOL    HW227588   1.826   1.875   4.142 -0.4114  1.2914  1.1602
 5376SOL     OW27589   1.436   3.047   6.295 -0.1640 -0.0820 -0.1959
 5376SOL    HW127590   1.411   3.089   6.213 -0.1169  0.8587  0.2791
 5376SOL    HW227591   1.423   3.113   6.363  0.6716  0.9750 -1.0545
 5377SOL     OW27592   0.421   0.438  14.225 -0.3994 -0.2552  0.3808
 5377SOL    HW127593   0.351   0.460  14.164 -1.2558 -2.6124  0.4902
 5377SOL    HW227594   0.419   0.342  14.229  1.1503 -0.2866  0.0470
 5378SOL     OW27595   1.891   3.301  12.876 -0.1192  0.5120  0.0696
 5378SOL    HW127596   1.877   3.207  12.868  0.5490  0.2496  2.0844
 5378SOL    HW227597   1.979   3.299  12.914 -0.5695  2.3515  1.2396
 5379SOL     OW27598   1.777   4.479   0.382  0.4195 -0.4574 -0.2570
 5379SOL    HW127599   1.794   4.386   0.371 -0.6230 -0.6973  0.2491
 5379SOL    HW227600   1.735   4.493   0.298 -0.2273 -1.8742 -0.1621
 5380SOL     OW27601   3.476   3.482  17.148 -0.4472  0.1266  0.4036
 5380SOL    HW127602   3.483   3.523  17.234  0.3918  1.0963 -0.1281
 5380SOL    HW227603   3.415   3.549  17.117  2.2491  1.8432 -1.1699
 5381SOL     OW27604   0.690   1.640   6.718  0.3614 -0.0673 -0.3934
 5381SOL    HW127605   0.663   1.702   6.785 -0.6100 -0.2659 -0.5930
 5381SOL    HW227606   0.610   1.635   6.665  1.1127  0.9139 -1.6200
 5382SOL     OW27607   3.479   3.030  17.525  0.1720  0.5170 -0.7084
 5382SOL    HW127608   3.498   2.938  17.544 -3.4207 -0.0739 -0.0090
 5382SOL    HW227609   3.428   3.014  17.446 -1.0530  1.2171 -0.0670
 5383SOL     OW27610   2.361   1.070  10.972 -0.1747  0.4418 -0.2920
 5383SOL    HW127611   2.340   1.073  10.879 -0.6407  0.4588 -0.1837
 5383SOL    HW227612   2.455   1.086  10.959  0.2156 -0.6217  1.1755
 5384SOL     OW27613   1.403   4.108   6.964 -0.0686 -0.2149 -0.1367
 5384SOL    HW127614   1.355   4.050   7.024  0.1879 -0.6909 -0.3872
 5384SOL    HW227615   1.354   4.103   6.882 -1.2382  0.1509  0.5442
 5385SOL     OW27616   4.591   4.568   0.013  0.5007 -0.0921  0.3861
 5385SOL    HW127617   4.668   4.605  17.663 -0.9974 -0.2702 -2.4447
 5385SOL    HW227618   4.616   4.476   0.010  1.5008  0.2083 -0.3442
 5386SOL     OW27619   0.659   0.475  15.572 -1.1084 -0.1057  0.2155
 5386SOL    HW127620   0.749   0.490  15.541 -0.9053 -1.2195  0.2695
 5386SOL    HW227621   0.623   0.562  15.589  0.8969  0.7156  0.3061
 5387SOL     OW27622   2.084   4.526   0.298  0.0859  0.7620  0.1634
 5387SOL    HW127623   1.989   4.535   0.295 -0.0405 -0.7783 -0.8764
 5387SOL    HW227624   2.100   4.528   0.203 -0.9391  1.1577  0.0007
 5388SOL     OW27625   0.193   3.412   6.739  0.4082  0.0875  0.0325
 5388SOL    HW127626   0.204   3.507   6.750  2.2951  0.1253 -2.1860
 5388SOL    HW227627   0.251   3.387   6.667 -1.5886 -2.1366 -0.8258
 5389SOL     OW27628   1.512   2.308  15.137  0.5431 -0.0062 -0.1155
 5389SOL    HW127629   1.601   2.286  15.165  1.0421  1.2381 -0.6880
 5389SOL    HW227630   1.515   2.287  15.043 -0.0240  1.8244 -0.5434
 5390SOL     OW27631   0.728   1.316   5.433  0.4150 -0.3904 -0.6652
 5390SOL    HW127632   0.687   1.402   5.436  1.4697  0.0929 -0.0835
 5390SOL    HW227633   0.704   1.295   5.343  1.0701  0.4080 -1.0220
 5391SOL     OW27634   0.455   4.217  14.799  0.3090 -1.0494  0.6556
 5391SOL    HW127635   0.398   4.271  14.855  0.9999 -1.5396  1.8374
 5391SOL    HW227636   0.422   4.241  14.713 -0.2204  0.3534  1.2406
 5392SOL     OW27637   2.061   1.694   2.766  0.4376 -0.4790  0.2335
 5392SOL    HW127638   2.022   1.712   2.680 -0.9761  1.7594  1.3381
 5392SOL    HW227639   2.138   1.638   2.760  1.0762  0.0498  3.1996
 5393SOL     OW27640   3.561   3.287  13.240 -0.7547 -0.2068 -0.2174
 5393SOL    HW127641   3.479   3.295  13.192 -0.3997  0.0935 -0.7633
 5393SOL    HW227642   3.563   3.191  13.248  2.6970 -0.1510 -0.5437
 5394SOL     OW27643   1.516   2.614   9.324 -0.4184 -0.1912 -0.1723
 5394SOL    HW127644   1.426   2.606   9.295 -0.4699  0.8790 -0.3198
 5394SOL    HW227645   1.515   2.608   9.419  1.2535  2.8693  0.0660
 5395SOL     OW27646   0.537   2.819   5.787 -0.6063 -0.4306 -0.1007
 5395SOL    HW127647   0.627   2.794   5.768 -0.6283 -1.0905  0.6274
 5395SOL    HW227648   0.536   2.907   5.750 -2.7642 -1.1650 -1.7954
 5396SOL     OW27649   0.773   4.465  11.760 -0.1031 -0.1015 -0.2418
 5396SOL    HW127650   0.751   4.552  11.793  1.6032 -0.4289  1.7031
 5396SOL    HW227651   0.686   4.426  11.768  0.7401 -1.9532 -0.1378
 5397SOL     OW27652   3.012   4.639   3.634  0.2611 -0.0227 -0.1989
 5397SOL    HW127653   3.010   4.699   3.708  0.5630 -0.4737  0.1772
 5397SOL    HW227654   2.932   4.587   3.641  0.9222 -0.9208  0.6839
 5398SOL     OW27655   1.345   1.791   5.252  0.1236  0.4027  0.1506
 5398SOL    HW127656   1.274   1.766   5.312  2.3931 -0.5107  2.4789
 5398SOL    HW227657   1.288   1.803   5.176  0.1883  1.3460  0.2423
 5399SOL     OW27658   1.389   1.152  14.979  0.2283 -0.0058  0.5538
 5399SOL    HW127659   1.301   1.147  15.016 -0.0809 -3.6146 -0.7094
 5399SOL    HW227660   1.418   1.069  15.017  0.7813  0.6432  1.5469
 5400SOL     OW27661   0.524   0.160   0.387  0.7339  0.3559  0.1749
 5400SOL    HW127662   0.591   0.230   0.388 -1.3108  2.3338 -2.0036
 5400SOL    HW227663   0.453   0.213   0.351 -0.5595 -0.9139  0.8679
 5401SOL     OW27664   2.787   3.273  10.354 -0.0860 -0.0101 -0.2122
 5401SOL    HW127665   2.750   3.190  10.385  0.5519  0.0423  0.7116
 5401SOL    HW227666   2.862   3.278  10.414 -1.7251  0.0362  1.8420
 5402SOL     OW27667   1.146   1.305   8.726 -0.8267 -0.4535 -0.2048
 5402SOL    HW127668   1.174   1.378   8.670 -0.7966  0.9636  1.6708
 5402SOL    HW227669   1.217   1.243   8.713 -0.3534 -0.0987  0.7187
 5403SOL     OW27670   4.541   1.813  16.425 -0.1543 -0.3685  0.1984
 5403SOL    HW127671   4.489   1.744  16.384  0.4736 -0.8240  0.1623
 5403SOL    HW227672   4.625   1.788  16.388 -1.4977 -0.9495 -2.4322
 5404SOL     OW27673   1.082   0.824   8.915  0.2766 -0.0476 -0.1559
 5404SOL    HW127674   1.090   0.821   9.010 -0.2471  2.1139 -0.0308
 5404SOL    HW227675   0.988   0.841   8.902 -0.2922 -2.7035  0.6596
 5405SOL     OW27676   2.596   4.699   5.492  0.3948  0.1239 -0.6025
 5405SOL    HW127677   2.631   0.048   5.439  0.3124 -1.2337 -2.5334
 5405SOL    HW227678   2.613   0.017   5.576 -0.0517 -0.4103 -0.2498
 5406SOL     OW27679   3.873   1.719   2.516  0.5494 -0.0103 -0.1315
 5406SOL    HW127680   3.947   1.679   2.470  0.5686 -0.4435  0.2727
 5406SOL    HW227681   3.899   1.811   2.508  0.2227 -0.0274 -1.3163
 5407SOL     OW27682   2.812   4.537   7.287 -0.3853  0.3789  0.4689
 5407SOL    HW127683   2.791   4.518   7.379 -0.2289  0.5348  0.5374
 5407SOL    HW227684   2.823   4.632   7.296  0.3373  0.4262 -0.9932
 5408SOL     OW27685   0.643   2.541   3.556 -0.0252  0.1204  0.4386
 5408SOL    HW127686   0.604   2.469   3.506  0.4758  0.1400  0.0157
 5408SOL    HW227687   0.588   2.618   3.542 -0.2773  0.0029  0.7936
 5409SOL     OW27688   3.010   3.017   6.865  0.3023  0.0933  0.0766
 5409SOL    HW127689   2.919   3.008   6.894 -0.4121  2.8152 -1.2626
 5409SOL    HW227690   3.050   2.947   6.915 -0.4480 -0.6384 -0.3514
 5410SOL     OW27691   4.112   1.644   2.433  0.2254 -0.1724  0.0134
 5410SOL    HW127692   4.140   1.650   2.524 -1.2163 -0.1295  0.4592
 5410SOL    HW227693   4.192   1.671   2.387  1.3740  1.0804  2.7929
 5411SOL     OW27694   0.440   1.004   3.892  0.3484  0.2006  0.3158
 5411SOL    HW127695   0.429   0.937   3.824  1.4920 -0.5177  0.8425
 5411SOL    HW227696   0.489   1.067   3.839  1.1801 -0.0592  0.7858
 5412SOL     OW27697   3.997   0.092   7.640 -0.6121 -0.2541 -0.0241
 5412SOL    HW127698   3.949   0.158   7.588 -2.1179 -1.1920  0.1818
 5412SOL    HW227699   4.023   0.150   7.711  2.7690  0.8819 -2.1605
 5413SOL     OW27700   2.719   2.938   3.087  0.4989 -0.2987 -0.0510
 5413SOL    HW127701   2.695   2.858   3.135 -3.5498  0.7612 -0.2830
 5413SOL    HW227702   2.756   2.900   3.008 -0.9190  2.1067 -1.8835
 5414SOL     OW27703   1.220   1.167   4.056 -0.5565 -0.4271 -0.2048
 5414SOL    HW127704   1.211   1.213   3.973  0.3858 -2.3293 -1.3828
 5414SOL    HW227705   1.232   1.077   4.024  0.3891 -0.0417 -0.9393
 5415SOL     OW27706   3.918   3.847  11.670 -0.0541  0.0146 -0.0168
 5415SOL    HW127707   3.914   3.770  11.613 -0.3185  0.7883 -1.0572
 5415SOL    HW227708   3.911   3.802  11.754  5.2094  1.5195  1.2154
 5416SOL     OW27709   0.069   1.699  17.430  0.9806 -0.3704 -0.4169
 5416SOL    HW127710   0.040   1.790  17.422  0.2198 -0.5125  0.8799
 5416SOL    HW227711   4.717   1.653  17.393 -0.9216  0.5972  2.2783
 5417SOL     OW27712   1.546   3.469   8.443  0.1101  0.0887  0.0406
 5417SOL    HW127713   1.454   3.447   8.456  0.7648 -2.1105  0.9341
 5417SOL    HW227714   1.551   3.562   8.468  2.3871  0.0171 -0.1375
 5418SOL     OW27715   3.087   2.051   5.751  0.0821  0.0191  0.0209
 5418SOL    HW127716   3.087   2.137   5.709 -0.2050 -0.3326 -0.6970
 5418SOL    HW227717   3.126   2.056   5.839 -1.0496 -0.9574  0.5852
 5419SOL     OW27718   3.656   4.325  11.271 -0.1301 -0.4581  0.5953
 5419SOL    HW127719   3.563   4.305  11.263 -0.0396 -1.2621  1.6020
 5419SOL    HW227720   3.665   4.404  11.324  0.0893 -0.4736  0.5812
 5420SOL     OW27721   2.968   3.413   9.858 -1.1233  0.0987  0.0344
 5420SOL    HW127722   2.916   3.433   9.936 -0.3670  1.2932  0.2239
 5420SOL    HW227723   2.909   3.356   9.808  2.4066 -3.7820  0.3442
 5421SOL     OW27724   1.970   4.553   6.440  0.0165 -0.4435 -0.0456
 5421SOL    HW127725   1.982   4.527   6.532  2.8837 -1.6999 -0.7866
 5421SOL    HW227726   2.024   4.632   6.435  1.9201 -1.8398 -1.2716
 5422SOL     OW27727   3.997   3.274   3.542  0.3940  0.2456 -0.3577
 5422SOL    HW127728   3.978   3.313   3.457  0.2764 -1.5834 -1.1777
 5422SOL    HW227729   3.933   3.319   3.597  0.7532 -0.3991  0.5961
 5423SOL     OW27730   2.004   2.853   0.340 -0.0794  0.0651 -0.0894
 5423SOL    HW127731   1.956   2.931   0.367  0.7233 -0.2614  2.3286
 5423SOL    HW227732   2.052   2.878   0.261  1.1626  2.6530  1.4658
 5424SOL     OW27733   3.749   0.366   2.148  0.1368 -0.3485  0.4484
 5424SOL    HW127734   3.791   0.400   2.069 -1.4330 -0.5918 -0.4762
 5424SOL    HW227735   3.780   0.276   2.137 -0.2450 -0.4745  0.4183
 5425SOL     OW27736   3.896   0.454   6.069  0.3596 -0.3643 -0.1704
 5425SOL    HW127737   3.807   0.470   6.034 -0.6048  1.8581  3.3358
 5425SOL    HW227738   3.923   0.545   6.084 -0.7397 -0.2064  0.8160
 5426SOL     OW27739   3.477   3.296  14.318  0.1259 -0.0867  0.1292
 5426SOL    HW127740   3.545   3.237  14.351  0.3434 -1.5490 -2.9223
 5426SOL    HW227741   3.509   3.312  14.229 -0.2199  0.4816  0.1049
 5427SOL     OW27742   1.677   1.900  13.437 -0.7747  0.2009 -0.2970
 5427SOL    HW127743   1.631   1.906  13.521 -1.0199 -0.1239 -0.4053
 5427SOL    HW227744   1.742   1.969  13.450 -1.1116  0.3095  0.8532
 5428SOL     OW27745   1.566   4.133   5.801 -0.3878  0.2844  0.0755
 5428SOL    HW127746   1.522   4.158   5.882  0.7797 -2.7233  1.6218
 5428SOL    HW227747   1.639   4.195   5.810  1.0268 -1.1239 -1.7516
 5429SOL     OW27748   2.294   0.768   8.182 -0.5451 -0.1915  0.0147
 5429SOL    HW127749   2.254   0.728   8.260  0.9079 -0.7801  0.4696
 5429SOL    HW227750   2.281   0.696   8.120  2.5105  1.2495 -2.2577
 5430SOL     OW27751   2.980   4.320   6.748  0.8712  0.5873 -0.0980
 5430SOL    HW127752   2.977   4.411   6.778  0.0016  0.3679  0.4781
 5430SOL    HW227753   3.004   4.329   6.656  0.0618 -1.1876 -0.4759
 5431SOL     OW27754   4.506   0.061   0.141  0.1808  0.1695 -0.3881
 5431SOL    HW127755   4.414   0.041   0.125  0.3294 -0.1141 -0.8836
 5431SOL    HW227756   4.542   4.700   0.112  0.6634 -0.2011  1.2550
 5432SOL     OW27757   2.792   3.489   5.927  0.6231 -0.2713 -0.3701
 5432SOL    HW127758   2.841   3.561   5.886  1.5224 -0.1267  0.9467
 5432SOL    HW227759   2.758   3.543   5.998  1.5449 -0.0904 -0.0559
 5433SOL     OW27760   1.656   3.283   7.285  0.5358  0.2253 -0.6077
 5433SOL    HW127761   1.672   3.322   7.371  0.2285  0.8541 -0.8350
 5433SOL    HW227762   1.589   3.342   7.251 -0.6073 -1.3511 -1.0877
 5434SOL     OW27763   4.196   4.329   2.002 -0.1247  0.4045 -0.1307
 5434SOL    HW127764   4.245   4.409   2.020  1.5120 -0.0974 -2.2055
 5434SOL    HW227765   4.202   4.332   1.906 -1.5850  0.1099 -0.2305
 5435SOL     OW27766   2.541   3.208   1.225  0.6289 -0.5006 -0.0988
 5435SOL    HW127767   2.493   3.223   1.306  0.6321 -0.3293 -0.1268
 5435SOL    HW227768   2.613   3.150   1.248  1.2476  1.3095  2.5170
 5436SOL     OW27769   1.560   4.013   1.198  0.2252 -0.6248  0.0303
 5436SOL    HW127770   1.470   3.996   1.226  0.4859 -1.2688  0.4694
 5436SOL    HW227771   1.562   3.984   1.107 -1.8685 -0.5186 -0.0671
 5437SOL     OW27772   3.029   2.456  10.717  0.4617 -0.1936  0.0998
 5437SOL    HW127773   3.036   2.476  10.810  1.6165  4.0481 -0.8773
 5437SOL    HW227774   2.935   2.443  10.705  0.2222 -1.4485  3.6007
 5438SOL     OW27775   0.781   1.151   8.093  0.2538 -1.1943  0.2506
 5438SOL    HW127776   0.802   1.206   8.018 -1.2106 -0.4507  0.3764
 5438SOL    HW227777   0.799   1.061   8.067 -0.1063 -1.6840  1.6923
 5439SOL     OW27778   0.891   0.691   2.445  0.6119 -0.4771  0.1252
 5439SOL    HW127779   0.947   0.662   2.517  0.7128 -0.5600  0.0135
 5439SOL    HW227780   0.930   0.638   2.376 -2.3028 -0.1639 -1.7551
 5440SOL     OW27781   1.045   1.291  10.933 -0.2072  0.4171  0.4048
 5440SOL    HW127782   1.065   1.363  10.873  1.3315  0.3455  0.8174
 5440SOL    HW227783   1.073   1.334  11.014 -0.2175 -0.6787  0.9910
 5441SOL     OW27784   2.567   1.873   4.578 -0.3397  0.5136 -0.1947
 5441SOL    HW127785   2.517   1.913   4.507 -0.0375  0.7549 -0.2742
 5441SOL    HW227786   2.647   1.863   4.526  0.2952  1.3798  0.6004
 5442SOL     OW27787   2.268   0.439   4.517  0.1994 -0.2996  0.3045
 5442SOL    HW127788   2.309   0.424   4.602 -1.1809 -0.0918  1.0154
 5442SOL    HW227789   2.177   0.409   4.523 -0.1952  0.5001 -1.7216
 5443SOL     OW27790   1.889   2.706   5.476  0.3651 -0.1988  0.0235
 5443SOL    HW127791   1.814   2.764   5.460  0.1963 -0.8003 -1.3346
 5443SOL    HW227792   1.856   2.644   5.542  1.9070 -0.9767  0.0632
 5444SOL     OW27793   0.945   1.384   4.381  0.5216  0.5269  0.4628
 5444SOL    HW127794   0.971   1.436   4.305  0.3882 -1.4001 -0.8991
 5444SOL    HW227795   1.002   1.308   4.377 -1.4138 -0.8038 -1.8419
 5445SOL     OW27796   1.025   2.034   2.552 -0.0531  0.4997  0.1027
 5445SOL    HW127797   0.968   1.995   2.618 -0.2527  1.1462  0.3121
 5445SOL    HW227798   0.952   2.049   2.491  0.6227  0.8025 -0.6238
 5446SOL     OW27799   0.827   0.293  17.127  0.7982 -0.3109  0.8987
 5446SOL    HW127800   0.743   0.255  17.153  0.0774  0.6307 -0.0724
 5446SOL    HW227801   0.803   0.382  17.103 -1.1904 -0.2908  2.9130
 5447SOL     OW27802   4.212   1.051  11.770  0.1622  0.1589  0.3154
 5447SOL    HW127803   4.156   1.090  11.837  0.7116  2.1545 -0.3880
 5447SOL    HW227804   4.153   1.046  11.694  2.8972  0.4111 -1.8277
 5448SOL     OW27805   2.038   3.225  16.667  0.3560  0.9073 -0.6384
 5448SOL    HW127806   2.080   3.156  16.719 -1.7544 -1.1019 -1.6135
 5448SOL    HW227807   2.038   3.282  16.744  1.5697 -0.8855  0.6984
 5449SOL     OW27808   2.529   1.466   9.018  0.2620  0.1771  0.1186
 5449SOL    HW127809   2.518   1.460   9.113  0.7177 -1.1701  0.0878
 5449SOL    HW227810   2.469   1.538   8.999 -0.9583 -0.2936  2.2373
 5450SOL     OW27811   3.809   0.265   2.504 -1.0383 -0.2037 -0.3035
 5450SOL    HW127812   3.834   0.355   2.480 -2.2337 -0.0250 -0.8831
 5450SOL    HW227813   3.888   0.217   2.484  0.2581  1.7675  0.0302
 5451SOL     OW27814   2.488   0.236   6.469 -0.8148 -0.3572  0.2710
 5451SOL    HW127815   2.532   0.312   6.509  0.8403 -1.3973  0.4307
 5451SOL    HW227816   2.452   0.206   6.552 -0.3529  1.0071  0.9670
 5452SOL     OW27817   1.068   1.619   5.666 -0.2359  0.0899  0.2209
 5452SOL    HW127818   1.058   1.683   5.736 -1.7192 -1.1794  1.1857
 5452SOL    HW227819   1.077   1.538   5.717  0.5244 -0.6616 -1.1117
 5453SOL     OW27820   2.442   1.732   1.920  0.6590  0.4639  0.1858
 5453SOL    HW127821   2.457   1.737   1.825  1.1817 -1.4815  0.1597
 5453SOL    HW227822   2.369   1.670   1.926 -0.2063  1.5254  0.4407
 5454SOL     OW27823   3.273   1.736   2.102 -0.7338  0.3046  0.5563
 5454SOL    HW127824   3.361   1.711   2.071 -0.7196 -0.0793  0.9041
 5454SOL    HW227825   3.272   1.831   2.106  1.5391  0.3916 -0.5508
 5455SOL     OW27826   1.258   1.266   7.736  0.2652  0.2931  0.2119
 5455SOL    HW127827   1.231   1.203   7.669 -2.9740  1.9957 -0.0767
 5455SOL    HW227828   1.287   1.210   7.808  1.1094 -1.0291 -1.1580
 5456SOL     OW27829   0.247   2.991   9.681 -0.3204 -0.0565 -0.4272
 5456SOL    HW127830   0.185   2.976   9.752 -0.0284 -1.2968 -0.4337
 5456SOL    HW227831   0.334   2.997   9.719 -1.8422 -0.4654  3.1398
 5457SOL     OW27832   2.828   1.141   0.059 -0.2202  0.0411  0.0698
 5457SOL    HW127833   2.825   1.210   0.126 -0.4555 -0.2517  0.3586
 5457SOL    HW227834   2.757   1.080   0.077 -0.2862  0.1851  0.3032
 5458SOL     OW27835   0.475   2.432  16.087 -0.1847  0.3278 -0.3109
 5458SOL    HW127836   0.462   2.395  16.000  0.5363 -0.9910  0.1381
 5458SOL    HW227837   0.453   2.352  16.134 -1.7842  0.5855 -0.6217
 5459SOL     OW27838   2.877   3.551   1.750 -0.9193  0.2978 -0.0485
 5459SOL    HW127839   2.824   3.472   1.744 -0.7858  0.1651  0.5166
 5459SOL    HW227840   2.932   3.535   1.827  1.1029  2.0063 -1.1175
 5460SOL     OW27841   0.320   3.805   8.106  0.2214  0.5519 -0.1408
 5460SOL    HW127842   0.387   3.754   8.153 -2.8741 -3.6144 -0.2265
 5460SOL    HW227843   0.382   3.856   8.054  0.0707  0.6714 -0.2024
 5461SOL     OW27844   3.945   0.303   5.359 -0.6663  0.5970 -1.1987
 5461SOL    HW127845   3.930   0.391   5.326  1.2733  1.1437 -0.6358
 5461SOL    HW227846   3.861   0.289   5.403  0.3194 -0.2088  0.4129
 5462SOL     OW27847   4.513   3.598  11.195  0.2203 -0.1783 -0.1036
 5462SOL    HW127848   4.585   3.650  11.161  0.5234  1.0558  2.4033
 5462SOL    HW227849   4.556   3.529  11.247  0.7873  0.2816  0.0369
 5463SOL     OW27850   4.677   4.570   4.789 -0.0828 -0.3916 -0.3389
 5463SOL    HW127851   4.721   4.654   4.801 -0.0373 -0.2489 -1.4888
 5463SOL    HW227852   4.592   4.603   4.759 -0.0264  0.9500  0.9418
 5464SOL     OW27853   3.174   3.896   9.355  0.0179 -0.0898  0.3421
 5464SOL    HW127854   3.087   3.903   9.394 -0.5089 -1.9954 -0.4953
 5464SOL    HW227855   3.178   3.802   9.335 -0.3786 -0.3662  1.5267
 5465SOL     OW27856   0.134   0.373   4.566  0.0056  0.3867 -0.8400
 5465SOL    HW127857   0.197   0.441   4.592  0.3182 -1.5500  3.4747
 5465SOL    HW227858   0.053   0.422   4.582  0.1881  0.6650 -0.7601
 5466SOL     OW27859   0.202   4.429   4.085  0.0988 -0.5258  0.1974
 5466SOL    HW127860   0.176   4.343   4.049  0.2684  0.2221 -1.7161
 5466SOL    HW227861   0.289   4.414   4.121 -0.4192  0.1389  1.7235
 5467SOL     OW27862   1.658   4.007   2.827 -0.2497 -0.0532 -0.3234
 5467SOL    HW127863   1.673   3.926   2.877 -0.9615 -1.5493 -2.5193
 5467SOL    HW227864   1.743   4.025   2.789 -0.5195 -2.0763 -1.8594
 5468SOL     OW27865   3.395   1.971  12.638 -0.5511  0.4977  0.0001
 5468SOL    HW127866   3.323   1.909  12.654 -0.5344  0.5092  0.1195
 5468SOL    HW227867   3.462   1.903  12.626 -2.0138 -0.9726  0.1296
 5469SOL     OW27868   4.458   4.468   0.764 -0.4501  0.0266 -0.4753
 5469SOL    HW127869   4.540   4.509   0.790 -0.2317 -1.0564  0.5315
 5469SOL    HW227870   4.421   4.539   0.711 -1.2409 -0.0799 -0.0553
 5470SOL     OW27871   0.939   2.728   5.270 -0.0366 -0.3655 -0.0255
 5470SOL    HW127872   1.033   2.741   5.285 -0.3243 -0.1682  1.5196
 5470SOL    HW227873   0.913   2.809   5.226  0.8154 -1.5363 -2.7104
 5471SOL     OW27874   4.049   1.981   3.689 -0.3052  0.5037  0.1317
 5471SOL    HW127875   3.996   2.043   3.739 -0.8194  0.9435 -0.9485
 5471SOL    HW227876   4.108   1.945   3.755 -0.2575  0.8716  0.2892
 5472SOL     OW27877   2.774   0.225   8.828 -0.0105 -0.1069  0.3911
 5472SOL    HW127878   2.703   0.247   8.887 -0.6122 -0.1098 -0.3317
 5472SOL    HW227879   2.818   0.311   8.828 -1.8469  0.8153  2.4437
 5473SOL     OW27880   4.611   4.453   2.545 -0.1488 -0.1851  0.1045
 5473SOL    HW127881   4.642   4.440   2.455  2.4050  0.5404  0.8789
 5473SOL    HW227882   4.568   4.538   2.547 -0.9871 -0.6148  0.1576
 5474SOL     OW27883   1.575   4.713   9.597  0.3376 -0.1034 -0.0519
 5474SOL    HW127884   1.592   4.669   9.680  0.1812  0.4168  0.2527
 5474SOL    HW227885   1.498   0.044   9.613 -0.3256 -0.0431 -3.3624
 5475SOL     OW27886   0.611   3.740   5.670  0.9042 -0.0493 -0.5042
 5475SOL    HW127887   0.560   3.672   5.627 -0.1286 -0.4629  1.3396
 5475SOL    HW227888   0.700   3.712   5.650  0.7041 -0.8530 -0.2790
 5476SOL     OW27889   0.240   1.830   2.572  0.2793  0.2516  0.3097
 5476SOL    HW127890   0.251   1.778   2.651 -2.0778  0.7792  0.9899
 5476SOL    HW227891   0.281   1.770   2.510 -0.2706 -0.0482  0.2308
 5477SOL     OW27892   1.515   2.251   6.504  0.2307  0.0565 -0.4362
 5477SOL    HW127893   1.544   2.305   6.578  0.5550  2.2298 -2.1490
 5477SOL    HW227894   1.586   2.249   6.439 -2.3062 -0.2246 -3.2066
 5478SOL     OW27895   1.299   3.623   3.845 -0.2511  0.5264  0.1823
 5478SOL    HW127896   1.272   3.542   3.888 -0.2324  0.1359 -0.5412
 5478SOL    HW227897   1.239   3.627   3.770 -1.5370  2.2262  1.2836
 5479SOL     OW27898   0.899   1.509  10.644 -0.5283  0.0877  0.2873
 5479SOL    HW127899   0.976   1.473  10.690  0.7004  0.3524 -1.5600
 5479SOL    HW227900   0.910   1.464  10.561 -0.5964  2.1541 -0.8428
 5480SOL     OW27901   1.969   2.255   0.922 -0.2705  0.0161  0.1442
 5480SOL    HW127902   2.065   2.251   0.918 -0.2458 -0.8472  1.2979
 5480SOL    HW227903   1.951   2.245   1.016  0.5641 -0.4589  0.2616
 5481SOL     OW27904   3.283   0.569   6.507 -0.6446 -0.7482  0.2016
 5481SOL    HW127905   3.359   0.513   6.525  0.0100  0.2454  0.5831
 5481SOL    HW227906   3.276   0.571   6.411  1.9572 -0.9487 -0.0150
 5482SOL     OW27907   0.269   0.314  14.469  0.1473 -0.8142  0.0617
 5482SOL    HW127908   0.364   0.302  14.464 -0.0426 -2.2248 -0.0735
 5482SOL    HW227909   0.253   0.372  14.394  2.1083 -1.8403 -1.1568
 5483SOL     OW27910   3.831   0.608  17.399  0.2016 -1.1748  0.6791
 5483SOL    HW127911   3.827   0.551  17.476  0.3887 -0.4052  1.2533
 5483SOL    HW227912   3.924   0.592  17.383  0.2264 -0.4571  0.0876
 5484SOL     OW27913   4.155   0.234   8.468 -0.1589 -0.0209 -0.0034
 5484SOL    HW127914   4.149   0.305   8.405 -1.8104 -0.0819  0.0923
 5484SOL    HW227915   4.062   0.230   8.490 -0.1813 -2.0381 -0.4161
 5485SOL     OW27916   2.072   2.996   0.103  0.0210  0.2039  0.1067
 5485SOL    HW127917   2.044   3.063   0.042  0.3448  0.1666 -0.0819
 5485SOL    HW227918   2.062   2.917   0.050 -1.1187  0.4886 -0.0929
 5486SOL     OW27919   3.450   0.935   2.809  0.5916  0.1861  0.0951
 5486SOL    HW127920   3.467   0.845   2.781  0.7727  0.4285 -0.5681
 5486SOL    HW227921   3.531   0.979   2.783 -0.1366  0.1726 -2.1335
 5487SOL     OW27922   0.441   3.232   9.636 -0.2036  0.2779 -0.5677
 5487SOL    HW127923   0.436   3.187   9.721 -0.9681 -1.6282 -1.6185
 5487SOL    HW227924   0.446   3.155   9.579 -0.4721 -0.5939  0.5783
 5488SOL     OW27925   3.346   1.356   6.640  0.0992 -0.2362  0.4672
 5488SOL    HW127926   3.327   1.449   6.632  1.4720  0.0468  0.5581
 5488SOL    HW227927   3.416   1.356   6.575  1.2190 -0.6634  1.6730
 5489SOL     OW27928   2.410   0.505   5.303 -1.0617 -0.6762 -0.4719
 5489SOL    HW127929   2.391   0.578   5.244 -0.3423 -0.4480 -0.4222
 5489SOL    HW227930   2.322   0.473   5.323 -1.3594  2.9625  4.2963
 5490SOL     OW27931   0.806   3.062   6.896  0.2082  0.0925  0.1537
 5490SOL    HW127932   0.897   3.074   6.923 -0.3188  0.7824  1.6086
 5490SOL    HW227933   0.799   3.114   6.816 -1.2965  0.7806  0.7446
 5491SOL     OW27934   1.854   4.158   8.765 -0.1977  0.3198 -0.6441
 5491SOL    HW127935   1.830   4.169   8.673  0.7293  0.0461 -0.9220
 5491SOL    HW227936   1.813   4.078   8.798  3.3605 -3.0278 -4.3649
 5492SOL     OW27937   3.846   3.752   6.551  0.2341  0.0346 -0.0305
 5492SOL    HW127938   3.833   3.758   6.457 -0.4913  0.8658  0.1261
 5492SOL    HW227939   3.824   3.841   6.578  0.3857  0.0332  0.0981
 5493SOL     OW27940   4.104   1.007   2.285  0.0573 -0.1376 -0.9936
 5493SOL    HW127941   4.164   1.061   2.235 -1.8290 -0.4866 -3.6225
 5493SOL    HW227942   4.026   1.012   2.231 -1.3072  2.0019  1.1947
 5494SOL     OW27943   1.618   3.784   3.114  0.7693  0.4401  0.2992
 5494SOL    HW127944   1.580   3.737   3.188  1.7385  1.2768  1.3280
 5494SOL    HW227945   1.711   3.781   3.138  0.7824 -1.4549  0.0241
 5495SOL     OW27946   4.349   3.673   3.024  0.2887 -0.1482 -0.3018
 5495SOL    HW127947   4.423   3.623   3.058  0.0485  1.7250  2.9088
 5495SOL    HW227948   4.336   3.739   3.092 -2.3853 -0.2491 -0.7105
 5496SOL     OW27949   4.449   2.075   8.570  0.2667  0.2867  0.1733
 5496SOL    HW127950   4.442   2.164   8.536 -0.3288 -0.0367 -0.5570
 5496SOL    HW227951   4.442   2.029   8.486 -2.1548  0.3354  0.3453
 5497SOL     OW27952   1.070   0.105   3.363  0.4311  0.5972  0.9699
 5497SOL    HW127953   0.978   0.121   3.342  0.4393  1.3232  1.4885
 5497SOL    HW227954   1.076   0.011   3.345 -1.8666  1.0295 -1.9521
 5498SOL     OW27955   0.484   2.760   9.025 -0.1271 -0.1502  0.2236
 5498SOL    HW127956   0.476   2.665   9.011 -0.5155 -0.2607  1.2173
 5498SOL    HW227957   0.508   2.790   8.937 -2.8246 -1.7138 -1.0435
 5499SOL     OW27958   2.316   4.029   3.012  0.3728 -0.1770  0.5041
 5499SOL    HW127959   2.367   3.962   3.058 -0.9140  0.1501  2.4349
 5499SOL    HW227960   2.379   4.077   2.959  0.8400 -1.3265  0.0107
 5500SOL     OW27961   4.117   4.130   3.432  0.1782 -0.8801  0.5888
 5500SOL    HW127962   4.208   4.105   3.449  0.5363  0.6917  0.9541
 5500SOL    HW227963   4.106   4.121   3.337 -0.7471 -2.2191  0.8239
 5501SOL     OW27964   2.734   2.221   4.567 -0.0662  0.7863 -0.8156
 5501SOL    HW127965   2.829   2.226   4.582 -0.2022  0.4222  0.1956
 5501SOL    HW227966   2.698   2.250   4.651 -0.5172 -0.9964 -0.3711
 5502SOL     OW27967   1.756   3.173   8.685 -0.4105 -0.1332 -0.2035
 5502SOL    HW127968   1.778   3.241   8.749  2.3296 -0.0554 -1.2204
 5502SOL    HW227969   1.772   3.220   8.603  1.4602  0.0532  0.2669
 5503SOL     OW27970   3.670   3.345   7.422 -0.2307  0.1489  0.1565
 5503SOL    HW127971   3.750   3.391   7.399 -0.2801  0.3903  0.4681
 5503SOL    HW227972   3.702   3.256   7.407 -0.4636  0.0729  0.1150
 5504SOL     OW27973   0.024   1.632   7.237  0.2305 -0.2153 -0.3248
 5504SOL    HW127974   4.674   1.692   7.221 -0.8607 -0.7236  2.7408
 5504SOL    HW227975   0.083   1.683   7.292 -0.2938  2.0557 -1.8824
 5505SOL     OW27976   2.536   3.150   6.809 -0.1162  0.4599  0.2212
 5505SOL    HW127977   2.514   3.196   6.727 -2.3953  1.1547  1.2333
 5505SOL    HW227978   2.459   3.094   6.810  0.4069 -0.3329 -2.8654
 5506SOL     OW27979   1.727   0.006   6.730  0.4308  0.4787 -0.1197
 5506SOL    HW127980   1.818   4.698   6.733 -0.1361 -1.0554  1.2289
 5506SOL    HW227981   1.707   4.712   6.822  0.7585 -3.0807 -0.6870
 5507SOL     OW27982   2.296   0.146   8.224 -0.0551  0.3710  0.5378
 5507SOL    HW127983   2.363   0.082   8.248 -0.3185 -0.7571 -1.8034
 5507SOL    HW227984   2.216   0.110   8.262  0.5519 -0.6490  0.8428
 5508SOL     OW27985   3.575   3.603   6.891 -0.2638  0.2079  0.4856
 5508SOL    HW127986   3.655   3.608   6.839 -1.1458  2.5314 -0.6559
 5508SOL    HW227987   3.573   3.508   6.896 -1.7884  0.1950 -0.5855
 5509SOL     OW27988   3.528   3.331   6.203  0.3912  0.3703  0.7386
 5509SOL    HW127989   3.578   3.413   6.208 -1.6890  1.5949  1.5119
 5509SOL    HW227990   3.523   3.291   6.289  0.4040  1.4896  1.2598
 5510SOL     OW27991   3.756   0.363  16.593 -0.0171  0.5039 -0.0656
 5510SOL    HW127992   3.675   0.363  16.542 -1.6861  0.4267  2.6233
 5510SOL    HW227993   3.817   0.373  16.520  1.1873 -1.4402  0.6896
 5511SOL     OW27994   2.568   4.289   5.002  0.5283 -0.3071  0.1511
 5511SOL    HW127995   2.579   4.347   4.927  0.7561  0.3782  0.7146
 5511SOL    HW227996   2.508   4.224   4.966  1.2298  0.2603 -2.0388
 5512SOL     OW27997   2.212   2.192  12.261 -0.5523  0.1628  0.0452
 5512SOL    HW127998   2.159   2.270  12.243 -0.3368  0.9081  2.6845
 5512SOL    HW227999   2.213   2.187  12.356 -0.6036  1.3180  0.1112
 5513SOL     OW28000   2.652   0.589   7.041  0.3017  0.6025 -0.0900
 5513SOL    HW128001   2.656   0.644   6.964  1.0095 -1.4963 -1.5460
 5513SOL    HW228002   2.582   0.526   7.023  0.6783  0.4958 -1.1289
 5514SOL     OW28003   2.657   2.797   1.912 -0.5434 -0.0797  0.2468
 5514SOL    HW128004   2.601   2.770   1.985  0.6967 -0.0671  1.2118
 5514SOL    HW228005   2.603   2.872   1.887  0.8755  1.1947  0.9327
 5515SOL     OW28006   2.063   0.394   3.427 -0.5502 -0.4935  0.7819
 5515SOL    HW128007   2.094   0.371   3.340 -0.2489 -0.6923  0.9418
 5515SOL    HW228008   2.045   0.487   3.413  2.0109 -0.4270 -1.9294
 5516SOL     OW28009   2.859   2.013   6.706 -0.0893 -0.2612  0.5239
 5516SOL    HW128010   2.816   1.961   6.773  0.3866  1.0935  1.8681
 5516SOL    HW228011   2.836   2.098   6.744 -1.4855  0.0379 -0.9599
 5517SOL     OW28012   2.927   0.151   2.100 -0.3155  0.2156  0.5506
 5517SOL    HW128013   2.979   0.079   2.135 -0.5943 -0.4938 -0.4672
 5517SOL    HW228014   2.938   0.137   2.005  0.8646  0.9377  0.5772
 5518SOL     OW28015   1.680   3.695   2.844  0.0267 -0.5179 -0.3649
 5518SOL    HW128016   1.643   3.702   2.932  0.6472 -2.3406  0.0464
 5518SOL    HW228017   1.617   3.642   2.794 -0.5397 -0.5303  0.3711
 5519SOL     OW28018   0.650   3.072   3.668  0.5312  0.3064  0.5024
 5519SOL    HW128019   0.702   3.125   3.728  1.0778 -0.4915  0.7193
 5519SOL    HW228020   0.562   3.089   3.702 -0.0032  1.2515 -1.3107
 5520SOL     OW28021   0.823   0.695   3.072 -0.4185 -0.5984  0.1992
 5520SOL    HW128022   0.734   0.699   3.106 -0.5440 -0.1377 -0.1790
 5520SOL    HW228023   0.854   0.618   3.120 -1.9983 -1.3997 -0.0922
 5521SOL     OW28024   4.026   2.553  13.756 -0.0204 -0.3715 -0.5452
 5521SOL    HW128025   4.014   2.558  13.661 -0.4512 -0.3271 -0.4928
 5521SOL    HW228026   4.016   2.648  13.767  0.7286 -0.1747 -1.5570
 5522SOL     OW28027   3.137   3.886  15.779  0.0578  0.0344 -0.1393
 5522SOL    HW128028   3.162   3.797  15.804 -0.2581  0.2581  0.9798
 5522SOL    HW228029   3.105   3.860  15.692 -0.8286  3.4904 -0.8475
 5523SOL     OW28030   3.213   3.412   8.998 -0.4853  0.4975  0.6587
 5523SOL    HW128031   3.217   3.347   9.068  2.1905  0.5743  0.5532
 5523SOL    HW228032   3.166   3.482   9.043 -1.1855 -0.5877  1.6158
 5524SOL     OW28033   2.109   1.398   5.398  0.0111  0.5960 -1.0549
 5524SOL    HW128034   2.200   1.381   5.422 -0.8514 -0.4976  1.4378
 5524SOL    HW228035   2.106   1.494   5.394 -0.5209  0.6801  1.4668
 5525SOL     OW28036   3.755   2.511   2.098 -0.1623  0.0647  0.4976
 5525SOL    HW128037   3.669   2.550   2.116  0.2621  1.7669 -1.1608
 5525SOL    HW228038   3.767   2.458   2.178 -0.0597  0.5740  0.8176
 5526SOL     OW28039   3.780   3.506   3.394  0.3183 -0.7774 -0.0569
 5526SOL    HW128040   3.696   3.459   3.395 -0.5624  0.7610 -1.8238
 5526SOL    HW228041   3.786   3.548   3.308  2.8466  0.5020  0.7654
 5527SOL     OW28042   0.391   4.405   2.889  0.0833  0.0304  0.4875
 5527SOL    HW128043   0.459   4.339   2.899  0.6650  0.5516 -0.0741
 5527SOL    HW228044   0.426   4.456   2.817  1.0043  1.3977  1.8937
 5528SOL     OW28045   2.184   0.535   5.098  0.1032  0.4306  0.1104
 5528SOL    HW128046   2.131   0.614   5.111  2.3895  1.9603  0.0738
 5528SOL    HW228047   2.141   0.479   5.163  0.8561 -0.8043 -0.4501
 5529SOL     OW28048   3.230   3.229   9.197  0.1403  0.2185 -0.0174
 5529SOL    HW128049   3.187   3.149   9.167 -0.2394  1.0386 -1.6379
 5529SOL    HW228050   3.212   3.217   9.290  1.8493  2.8560  0.6497
 5530SOL     OW28051   3.683   2.568   4.203  0.7968 -0.1968 -0.2109
 5530SOL    HW128052   3.759   2.593   4.255 -0.9838  0.9534  1.8166
 5530SOL    HW228053   3.616   2.527   4.257  2.1414 -2.1359 -0.0284
 5531SOL     OW28054   4.094   2.012  16.568 -0.0962 -0.1751 -0.4221
 5531SOL    HW128055   4.064   1.943  16.627  0.8335  1.0613  1.4936
 5531SOL    HW228056   4.186   1.985  16.563 -0.1779 -0.6263  0.4720
 5532SOL     OW28057   2.236   4.407   4.507 -0.0195  0.1798 -0.0697
 5532SOL    HW128058   2.141   4.403   4.516 -0.1134 -0.6481 -1.4317
 5532SOL    HW228059   2.250   4.421   4.413 -0.6848  1.7509  0.0664
 5533SOL     OW28060   3.766   0.565   9.705  0.3619  0.6008 -0.2116
 5533SOL    HW128061   3.785   0.573   9.612 -1.0043 -0.2558 -0.5586
 5533SOL    HW228062   3.836   0.618   9.744 -0.0300  1.3731 -0.5606
 5534SOL     OW28063   3.205   2.400   6.632  0.2220  0.0176 -0.3063
 5534SOL    HW128064   3.261   2.326   6.653 -0.8491 -0.4590  0.9072
 5534SOL    HW228065   3.148   2.353   6.571 -1.2846 -0.1637  1.1941
 5535SOL     OW28066   1.054   2.690   1.243 -0.0350 -0.0826 -0.2427
 5535SOL    HW128067   1.114   2.666   1.172  1.6639 -0.7238  1.4018
 5535SOL    HW228068   1.043   2.785   1.237 -0.7439 -0.0386  1.6023
 5536SOL     OW28069   3.271   2.786  10.778  0.6545  0.4461 -0.1971
 5536SOL    HW128070   3.329   2.848  10.823  0.6068  0.9298 -0.8073
 5536SOL    HW228071   3.326   2.708  10.773 -1.3298 -0.9094 -0.7600
 5537SOL     OW28072   4.291   3.401   7.206 -0.4132 -0.0110 -0.0365
 5537SOL    HW128073   4.308   3.478   7.260 -0.0171  0.8192 -1.3461
 5537SOL    HW228074   4.241   3.344   7.265  0.3319  0.1592  0.7640
 5538SOL     OW28075   2.791   0.775   6.081  0.5498  0.0904  0.9457
 5538SOL    HW128076   2.859   0.819   6.132  0.0494  0.2656  1.4606
 5538SOL    HW228077   2.764   0.854   6.035 -1.2638  0.2427  2.3013
 5539SOL     OW28078   1.102   1.154   4.317  0.1434  0.3877 -0.0698
 5539SOL    HW128079   1.133   1.173   4.229  0.2719  0.0504 -0.1005
 5539SOL    HW228080   1.157   1.084   4.353  1.3556  0.4468 -1.8346
 5540SOL     OW28081   4.527   4.671   4.463  0.2659 -0.0242 -0.1036
 5540SOL    HW128082   4.556   0.035   4.491  0.7824 -0.6475  1.2919
 5540SOL    HW228083   4.478   4.685   4.382  0.3486  0.1838 -0.1191
 5541SOL     OW28084   4.028   1.847   0.020 -0.1876 -0.1462  0.5595
 5541SOL    HW128085   4.024   1.922   0.080  1.7667  0.0730  0.4346
 5541SOL    HW228086   3.963   1.788   0.058  2.3571 -1.0393  3.5262
 5542SOL     OW28087   1.040   1.346   0.087  0.0455  0.4838  0.0379
 5542SOL    HW128088   0.988   1.416   0.047  0.7572  0.3885 -1.0673
 5542SOL    HW228089   1.123   1.393   0.096 -0.0323  1.1572 -2.5645
 5543SOL     OW28090   1.437   1.016   2.252 -0.2031  0.1307 -0.4096
 5543SOL    HW128091   1.527   1.025   2.284 -0.3062 -0.8061  0.1312
 5543SOL    HW228092   1.386   1.065   2.316 -0.0714 -3.0031  2.0900
 5544SOL     OW28093   2.916   3.467  11.052 -0.1376 -0.2078 -0.5197
 5544SOL    HW128094   2.904   3.392  11.109 -2.1854  0.3989 -0.1502
 5544SOL    HW228095   2.831   3.467  11.006  0.0580  0.3635 -0.8847
 5545SOL     OW28096   1.995   3.882   1.290 -0.3313 -0.2464 -0.3755
 5545SOL    HW128097   2.090   3.888   1.294 -0.4948  1.6165  0.8095
 5545SOL    HW228098   1.968   3.863   1.379  1.9142 -0.4070  0.2575
 5546SOL     OW28099   1.972   2.042   8.927 -0.0847 -0.9161 -0.2408
 5546SOL    HW128100   1.933   2.125   8.900 -1.0541 -0.1141  3.6280
 5546SOL    HW228101   2.028   2.073   8.998  2.2690  1.3672 -3.0763
 5547SOL     OW28102   0.186   1.157   0.869  0.3213  0.6359  0.3965
 5547SOL    HW128103   0.163   1.250   0.865 -3.5826 -0.3764 -1.4810
 5547SOL    HW228104   0.100   1.116   0.881  0.6934  0.1435  1.3643
 5548SOL     OW28105   3.078   2.838  15.156  0.6349 -0.5884  0.2797
 5548SOL    HW128106   3.099   2.796  15.073  2.7277  0.4294  0.2782
 5548SOL    HW228107   3.171   2.851  15.176  0.3874  0.7598  0.5373
 5549SOL     OW28108   2.117   2.407   0.431 -0.1818  0.4131  0.6308
 5549SOL    HW128109   2.103   2.394   0.338 -0.6721  0.7658  0.6601
 5549SOL    HW228110   2.102   2.501   0.438 -1.8261  0.2484 -0.8909
 5550SOL     OW28111   2.177   1.277  15.427  0.2502  0.3099 -0.0731
 5550SOL    HW128112   2.260   1.325  15.420 -0.8386  2.4938  1.7564
 5550SOL    HW228113   2.157   1.254  15.337  2.2165  0.4642 -0.5642
 5551SOL     OW28114   2.008   4.512   5.222 -0.1865 -0.4619 -0.1237
 5551SOL    HW128115   2.060   4.571   5.168 -1.0391 -0.4678 -0.9472
 5551SOL    HW228116   2.064   4.434   5.230  2.0724  1.4059  2.3005
 5552SOL     OW28117   4.375   1.528   9.157  0.2941  0.3327  0.0417
 5552SOL    HW128118   4.347   1.590   9.225  1.3902  1.0931 -0.1999
 5552SOL    HW228119   4.470   1.540   9.150  0.2583  0.3446 -0.3890
 5553SOL     OW28120   3.354   0.001   1.509  0.9383  0.6335  0.1913
 5553SOL    HW128121   3.343   0.036   1.420  0.0371  0.7928  0.3644
 5553SOL    HW228122   3.345   0.082   1.560  0.5574  1.0058 -0.4637
 5554SOL     OW28123   3.101   1.998  14.681  0.1075  0.7481  0.4496
 5554SOL    HW128124   3.027   2.057  14.669  0.6317  1.4737  0.7297
 5554SOL    HW228125   3.100   1.936  14.608 -0.8294 -1.2328  2.1535
 5555SOL     OW28126   4.647   0.129   1.629  0.1536  0.3694 -0.3732
 5555SOL    HW128127   4.691   0.078   1.561 -1.1342  0.5690 -1.3389
 5555SOL    HW228128   4.557   0.128   1.597 -0.0800  1.1929  0.2646
 5556SOL     OW28129   0.120   2.635   4.600 -0.8827 -0.4292  0.1608
 5556SOL    HW128130   0.139   2.624   4.507  2.1304  0.7876  0.6376
 5556SOL    HW228131   0.037   2.681   4.588  0.1340  1.2141 -0.5323
 5557SOL     OW28132   3.365   0.642   3.939 -0.1387 -0.5051  0.4473
 5557SOL    HW128133   3.329   0.571   3.991 -0.8729 -0.3054  0.2146
 5557SOL    HW228134   3.454   0.632   3.972  0.5520 -1.7800 -1.8019
 5558SOL     OW28135   2.589   0.495   8.248 -0.1503 -0.4601  0.6115
 5558SOL    HW128136   2.661   0.507   8.310  0.8632 -2.1660 -0.2242
 5558SOL    HW228137   2.514   0.497   8.307  0.6481 -0.3037  1.6288
 5559SOL     OW28138   3.044   0.211  12.844 -0.1497  0.1222 -0.0081
 5559SOL    HW128139   3.063   0.240  12.755 -0.3658 -1.1018 -0.4518
 5559SOL    HW228140   2.950   0.227  12.854 -0.1968  1.0329 -1.9512
 5560SOL     OW28141   3.512   4.118   7.445  0.0133 -0.1102 -0.1633
 5560SOL    HW128142   3.558   4.191   7.486  0.1289 -0.4002  0.2234
 5560SOL    HW228143   3.421   4.136   7.469  0.3844  0.7606  0.6104
 5561SOL     OW28144   2.780   3.277   2.891 -0.0947 -0.2970 -0.0210
 5561SOL    HW128145   2.800   3.260   2.984  0.2430  0.4135  0.0387
 5561SOL    HW228146   2.807   3.192   2.856  1.3348  0.3172 -0.4181
 5562SOL     OW28147   0.762   3.287  11.878 -0.2170 -0.4409  0.3422
 5562SOL    HW128148   0.743   3.199  11.845  0.9720  0.8397 -3.6877
 5562SOL    HW228149   0.674   3.325  11.882  0.1171  0.0439  3.4099
 5563SOL     OW28150   1.392   3.378  14.037 -0.0855 -0.7492  0.0897
 5563SOL    HW128151   1.366   3.470  14.044 -1.6071 -1.0489 -1.4284
 5563SOL    HW228152   1.457   3.375  14.106 -1.0159  1.6211  1.0946
 5564SOL     OW28153   4.266   1.669  16.124 -0.2360 -0.7626 -0.4377
 5564SOL    HW128154   4.199   1.688  16.190  1.8223  0.6123  1.2669
 5564SOL    HW228155   4.330   1.633  16.186 -0.2104 -0.5221 -0.3216
 5565SOL     OW28156   2.797   4.121  15.207 -0.7856  0.2930  0.2751
 5565SOL    HW128157   2.873   4.125  15.149  0.5643 -0.9310  1.9559
 5565SOL    HW228158   2.835   4.181  15.271  0.9029 -0.4817  0.0208
 5566SOL     OW28159   1.456   3.071   4.267  0.3511 -0.9474  0.0417
 5566SOL    HW128160   1.424   2.989   4.228 -0.3111 -0.4094 -0.5520
 5566SOL    HW228161   1.377   3.123   4.284 -0.0181 -0.7873 -2.1510
 5567SOL     OW28162   1.575   2.036   8.512  0.2156  0.4205 -0.1379
 5567SOL    HW128163   1.482   2.026   8.497  0.3402  2.4005 -2.2115
 5567SOL    HW228164   1.610   2.003   8.430 -1.6551  0.9239 -1.1307
 5568SOL     OW28165   2.995   0.126   2.466 -0.6632 -0.1901 -0.0301
 5568SOL    HW128166   2.912   0.174   2.475 -1.2823 -1.0405 -1.1061
 5568SOL    HW228167   3.041   0.193   2.415 -1.1441 -0.8451 -1.3202
 5569SOL     OW28168   3.664   4.047   5.324 -0.0672 -0.3489 -0.5322
 5569SOL    HW128169   3.616   4.130   5.326 -1.6720 -1.3097  0.6489
 5569SOL    HW228170   3.604   3.985   5.366 -0.4182 -0.3285 -0.9996
 5570SOL     OW28171   0.033   0.529   5.526  0.0404 -0.2183  0.0245
 5570SOL    HW128172   0.059   0.613   5.564 -1.5748  0.2938  0.0079
 5570SOL    HW228173   0.017   0.564   5.438 -1.3152  1.2402  0.8386
 5571SOL     OW28174   4.139   1.100   7.007  0.5025  0.2893  0.3345
 5571SOL    HW128175   4.188   1.181   7.024 -1.1063  1.0165  1.5130
 5571SOL    HW228176   4.085   1.090   7.085  0.5699 -2.9492 -0.0283
 5572SOL     OW28177   3.915   3.008   3.512 -0.3055 -0.1850  0.1103
 5572SOL    HW128178   3.895   3.028   3.420 -1.0091  0.1124  0.3267
 5572SOL    HW228179   3.965   3.086   3.536 -1.4110 -0.4859  3.3533
 5573SOL     OW28180   2.617   4.106  14.783  0.5661  0.2026  0.0806
 5573SOL    HW128181   2.602   4.172  14.715 -1.5024 -2.5520 -2.1356
 5573SOL    HW228182   2.605   4.164  14.858  2.7943  0.4474  0.2659
 5574SOL     OW28183   4.542   2.810   1.821 -0.3555 -0.5019  0.0219
 5574SOL    HW128184   4.467   2.869   1.814 -1.4843 -1.8591  0.6958
 5574SOL    HW228185   4.510   2.722   1.835 -0.6466 -0.0514  2.2486
 5575SOL     OW28186   3.992   0.636  14.816 -0.0237  0.5054  0.1809
 5575SOL    HW128187   4.027   0.651  14.903 -2.7197 -1.0458  1.5331
 5575SOL    HW228188   3.920   0.699  14.813 -2.2843 -2.0848 -0.4151
 5576SOL     OW28189   2.410   0.923   2.833 -0.2515 -0.1492 -0.0681
 5576SOL    HW128190   2.389   0.876   2.752 -0.4071 -2.2335  1.1864
 5576SOL    HW228191   2.502   0.901   2.845  0.0819 -0.4447 -3.1541
 5577SOL     OW28192   4.668   1.078   3.986  0.6071 -0.6938  0.1166
 5577SOL    HW128193   4.628   1.003   4.030 -0.2503 -0.8917 -1.0096
 5577SOL    HW228194   4.597   1.139   4.005 -0.8525 -3.0586  2.4044
 5578SOL     OW28195   4.424   4.542  15.451  0.3743 -0.5111 -0.5667
 5578SOL    HW128196   4.447   4.560  15.360  0.6390 -1.1756 -0.6344
 5578SOL    HW228197   4.330   4.556  15.441  0.4723  0.0452 -0.6668
 5579SOL     OW28198   3.060   2.472   6.038  0.0381  0.1749  0.4059
 5579SOL    HW128199   3.097   2.419   6.109 -0.5669  0.3905  0.8797
 5579SOL    HW228200   3.021   2.540   6.092 -0.1584 -0.3075  0.8775
 5580SOL     OW28201   1.328   2.533  11.777 -0.0168  0.3426 -0.2202
 5580SOL    HW128202   1.263   2.598  11.804  1.2489  0.4545  2.6433
 5580SOL    HW228203   1.296   2.457  11.825 -0.0521  0.4500 -0.0727
 5581SOL     OW28204   4.539   0.799   4.301  0.1739 -0.6899  0.0307
 5581SOL    HW128205   4.464   0.835   4.348  0.2738  0.6635 -0.8494
 5581SOL    HW228206   4.596   0.801   4.378 -0.9637  1.8322  0.8084
 5582SOL     OW28207   3.683   0.387  14.339  0.6468 -0.2957 -0.1756
 5582SOL    HW128208   3.694   0.432  14.256  0.2809 -1.7058 -0.9819
 5582SOL    HW228209   3.707   0.455  14.402  1.2642 -0.4798 -0.2077
 5583SOL     OW28210   0.712   2.389   4.344 -0.1595  0.9172 -0.2264
 5583SOL    HW128211   0.704   2.405   4.438 -3.8264 -3.3012  0.1683
 5583SOL    HW228212   0.803   2.364   4.326  0.0504  1.2204  0.4190
 5584SOL     OW28213   2.046   3.077   8.982  0.2913  0.0377 -0.0794
 5584SOL    HW128214   2.097   2.999   9.003 -0.0476 -0.2400 -0.2909
 5584SOL    HW228215   2.088   3.095   8.898  3.1042 -0.9947  1.1072
 5585SOL     OW28216   1.082   2.066   5.583  0.0694  0.3108  0.2768
 5585SOL    HW128217   1.017   1.996   5.592 -1.5211  1.7150 -0.3495
 5585SOL    HW228218   1.085   2.072   5.488 -0.6696 -3.6188  0.0198
 5586SOL     OW28219   0.655   0.377  11.207  0.3522  0.0280  0.1932
 5586SOL    HW128220   0.607   0.325  11.272  0.4046 -0.6502 -0.3124
 5586SOL    HW228221   0.602   0.356  11.130  1.6193 -0.6626 -0.4835
 5587SOL     OW28222   0.934   0.524  15.487 -0.3015  0.1347  0.3037
 5587SOL    HW128223   0.987   0.563  15.556  0.8838  0.0789 -0.5720
 5587SOL    HW228224   0.964   0.576  15.412  2.1039 -0.3980  0.8923
 5588SOL     OW28225   2.309   1.941  12.188 -0.1821 -0.0152 -0.1019
 5588SOL    HW128226   2.294   2.035  12.199 -0.7606  0.0889 -1.6969
 5588SOL    HW228227   2.383   1.910  12.239 -2.8796 -3.9877  1.3962
 5589SOL     OW28228   2.842   2.650   3.993 -0.4668 -0.4069 -0.0220
 5589SOL    HW128229   2.842   2.571   4.048 -0.5565  1.3856  2.5764
 5589SOL    HW228230   2.926   2.685   4.024 -0.5755 -0.5533  0.4382
 5590SOL     OW28231   3.353   2.274   6.213 -0.7478  0.3005  0.4539
 5590SOL    HW128232   3.344   2.367   6.192 -1.3227 -0.7959 -4.1813
 5590SOL    HW228233   3.439   2.273   6.255 -0.6248  2.8121  0.2656
 5591SOL     OW28234   4.646   2.619  16.515  0.0563 -0.0897  0.5264
 5591SOL    HW128235   4.589   2.549  16.483 -0.5833  0.0103  1.4247
 5591SOL    HW228236   4.666   2.657  16.430 -2.6164 -2.0663 -1.0066
 5592SOL     OW28237   3.009   1.715  13.549 -0.3833 -0.3375  0.5946
 5592SOL    HW128238   2.987   1.775  13.620 -1.3027  0.7256 -0.5872
 5592SOL    HW228239   3.073   1.772  13.505 -1.2921 -0.5503 -0.9815
 5593SOL     OW28240   2.473   4.035   8.788 -0.7208  0.4407 -0.1539
 5593SOL    HW128241   2.557   4.055   8.828  0.2225 -2.0817 -0.8478
 5593SOL    HW228242   2.460   3.942   8.807 -3.0401  0.9975  1.0809
 5594SOL     OW28243   2.144   4.639   1.031 -0.2237  0.1438 -0.3185
 5594SOL    HW128244   2.050   4.629   1.014 -0.1599  1.1833 -1.2492
 5594SOL    HW228245   2.136   4.659   1.124 -0.4981 -1.3108 -0.0236
 5595SOL     OW28246   2.363   3.521  12.447  0.2809 -0.4903 -0.0316
 5595SOL    HW128247   2.383   3.595  12.390  2.2238 -0.1445  1.0975
 5595SOL    HW228248   2.273   3.548  12.466  0.9136  1.3301  0.3865
 5596SOL     OW28249   0.344   1.869   5.337  0.2471  0.2067 -0.8591
 5596SOL    HW128250   0.249   1.876   5.349  0.2472 -2.2273  0.5833
 5596SOL    HW228251   0.368   1.960   5.356  0.7792  0.1164 -1.1244
 5597SOL     OW28252   1.121   3.628   0.911  0.0518  0.2768 -0.5299
 5597SOL    HW128253   1.152   3.637   0.821  0.9976  0.4312 -0.1906
 5597SOL    HW228254   1.199   3.649   0.962 -0.2783 -0.2045  0.1877
 5598SOL     OW28255   2.573   0.197   4.871 -0.6725 -0.0001 -0.1857
 5598SOL    HW128256   2.568   0.121   4.814  1.2372 -0.3211  0.0868
 5598SOL    HW228257   2.646   0.250   4.839 -0.8677  1.5217  1.8606
 5599SOL     OW28258   0.995   3.582  17.130  0.0191  0.0820  0.5329
 5599SOL    HW128259   0.949   3.525  17.191 -1.3959  1.9337  1.1878
 5599SOL    HW228260   0.926   3.622  17.077  0.2278 -0.1838  0.0589
 5600SOL     OW28261   1.634   2.096   8.825 -0.0008  0.2494  0.5434
 5600SOL    HW128262   1.610   2.072   8.735 -3.0455 -1.1608  1.7237
 5600SOL    HW228263   1.708   2.155   8.813  1.0902 -1.4923 -1.2386
 5601SOL     OW28264   3.704   0.555   1.465  0.5156  0.0971  0.4060
 5601SOL    HW128265   3.616   0.588   1.481  0.5351  0.6071 -0.5396
 5601SOL    HW228266   3.725   0.596   1.381  1.1015  1.3778  1.1864
 5602SOL     OW28267   2.452   3.623   3.985  0.2963 -0.0486 -0.1240
 5602SOL    HW128268   2.438   3.644   3.892 -2.0992 -1.0946  0.0036
 5602SOL    HW228269   2.403   3.695   4.024 -3.2949 -2.5866 -0.0121
 5603SOL     OW28270   2.347   1.122   8.934 -0.3004  0.0517 -0.1460
 5603SOL    HW128271   2.301   1.158   9.009 -1.8542 -2.3327  0.0190
 5603SOL    HW228272   2.284   1.100   8.865  0.2276  1.5641 -1.1029
 5604SOL     OW28273   3.665   1.440   1.331 -0.6012  0.2994 -0.0136
 5604SOL    HW128274   3.605   1.511   1.354  1.2013  1.7547  0.1008
 5604SOL    HW228275   3.737   1.481   1.284 -1.1367  0.8779 -0.3210
 5605SOL     OW28276   3.085   0.939  14.592  0.2202 -0.1738  0.3294
 5605SOL    HW128277   3.135   1.021  14.593  0.1512 -0.1414  0.7710
 5605SOL    HW228278   3.060   0.929  14.683 -1.1951 -1.3224 -0.1797
 5606SOL     OW28279   3.275   3.641  15.769 -0.5426 -0.5389 -0.1488
 5606SOL    HW128280   3.209   3.583  15.807 -0.9088 -0.3619 -0.5188
 5606SOL    HW228281   3.340   3.577  15.740  1.0538 -0.2149  2.6617
 5607SOL     OW28282   1.947   0.301   6.195 -0.0914  0.1139 -0.0690
 5607SOL    HW128283   2.013   0.369   6.185 -0.2775  0.3127  0.0458
 5607SOL    HW228284   1.951   0.260   6.109  2.9259  0.7323 -0.2159
 5608SOL     OW28285   4.592   4.363   7.950 -0.5106  0.1949 -0.7948
 5608SOL    HW128286   4.644   4.297   7.996 -1.3515 -0.9556 -1.5125
 5608SOL    HW228287   4.659   4.420   7.912 -0.4175  0.6547  0.0596
 5609SOL     OW28288   4.004   1.912  15.605 -0.3162 -0.1123  0.0214
 5609SOL    HW128289   3.980   1.875  15.690 -0.7568  2.1852  0.8787
 5609SOL    HW228290   3.918   1.922  15.563 -0.8102 -0.1738  1.0293
 5610SOL     OW28291   4.276   1.191  12.391 -0.4681 -0.0829  0.2005
 5610SOL    HW128292   4.299   1.154  12.477  0.2691 -0.4977 -0.1778
 5610SOL    HW228293   4.333   1.140  12.334 -1.0616 -1.1428  0.5367
 5611SOL     OW28294   3.762   4.560   3.217 -0.1935 -0.0704  0.1257
 5611SOL    HW128295   3.698   4.513   3.271  0.4011  1.0437  1.7960
 5611SOL    HW228296   3.722   4.560   3.130 -1.2854 -0.6262  0.6233
 5612SOL     OW28297   3.922   1.942  12.374  0.2019 -0.1147 -0.3033
 5612SOL    HW128298   3.831   1.945  12.404 -0.4947 -0.5185 -2.3589
 5612SOL    HW228299   3.954   2.025  12.410  0.3297  0.3938 -1.5546
 5613SOL     OW28300   0.155   3.641   4.135 -0.2892  0.0094  0.0559
 5613SOL    HW128301   0.116   3.579   4.197  2.3887 -0.3023  1.4494
 5613SOL    HW228302   0.246   3.640   4.165 -0.2609  0.2275 -0.0242
 5614SOL     OW28303   4.291   0.657   0.869 -0.0358  0.2378 -0.0789
 5614SOL    HW128304   4.374   0.614   0.846 -0.6644 -0.7083 -0.5907
 5614SOL    HW228305   4.295   0.679   0.962 -0.8254  2.6708 -0.6216
 5615SOL     OW28306   2.859   0.671  13.307  0.0393  0.1123 -0.5476
 5615SOL    HW128307   2.859   0.659  13.212  0.8378 -0.5084 -0.4601
 5615SOL    HW228308   2.931   0.620  13.343 -3.5813 -3.9868  0.8992
 5616SOL     OW28309   2.484   4.025   6.566 -0.7813 -0.6688  0.1595
 5616SOL    HW128310   2.433   3.945   6.553  3.0309 -2.7425 -1.9079
 5616SOL    HW228311   2.428   4.092   6.606  1.8222  1.5998  0.0128
 5617SOL     OW28312   1.206   3.570   5.244 -0.3309  0.1955 -0.4024
 5617SOL    HW128313   1.191   3.572   5.150 -0.8067  1.4749 -0.3025
 5617SOL    HW228314   1.302   3.572   5.242 -0.3473  0.3387 -0.9455
 5618SOL     OW28315   2.597   0.747   3.143  0.0218 -0.0094 -0.9258
 5618SOL    HW128316   2.618   0.750   3.236 -2.4326 -1.7102 -0.3237
 5618SOL    HW228317   2.544   0.667   3.140 -3.2437  1.9599  3.7708
 5619SOL     OW28318   3.705   1.874  11.104  0.1460  0.0403 -0.2241
 5619SOL    HW128319   3.699   1.817  11.028  0.3411 -1.0059  0.5492
 5619SOL    HW228320   3.760   1.943  11.067  0.8133 -1.1221 -1.4089
 5620SOL     OW28321   3.157   3.934   2.371  0.0266  0.1625  0.2209
 5620SOL    HW128322   3.079   3.911   2.421 -0.7764 -1.4443 -1.7639
 5620SOL    HW228323   3.227   3.888   2.417 -0.8409  1.5668  2.9491
 5621SOL     OW28324   3.011   1.285  17.198 -0.3107  0.0884  0.5667
 5621SOL    HW128325   3.002   1.379  17.215 -0.6239  0.0902  0.3941
 5621SOL    HW228326   3.030   1.273  17.105  0.7709  0.8409  0.6883
 5622SOL     OW28327   3.308   3.489  11.550 -0.0795  0.4998 -0.6202
 5622SOL    HW128328   3.313   3.561  11.488 -0.3053  1.8834  0.9607
 5622SOL    HW228329   3.395   3.508  11.586 -1.0361  1.2610  1.3422
 5623SOL     OW28330   4.148   1.272   7.991  0.1924  0.3776 -0.3491
 5623SOL    HW128331   4.068   1.224   8.014 -0.1204  0.8698 -0.3904
 5623SOL    HW228332   4.217   1.222   8.033 -1.9974  0.1201  2.9595
 5624SOL     OW28333   3.593   4.638   6.262  0.4475 -0.1376 -0.4033
 5624SOL    HW128334   3.555   4.704   6.203 -1.3133 -1.9798 -1.3396
 5624SOL    HW228335   3.683   4.657   6.238  0.2024  2.6882  0.8497
 5625SOL     OW28336   3.221   1.622   7.674 -0.4819  0.4489 -0.4442
 5625SOL    HW128337   3.126   1.628   7.672 -0.4374  1.1836 -0.5076
 5625SOL    HW228338   3.232   1.636   7.580  3.6035 -2.3085 -0.4004
 5626SOL     OW28339   4.229   1.656  16.554  0.6583  0.1353  0.6033
 5626SOL    HW128340   4.220   1.750  16.570 -0.2225  0.8058 -3.7790
 5626SOL    HW228341   4.307   1.639  16.607  0.4667  0.1477  0.8930
 5627SOL     OW28342   3.634   2.367  15.837  0.3103  0.3025 -0.2945
 5627SOL    HW128343   3.558   2.309  15.849 -0.0967  0.3303 -2.7115
 5627SOL    HW228344   3.647   2.350  15.744  1.1026  0.3224 -0.1870
 5628SOL     OW28345   2.340   3.044  11.799  0.0147 -0.3269 -0.2616
 5628SOL    HW128346   2.285   3.095  11.739  1.1320  0.2816 -0.7525
 5628SOL    HW228347   2.424   3.069  11.763  0.3743  0.1837  0.9198
 5629SOL     OW28348   0.771   3.075   5.377 -0.5839 -0.2932  0.1485
 5629SOL    HW128349   0.857   3.035   5.389 -0.3246  0.0480 -0.6330
 5629SOL    HW228350   0.721   3.018   5.436  0.9916  0.8454  2.5708
 5630SOL     OW28351   4.209   2.463   5.900  0.2054  0.5944 -0.4284
 5630SOL    HW128352   4.195   2.505   5.815 -2.6638 -1.1938 -0.8533
 5630SOL    HW228353   4.180   2.378   5.866  0.9374 -0.7205  2.1639
 5631SOL     OW28354   0.742   4.636   4.213  0.5071 -0.2338  0.0405
 5631SOL    HW128355   0.783   4.712   4.172 -0.5345  0.6870  0.6988
 5631SOL    HW228356   0.814   4.576   4.197 -1.6315 -2.6194 -0.6446
 5632SOL     OW28357   1.206   0.589   3.282 -0.0933  0.2271 -0.0506
 5632SOL    HW128358   1.152   0.636   3.219 -0.2700 -0.1252 -0.1656
 5632SOL    HW228359   1.177   0.500   3.261  0.0366 -0.1090  1.1873
 5633SOL     OW28360   3.316   4.025   9.171 -0.4913 -0.1451  0.4635
 5633SOL    HW128361   3.267   3.997   9.249 -1.5399 -3.2714 -1.3166
 5633SOL    HW228362   3.370   3.948   9.155 -1.4755 -0.3210 -2.0585
 5634SOL     OW28363   0.211   4.183   8.848 -0.2678  0.2344  0.0141
 5634SOL    HW128364   0.204   4.203   8.942  0.0147 -1.2653  0.3607
 5634SOL    HW228365   0.122   4.204   8.822 -0.9437 -2.2939  0.3168
 5635SOL     OW28366   3.238   4.149   7.504  0.1798  0.1282  0.8546
 5635SOL    HW128367   3.166   4.087   7.489 -0.0859  0.9838 -1.4015
 5635SOL    HW228368   3.178   4.223   7.504 -1.6974 -1.3791 -3.4500
 5636SOL     OW28369   3.657   2.585  12.983  0.0617 -0.1242  0.3182
 5636SOL    HW128370   3.701   2.668  12.964 -1.0094  0.2794 -0.4448
 5636SOL    HW228371   3.598   2.579  12.908 -0.3236  2.0833  0.4507
 5637SOL     OW28372   3.392   1.830   7.742 -0.0525 -0.6605  0.1535
 5637SOL    HW128373   3.337   1.758   7.712 -0.0884 -1.7357  2.8084
 5637SOL    HW228374   3.376   1.901   7.679  3.2217  0.4413  0.5454
 5638SOL     OW28375   1.789   4.089   5.432  0.0390  0.1258  0.4687
 5638SOL    HW128376   1.759   4.146   5.361  0.3523 -2.6553 -1.8786
 5638SOL    HW228377   1.839   4.141   5.495 -0.2151  0.5303  0.3368
 5639SOL     OW28378   3.073   3.124   4.280 -0.1785 -0.4932 -0.1229
 5639SOL    HW128379   3.141   3.077   4.231 -2.2882 -2.3097 -1.2785
 5639SOL    HW228380   3.092   3.103   4.371 -0.4409  0.9547  0.2668
 5640SOL     OW28381   2.822   0.145  14.193 -0.2557  0.2800  0.6718
 5640SOL    HW128382   2.877   0.097  14.255  1.1863  1.7359  0.5216
 5640SOL    HW228383   2.877   0.173  14.120 -1.0451 -1.7163 -0.6740
 5641SOL     OW28384   2.011   0.926   4.593 -0.0816 -0.1293  0.5052
 5641SOL    HW128385   1.925   0.922   4.635 -0.6661 -0.5818 -0.7445
 5641SOL    HW228386   2.044   1.014   4.614  0.3628 -0.2089  0.1362
 5642SOL     OW28387   2.075   4.466  11.222  0.4024  0.3825 -0.7742
 5642SOL    HW128388   2.166   4.479  11.251  0.1759 -2.1664  1.0275
 5642SOL    HW228389   2.045   4.408  11.291 -1.5036 -0.3943 -2.2536
 5643SOL     OW28390   4.407   3.172   5.894  0.4627  0.0505  0.8942
 5643SOL    HW128391   4.333   3.186   5.953  1.5102 -0.6198  2.3730
 5643SOL    HW228392   4.436   3.258   5.864 -0.4675  0.3753  0.9191
 5644SOL     OW28393   2.947   2.662   8.338 -0.0932 -0.5470  0.1473
 5644SOL    HW128394   2.902   2.663   8.422  0.0405  2.4684  0.1776
 5644SOL    HW228395   3.035   2.644   8.373  1.0360  1.8611 -1.4125
 5645SOL     OW28396   0.173   1.698   7.969  0.3014 -0.3684 -0.1638
 5645SOL    HW128397   0.230   1.657   7.904 -1.1887  3.2693 -3.7269
 5645SOL    HW228398   0.219   1.783   7.973 -1.0812  0.3300  0.6799
 5646SOL     OW28399   2.105   4.475  17.686 -0.0399  0.3445  0.8033
 5646SOL    HW128400   2.167   4.458  17.615 -0.5601 -0.4107  0.5359
 5646SOL    HW228401   2.123   4.389   0.029 -2.4656 -0.5339 -0.0448
 5647SOL     OW28402   2.267   3.650   7.079 -0.3250 -0.8587 -0.4946
 5647SOL    HW128403   2.199   3.585   7.098 -0.5314 -1.4739 -3.4044
 5647SOL    HW228404   2.225   3.706   7.014  2.6018  2.3822  0.4031
 5648SOL     OW28405   2.891   3.465  12.861 -0.1248  0.0586  0.5346
 5648SOL    HW128406   2.871   3.467  12.767 -0.1252  0.3421  0.5433
 5648SOL    HW228407   2.894   3.369  12.869 -0.6267 -0.2143 -2.2890
 5649SOL     OW28408   1.469   1.445   5.792  0.4190 -0.1513  0.5308
 5649SOL    HW128409   1.451   1.433   5.698 -1.2407  2.8332  0.4506
 5649SOL    HW228410   1.562   1.424   5.798  0.4289 -0.0734  0.6446
 5650SOL     OW28411   2.145   4.670   5.072  0.4730  0.0201 -0.2819
 5650SOL    HW128412   2.152   4.652   4.978 -0.3146  0.3002 -0.3904
 5650SOL    HW228413   2.124   0.040   5.079 -1.0938 -0.4947  1.8669
 5651SOL     OW28414   4.054   3.741  10.206 -0.3535 -0.3205 -0.3269
 5651SOL    HW128415   4.088   3.797  10.137  1.6935 -3.1095 -1.5855
 5651SOL    HW228416   4.121   3.672  10.203  1.3986  1.3653  0.1231
 5652SOL     OW28417   3.673   3.102  17.241 -0.0264  0.1845 -0.1349
 5652SOL    HW128418   3.726   3.066  17.312  1.2509  0.9164 -0.7369
 5652SOL    HW228419   3.747   3.147  17.201  0.1535  1.0557  1.1599
 5653SOL     OW28420   2.595   1.161  13.496 -0.4614  0.0239  0.3113
 5653SOL    HW128421   2.534   1.215  13.445  0.0803  0.9709  0.6781
 5653SOL    HW228422   2.540   1.091  13.532  0.6435 -1.4416 -0.8658
 5654SOL     OW28423   1.386   2.306   7.066  0.1511 -0.2282  0.6012
 5654SOL    HW128424   1.309   2.341   7.022  1.1444  1.0727 -0.1199
 5654SOL    HW228425   1.406   2.376   7.129  1.3339 -1.7294  1.8819
 5655SOL     OW28426   3.466   3.868   6.895  0.5592 -0.0283  0.1496
 5655SOL    HW128427   3.546   3.818   6.912 -0.3996 -1.3177  0.9003
 5655SOL    HW228428   3.419   3.808   6.838  1.9316 -0.8178 -0.1460
 5656SOL     OW28429   0.010   3.639   8.176  0.1191  0.8818 -0.2645
 5656SOL    HW128430   0.057   3.591   8.108 -1.9986 -2.6190  0.7596
 5656SOL    HW228431   4.646   3.605   8.156  1.7701 -2.6409 -1.6050
 5657SOL     OW28432   2.690   2.032  17.369 -0.3018  0.2756 -0.2652
 5657SOL    HW128433   2.714   2.074  17.286  0.0609  2.0055  0.7324
 5657SOL    HW228434   2.772   2.029  17.419  0.6259 -0.4851 -1.8057
 5658SOL     OW28435   1.901   2.657   4.472 -0.0859 -0.3460  0.1277
 5658SOL    HW128436   1.924   2.748   4.456  2.5467 -0.6767  2.0409
 5658SOL    HW228437   1.977   2.615   4.432 -0.2007  0.5927 -1.0777
 5659SOL     OW28438   1.760   1.828   2.652  0.0463 -0.0964  0.0913
 5659SOL    HW128439   1.795   1.811   2.565  0.5408  1.9935 -0.1256
 5659SOL    HW228440   1.714   1.745   2.664 -1.6561  0.4741 -2.4029
 5660SOL     OW28441   3.329   1.327   3.201 -0.3074  0.0435  0.3368
 5660SOL    HW128442   3.285   1.299   3.121  3.0640 -2.6458 -0.5995
 5660SOL    HW228443   3.415   1.361   3.176  0.5825 -0.9136  2.0472
 5661SOL     OW28444   4.502   0.336  14.923 -0.2551  0.4708  0.1735
 5661SOL    HW128445   4.567   0.358  14.990 -0.3928  1.2480  0.0612
 5661SOL    HW228446   4.496   0.420  14.877 -0.3120 -1.7186 -3.7139
 5662SOL     OW28447   2.416   1.880  17.606 -0.8951 -0.3928  0.1781
 5662SOL    HW128448   2.435   1.967  17.573  0.8710 -0.3844  1.1450
 5662SOL    HW228449   2.395   1.833  17.526  1.1446  0.4795 -0.8727
 5663SOL     OW28450   2.769   2.871   9.356 -0.0600 -0.0998  0.3848
 5663SOL    HW128451   2.842   2.810   9.356 -0.8318 -1.0392  0.0361
 5663SOL    HW228452   2.702   2.825   9.304  0.3357 -0.0208 -0.1983
 5664SOL     OW28453   1.913   0.981  12.129  0.1003  0.0033  0.3661
 5664SOL    HW128454   1.956   0.956  12.047 -0.3033  1.1900 -0.2041
 5664SOL    HW228455   1.925   1.076  12.132 -1.0116  0.1335  0.7594
 5665SOL     OW28456   1.223   1.058  16.746 -0.0508  0.3074  0.0795
 5665SOL    HW128457   1.262   1.103  16.671  1.5048 -1.1170  0.0397
 5665SOL    HW228458   1.204   1.130  16.805 -2.9168 -0.1306 -0.3036
 5666SOL     OW28459   0.612   1.246   6.018 -0.6621  0.1083 -0.4458
 5666SOL    HW128460   0.683   1.183   6.028 -0.8256 -0.0012  0.0258
 5666SOL    HW228461   0.657   1.320   5.977 -2.4092  2.5571  2.0213
 5667SOL     OW28462   4.284   4.344   7.006  0.2015  0.0318 -0.0277
 5667SOL    HW128463   4.202   4.393   6.996  1.9583  3.1707  1.1178
 5667SOL    HW228464   4.249   4.273   7.061 -1.4154  0.2695 -0.7518
 5668SOL     OW28465   2.030   3.031   8.599  0.0116  0.2847 -0.6873
 5668SOL    HW128466   1.944   3.041   8.642  0.7703  1.0215  0.6616
 5668SOL    HW228467   2.018   2.963   8.533 -0.1218 -0.2679 -0.0884
 5669SOL     OW28468   4.463   0.978  10.468 -0.1946 -0.4764 -0.3870
 5669SOL    HW128469   4.542   0.934  10.498  0.3314  1.0226  0.3894
 5669SOL    HW228470   4.406   0.901  10.463  0.2454 -0.5898 -3.7246
 5670SOL     OW28471   2.324   4.112  14.029  0.0999  0.3116 -0.1167
 5670SOL    HW128472   2.354   4.025  14.056 -0.6293 -0.4808 -1.8978
 5670SOL    HW228473   2.271   4.131  14.106 -0.2588 -0.9056 -0.0553
 5671SOL     OW28474   1.720   3.634   6.573 -0.1846  0.1963 -0.5285
 5671SOL    HW128475   1.811   3.610   6.590  0.2050  2.8080  1.0481
 5671SOL    HW228476   1.702   3.709   6.630  0.2900  0.1637 -0.3312
 5672SOL     OW28477   2.332   2.197   4.664  0.1929 -0.3634  0.2946
 5672SOL    HW128478   2.361   2.173   4.752 -0.7420 -0.6875  0.5119
 5672SOL    HW228479   2.238   2.183   4.672  0.3453 -1.0786  0.8783
 5673SOL     OW28480   0.565   2.153   4.126 -0.6287  0.1698 -0.3721
 5673SOL    HW128481   0.547   2.235   4.173  0.3370 -1.2858  2.5845
 5673SOL    HW228482   0.660   2.141   4.122 -0.6391  0.1045 -0.4127
 5674SOL     OW28483   2.804   3.274   9.247 -0.7974 -0.3428 -0.1172
 5674SOL    HW128484   2.866   3.346   9.256 -2.8953  1.2762  1.5962
 5674SOL    HW228485   2.852   3.201   9.210  1.2427 -0.7826  3.4168
 5675SOL     OW28486   0.201   2.953   2.933 -0.5451  0.6346  0.4494
 5675SOL    HW128487   0.144   2.934   2.858 -0.0794 -0.8866  0.4680
 5675SOL    HW228488   0.173   3.035   2.972 -2.8322  0.0170  0.1226
 5676SOL     OW28489   2.996   2.817   3.599  0.0291  0.1937 -0.4722
 5676SOL    HW128490   2.996   2.752   3.669  0.2072  1.4746  0.7099
 5676SOL    HW228491   2.921   2.784   3.548  0.0307 -0.6065  0.0500
 5677SOL     OW28492   3.924   1.992   2.469  0.3972  0.4265  0.1592
 5677SOL    HW128493   3.980   2.000   2.547 -0.1788  2.3970  0.3809
 5677SOL    HW228494   3.986   1.998   2.396 -0.9013  0.7296 -0.9092
 5678SOL     OW28495   3.298   2.733   9.754  0.5698 -0.7010 -0.2341
 5678SOL    HW128496   3.355   2.672   9.708 -0.0411 -0.4651 -1.3229
 5678SOL    HW228497   3.243   2.683   9.815 -1.2442  0.7414 -0.6774
 5679SOL     OW28498   2.154   4.644   7.084  0.6687  0.1322  0.6848
 5679SOL    HW128499   2.217   4.693   7.032 -1.3473  0.0275 -1.8594
 5679SOL    HW228500   2.203   4.630   7.164  1.2754 -4.2149 -0.4624
 5680SOL     OW28501   3.423   1.995   7.417 -0.0329 -0.1858 -0.2048
 5680SOL    HW128502   3.398   2.056   7.487 -2.6590 -3.0393  1.3208
 5680SOL    HW228503   3.457   2.054   7.349 -0.6606 -1.1514 -1.3485
 5681SOL     OW28504   3.134   4.647   1.070  0.0190 -0.0279 -0.2624
 5681SOL    HW128505   3.093   4.605   0.994 -0.2828 -2.0235  1.0067
 5681SOL    HW228506   3.086   4.592   1.132 -0.4150  0.4951 -0.1298
 5682SOL     OW28507   3.389   4.664  15.558 -0.3238  0.1321  0.2631
 5682SOL    HW128508   3.328   0.014  15.545  1.1622  1.2171 -0.6581
 5682SOL    HW228509   3.436   4.717  15.622 -2.9183  0.2823  2.0221
 5683SOL     OW28510   0.716   2.933   2.418 -0.0205  0.2346 -0.2050
 5683SOL    HW128511   0.787   2.881   2.453 -0.4620 -0.4332 -0.3053
 5683SOL    HW228512   0.658   2.864   2.385  0.9948 -0.7628  0.1194
 5684SOL     OW28513   2.021   3.555   0.453  0.0556  0.3034 -0.1372
 5684SOL    HW128514   1.974   3.548   0.370  3.4825  0.1932 -2.0622
 5684SOL    HW228515   2.101   3.600   0.426 -0.6937  2.1909  0.8277
 5685SOL     OW28516   2.150   0.815   1.008 -0.4530 -0.1901 -0.0494
 5685SOL    HW128517   2.210   0.779   1.072 -1.1676 -1.3209 -0.0271
 5685SOL    HW228518   2.187   0.903   0.996  1.8844 -1.3521 -1.4232
 5686SOL     OW28519   3.266   4.306   8.231  0.0510  0.3371  0.0499
 5686SOL    HW128520   3.336   4.325   8.169  0.8169 -1.0070  0.5215
 5686SOL    HW228521   3.281   4.212   8.242 -0.3209  0.6078  2.8445
 5687SOL     OW28522   2.137   0.632  16.809  0.3798  0.4767  0.1196
 5687SOL    HW128523   2.056   0.581  16.821  0.4488 -0.0305 -1.4991
 5687SOL    HW228524   2.161   0.622  16.901 -0.0276  2.3343  0.4124
 5688SOL     OW28525   2.447   0.045   4.355  0.3710  0.4938 -0.1782
 5688SOL    HW128526   2.470   4.705   4.424  1.5057  1.3926  0.2549
 5688SOL    HW228527   2.483   0.006   4.276  0.4430 -1.7903  0.9695
 5689SOL     OW28528   4.337   0.590   2.421 -0.1315  0.1899 -0.2928
 5689SOL    HW128529   4.302   0.501   2.418  0.7307 -0.2977  3.5261
 5689SOL    HW228530   4.261   0.634   2.460 -0.2223 -0.0835 -0.1646
 5690SOL     OW28531   0.082   4.677  10.395  0.3672  0.2607 -0.0279
 5690SOL    HW128532   0.051   4.628  10.471 -1.4814  1.3949 -0.0721
 5690SOL    HW228533   0.137   4.609  10.356  0.0773  0.8134 -1.3941
 5691SOL     OW28534   3.781   2.493   7.285 -0.1534 -0.3224 -0.3132
 5691SOL    HW128535   3.859   2.449   7.320  0.2806 -0.0371 -0.9279
 5691SOL    HW228536   3.714   2.433   7.315 -0.0259  0.2166  1.0841
 5692SOL     OW28537   2.817   3.854  12.264 -0.1326  0.4478  0.2369
 5692SOL    HW128538   2.870   3.797  12.208 -1.0083  0.9763 -1.1181
 5692SOL    HW228539   2.732   3.818  12.239  0.1379 -1.4426  1.9712
 5693SOL     OW28540   2.336   3.746   5.453  0.0090  0.1833  0.5309
 5693SOL    HW128541   2.350   3.679   5.386  1.6968  1.0555  0.0265
 5693SOL    HW228542   2.255   3.710   5.488 -0.3103  1.1876  0.8249
 5694SOL     OW28543   0.090   2.272   2.431  0.7984  0.2729  0.3284
 5694SOL    HW128544   0.180   2.273   2.399  0.6757 -0.8337 -0.0496
 5694SOL    HW228545   0.083   2.177   2.431 -1.2873  0.4111 -0.0399
 5695SOL     OW28546   1.361   3.077  13.808 -0.1045 -0.8851  0.6160
 5695SOL    HW128547   1.412   3.030  13.742  2.9893  3.1605  0.1110
 5695SOL    HW228548   1.295   3.010  13.825 -0.2781 -1.0311 -0.6145
 5696SOL     OW28549   0.932   0.367   8.967  0.0868  0.1694  0.2297
 5696SOL    HW128550   0.907   0.410   9.049  0.5277 -0.8142  0.8815
 5696SOL    HW228551   0.846   0.355   8.927  0.5909  0.3412 -0.8914
 5697SOL     OW28552   3.056   4.464   1.250 -0.2430  0.2789  0.1659
 5697SOL    HW128553   3.013   4.379   1.258  1.4767 -0.7391 -1.2947
 5697SOL    HW228554   3.127   4.439   1.309 -1.1112 -3.3035 -0.2858
 5698SOL     OW28555   1.710   2.445   7.997  0.0250 -0.2933  0.0354
 5698SOL    HW128556   1.647   2.396   7.944 -0.3173  1.6330 -1.3228
 5698SOL    HW228557   1.791   2.400   7.974 -1.1039 -0.9186 -2.7070
 5699SOL     OW28558   2.784   0.554  16.300  0.3871  0.3366 -0.1700
 5699SOL    HW128559   2.691   0.573  16.288  0.9719  1.6021 -2.6748
 5699SOL    HW228560   2.793   0.512  16.386  0.7355  1.5244  0.3786
 5700SOL     OW28561   1.545   0.403   3.239  0.2847  0.2168  0.3727
 5700SOL    HW128562   1.501   0.453   3.171  1.4463  0.5989 -0.0890
 5700SOL    HW228563   1.639   0.410   3.227  0.0239  0.0645 -1.6983
 5701SOL     OW28564   0.751   3.913   6.059 -0.4417 -0.2135 -0.0156
 5701SOL    HW128565   0.763   4.007   6.070 -0.4400 -0.1515 -0.5611
 5701SOL    HW228566   0.843   3.890   6.069 -0.7620 -1.6214 -0.2196
 5702SOL     OW28567   2.917   2.123   6.075  0.0890  0.1146  0.7999
 5702SOL    HW128568   2.911   2.154   6.165 -0.7472  3.1704 -0.2917
 5702SOL    HW228569   3.007   2.153   6.065 -0.5182  1.9781  0.8364
 5703SOL     OW28570   4.617   2.984   7.226 -0.1145  0.3526 -0.4748
 5703SOL    HW128571   4.593   3.066   7.269  1.0050  0.9438 -0.9893
 5703SOL    HW228572   4.540   2.931   7.249 -0.4339  1.1259  0.2416
 5704SOL     OW28573   0.888   4.682   4.524  0.6390 -0.5010 -0.1188
 5704SOL    HW128574   0.802   4.682   4.566 -0.2762 -0.8103 -1.9961
 5704SOL    HW228575   0.867   0.021   4.454  0.3057  0.6553  1.0100
 5705SOL     OW28576   1.229   3.390  12.434  0.4850  0.1432  0.2969
 5705SOL    HW128577   1.306   3.333  12.435  0.5704  0.1956 -1.5438
 5705SOL    HW228578   1.232   3.422  12.524  1.8110  0.6996  0.0662
 5706SOL     OW28579   4.046   3.695   7.318  0.0490 -0.5246  0.3833
 5706SOL    HW128580   4.046   3.788   7.296  2.4477 -1.1216 -2.0673
 5706SOL    HW228581   4.110   3.664   7.254 -1.0075 -1.3851 -0.2594
 5707SOL     OW28582   1.588   2.352  11.477 -0.0818 -0.6459 -0.2981
 5707SOL    HW128583   1.501   2.380  11.503  0.9777  1.2501  1.1429
 5707SOL    HW228584   1.599   2.272  11.529 -0.9448 -1.1734 -0.9191
 5708SOL     OW28585   1.302   2.917   7.795  0.0288 -0.3600 -0.3233
 5708SOL    HW128586   1.246   2.937   7.720  1.3717 -3.7882 -2.2571
 5708SOL    HW228587   1.255   2.966   7.863  1.0669  1.0909 -0.6530
 5709SOL     OW28588   3.691   2.371   7.913 -0.3928 -0.3465 -0.2025
 5709SOL    HW128589   3.728   2.436   7.974 -1.3165 -0.1158  0.1135
 5709SOL    HW228590   3.762   2.372   7.849  0.0519  2.0456  0.3140
 5710SOL     OW28591   0.596   0.722  15.565  0.3879  0.2278  0.2120
 5710SOL    HW128592   0.533   0.781  15.523  1.4906  0.0022 -1.7499
 5710SOL    HW228593   0.672   0.730  15.508  2.6388  0.3177  3.2484
 5711SOL     OW28594   2.424   0.393  16.130 -0.0061  0.2674 -0.4205
 5711SOL    HW128595   2.364   0.452  16.086 -0.1300  0.7376  0.3803
 5711SOL    HW228596   2.412   0.417  16.222 -0.1308  0.1170 -0.3964
 5712SOL     OW28597   0.241   0.070  16.629  0.3908 -0.1608  0.3528
 5712SOL    HW128598   0.305   0.035  16.691  1.2698  0.6836 -0.0758
 5712SOL    HW228599   0.184   0.121  16.686 -0.2292  1.2134 -1.4891
 5713SOL     OW28600   3.783   2.529   9.415  0.5382 -0.5331 -0.8389
 5713SOL    HW128601   3.768   2.595   9.346  1.3372 -0.6793 -1.1544
 5713SOL    HW228602   3.832   2.589   9.472 -0.9330 -0.7064  0.6015
 5714SOL     OW28603   1.409   3.223  16.980  0.1884 -0.0579  0.2748
 5714SOL    HW128604   1.404   3.252  17.071 -0.3474 -2.2682  0.9449
 5714SOL    HW228605   1.387   3.130  16.984 -0.0387  0.0618  1.5700
 5715SOL     OW28606   0.021   0.523   6.962 -0.2072 -0.5071  0.2949
 5715SOL    HW128607   4.660   0.477   6.968 -0.9312  0.5674 -1.6062
 5715SOL    HW228608   0.073   0.472   6.900  0.0643  0.3170 -0.1567
 5716SOL     OW28609   3.668   2.303   3.408  0.7528 -0.1260 -0.4172
 5716SOL    HW128610   3.616   2.288   3.330 -0.7000  1.1436  0.3210
 5716SOL    HW228611   3.753   2.317   3.365 -0.6403 -2.3113 -3.8276
 5717SOL     OW28612   3.777   1.898   5.134  0.1978 -0.5460 -0.0479
 5717SOL    HW128613   3.791   1.914   5.041 -0.0906 -2.4645 -0.4288
 5717SOL    HW228614   3.718   1.824   5.122  1.4160 -1.6630  0.7641
 5718SOL     OW28615   0.727   3.298  17.403  0.1458  0.2467 -0.2307
 5718SOL    HW128616   0.733   3.376  17.459 -0.6155 -0.7988  1.3057
 5718SOL    HW228617   0.640   3.304  17.365  0.2209 -0.4590 -0.5185
 5719SOL     OW28618   0.861   1.586   1.649 -0.1404  0.2946 -0.2770
 5719SOL    HW128619   0.812   1.522   1.597 -0.1728  1.4001 -1.6193
 5719SOL    HW228620   0.940   1.534   1.666 -0.6213 -0.1969  0.4441
 5720SOL     OW28621   2.316   0.657   4.356 -0.0920 -0.0548  0.2041
 5720SOL    HW128622   2.308   0.705   4.439  0.4127  2.0860 -0.9998
 5720SOL    HW228623   2.297   0.573   4.398  2.9540  0.1077  1.8635
 5721SOL     OW28624   2.771   3.273   6.497  0.1799 -0.3053 -0.0777
 5721SOL    HW128625   2.851   3.316   6.469  0.0468 -0.6000 -0.8994
 5721SOL    HW228626   2.795   3.180   6.498 -0.6688 -0.5404 -2.1670
 5722SOL     OW28627   4.111   4.417   4.439 -0.1947 -0.0602 -0.2657
 5722SOL    HW128628   4.048   4.354   4.474  0.4748 -1.0000 -0.7272
 5722SOL    HW228629   4.077   4.446   4.354 -2.6565 -0.1677  0.6916
 5723SOL     OW28630   2.065   1.108   3.568 -0.1050  0.1714  0.7046
 5723SOL    HW128631   2.080   1.186   3.621  0.0343  0.4757  0.2118
 5723SOL    HW228632   2.134   1.121   3.504  0.4277 -0.3232  1.1745
 5724SOL     OW28633   2.838   4.569   6.077  0.3049  0.1878  0.1829
 5724SOL    HW128634   2.789   4.517   6.141 -0.0073  0.2711  0.0103
 5724SOL    HW228635   2.923   4.591   6.116  0.7082  0.0838 -0.6332
 5725SOL     OW28636   3.358   0.084   0.454  0.1252  0.8158 -0.5499
 5725SOL    HW128637   3.425   0.130   0.403  1.5435  0.2827  0.8437
 5725SOL    HW228638   3.386   4.716   0.446 -0.6268  0.3057  2.4669
 5726SOL     OW28639   2.452   2.488   6.940 -0.6882  0.3664  0.3501
 5726SOL    HW128640   2.539   2.521   6.960  0.1943  0.4107 -3.6726
 5726SOL    HW228641   2.470   2.415   6.881  0.7643  1.3312 -0.3784
 5727SOL     OW28642   2.541   2.881   5.018 -0.0020  0.1882 -0.3379
 5727SOL    HW128643   2.574   2.791   5.014  1.4356  0.6724  0.7614
 5727SOL    HW228644   2.622   2.931   5.029 -0.4384  0.9550 -0.6073
 5728SOL     OW28645   1.927   1.141  17.472 -0.6711  0.0109 -0.2403
 5728SOL    HW128646   1.889   1.139  17.385  2.3484  2.3075 -1.6030
 5728SOL    HW228647   1.879   1.073  17.519 -1.8435 -0.3048 -1.8901
 5729SOL     OW28648   1.632   2.634   4.104  0.1307 -0.4254  0.1593
 5729SOL    HW128649   1.703   2.612   4.043  2.5164  2.6946  1.7802
 5729SOL    HW228650   1.602   2.714   4.062 -1.7920 -0.9590  0.5032
 5730SOL     OW28651   2.069   1.230  11.047  0.4436  0.4605  0.7931
 5730SOL    HW128652   2.060   1.226  11.142 -1.8892 -1.6270  0.4945
 5730SOL    HW228653   2.161   1.229  11.019 -0.4445  0.6492 -2.1370
 5731SOL     OW28654   3.082   4.229   5.234 -0.0259 -0.6194 -0.4891
 5731SOL    HW128655   3.076   4.156   5.295 -0.1457 -0.5672 -0.4383
 5731SOL    HW228656   2.987   4.236   5.222  0.0633  2.2385  0.7085
 5732SOL     OW28657   4.554   3.991   4.329  0.1915 -0.4498 -0.1005
 5732SOL    HW128658   4.583   3.974   4.419 -1.6323 -2.4518  0.1078
 5732SOL    HW228659   4.611   3.925   4.290  1.8953  1.8404 -1.4834
 5733SOL     OW28660   2.976   0.588   8.101  0.2285  0.3096  0.1862
 5733SOL    HW128661   2.993   0.635   8.183 -0.6010  1.4405 -0.2899
 5733SOL    HW228662   2.990   0.663   8.043  1.6511  2.6564  3.4835
 5734SOL     OW28663   1.330   4.168   5.182 -0.1181 -0.1133  0.4430
 5734SOL    HW128664   1.270   4.162   5.108  1.1050 -1.9300 -0.3819
 5734SOL    HW228665   1.355   4.260   5.175  1.1989 -0.3223  2.4067
 5735SOL     OW28666   2.557   3.478   1.449  0.1114  0.4296 -0.1111
 5735SOL    HW128667   2.503   3.483   1.370  2.2362 -2.4328 -1.7379
 5735SOL    HW228668   2.616   3.404   1.438 -2.3256 -1.0629 -2.9736
 5736SOL     OW28669   2.188   1.076   4.310 -0.1718  0.7111 -0.3932
 5736SOL    HW128670   2.173   1.074   4.404  1.8792 -1.2694 -0.1186
 5736SOL    HW228671   2.109   1.031   4.282 -0.3998  1.2385 -0.6026
 5737SOL     OW28672   0.066   1.479   1.368  0.1165  0.2357  0.4248
 5737SOL    HW128673   4.700   1.499   1.340  0.4765  0.8954 -0.2503
 5737SOL    HW228674   0.099   1.405   1.316 -1.3503  0.4202 -0.7816
 5738SOL     OW28675   1.298   3.999   0.997 -0.2777 -0.0422 -0.0959
 5738SOL    HW128676   1.315   3.908   1.020  1.9637  0.6750  1.1080
 5738SOL    HW228677   1.202   3.997   1.002 -0.3308 -1.3740 -1.5461
 5739SOL     OW28678   0.925   0.127   7.450  0.0935  0.1030 -0.4033
 5739SOL    HW128679   0.909   0.114   7.544 -1.0486  1.8890 -0.3637
 5739SOL    HW228680   0.839   0.162   7.429  0.4298  0.8561 -0.5437
 5740SOL     OW28681   0.244   1.954   7.907  0.0691  0.2761  0.1755
 5740SOL    HW128682   0.263   2.029   7.963  0.9925  0.8220 -0.8551
 5740SOL    HW228683   0.204   1.995   7.830  1.3625  2.2134  0.5316
 5741SOL     OW28684   0.642   2.643  11.528 -0.3713  0.5782  0.4820
 5741SOL    HW128685   0.558   2.603  11.505  0.3381 -0.4428 -0.2799
 5741SOL    HW228686   0.655   2.614  11.618  1.9337 -0.0492 -0.0611
 5742SOL     OW28687   2.497   2.672   6.049 -0.7544 -0.5095 -0.0726
 5742SOL    HW128688   2.411   2.664   6.009 -0.4040 -0.4786 -0.8263
 5742SOL    HW228689   2.513   2.766   6.051 -0.0381 -0.6486  0.9736
 5743SOL     OW28690   4.201   1.770   7.550  0.6173 -0.1632 -0.0340
 5743SOL    HW128691   4.121   1.796   7.596  0.8106 -1.7342  1.1916
 5743SOL    HW228692   4.218   1.850   7.500 -0.2117  0.7536  1.1601
 5744SOL     OW28693   0.046   2.067   4.455 -0.1808  0.0250  0.2485
 5744SOL    HW128694   4.720   2.110   4.385  1.4156 -0.3186 -1.0592
 5744SOL    HW228695   4.701   2.043   4.519 -0.3381  1.8132  0.7541
 5745SOL     OW28696   3.701   1.931   6.597  0.1274  0.0277 -0.1059
 5745SOL    HW128697   3.667   1.920   6.509 -2.2363 -1.3562  0.9823
 5745SOL    HW228698   3.628   1.896   6.647 -1.7738  0.7351 -2.4249
 5746SOL     OW28699   1.493   0.645   2.116  0.1186 -0.0140  0.0829
 5746SOL    HW128700   1.416   0.687   2.155 -0.9866 -3.0953  1.2388
 5746SOL    HW228701   1.509   0.574   2.178 -1.5053 -0.0633  0.4446
 5747SOL     OW28702   2.527   1.015  14.134  0.2677 -0.4484 -0.4368
 5747SOL    HW128703   2.522   0.925  14.102  2.8750 -1.2118  1.3095
 5747SOL    HW228704   2.542   1.053  14.048  0.2937  1.4118  0.3883
 5748SOL     OW28705   1.547   2.750   1.028  0.1959  0.1569  0.3279
 5748SOL    HW128706   1.548   2.843   1.051  0.4441 -0.0582  1.1860
 5748SOL    HW228707   1.628   2.736   0.979 -0.6822 -0.6553 -0.8893
 5749SOL     OW28708   0.073   0.783   7.487 -0.4506 -0.0586 -0.0039
 5749SOL    HW128709   0.126   0.724   7.540 -1.5123  0.5162  1.6889
 5749SOL    HW228710   0.044   0.730   7.413  1.7626 -0.3647 -0.6604
 5750SOL     OW28711   0.008   3.991   0.571  0.1289 -0.4455  0.6886
 5750SOL    HW128712   4.716   3.972   0.664  1.3593  1.5498  1.3055
 5750SOL    HW228713   0.016   4.087   0.577 -0.8839 -0.4214  1.5648
 5751SOL     OW28714   0.401   3.490   8.758 -0.3842  0.1949 -0.4001
 5751SOL    HW128715   0.459   3.447   8.820 -2.1089  1.0726  1.8410
 5751SOL    HW228716   0.313   3.482   8.796 -0.0734 -0.8322  0.0848
 5752SOL     OW28717   1.543   1.759   8.800 -0.5696  1.0035 -0.2874
 5752SOL    HW128718   1.597   1.680   8.791 -1.0520  0.3783  2.3511
 5752SOL    HW228719   1.506   1.765   8.888 -2.2726 -0.8667 -0.8649
 5753SOL     OW28720   0.057   2.500   7.190  0.0774 -0.4811 -0.3767
 5753SOL    HW128721   4.687   2.516   7.210  0.2950 -1.0229  1.1220
 5753SOL    HW228722   0.073   2.431   7.255 -0.1054 -1.6200 -1.5466
 5754SOL     OW28723   2.697   2.207   3.833  0.5292  0.1136  0.2684
 5754SOL    HW128724   2.781   2.239   3.799 -1.1847  2.4271 -1.8156
 5754SOL    HW228725   2.653   2.184   3.751  1.4077  2.0702 -0.7712
 5755SOL     OW28726   4.181   2.749   7.872 -0.1212  0.1871  0.1396
 5755SOL    HW128727   4.127   2.824   7.845  0.1175  1.0438  2.0239
 5755SOL    HW228728   4.229   2.785   7.947  1.6419  0.7043 -1.2419
 5756SOL     OW28729   4.074   2.279   4.397  0.2370  0.3642  0.3916
 5756SOL    HW128730   4.009   2.326   4.345 -0.9567  0.0995  1.6402
 5756SOL    HW228731   4.138   2.341   4.431 -0.3098  1.0958  0.0879
 5757SOL     OW28732   2.361   1.721  17.401 -0.8409  0.0085 -0.3248
 5757SOL    HW128733   2.287   1.699  17.345 -0.3300 -2.2366 -0.0905
 5757SOL    HW228734   2.429   1.727  17.333  0.1428 -3.7446  0.3318
 5758SOL     OW28735   3.655   0.383   4.488  0.2311  0.0749 -0.7226
 5758SOL    HW128736   3.690   0.377   4.399  2.5307 -3.5450  0.3925
 5758SOL    HW228737   3.722   0.435   4.532  1.5729 -3.4301  1.4536
 5759SOL     OW28738   0.960   0.435   5.938  0.3153  0.1674 -0.4049
 5759SOL    HW128739   0.980   0.453   6.029  1.0013 -2.7496  0.0134
 5759SOL    HW228740   0.951   0.528   5.916 -0.8446  0.6902  2.2792
 5760SOL     OW28741   0.587   3.266   7.049 -0.0934 -0.1705  0.4227
 5760SOL    HW128742   0.557   3.176   7.058  0.1694 -0.0521  2.4190
 5760SOL    HW228743   0.563   3.288   6.959 -2.8317  0.2169  1.2424
 5761SOL     OW28744   0.367   0.059  15.855 -0.0205  0.7067 -0.3575
 5761SOL    HW128745   0.390   0.052  15.948  0.3787 -1.0402 -0.5932
 5761SOL    HW228746   0.328   0.147  15.854 -0.1298  0.6674  0.2161
 5762SOL     OW28747   2.611   1.860  15.778  0.4504  0.1727  0.8018
 5762SOL    HW128748   2.643   1.894  15.862  1.7401  0.0073  0.3728
 5762SOL    HW228749   2.521   1.862  15.811  0.4674  0.3196  0.8405
 5763SOL     OW28750   3.944   1.491   8.728 -0.3043 -0.0482  0.7398
 5763SOL    HW128751   4.000   1.568   8.737  0.3898 -0.5106  0.4242
 5763SOL    HW228752   3.905   1.502   8.641  1.5479  0.5987 -0.0165
 5764SOL     OW28753   4.590   1.210   0.059  0.2041 -0.2243 -0.2279
 5764SOL    HW128754   4.552   1.276   0.002 -0.3389 -0.7670 -0.4951
 5764SOL    HW228755   4.652   1.265   0.107 -0.1481 -0.5382  0.5926
 5765SOL     OW28756   3.898   1.026   6.204  0.3547 -0.6627  0.7249
 5765SOL    HW128757   3.874   1.065   6.288 -2.3350 -1.3833  0.3075
 5765SOL    HW228758   3.978   1.072   6.178  0.8396  1.0195  5.1030
 5766SOL     OW28759   4.587   2.997   4.833  0.2992 -0.2039 -0.2988
 5766SOL    HW128760   4.602   2.903   4.830  1.6250 -0.0327  1.0003
 5766SOL    HW228761   4.528   2.998   4.909 -0.7929 -1.7713 -1.1357
 5767SOL     OW28762   0.837   3.835   7.230  0.0627  0.1761  0.3275
 5767SOL    HW128763   0.885   3.881   7.299  0.9399  0.0767 -0.2140
 5767SOL    HW228764   0.753   3.878   7.217 -0.5248 -0.9135  0.5819
 5768SOL     OW28765   0.692   2.909   7.845  0.3049 -0.2923 -0.1682
 5768SOL    HW128766   0.609   2.869   7.820  0.6456 -1.4210  0.5289
 5768SOL    HW228767   0.715   2.969   7.774 -1.7793  1.1887  0.3869
 5769SOL     OW28768   3.690   0.773   3.039  0.5047  0.0292  0.0073
 5769SOL    HW128769   3.636   0.742   2.967  0.9976  0.8316 -0.7094
 5769SOL    HW228770   3.775   0.751   3.002  1.9027  2.7120  1.5997
 5770SOL     OW28771   1.650   1.318  15.174 -0.6953  0.3643  0.5798
 5770SOL    HW128772   1.698   1.257  15.118 -0.7010  0.1154  0.8436
 5770SOL    HW228773   1.649   1.396  15.118  1.8147 -2.4030 -3.3125
 5771SOL     OW28774   0.270   2.266   6.191 -0.2046 -0.1401  0.2255
 5771SOL    HW128775   0.319   2.310   6.260 -0.6558  2.3837 -1.0418
 5771SOL    HW228776   0.330   2.214   6.138 -1.2441  0.5787 -1.6717
 5772SOL     OW28777   0.859   0.281  11.012  0.5120 -0.6288 -0.1315
 5772SOL    HW128778   0.803   0.216  10.970  1.5831  0.0580 -2.6286
 5772SOL    HW228779   0.798   0.354  11.008 -1.5595 -2.3347  0.5916
 5773SOL     OW28780   3.736   0.870  12.310 -0.3322  0.3365 -0.1892
 5773SOL    HW128781   3.645   0.857  12.338 -0.1971  0.0424  0.1074
 5773SOL    HW228782   3.771   0.781  12.315  1.2328  0.9406 -0.5960
 5774SOL     OW28783   3.176   0.316   6.049 -0.0057  0.3453 -0.0261
 5774SOL    HW128784   3.094   0.269   6.061 -0.3588  0.4304 -2.1063
 5774SOL    HW228785   3.189   0.287   5.959  0.1487 -1.5749  0.6244
 5775SOL     OW28786   2.825   3.812  11.729  0.0858 -0.2989 -0.1543
 5775SOL    HW128787   2.821   3.802  11.824 -1.0300 -0.2569 -0.2074
 5775SOL    HW228788   2.895   3.747  11.714 -0.2114 -0.8485  0.8539
 5776SOL     OW28789   0.662   3.043   7.269  0.5190 -0.4783  0.4070
 5776SOL    HW128790   0.734   2.982   7.254 -0.3065 -1.6481  1.3091
 5776SOL    HW228791   0.582   2.994   7.253 -0.2753  1.6956 -2.2759
 5777SOL     OW28792   4.342   1.139   5.345  0.1638  0.3869 -0.1216
 5777SOL    HW128793   4.396   1.150   5.423  2.6179 -1.9486 -1.4956
 5777SOL    HW228794   4.262   1.189   5.360 -1.4463 -2.1211 -0.4374
 5778SOL     OW28795   0.078   0.752  11.229  0.9898 -0.1966  0.1928
 5778SOL    HW128796   0.131   0.681  11.265  0.2236 -0.6554  0.4175
 5778SOL    HW228797   0.014   0.771  11.298  0.7531  0.8635 -0.3275
 5779SOL     OW28798   3.248   0.142  10.839 -0.3553  0.1343 -0.1547
 5779SOL    HW128799   3.221   0.054  10.865  0.5865 -0.1183 -0.0142
 5779SOL    HW228800   3.339   0.153  10.868 -0.6508  1.4868  0.2697
 5780SOL     OW28801   3.280   4.328  12.533  0.2951  0.0713 -0.2964
 5780SOL    HW128802   3.262   4.239  12.503 -2.8986  0.2632  1.0585
 5780SOL    HW228803   3.203   4.339  12.588 -0.4829  0.7792 -1.5068
 5781SOL     OW28804   1.673   0.118   5.068 -0.0250 -0.3953  0.4438
 5781SOL    HW128805   1.625   0.170   5.003 -0.7597 -0.7332  0.7165
 5781SOL    HW228806   1.657   0.032   5.030 -0.3681  0.1491 -0.6427
 5782SOL     OW28807   3.878   3.819   4.882  0.4056 -0.1910 -0.4783
 5782SOL    HW128808   3.810   3.831   4.948  0.5554 -0.1494 -0.3339
 5782SOL    HW228809   3.861   3.885   4.814  1.6614  0.0669 -0.5316
 5783SOL     OW28810   3.081   2.466  14.676 -0.3193  0.1390 -0.2358
 5783SOL    HW128811   3.021   2.541  14.669  0.3552  1.0267  3.4120
 5783SOL    HW228812   3.160   2.508  14.709  1.4354 -0.3641 -3.7560
 5784SOL     OW28813   4.660   0.991  14.470 -0.0579 -0.2038 -0.6348
 5784SOL    HW128814   0.029   0.999  14.443 -1.0896  1.9303 -3.4457
 5784SOL    HW228815   4.671   0.955  14.558 -0.0907 -0.6642 -0.8193
 5785SOL     OW28816   1.691   3.631   7.144 -0.3111  0.1771 -0.5425
 5785SOL    HW128817   1.673   3.613   7.236  0.1890  1.4073 -0.2021
 5785SOL    HW228818   1.623   3.695   7.125  0.5011  1.9182  2.4334
 5786SOL     OW28819   2.973   0.422   8.785  0.4102 -0.2017  0.3319
 5786SOL    HW128820   3.013   0.495   8.738  0.9528 -0.5630  0.2312
 5786SOL    HW228821   2.985   0.443   8.878  0.1800  0.4970  0.2038
 5787SOL     OW28822   4.327   1.761   5.706 -0.2459  0.2475 -1.0075
 5787SOL    HW128823   4.288   1.717   5.630 -0.3028  1.4401 -1.6636
 5787SOL    HW228824   4.303   1.712   5.784  1.6095 -0.5854 -0.9358
 5788SOL     OW28825   0.063   1.053   1.342  0.1006  0.1485 -0.4386
 5788SOL    HW128826   0.122   1.023   1.411  3.2106 -1.3216 -3.7796
 5788SOL    HW228827   0.113   1.127   1.306 -0.0800  0.4233 -0.1323
 5789SOL     OW28828   0.134   4.444   1.430  0.7326 -0.0642  0.6163
 5789SOL    HW128829   0.126   4.366   1.485  1.1961  0.2183  1.0949
 5789SOL    HW228830   0.223   4.423   1.400  0.6212  0.5283 -0.1284
 5790SOL     OW28831   2.839   1.078   3.019  0.1267 -0.1492  0.2127
 5790SOL    HW128832   2.922   1.120   2.997 -0.5757  0.6114 -0.9536
 5790SOL    HW228833   2.777   1.145   2.990 -1.1555 -1.2076  0.5258
 5791SOL     OW28834   0.054   4.229  15.544 -0.2971 -0.5256  0.4937
 5791SOL    HW128835   0.139   4.188  15.524  0.7235  0.3789  2.9277
 5791SOL    HW228836   0.010   4.163  15.597 -1.0385 -0.8959 -0.5832
 5792SOL     OW28837   4.251   0.539   9.144  0.3616 -0.1933  0.1830
 5792SOL    HW128838   4.320   0.564   9.083  0.9953  0.1542  1.0407
 5792SOL    HW228839   4.226   0.456   9.103  0.2308  0.0738 -0.2799
 5793SOL     OW28840   3.948   4.540  12.808  0.0945 -0.1675  0.4681
 5793SOL    HW128841   3.951   4.464  12.750  2.1445  0.2218  0.0530
 5793SOL    HW228842   3.866   4.578  12.778  1.6185  2.1383 -0.7736
 5794SOL     OW28843   2.236   4.474  15.312  0.8999  0.5743  0.3705
 5794SOL    HW128844   2.234   4.569  15.327  4.0820  0.8765 -1.1235
 5794SOL    HW228845   2.269   4.456  15.401 -3.4239 -0.4906  1.7644
 5795SOL     OW28846   1.606   0.080  17.617  0.2098 -0.4835  0.0409
 5795SOL    HW128847   1.584   0.087   0.017  0.5060  1.0241 -0.0037
 5795SOL    HW228848   1.698   0.055  17.625  0.1527 -1.6459 -3.2049
 5796SOL     OW28849   1.412   3.259   0.869 -0.3832 -0.2898  0.0474
 5796SOL    HW128850   1.461   3.181   0.896 -1.2533 -1.2237 -1.0733
 5796SOL    HW228851   1.474   3.332   0.862 -1.0364  0.3349  0.7875
 5797SOL     OW28852   1.989   3.114   2.835 -0.2146  0.8095 -0.1085
 5797SOL    HW128853   1.977   3.021   2.850  2.1092  0.4393 -0.4685
 5797SOL    HW228854   2.059   3.133   2.898 -0.5680  0.4295  0.3905
 5798SOL     OW28855   4.325   0.056   8.270  0.4704  0.2121 -1.1667
 5798SOL    HW128856   4.371   0.027   8.191  2.2844  0.5998 -0.2569
 5798SOL    HW228857   4.234   0.047   8.243 -0.4083  1.5924  1.4055
 5799SOL     OW28858   4.021   1.649  15.875  0.6950 -0.1260  0.0751
 5799SOL    HW128859   4.000   1.602  15.794  2.4017  0.7536 -0.8802
 5799SOL    HW228860   3.994   1.579  15.934  1.9587  0.5648  1.4663
 5800SOL     OW28861   4.302   2.309  16.833 -0.3769 -0.2518  0.1734
 5800SOL    HW128862   4.218   2.275  16.801 -0.5355  0.8228 -0.5896
 5800SOL    HW228863   4.298   2.390  16.781 -1.0800 -0.1227  0.4231
 5801SOL     OW28864   0.206   1.453   6.031  0.2606 -0.4406  0.7959
 5801SOL    HW128865   0.139   1.511   5.996  2.8627  1.8237 -0.4296
 5801SOL    HW228866   0.187   1.471   6.123  0.3484 -0.4751  0.8207
 5802SOL     OW28867   1.621   0.920  12.442 -0.3763  0.0630  0.2531
 5802SOL    HW128868   1.601   0.958  12.356  0.1092 -0.5839 -0.1474
 5802SOL    HW228869   1.676   0.847  12.414 -2.1523 -1.1576 -0.0228
 5803SOL     OW28870   1.625   3.373  15.852 -0.2561 -0.4327  0.6061
 5803SOL    HW128871   1.710   3.396  15.816 -0.0995 -1.8470  0.0898
 5803SOL    HW228872   1.570   3.443  15.817  0.0688 -0.0706  0.8162
 5804SOL     OW28873   3.853   3.473   1.902  0.0704 -0.1829 -0.5529
 5804SOL    HW128874   3.884   3.482   1.812  0.7401 -0.1823 -0.3194
 5804SOL    HW228875   3.845   3.378   1.900 -0.4707 -0.2053  2.8603
 5805SOL     OW28876   0.550   4.411   5.715 -0.3454 -0.0625  0.6385
 5805SOL    HW128877   0.508   4.495   5.696 -2.1338 -1.1397 -0.1194
 5805SOL    HW228878   0.638   4.446   5.729 -0.7433  1.2367 -0.0179
 5806SOL     OW28879   2.209   2.130   5.098 -0.6193 -0.0934 -0.2219
 5806SOL    HW128880   2.119   2.133   5.065  0.1185 -0.1113 -2.2838
 5806SOL    HW228881   2.193   2.093   5.185 -2.2222 -0.8532 -0.8276
 5807SOL     OW28882   3.100   1.979   6.579 -0.2194  0.6258 -0.2003
 5807SOL    HW128883   3.149   1.969   6.660  0.7285 -1.1395 -0.9917
 5807SOL    HW228884   3.010   1.969   6.611  0.2443  1.2961  1.2842
 5808SOL     OW28885   3.862   0.896   2.542  0.0053 -0.6055 -0.2524
 5808SOL    HW128886   3.862   0.927   2.452 -0.2179  2.9558  0.9707
 5808SOL    HW228887   3.807   0.818   2.542  0.1339 -0.7035  1.9824
 5809SOL     OW28888   0.145   0.713   1.042  0.2744 -0.1992 -0.0419
 5809SOL    HW128889   0.240   0.701   1.049 -0.0691 -1.0748  3.2596
 5809SOL    HW228890   0.111   0.631   1.078 -0.4786 -0.5093 -1.4553
 5810SOL     OW28891   1.732   1.312   8.313  0.0239  0.2504 -0.0672
 5810SOL    HW128892   1.792   1.252   8.356  2.1848  0.0761 -3.2741
 5810SOL    HW228893   1.758   1.401   8.338  0.2848  0.4719 -1.1175
 5811SOL     OW28894   0.018   2.210   8.218  0.3912 -0.1291 -0.5896
 5811SOL    HW128895   0.000   2.120   8.190 -0.0569 -0.7336  1.6991
 5811SOL    HW228896   0.031   2.247   8.130 -3.6128 -1.2307 -1.6409
 5812SOL     OW28897   1.267   2.386  10.110 -0.1397 -0.3067  0.0779
 5812SOL    HW128898   1.243   2.326  10.181  0.7518 -1.0661 -0.2563
 5812SOL    HW228899   1.355   2.413  10.134 -0.6983  2.0516 -0.5467
 5813SOL     OW28900   4.487   2.669   4.725  0.1198 -0.0054  0.1115
 5813SOL    HW128901   4.554   2.603   4.743  0.0224 -0.0864  0.1786
 5813SOL    HW228902   4.439   2.680   4.807  1.3203  1.0168  0.6872
 5814SOL     OW28903   3.599   0.344  12.836  0.0085 -0.9243  0.0964
 5814SOL    HW128904   3.535   0.273  12.823 -0.8169 -0.2104  0.2494
 5814SOL    HW228905   3.683   0.298  12.827 -0.3900 -1.7468  0.5297
 5815SOL     OW28906   0.507   4.214   8.599 -0.2757 -0.0702  1.1604
 5815SOL    HW128907   0.455   4.210   8.518  1.6878  5.8335 -0.3981
 5815SOL    HW228908   0.563   4.137   8.586 -0.6263 -0.4267  1.7993
 5816SOL     OW28909   4.102   3.953   7.828 -0.0959 -0.0189  0.5047
 5816SOL    HW128910   4.149   3.871   7.844  0.9811  0.6050  0.5483
 5816SOL    HW228911   4.047   3.929   7.754  0.1010  0.3931  0.2220
 5817SOL     OW28912   1.806   1.902  13.064  0.2532  0.2751 -0.5687
 5817SOL    HW128913   1.897   1.923  13.041  0.5825  0.2251  0.6801
 5817SOL    HW228914   1.789   1.823  13.012 -0.6286  0.5776 -0.7436
 5818SOL     OW28915   3.418   3.042   7.263  0.1632 -0.3710 -0.6640
 5818SOL    HW128916   3.354   3.108   7.285 -0.8054 -2.3143  2.3321
 5818SOL    HW228917   3.479   3.046   7.337 -0.9192 -1.0413  0.2607
 5819SOL     OW28918   4.263   3.107   9.762 -0.0132 -0.2195 -0.4903
 5819SOL    HW128919   4.319   3.122   9.686  0.0841  0.5584 -0.2661
 5819SOL    HW228920   4.292   3.018   9.784  0.6017  0.3806  1.1708
 5820SOL     OW28921   3.141   4.243   9.639 -0.0540 -0.1402 -0.6904
 5820SOL    HW128922   3.134   4.314   9.702 -2.1652 -1.9213  1.1021
 5820SOL    HW228923   3.158   4.167   9.696 -1.2715 -1.4367 -2.0411
 5821SOL     OW28924   3.285   2.304  14.568  0.2626 -0.2785 -0.2618
 5821SOL    HW128925   3.313   2.258  14.647 -2.1543 -2.3081 -0.5751
 5821SOL    HW228926   3.222   2.366  14.605 -1.3226 -1.3725 -1.1340
 5822SOL     OW28927   0.220   0.816   9.341 -0.2789  0.2192  0.2737
 5822SOL    HW128928   0.183   0.838   9.427  0.5600  1.1258  0.3939
 5822SOL    HW228929   0.190   0.726   9.328  1.0258 -0.1043 -0.3922
 5823SOL     OW28930   2.802   2.157   6.352  0.1610  0.0227  0.0098
 5823SOL    HW128931   2.714   2.193   6.341  1.2964  2.1050 -2.3499
 5823SOL    HW228932   2.788   2.078   6.404  0.9308  0.2763  0.6075
 5824SOL     OW28933   0.117   1.331   7.950 -0.5188  0.1673 -0.1442
 5824SOL    HW128934   0.158   1.363   8.031 -0.2009  1.0150 -0.6449
 5824SOL    HW228935   0.186   1.365   7.894  0.5418  0.3233  1.2527
 5825SOL     OW28936   2.473   1.203  15.280 -0.9059 -0.7826 -0.6509
 5825SOL    HW128937   2.547   1.263  15.271 -1.0183 -0.5849 -0.2794
 5825SOL    HW228938   2.506   1.114  15.266 -1.5942 -1.0618 -0.5165
 5826SOL     OW28939   2.987   1.478  16.528  0.1326  0.6534 -0.4709
 5826SOL    HW128940   2.906   1.525  16.508  0.1695  0.6634 -0.5992
 5826SOL    HW228941   3.030   1.524  16.600 -0.1679 -0.5375  0.4527
 5827SOL     OW28942   2.964   4.206   1.345  0.7493 -0.5292 -0.0830
 5827SOL    HW128943   2.950   4.223   1.439 -0.4273  0.2063 -0.3882
 5827SOL    HW228944   2.888   4.147   1.337 -0.0726  0.6374 -0.7651
 5828SOL     OW28945   0.817   3.057  17.501  0.3864 -0.2302  0.8538
 5828SOL    HW128946   0.778   3.128  17.450  2.3101 -0.0670 -0.3859
 5828SOL    HW228947   0.778   3.074  17.586  0.5885 -1.7199  1.2465
 5829SOL     OW28948   3.648   4.341  14.836 -0.2655 -0.2946  0.3532
 5829SOL    HW128949   3.606   4.306  14.757  0.1113 -1.0305  0.4806
 5829SOL    HW228950   3.687   4.420  14.798  1.6095 -1.8289 -0.9093
 5830SOL     OW28951   2.605   0.119   3.805 -0.5798 -0.1521 -0.0601
 5830SOL    HW128952   2.522   0.100   3.762  0.0979  0.9118 -1.8430
 5830SOL    HW228953   2.659   0.118   3.725 -0.1181  0.9059  0.2281
 5831SOL     OW28954   1.809   0.158   9.173 -0.1920 -0.3504  0.2406
 5831SOL    HW128955   1.766   0.092   9.228  0.6869 -0.2541  1.0411
 5831SOL    HW228956   1.845   0.205   9.247  1.1323  0.9409 -1.2313
 5832SOL     OW28957   0.729   1.434   9.122 -0.5672  0.5759 -0.4632
 5832SOL    HW128958   0.640   1.431   9.156 -0.5911 -0.7681 -0.6666
 5832SOL    HW228959   0.740   1.340   9.108  0.6726  0.9593 -2.1156
 5833SOL     OW28960   2.078   3.445   7.108 -0.4418 -0.0562 -0.1732
 5833SOL    HW128961   2.008   3.449   7.042  0.4495  2.5504 -0.9647
 5833SOL    HW228962   2.086   3.350   7.107 -2.4341 -0.2521  2.8610
 5834SOL     OW28963   2.528   3.334   9.316  0.7695  0.3878  0.3926
 5834SOL    HW128964   2.522   3.276   9.392  2.0247  2.3132  1.9748
 5834SOL    HW228965   2.619   3.322   9.288  0.5327 -0.4025 -0.0353
 5835SOL     OW28966   1.401   3.442   7.284  0.0846  0.1252  0.6797
 5835SOL    HW128967   1.335   3.425   7.350  0.2703 -0.1552  0.7924
 5835SOL    HW228968   1.366   3.387   7.214 -2.0567 -0.1451  1.9766
 5836SOL     OW28969   0.166   0.998   8.517 -0.3420 -0.0216 -0.6726
 5836SOL    HW128970   0.252   0.970   8.486 -0.0391 -1.0660  1.0927
 5836SOL    HW228971   0.127   0.918   8.553  1.3701 -0.4203  0.2487
 5837SOL     OW28972   2.157   3.723  10.193  0.4631  0.1532  0.0565
 5837SOL    HW128973   2.083   3.702  10.135 -0.8993 -2.1996  2.5952
 5837SOL    HW228974   2.126   3.793  10.250 -1.1898  0.1610 -0.8588
 5838SOL     OW28975   3.348   3.206   3.930  0.0785  0.2408 -0.0681
 5838SOL    HW128976   3.432   3.214   3.973  1.2093 -0.9061 -2.0711
 5838SOL    HW228977   3.378   3.167   3.848 -0.6778 -0.7836  0.1440
 5839SOL     OW28978   1.226   4.675   9.211  0.0270 -0.4023 -0.4263
 5839SOL    HW128979   1.286   0.026   9.221 -0.3499 -0.1019 -0.4164
 5839SOL    HW228980   1.267   4.620   9.279 -0.9641 -0.8154 -0.1642
 5840SOL     OW28981   1.417   0.833   3.067 -0.1196  0.0336  0.2332
 5840SOL    HW128982   1.449   0.919   3.038  1.3641 -0.5726  0.0789
 5840SOL    HW228983   1.324   0.853   3.081 -0.8894 -2.0608 -1.9338
 5841SOL     OW28984   3.421   2.687  15.025  0.5695  0.6646  0.2635
 5841SOL    HW128985   3.489   2.720  14.966 -0.2147  0.9025 -0.4971
 5841SOL    HW228986   3.397   2.773  15.061 -1.5636  0.7817 -1.4557
 5842SOL     OW28987   3.902   0.152  12.559  0.3403 -0.0468 -0.2904
 5842SOL    HW128988   3.829   0.181  12.504 -0.7486  0.7185  1.5477
 5842SOL    HW228989   3.934   0.072  12.519 -1.9555 -0.6206 -0.9752
 5843SOL     OW28990   1.759   3.369   0.266 -0.3731 -0.1316  0.2032
 5843SOL    HW128991   1.800   3.451   0.238  0.9767 -1.4120 -1.5189
 5843SOL    HW228992   1.680   3.398   0.311 -1.1947  2.0855 -2.7474
 5844SOL     OW28993   0.691   2.263   1.863 -0.0917 -0.8245  0.3240
 5844SOL    HW128994   0.735   2.204   1.802  0.7139  0.4956 -0.3554
 5844SOL    HW228995   0.599   2.238   1.856  0.1311 -1.5217 -0.1500
 5845SOL     OW28996   2.811   1.875   2.640 -0.5105  0.4479 -0.0504
 5845SOL    HW128997   2.880   1.860   2.576  0.4805  2.5345  0.5279
 5845SOL    HW228998   2.732   1.870   2.586  0.6349  0.4828 -1.7264
 5846SOL     OW28999   4.298   0.880   9.023 -0.1773  0.1193 -0.2996
 5846SOL    HW129000   4.368   0.818   9.005 -1.7316 -1.8192  0.2780
 5846SOL    HW229001   4.347   0.959   9.000  0.3992 -0.6755 -1.8307
 5847SOL     OW29002   4.605   0.631  16.890 -0.3404 -0.3344  0.3310
 5847SOL    HW129003   4.586   0.651  16.799  1.4549  2.2160  0.5226
 5847SOL    HW229004   4.518   0.620  16.929  0.6457 -1.8226  2.0937
 5848SOL     OW29005   2.639   0.992   0.197  0.5988 -0.2847  0.0661
 5848SOL    HW129006   2.578   0.931   0.156  1.5462 -0.9949 -0.3006
 5848SOL    HW229007   2.711   0.936   0.225  0.6710  0.7789  1.9800
 5849SOL     OW29008   4.076   0.481   9.740  0.3353  0.5750  0.8022
 5849SOL    HW129009   4.037   0.553   9.789  2.0879 -0.0860  3.1456
 5849SOL    HW229010   4.004   0.420   9.724 -1.0982  2.3268  0.5425
 5850SOL     OW29011   1.254   3.683  12.625 -0.5299  0.2204  0.0391
 5850SOL    HW129012   1.266   3.730  12.707 -0.9497  0.5336 -0.0845
 5850SOL    HW229013   1.291   3.595  12.639 -0.2866  0.0930 -1.3686
 5851SOL     OW29014   3.045   4.661  15.547 -0.1560  0.3090  0.2778
 5851SOL    HW129015   3.032   4.627  15.458  0.2157 -1.0967  0.7717
 5851SOL    HW229016   2.967   4.715  15.559  1.0333  1.7404  1.6311
 5852SOL     OW29017   3.932   4.683   1.139 -0.4509  0.4655  0.0227
 5852SOL    HW129018   3.845   4.660   1.173 -0.6072  0.8348 -0.1270
 5852SOL    HW229019   3.913   0.034   1.082  1.6254  0.2096 -1.0023
 5853SOL     OW29020   0.738   2.553   8.968 -0.4666  0.0699 -0.2496
 5853SOL    HW129021   0.798   2.508   8.908  0.2979 -3.1633  2.9450
 5853SOL    HW229022   0.714   2.484   9.031 -1.1473  0.0997 -0.4873
 5854SOL     OW29023   3.603   1.346  13.393  0.0074 -0.2682  0.0848
 5854SOL    HW129024   3.543   1.419  13.379  0.6338 -0.1836 -2.1525
 5854SOL    HW229025   3.542   1.281  13.429  0.4073  0.6483  2.4168
 5855SOL     OW29026   2.523   0.075  15.570  0.5468  0.1970  0.5993
 5855SOL    HW129027   2.497   0.143  15.508  0.3361 -0.4187  0.0138
 5855SOL    HW229028   2.510   4.716  15.521  1.0344 -0.2892  1.2847
 5856SOL     OW29029   3.590   0.849  11.758  0.1624  0.7033  0.3994
 5856SOL    HW129030   3.502   0.848  11.795 -0.7790  1.1810 -1.8027
 5856SOL    HW229031   3.619   0.924  11.810 -0.7655 -0.2898  2.3622
 5857SOL     OW29032   1.215   1.829  15.654  0.0599  0.0413 -0.2171
 5857SOL    HW129033   1.142   1.766  15.658  1.3792 -1.4411  0.6231
 5857SOL    HW229034   1.288   1.771  15.635  0.4796  0.2603  0.7115
 5858SOL     OW29035   3.825   3.842   6.106 -0.1364 -0.0473 -0.1201
 5858SOL    HW129036   3.919   3.824   6.105 -0.1001  0.1229  0.1690
 5858SOL    HW229037   3.827   3.874   6.196  1.1036  2.7033 -1.1204
 5859SOL     OW29038   1.009   0.311   5.086 -0.5586  0.4505  0.0456
 5859SOL    HW129039   0.918   0.299   5.060 -0.8498  0.6238  0.9663
 5859SOL    HW229040   1.048   0.352   5.010  1.2895 -1.3799 -0.0047
 5860SOL     OW29041   1.383   4.463  10.333 -0.0598  0.1042  0.1505
 5860SOL    HW129042   1.434   4.515  10.396  0.9654  0.1183 -0.6780
 5860SOL    HW229043   1.294   4.480  10.362 -0.2555  2.0401 -1.5901
 5861SOL     OW29044   1.405   2.803   8.609 -0.0475  0.2341 -0.1207
 5861SOL    HW129045   1.406   2.780   8.702 -1.9439  0.6951  0.0079
 5861SOL    HW229046   1.437   2.893   8.611  0.8178 -0.0678 -0.6409
 5862SOL     OW29047   3.169   0.023   4.536  0.2693 -0.1965  0.3483
 5862SOL    HW129048   3.201   4.659   4.562  0.1684 -0.8832 -1.7962
 5862SOL    HW229049   3.129   0.002   4.452  0.3967 -1.9689  0.7371
 5863SOL     OW29050   0.879   2.913   3.967  0.4149  0.1607 -0.4098
 5863SOL    HW129051   0.952   2.939   4.024 -1.0954  1.7471  0.7964
 5863SOL    HW229052   0.901   2.968   3.892 -0.8246  0.3931 -0.5950
 5864SOL     OW29053   1.284   0.893   7.589  0.0839  0.2756  0.3844
 5864SOL    HW129054   1.278   0.803   7.558  1.1044 -0.1489  1.4134
 5864SOL    HW229055   1.376   0.888   7.614  0.2342  0.4754 -0.1270
 5865SOL     OW29056   3.466   2.664   8.892  0.4370  0.0490 -0.0087
 5865SOL    HW129057   3.514   2.644   8.972 -2.7613  0.6670  2.0978
 5865SOL    HW229058   3.378   2.627   8.905  0.8939 -1.2600 -0.7191
 5866SOL     OW29059   4.539   1.003   1.442  0.0306 -0.6910 -0.0903
 5866SOL    HW129060   4.622   1.027   1.402 -1.4965  2.8455 -1.1378
 5866SOL    HW229061   4.513   1.091   1.467 -1.3695 -0.8335 -1.0258
 5867SOL     OW29062   1.146   0.717   6.890  0.7222  0.5991  0.1415
 5867SOL    HW129063   1.090   0.747   6.962  0.5714  0.7608 -0.0452
 5867SOL    HW229064   1.093   0.656   6.838  0.4578  1.5253 -0.6696
 5868SOL     OW29065   2.216   1.402  17.370 -0.0944 -0.9399 -0.2710
 5868SOL    HW129066   2.194   1.494  17.357  1.7581 -0.4584  0.0860
 5868SOL    HW229067   2.244   1.388  17.280 -0.8113 -0.1815 -0.6114
 5869SOL     OW29068   3.619   3.088   5.742 -0.1664  0.0077 -0.1993
 5869SOL    HW129069   3.657   3.163   5.696 -1.7403  0.4237 -0.7988
 5869SOL    HW229070   3.686   3.019   5.744 -0.5225 -0.2818  1.5300
 5870SOL     OW29071   2.586   3.239   3.535  0.3030 -0.0347  0.0672
 5870SOL    HW129072   2.509   3.247   3.591  0.7232  1.2883  0.4701
 5870SOL    HW229073   2.651   3.248   3.604  0.7081  1.7840 -0.5378
 5871SOL     OW29074   1.675   3.709  14.765 -0.1136  0.3028 -0.5250
 5871SOL    HW129075   1.671   3.727  14.671 -2.0740 -0.9876 -0.6971
 5871SOL    HW229076   1.582   3.691  14.781  0.6967 -2.2002  1.2267
 5872SOL     OW29077   2.469   2.738   2.422 -0.2616 -0.1563  0.0848
 5872SOL    HW129078   2.402   2.805   2.412 -0.4287 -0.4136 -0.5131
 5872SOL    HW229079   2.433   2.708   2.505  2.6657  1.4576  1.9372
 5873SOL     OW29080   2.851   4.626   1.379  0.3882 -0.1250  0.0997
 5873SOL    HW129081   2.880   4.542   1.344  0.4384 -0.9068  1.9992
 5873SOL    HW229082   2.838   4.680   1.301 -2.6211  1.3729  1.6400
 5874SOL     OW29083   0.803   4.513   2.131 -0.2471 -0.4149 -0.7941
 5874SOL    HW129084   0.747   4.442   2.099 -2.1930  0.1421  1.3771
 5874SOL    HW229085   0.883   4.462   2.144  0.3556  0.5879 -0.5382
 5875SOL     OW29086   3.857   0.842   6.890  0.7041  0.2648  0.2311
 5875SOL    HW129087   3.865   0.772   6.825  0.9716  0.4834  0.0291
 5875SOL    HW229088   3.774   0.819   6.931  0.5500 -0.9868 -0.8114
 5876SOL     OW29089   2.035   4.666   2.889  0.1091 -0.0716  0.2943
 5876SOL    HW129090   2.076   4.662   2.803 -0.5076  0.8607 -0.0483
 5876SOL    HW229091   1.949   4.687   2.852 -0.4816 -2.7645  0.1814
 5877SOL     OW29092   3.168   0.977  16.321  0.1704 -0.1799  0.2876
 5877SOL    HW129093   3.224   1.020  16.256  1.2607  0.0505  1.3908
 5877SOL    HW229094   3.092   1.035  16.325 -1.0282 -1.7580  0.4430
 5878SOL     OW29095   3.093   0.727   6.856  0.5110  0.2452  0.8694
 5878SOL    HW129096   3.013   0.754   6.902 -1.0023  0.9496 -2.1322
 5878SOL    HW229097   3.069   0.644   6.814 -0.5023 -0.9945  3.9385
 5879SOL     OW29098   0.680   0.272   7.406 -0.1526 -0.0536 -0.4018
 5879SOL    HW129099   0.695   0.362   7.433 -0.1710 -0.6303  1.5499
 5879SOL    HW229100   0.600   0.284   7.355  1.0494 -1.4955 -2.6132
 5880SOL     OW29101   2.780   2.093   4.219 -0.2775  0.0799  0.3930
 5880SOL    HW129102   2.821   2.037   4.286 -0.3273 -4.0176 -3.0081
 5880SOL    HW229103   2.755   2.025   4.156 -0.1298  0.9024 -0.5499
 5881SOL     OW29104   2.260   3.150   1.926 -0.3825 -0.3021  0.2640
 5881SOL    HW129105   2.344   3.165   1.883 -1.6268  1.8816 -1.4154
 5881SOL    HW229106   2.205   3.121   1.853 -2.0692  0.9006  1.0462
 5882SOL     OW29107   4.448   0.130   3.076  0.4094 -0.1265  0.4050
 5882SOL    HW129108   4.367   0.093   3.040  0.7886 -1.4282  0.8866
 5882SOL    HW229109   4.519   0.088   3.027  0.8512 -2.4943  3.0311
 5883SOL     OW29110   3.540   3.255   8.501  0.0864  0.2632  0.3341
 5883SOL    HW129111   3.619   3.298   8.468  1.0957 -2.7015 -1.1017
 5883SOL    HW229112   3.552   3.257   8.596 -1.5708 -0.0282  0.5421
 5884SOL     OW29113   3.714   0.041   4.669  0.3640  0.0255  0.0264
 5884SOL    HW129114   3.809   0.028   4.674  0.4254  0.2409 -0.4944
 5884SOL    HW229115   3.682   4.677   4.643  0.1818 -0.2612  1.2136
 5885SOL     OW29116   2.272   0.898   3.870 -0.3108 -0.3893  0.4812
 5885SOL    HW129117   2.302   0.809   3.852  1.0664  0.5723 -1.9874
 5885SOL    HW229118   2.229   0.887   3.955  0.2299 -1.4245  0.6187
 5886SOL     OW29119   0.370   4.137  13.035 -0.5838  0.1344  0.5783
 5886SOL    HW129120   0.445   4.182  12.995 -1.4482  0.2225 -0.9247
 5886SOL    HW229121   0.335   4.191  13.105  0.3248  0.6462  0.6441
 5887SOL     OW29122   1.591   4.499  10.093  0.0826  0.2595 -0.1537
 5887SOL    HW129123   1.686   4.505  10.106 -0.2115  2.0992  1.1674
 5887SOL    HW229124   1.563   4.571  10.150 -1.9624  0.9541 -2.0704
 5888SOL     OW29125   4.190   2.744   5.422 -0.0845  0.2135  0.4601
 5888SOL    HW129126   4.212   2.687   5.348  2.2954  1.4577  0.2289
 5888SOL    HW229127   4.095   2.731   5.418 -0.1585  1.5621 -1.8461
 5889SOL     OW29128   1.766   2.741   3.219 -0.6877  0.6119  0.5961
 5889SOL    HW129129   1.753   2.830   3.188  0.0292  0.3262 -0.5177
 5889SOL    HW229130   1.859   2.732   3.200 -1.1905  2.5175 -2.6949
 5890SOL     OW29131   2.027   3.235   5.598 -0.1831  0.2911  0.0235
 5890SOL    HW129132   2.094   3.199   5.540 -1.5754 -1.4093 -0.5103
 5890SOL    HW229133   2.076   3.300   5.649  0.4422  0.0558 -0.2835
 5891SOL     OW29134   1.276   2.843   9.487  0.4667 -0.0494  0.1078
 5891SOL    HW129135   1.231   2.803   9.561  0.0711 -0.5115 -0.3839
 5891SOL    HW229136   1.365   2.809   9.495  0.7543  0.9575  1.0917
 5892SOL     OW29137   4.065   2.266  16.686  0.0088  0.6594 -0.1274
 5892SOL    HW129138   4.075   2.180  16.647  1.1161  0.6794  0.0939
 5892SOL    HW229139   3.982   2.283  16.642  0.6245  0.5495 -1.3238
 5893SOL     OW29140   1.189   3.249   6.211  0.5846 -0.0588  0.3261
 5893SOL    HW129141   1.152   3.160   6.210 -1.3493  0.7418  1.4408
 5893SOL    HW229142   1.207   3.258   6.117 -0.5838  0.9756  0.2097
 5894SOL     OW29143   0.950   4.316   2.800 -0.1010  0.5694  0.2782
 5894SOL    HW129144   0.921   4.244   2.855 -0.5443 -0.2187 -0.9997
 5894SOL    HW229145   1.031   4.288   2.757 -0.4926 -0.5605  0.2907
 5895SOL     OW29146   2.433   1.770   5.256 -0.2414  0.4981  0.0474
 5895SOL    HW129147   2.478   1.784   5.173  0.5308  0.6409  0.4928
 5895SOL    HW229148   2.464   1.847   5.305 -0.5437  1.4185 -1.2005
 5896SOL     OW29149   1.754   3.692  16.496 -0.1643  0.6316  0.0098
 5896SOL    HW129150   1.760   3.685  16.400  0.1683 -2.4350  0.2646
 5896SOL    HW229151   1.661   3.677  16.512  0.4804 -0.9077  2.2377
 5897SOL     OW29152   1.388   1.307  13.389  0.0291  0.0222  0.1162
 5897SOL    HW129153   1.351   1.294  13.477  1.0863 -0.8025  0.4457
 5897SOL    HW229154   1.347   1.230  13.349  0.1947  0.9800 -1.8751
 5898SOL     OW29155   0.058   2.257   0.315  0.5160  0.1396  0.2941
 5898SOL    HW129156   0.036   2.348   0.337  2.3594  0.8880 -0.8889
 5898SOL    HW229157   0.088   2.263   0.224  2.0270 -2.6134  0.6069
 5899SOL     OW29158   3.647   2.101  14.704 -0.0532 -0.2869  0.0551
 5899SOL    HW129159   3.632   2.103  14.799  1.2761  2.1990  0.1988
 5899SOL    HW229160   3.555   2.099  14.678  0.0603 -0.9829 -0.2774
 5900SOL     OW29161   2.156   3.140  11.618 -0.3057 -0.5504 -0.1458
 5900SOL    HW129162   2.085   3.087  11.583 -0.2686 -0.5970 -0.1510
 5900SOL    HW229163   2.116   3.190  11.689 -0.0055 -0.8741  0.2535
 5901SOL     OW29164   4.182   0.246   4.240 -0.3938  0.0219  0.0145
 5901SOL    HW129165   4.146   0.314   4.183 -0.4111  0.2219  0.2658
 5901SOL    HW229166   4.173   0.301   4.318  1.2677  1.6844 -0.9761
 5902SOL     OW29167   1.005   0.666   3.621 -0.1046 -0.4663  0.1629
 5902SOL    HW129168   0.911   0.674   3.605 -0.6574 -3.2287  1.9978
 5902SOL    HW229169   1.019   0.581   3.663  0.1240 -0.1602  0.7113
 5903SOL     OW29170   2.831   0.647  14.278  0.1402 -0.7417  0.2525
 5903SOL    HW129171   2.794   0.563  14.251 -1.1095 -0.1033  0.0146
 5903SOL    HW229172   2.871   0.676  14.196  0.7205 -0.2996  0.6932
 5904SOL     OW29173   1.680   1.675  12.890 -0.8076 -0.4816 -0.3954
 5904SOL    HW129174   1.708   1.620  12.963  1.7070  1.3664  0.0646
 5904SOL    HW229175   1.639   1.619  12.824  2.1728  1.2283 -3.7140
 5905SOL     OW29176   0.010   3.355   3.286 -0.4604 -0.5075  0.3746
 5905SOL    HW129177   0.020   3.342   3.380 -1.0892 -0.8089  0.4037
 5905SOL    HW229178   0.102   3.371   3.267 -1.0741  1.3377 -1.1744
 5906SOL     OW29179   0.210   2.646   7.564 -0.3641  0.1762 -0.0218
 5906SOL    HW129180   0.243   2.558   7.548 -0.1105  0.5072 -1.3354
 5906SOL    HW229181   0.123   2.630   7.599  1.0580 -1.5172  2.7327
 5907SOL     OW29182   4.273   2.798   2.705 -0.2921  0.4175 -0.4690
 5907SOL    HW129183   4.190   2.778   2.747  0.3242 -0.1521  0.4888
 5907SOL    HW229184   4.314   2.862   2.764  1.1103 -0.2898 -0.6797
 5908SOL     OW29185   3.482   4.528   6.897 -0.0433 -0.1685 -0.8680
 5908SOL    HW129186   3.420   4.494   6.962 -0.8698  1.0853 -0.9991
 5908SOL    HW229187   3.564   4.499   6.939 -0.1569 -0.0958 -0.5930
 5909SOL     OW29188   2.878   0.714   6.380 -0.4114 -0.3564  0.1572
 5909SOL    HW129189   2.819   0.784   6.409  1.9326  2.0881 -0.9493
 5909SOL    HW229190   2.952   0.725   6.438 -0.5083  0.6301  0.0905
 5910SOL     OW29191   3.148   1.563   5.663 -1.1802 -0.3542 -0.0270
 5910SOL    HW129192   3.194   1.531   5.585  1.0015  1.6278  0.4641
 5910SOL    HW229193   3.212   1.616   5.709 -0.0756 -0.8966 -0.9191
 5911SOL     OW29194   2.061   0.348   5.259  0.2271  0.5867  0.1567
 5911SOL    HW129195   1.973   0.311   5.252  0.5383 -0.0452 -0.3654
 5911SOL    HW229196   2.109   0.276   5.217 -1.0853 -1.9084  2.8882
 5912SOL     OW29197   4.507   4.412  16.550 -0.1793 -0.3096  0.2148
 5912SOL    HW129198   4.558   4.445  16.624  1.5288  0.3014 -1.2155
 5912SOL    HW229199   4.475   4.491  16.506  0.8886  0.3340  0.5870
 5913SOL     OW29200   4.247   3.067   8.398 -0.0927  0.0070  0.0045
 5913SOL    HW129201   4.336   3.035   8.385 -0.5718 -0.6967 -1.4794
 5913SOL    HW229202   4.256   3.158   8.371  0.9984 -0.0136  0.2973
 5914SOL     OW29203   3.034   2.845   6.552  0.1031  0.8302 -0.0751
 5914SOL    HW129204   3.113   2.802   6.519 -0.2056  1.1781 -1.2585
 5914SOL    HW229205   3.077   2.919   6.595  3.1824 -1.8137  1.3679
 5915SOL     OW29206   1.653   1.103   2.390 -0.0021  0.7103  0.4706
 5915SOL    HW129207   1.668   1.070   2.479 -1.4516  0.1068  0.4929
 5915SOL    HW229208   1.653   1.198   2.406  0.4985  1.2544 -2.7936
 5916SOL     OW29209   1.734   1.142   5.687 -0.8336 -0.1082 -0.1947
 5916SOL    HW129210   1.639   1.133   5.681 -0.9451  0.7609  0.3646
 5916SOL    HW229211   1.749   1.222   5.737  1.8125 -1.3329  0.9273
 5917SOL     OW29212   3.980   1.894  12.970  0.6158  0.5953 -0.0996
 5917SOL    HW129213   3.968   1.976  12.923 -1.7430  0.9444  1.1457
 5917SOL    HW229214   4.067   1.908  13.009  0.0988 -0.5714  1.4773
 5918SOL     OW29215   4.631   2.151   5.182 -0.4531  0.5043 -0.0098
 5918SOL    HW129216   4.564   2.083   5.190 -1.3293  1.3542 -0.1651
 5918SOL    HW229217   4.585   2.234   5.193  1.9676  1.9557 -0.7426
 5919SOL     OW29218   2.101   2.904  16.020  0.1390  0.1812  0.2924
 5919SOL    HW129219   2.021   2.952  15.997  0.9300  1.5110  0.3186
 5919SOL    HW229220   2.126   2.941  16.105 -2.0792  0.1300  0.9827
 5920SOL     OW29221   0.130   1.662   1.554  0.2622 -0.4348  0.0344
 5920SOL    HW129222   0.129   1.599   1.483  1.5635 -3.0726  2.3312
 5920SOL    HW229223   0.149   1.599   1.624 -4.6035  0.3566  2.0295
 5921SOL     OW29224   4.238   1.078   6.118 -0.0090 -0.3509 -0.1603
 5921SOL    HW129225   4.319   1.091   6.069 -0.2355  0.4497 -0.3183
 5921SOL    HW229226   4.187   1.038   6.048 -0.3620  0.5963 -0.4375
 5922SOL     OW29227   4.051   4.448  10.137 -0.3691  0.0763  0.0399
 5922SOL    HW129228   4.145   4.459  10.124 -0.4249  0.2208 -0.2499
 5922SOL    HW229229   4.015   4.515  10.079  1.4247  0.6764 -0.3776
 5923SOL     OW29230   1.669   3.294   6.421  0.4931  0.1269  0.2778
 5923SOL    HW129231   1.609   3.303   6.495 -0.3446  2.2792 -0.6643
 5923SOL    HW229232   1.743   3.249   6.461 -1.2463 -1.7330  1.3940
 5924SOL     OW29233   0.083   0.442  16.998  0.4807 -0.4248 -0.1557
 5924SOL    HW129234   0.032   0.411  17.073  3.3483 -0.1383  1.8976
 5924SOL    HW229235   0.030   0.500  16.943  0.6288  0.3774  0.5462
 5925SOL     OW29236   2.817   0.083  15.607 -0.4736 -0.4957  0.7401
 5925SOL    HW129237   2.822   0.092  15.702 -2.9683  0.0901  0.8163
 5925SOL    HW229238   2.729   0.115  15.588  0.2998  1.3944  0.2465
 5926SOL     OW29239   2.595   0.764  14.432  0.0420 -0.4394  0.2026
 5926SOL    HW129240   2.671   0.763  14.373  0.7301 -0.3002  1.0906
 5926SOL    HW229241   2.564   0.674  14.436  3.1997 -1.4335  1.5853
 5927SOL     OW29242   1.340   4.098   5.616  0.2277  0.5377 -0.4314
 5927SOL    HW129243   1.378   4.059   5.537 -1.3865  0.5065 -1.1897
 5927SOL    HW229244   1.423   4.114   5.662  1.0942 -2.2457 -1.0088
 5928SOL     OW29245   1.041   4.613   3.189  0.1205  0.3530  0.3001
 5928SOL    HW129246   1.105   4.666   3.141 -1.6435  1.7487 -0.4793
 5928SOL    HW229247   1.061   4.524   3.161 -1.2802 -0.1056  0.7786
 5929SOL     OW29248   3.292   0.966   8.722 -0.4868 -0.0312 -0.2995
 5929SOL    HW129249   3.201   0.997   8.727 -0.2901  0.1626  2.0730
 5929SOL    HW229250   3.295   0.960   8.627  0.6184  0.4091 -0.3024
 5930SOL     OW29251   0.050   3.589   6.024 -0.1870  0.2876  0.3759
 5930SOL    HW129252   0.139   3.592   5.991 -0.9241 -1.0223 -1.7548
 5930SOL    HW229253   0.028   3.503   6.061  1.8432  1.1974  3.6928
 5931SOL     OW29254   1.118   1.726   1.648  0.4252 -0.5327 -0.6119
 5931SOL    HW129255   1.147   1.641   1.681  1.2602 -0.4275 -1.0727
 5931SOL    HW229256   1.052   1.760   1.708 -1.4664  0.9134 -3.4816
 5932SOL     OW29257   3.721   4.373  15.579  0.1735  0.0098 -0.2831
 5932SOL    HW129258   3.680   4.372  15.492 -2.4299  0.4923  0.9290
 5932SOL    HW229259   3.773   4.293  15.574  0.5595  0.0545  3.4703
 5933SOL     OW29260   1.561   3.422   4.730  0.2171  0.4155 -0.1061
 5933SOL    HW129261   1.630   3.442   4.793 -0.0225  0.1917  0.2269
 5933SOL    HW229262   1.557   3.501   4.676  1.8103  0.4045 -0.2301
 5934SOL     OW29263   1.707   4.719   6.461 -1.0929  0.1793 -0.1535
 5934SOL    HW129264   1.705   4.717   6.557 -0.2134 -1.3644 -0.1573
 5934SOL    HW229265   1.789   4.671   6.446 -0.9273  0.2230  0.6123
 5935SOL     OW29266   0.934   1.691   6.067  0.1986 -0.1734  0.5136
 5935SOL    HW129267   0.864   1.703   6.131 -0.4959  0.1992 -0.3215
 5935SOL    HW229268   1.005   1.661   6.123 -0.3175 -0.2387  1.1289
 5936SOL     OW29269   1.764   4.210   0.351 -0.0114  0.1672 -0.4053
 5936SOL    HW129270   1.850   4.167   0.352 -0.0676  0.0547 -0.2108
 5936SOL    HW229271   1.726   4.159   0.279 -1.9853 -0.8832  1.3649
 5937SOL     OW29272   2.743   3.125   4.396 -0.1947  0.8181 -0.1204
 5937SOL    HW129273   2.716   3.039   4.426 -0.8308  1.4763  1.2003
 5937SOL    HW229274   2.743   3.107   4.302 -0.5675  1.7134 -0.2978
 5938SOL     OW29275   2.970   2.514  10.166 -0.2310 -0.9296 -0.8085
 5938SOL    HW129276   2.913   2.590  10.159  2.6577  1.1846 -1.0510
 5938SOL    HW229277   3.023   2.519  10.087  1.1047 -0.1167  0.1471
 5939SOL     OW29278   3.691   1.029   6.020  0.0615  0.0776 -0.9603
 5939SOL    HW129279   3.623   0.975   6.060  0.8099  0.3897  0.7423
 5939SOL    HW229280   3.770   1.006   6.068 -0.1446  0.3869 -0.4767
 5940SOL     OW29281   2.965   1.995   3.451  0.6651 -0.3027 -0.0677
 5940SOL    HW129282   2.889   1.937   3.444  0.4876 -0.1533  0.6617
 5940SOL    HW229283   2.924   2.068   3.405  2.1598  0.3685 -0.3197
 5941SOL     OW29284   0.161   2.548   9.191  0.0564 -0.1682  0.4071
 5941SOL    HW129285   0.187   2.640   9.178 -0.2900  0.0333  1.1298
 5941SOL    HW229286   0.215   2.535   9.269  0.1735 -0.3087  0.3021
 5942SOL     OW29287   1.862   0.381   6.782  0.2222  0.4353  0.3760
 5942SOL    HW129288   1.828   0.461   6.821 -1.8197 -0.2026 -0.0574
 5942SOL    HW229289   1.827   0.386   6.693 -0.8452  0.3525  0.7853
 5943SOL     OW29290   4.689   0.082   7.844 -0.0770 -0.2263 -0.3922
 5943SOL    HW129291   0.008   0.087   7.930  0.7119  1.5899 -0.8801
 5943SOL    HW229292   0.029   0.131   7.791 -0.0538 -2.0415 -2.0413
 5944SOL     OW29293   3.110   4.552   0.574  0.1966 -0.2457 -0.5308
 5944SOL    HW129294   3.073   4.500   0.502 -1.8572 -2.5365  2.1807
 5944SOL    HW229295   3.203   4.551   0.552  0.1720 -0.9211 -0.5988
 5945SOL     OW29296   4.107   2.856  17.158 -0.4296 -0.3026  0.1319
 5945SOL    HW129297   4.102   2.767  17.123  0.9104 -0.3437  0.0537
 5945SOL    HW229298   4.091   2.915  17.085 -0.0116  0.8527  0.9652
 5946SOL     OW29299   3.373   0.529   7.348  0.0478  0.4967  0.4429
 5946SOL    HW129300   3.301   0.472   7.376 -0.5905 -0.1125 -2.4761
 5946SOL    HW229301   3.374   0.520   7.253 -1.9990 -0.6111  0.5232
 5947SOL     OW29302   3.804   3.979   9.537  0.2817  0.3168  0.1749
 5947SOL    HW129303   3.885   3.947   9.498 -0.7571 -0.8357 -1.0697
 5947SOL    HW229304   3.752   3.898   9.534  0.6415  0.0813  0.2371
 5948SOL     OW29305   3.204   2.239   2.576 -0.8210  0.3120  0.3328
 5948SOL    HW129306   3.235   2.330   2.578  0.1772  0.0115 -2.0554
 5948SOL    HW229307   3.269   2.202   2.636 -0.1412  1.3461  0.2351
 5949SOL     OW29308   3.924   2.071  14.811 -0.1561  0.1334  0.0077
 5949SOL    HW129309   3.951   2.060  14.719 -1.8562  0.4093 -0.5210
 5949SOL    HW229310   3.841   2.117  14.801 -0.6570 -0.6730  0.4723
 5950SOL     OW29311   0.099   1.862  16.424  0.3694 -0.3849 -0.1159
 5950SOL    HW129312   0.139   1.946  16.403 -2.2949  0.9371  0.1809
 5950SOL    HW229313   0.041   1.890  16.495 -0.2935 -1.0279 -0.4037
 5951SOL     OW29314   2.728   3.755  10.873  0.8937 -0.2178 -0.0513
 5951SOL    HW129315   2.815   3.719  10.892  0.9005  0.3837  1.0570
 5951SOL    HW229316   2.676   3.720  10.947  1.5607 -1.2739 -0.0764
 5952SOL     OW29317   1.434   3.626   9.308 -0.3321  0.2908 -0.0111
 5952SOL    HW129318   1.431   3.549   9.251 -1.0598 -0.4038  0.9480
 5952SOL    HW229319   1.342   3.647   9.299 -0.0603  1.3360 -0.3637
 5953SOL     OW29320   2.744   3.723   3.828  0.5989 -0.1293 -1.0361
 5953SOL    HW129321   2.831   3.747   3.796  1.1931 -0.6490  0.1925
 5953SOL    HW229322   2.748   3.629   3.808 -0.3639 -0.2091 -0.8291
 5954SOL     OW29323   2.578   1.367  12.810  0.0280  0.0244  0.2535
 5954SOL    HW129324   2.528   1.445  12.833 -1.3898 -0.9573  0.4688
 5954SOL    HW229325   2.507   1.304  12.800 -0.0058  0.1391 -0.2433
 5955SOL     OW29326   0.382   0.468   7.896  0.0835  0.3806 -0.2821
 5955SOL    HW129327   0.458   0.512   7.934 -0.9592 -0.5212  2.8535
 5955SOL    HW229328   0.318   0.538   7.904 -2.2809 -1.8387  0.0514
 5956SOL     OW29329   2.503   1.358   6.609  0.2846  0.1638  1.1383
 5956SOL    HW129330   2.440   1.429   6.609  0.8488  0.6517 -1.7859
 5956SOL    HW229331   2.451   1.296   6.661  2.6744 -1.9342  1.0785
 5957SOL     OW29332   3.424   4.043   1.460  0.0449 -0.1869  0.5188
 5957SOL    HW129333   3.511   4.009   1.483 -0.8137 -2.2516  0.7047
 5957SOL    HW229334   3.396   4.082   1.542  1.7652  1.2264  0.4489
 5958SOL     OW29335   1.958   0.771   5.568 -0.5037 -0.9001 -0.3652
 5958SOL    HW129336   1.962   0.785   5.663  1.3177  1.5377 -0.7752
 5958SOL    HW229337   1.916   0.854   5.545 -1.6739 -1.4151 -0.0317
 5959SOL     OW29338   1.689   3.396  10.343  0.0927  1.0414 -0.1320
 5959SOL    HW129339   1.639   3.470  10.309 -2.6390 -0.9213 -0.4873
 5959SOL    HW229340   1.642   3.321  10.305 -0.7955  0.8066  1.4088
 5960SOL     OW29341   2.017   2.285   6.633 -0.0582 -0.6704 -0.2342
 5960SOL    HW129342   2.012   2.303   6.539 -1.0720 -0.3414 -0.1182
 5960SOL    HW229343   1.932   2.241   6.646 -0.4333  0.7684  2.1106
 5961SOL     OW29344   0.257   4.397   8.205  0.0298 -0.2003 -0.1724
 5961SOL    HW129345   0.276   4.319   8.152 -1.9427  0.6740 -2.2092
 5961SOL    HW229346   0.224   4.443   8.127  3.3073  0.6791 -1.0369
 5962SOL     OW29347   1.982   3.864   4.851  0.2709 -0.4864  0.0198
 5962SOL    HW129348   2.001   3.817   4.770  0.8901  0.2230 -0.2451
 5962SOL    HW229349   2.057   3.842   4.906 -0.7089 -2.5216  0.5495
 5963SOL     OW29350   4.040   0.916   7.891  0.0556 -0.1492 -0.1053
 5963SOL    HW129351   4.026   0.823   7.874 -0.0117  0.5938 -4.2759
 5963SOL    HW229352   3.962   0.953   7.850  1.0875  2.1593  0.0330
 5964SOL     OW29353   1.167   3.488   8.154  0.6434  0.4205 -0.5829
 5964SOL    HW129354   1.261   3.486   8.133  1.3134 -1.6080  2.7385
 5964SOL    HW229355   1.170   3.538   8.235 -3.8406  1.0965 -0.8490
 5965SOL     OW29356   1.806   1.699  14.749 -0.3533 -0.0149  0.3561
 5965SOL    HW129357   1.755   1.677  14.826  0.8370  0.6435  1.3311
 5965SOL    HW229358   1.743   1.669  14.683 -0.2566  0.4064  0.0767
 5966SOL     OW29359   1.327   0.324   4.241  0.3817 -0.7576 -0.3132
 5966SOL    HW129360   1.347   0.233   4.219  2.4868 -0.4289  0.2674
 5966SOL    HW229361   1.399   0.371   4.199  1.3737 -1.6957  0.3622
 5967SOL     OW29362   2.191   3.951   1.041  0.1182 -0.2040 -0.5113
 5967SOL    HW129363   2.180   4.034   0.994  0.6236 -1.4141 -2.7709
 5967SOL    HW229364   2.206   3.979   1.131 -2.3816  0.2768 -0.2654
 5968SOL     OW29365   3.229   4.007   4.150 -0.0891  0.0524 -0.2496
 5968SOL    HW129366   3.196   4.093   4.123  3.0148  1.9037  1.8897
 5968SOL    HW229367   3.173   3.981   4.223  1.3090 -1.5905  0.2303
 5969SOL     OW29368   0.358   3.341  14.070 -0.1046 -0.2377  0.3300
 5969SOL    HW129369   0.358   3.246  14.059  0.3935 -0.1797 -0.1428
 5969SOL    HW229370   0.448   3.359  14.095 -0.4045 -0.0337  1.2751
 5970SOL     OW29371   2.645   2.042   4.786  0.1050  0.0886  0.7262
 5970SOL    HW129372   2.616   1.974   4.725 -3.8225  0.0608  2.6366
 5970SOL    HW229373   2.559   2.083   4.797 -0.0756  0.0131 -0.3968
 5971SOL     OW29374   0.244   3.046   4.258  0.2637 -0.3424 -0.1662
 5971SOL    HW129375   0.186   3.088   4.320  2.2033  3.1762 -0.7572
 5971SOL    HW229376   0.179   3.002   4.203  1.5910 -0.6285 -1.5414
 5972SOL     OW29377   4.490   0.281   1.999 -0.2399 -0.4670 -0.3002
 5972SOL    HW129378   4.585   0.294   1.990 -0.3924  0.0802 -1.1313
 5972SOL    HW229379   4.468   0.334   1.922 -0.8468  1.0465  0.9168
 5973SOL     OW29380   3.564   3.069   9.808  0.1755  0.3164 -0.5176
 5973SOL    HW129381   3.616   3.009   9.861  2.6695  1.9141 -1.1232
 5973SOL    HW229382   3.603   3.155   9.821  0.0883  0.3770 -0.6585
 5974SOL     OW29383   1.716   2.705   8.840  0.0133  0.0018 -0.2551
 5974SOL    HW129384   1.727   2.752   8.922 -0.4498  1.5745 -1.0892
 5974SOL    HW229385   1.660   2.634   8.871 -1.3398  0.1419 -2.3692
 5975SOL     OW29386   1.131   0.500   8.154  0.0093  0.2007 -0.3482
 5975SOL    HW129387   1.218   0.460   8.150 -0.0845 -0.3390  2.4165
 5975SOL    HW229388   1.103   0.469   8.241  1.7305  0.3659  0.2699
 5976SOL     OW29389   4.389   2.379   6.628  0.2918 -0.0098 -0.1500
 5976SOL    HW129390   4.370   2.437   6.554 -0.3908  0.7804  0.6448
 5976SOL    HW229391   4.307   2.402   6.671  0.3875  2.4192 -1.2528
 5977SOL     OW29392   0.634   3.108   0.885  0.0737  0.3063 -0.4935
 5977SOL    HW129393   0.666   3.198   0.874  0.5771  0.1595 -0.1987
 5977SOL    HW229394   0.541   3.130   0.881  0.1750  0.8328 -0.0528
 5978SOL     OW29395   3.552   1.697   5.049  0.0660 -0.1759 -0.2972
 5978SOL    HW129396   3.576   1.662   4.963  0.0741  2.4168 -1.3524
 5978SOL    HW229397   3.524   1.620   5.098 -0.6254  0.9834  1.1175
 5979SOL     OW29398   3.903   3.602   2.837 -0.1923 -0.5165  0.4431
 5979SOL    HW129399   3.893   3.544   2.913 -0.6786 -0.1579  0.6531
 5979SOL    HW229400   3.990   3.574   2.807  0.4426  1.2765  0.6088
 5980SOL     OW29401   4.003   3.824   4.480  0.7318  0.4006  0.2697
 5980SOL    HW129402   3.947   3.819   4.557  2.1846  0.2433  1.2961
 5980SOL    HW229403   4.088   3.811   4.521 -0.5154 -0.3106  2.6151
 5981SOL     OW29404   1.615   0.022   5.368 -0.5924 -0.2398  0.9370
 5981SOL    HW129405   1.621   4.721   5.275  2.4815  3.5510  0.1788
 5981SOL    HW229406   1.704   0.006   5.397  0.1503  1.0940 -0.6456
 5982SOL     OW29407   0.684   3.160   5.859 -0.4809  0.2388 -0.5971
 5982SOL    HW129408   0.664   3.123   5.773 -0.3430 -0.7542 -0.1994
 5982SOL    HW229409   0.694   3.253   5.838  0.4199  0.2286 -0.2051
 5983SOL     OW29410   4.432   1.057  11.964  0.1583 -0.6831  0.2628
 5983SOL    HW129411   4.343   1.047  11.932  0.0897 -1.1998  0.6164
 5983SOL    HW229412   4.460   1.124  11.902 -0.7110 -0.0985  0.4938
 5984SOL     OW29413   3.401   2.042   4.438 -0.3247  0.3941  0.1780
 5984SOL    HW129414   3.488   2.008   4.462 -0.1592  0.7333  0.0583
 5984SOL    HW229415   3.400   2.012   4.347  0.5440 -1.3248  0.7364
 5985SOL     OW29416   3.996   2.720  15.863 -0.6903 -0.1806 -0.1132
 5985SOL    HW129417   3.993   2.765  15.778  0.5830 -1.5538 -0.9027
 5985SOL    HW229418   4.025   2.795  15.914 -1.8356 -0.4805  0.9801
 5986SOL     OW29419   0.368   1.839   9.929  0.1082 -0.6633  0.8511
 5986SOL    HW129420   0.355   1.809  10.018  1.6639 -2.3640  0.4876
 5986SOL    HW229421   0.463   1.834   9.919 -0.1083 -2.1082 -0.5938
 5987SOL     OW29422   3.744   4.039  11.182  0.2429 -0.6913 -0.0145
 5987SOL    HW129423   3.794   3.958  11.191 -0.7219 -1.3844 -0.8554
 5987SOL    HW229424   3.782   4.089  11.254  2.8134 -0.2475 -1.6723
 5988SOL     OW29425   1.187   2.069   9.206 -0.1843  0.1435  0.2017
 5988SOL    HW129426   1.238   2.105   9.278 -0.0714  0.5188 -0.0641
 5988SOL    HW229427   1.194   1.975   9.222  0.6650  0.2632  0.5244
 5989SOL     OW29428   3.366   3.365   3.063 -0.3286 -0.6987  0.1689
 5989SOL    HW129429   3.415   3.359   2.981  2.0212  2.1109  1.4043
 5989SOL    HW229430   3.372   3.269   3.067  1.6657 -0.6180 -0.9582
 5990SOL     OW29431   3.253   4.379  15.381 -0.2600 -0.1977  0.0753
 5990SOL    HW129432   3.209   4.324  15.315 -1.7503  1.5738 -0.4135
 5990SOL    HW229433   3.313   4.413  15.316 -1.4606  2.2251  0.2483
 5991SOL     OW29434   2.064   4.046   8.265  0.0789  0.0390  0.0579
 5991SOL    HW129435   2.038   3.954   8.264  0.3332  0.0521 -4.6536
 5991SOL    HW229436   2.127   4.060   8.336 -0.4797 -2.6001  1.0618
 5992SOL     OW29437   1.267   0.937  14.251  0.0070 -0.3875 -0.0975
 5992SOL    HW129438   1.243   1.022  14.214  2.3363  0.9508  1.4351
 5992SOL    HW229439   1.262   0.877  14.177  0.9059  0.2089 -0.6420
 5993SOL     OW29440   1.164   3.510   5.518 -0.0140  0.2985  0.7522
 5993SOL    HW129441   1.122   3.589   5.552  0.0675  0.0319  1.4640
 5993SOL    HW229442   1.169   3.514   5.422  0.7265  3.2892  0.8980
 5994SOL     OW29443   2.522   0.839   8.311 -0.0888 -0.4715  0.1790
 5994SOL    HW129444   2.458   0.809   8.247  2.2787 -0.9808 -1.9575
 5994SOL    HW229445   2.526   0.769   8.376 -0.5667  0.4120  1.1527
 5995SOL     OW29446   2.775   3.738   3.148 -0.2202  0.3540 -0.8855
 5995SOL    HW129447   2.772   3.689   3.066  0.5688 -1.8064  0.3977
 5995SOL    HW229448   2.860   3.781   3.141 -1.2968  2.3687 -1.8053
 5996SOL     OW29449   2.966   2.462   6.772 -0.2524  0.0078 -0.0623
 5996SOL    HW129450   2.979   2.557   6.777  1.8593 -0.1714 -2.1995
 5996SOL    HW229451   3.048   2.441   6.727 -0.9708 -1.3201 -0.7168
 5997SOL     OW29452   4.674   4.559   3.839 -0.5449  0.1260  0.4316
 5997SOL    HW129453   4.619   4.597   3.771  0.1625  1.5371  0.6578
 5997SOL    HW229454   4.614   4.495   3.878 -1.1972  0.7494  0.4416
 5998SOL     OW29455   3.585   0.709   4.723 -0.4017 -0.0037  1.1117
 5998SOL    HW129456   3.665   0.730   4.772  0.6143  2.0765 -1.4676
 5998SOL    HW229457   3.624   0.709   4.636 -2.9384 -0.1216 -0.0036
 5999SOL     OW29458   4.297   0.077  16.252 -0.2155  0.4639 -0.4044
 5999SOL    HW129459   4.285   0.085  16.157 -1.3446  1.0248 -0.2132
 5999SOL    HW229460   4.250   0.158  16.272  2.5176  2.0353 -0.3267
 6000SOL     OW29461   0.303   1.526   9.968  0.5584 -0.0969 -0.3401
 6000SOL    HW129462   0.387   1.516  10.013 -0.5323 -1.3068  1.4273
 6000SOL    HW229463   0.324   1.534   9.875 -0.2375 -1.6608 -0.6543
 6001SOL     OW29464   1.440   3.057   4.585 -0.1755 -0.5420  0.0178
 6001SOL    HW129465   1.475   3.069   4.497 -1.5131  0.6259 -0.3555
 6001SOL    HW229466   1.367   3.118   4.577 -0.9564 -1.4766  0.0598
 6002SOL     OW29467   1.896   0.925  16.750  0.1546 -0.0773  0.3324
 6002SOL    HW129468   1.952   0.885  16.684 -1.1285 -1.7899  0.3009
 6002SOL    HW229469   1.819   0.958  16.704 -0.2345 -1.2381  0.1606
 6003SOL     OW29470   3.901   0.278   0.785  0.8860  0.1438  0.2308
 6003SOL    HW129471   3.979   0.333   0.774 -1.9360  4.1087  0.2724
 6003SOL    HW229472   3.837   0.314   0.725 -0.8680 -0.5304  1.7146
 6004SOL     OW29473   3.474   1.173   2.489  0.0065  0.1316 -0.6990
 6004SOL    HW129474   3.474   1.079   2.470  1.2638  0.0985 -0.5587
 6004SOL    HW229475   3.383   1.187   2.464 -0.9356  0.4994  2.9671
 6005SOL     OW29476   4.022   3.915  10.441  0.0892 -0.1883  0.1512
 6005SOL    HW129477   4.030   4.004  10.406  0.9752 -0.9150 -1.4915
 6005SOL    HW229478   4.029   3.871  10.356  1.0348 -0.5723  0.4242
 6006SOL     OW29479   0.664   0.250  10.611  0.9745  0.3500 -0.1083
 6006SOL    HW129480   0.656   0.180  10.547  0.5953  0.8602 -0.6263
 6006SOL    HW229481   0.679   0.202  10.692 -1.2103 -0.9012 -0.4534
 6007SOL     OW29482   2.228   3.976   0.036 -0.2085 -0.7090 -0.0141
 6007SOL    HW129483   2.241   3.882   0.021 -2.5853 -1.0023 -0.2184
 6007SOL    HW229484   2.269   4.003  17.647 -0.6910  3.3929  1.1378
 6008SOL     OW29485   0.150   1.557   8.210 -0.4165 -0.3280 -0.3409
 6008SOL    HW129486   0.196   1.627   8.254 -1.3601 -1.0316  1.7483
 6008SOL    HW229487   0.137   1.610   8.131  0.8148  1.3784  0.6237
 6009SOL     OW29488   4.443   1.788   2.721 -0.5567 -0.1611  0.1793
 6009SOL    HW129489   4.496   1.743   2.787 -1.0101  0.0824  0.7121
 6009SOL    HW229490   4.362   1.737   2.721  0.1097 -1.2201  0.3538
 6010SOL     OW29491   4.236   3.737  17.665 -0.1954 -0.1035  0.0049
 6010SOL    HW129492   4.219   3.656   0.020 -0.5874  0.6937  1.2122
 6010SOL    HW229493   4.270   3.783   0.048  1.9003 -1.9753  0.1713
 6011SOL     OW29494   0.321   3.376  10.805 -0.1182  0.8270 -0.0328
 6011SOL    HW129495   0.296   3.413  10.720 -0.3457 -1.2266 -0.8758
 6011SOL    HW229496   0.294   3.284  10.803 -1.4434  1.2001  1.1388
 6012SOL     OW29497   3.226   0.785   9.169  0.9936  0.3362  0.4349
 6012SOL    HW129498   3.205   0.871   9.133 -0.7264 -0.3047 -0.0691
 6012SOL    HW229499   3.186   0.798   9.255  0.7032 -2.9524  0.8064
 6013SOL     OW29500   2.866   3.717  11.979  0.1104 -0.0954 -0.2904
 6013SOL    HW129501   2.880   3.649  12.045 -0.0720 -2.4258 -2.6110
 6013SOL    HW229502   2.939   3.772  12.007 -0.3160  1.0728 -1.4649
 6014SOL     OW29503   2.818   2.855  16.135 -0.4906 -0.8322 -0.1334
 6014SOL    HW129504   2.726   2.859  16.110 -0.8073 -2.2071  0.8122
 6014SOL    HW229505   2.820   2.792  16.207  0.6796 -0.6197  0.0136
 6015SOL     OW29506   3.471   1.199  10.088 -0.2861  0.0851 -0.2436
 6015SOL    HW129507   3.522   1.187  10.007 -0.9193 -0.5291 -0.5524
 6015SOL    HW229508   3.527   1.143  10.142 -1.7809  0.5126  1.7310
 6016SOL     OW29509   1.542   3.634   4.092  0.2687 -0.3184  0.3180
 6016SOL    HW129510   1.564   3.541   4.079  0.9046  0.0766 -1.5495
 6016SOL    HW229511   1.565   3.651   4.000  0.0358  1.3297  0.5757
 6017SOL     OW29512   3.652   3.950   3.803 -0.1711  0.6371  0.4104
 6017SOL    HW129513   3.715   3.941   3.875 -0.4798 -1.4231  0.4210
 6017SOL    HW229514   3.613   4.034   3.827  0.2386  0.2745  2.2941
 6018SOL     OW29515   2.076   0.171   1.853 -0.2841 -0.6173 -0.0035
 6018SOL    HW129516   1.994   0.180   1.804 -0.8658 -0.0670  1.0544
 6018SOL    HW229517   2.080   0.262   1.883 -1.3273 -1.6414  3.2785
 6019SOL     OW29518   4.653   0.369  12.527 -0.1981 -0.4035  0.4951
 6019SOL    HW129519   4.654   0.351  12.621 -0.5438  1.7234  0.9064
 6019SOL    HW229520   4.565   0.341  12.504 -0.7709  0.3674  1.7612
 6020SOL     OW29521   3.624   1.309   4.848 -0.0080  0.0601  0.1186
 6020SOL    HW129522   3.671   1.344   4.924  1.0593  0.8993 -0.9366
 6020SOL    HW229523   3.630   1.386   4.791 -0.1263 -1.7679 -2.3532
 6021SOL     OW29524   0.813   1.206   5.671 -0.0480 -0.5406 -0.1691
 6021SOL    HW129525   0.894   1.189   5.622  1.3133  0.7758  1.5941
 6021SOL    HW229526   0.766   1.230   5.591  0.9829  2.7334  0.1861
 6022SOL     OW29527   0.785   2.032   2.392 -0.0573 -0.3004 -0.1132
 6022SOL    HW129528   0.724   2.076   2.334  1.0267  0.0388 -0.9872
 6022SOL    HW229529   0.722   1.995   2.454  0.8276  0.1429  1.0534
 6023SOL     OW29530   1.786   1.120   6.290 -0.4321  0.8086  0.1593
 6023SOL    HW129531   1.793   1.211   6.264 -2.5821  1.0221  0.3100
 6023SOL    HW229532   1.814   1.127   6.382  1.2104  0.2643 -0.2846
 6024SOL     OW29533   0.254   0.292   0.624 -0.2255  0.3484 -0.0024
 6024SOL    HW129534   0.270   0.299   0.530  0.7319 -0.4787  0.0982
 6024SOL    HW229535   0.264   0.385   0.643  2.5555 -0.2403  1.4951
 6025SOL     OW29536   1.479   1.676   3.887 -0.0724 -0.2936  0.3636
 6025SOL    HW129537   1.552   1.734   3.865  0.0887 -0.6998 -0.1591
 6025SOL    HW229538   1.503   1.596   3.841 -0.9476  1.1941 -2.6615
 6026SOL     OW29539   4.307   2.763  17.663  0.2411 -0.3146 -0.5856
 6026SOL    HW129540   4.252   2.841  17.676  1.0886 -0.4688  3.8594
 6026SOL    HW229541   4.307   2.732   0.060 -1.1073  1.6183  0.0798
 6027SOL     OW29542   3.736   2.772  10.137  0.0085  0.5201 -0.3675
 6027SOL    HW129543   3.792   2.778  10.214 -3.1719  2.9719  1.7430
 6027SOL    HW229544   3.683   2.849  10.158  0.4320  0.6846  0.0773
 6028SOL     OW29545   3.093   1.185   4.375 -0.0895 -0.2276  0.1649
 6028SOL    HW129546   3.035   1.116   4.407 -0.2077  0.6064  1.7328
 6028SOL    HW229547   3.120   1.146   4.292 -0.3014  0.9892 -0.4658
 6029SOL     OW29548   1.993   4.262   9.347 -0.1534  0.0164 -0.8047
 6029SOL    HW129549   2.005   4.256   9.442  2.5502 -0.2307 -1.1723
 6029SOL    HW229550   2.019   4.182   9.302 -0.9993 -0.2409 -0.8425
 6030SOL     OW29551   0.778   0.012  14.061  0.2258 -0.0029 -0.4882
 6030SOL    HW129552   0.817   0.099  14.059  0.0470  0.1636  2.2248
 6030SOL    HW229553   0.718   0.028  14.134  0.3155 -1.8506  0.0003
 6031SOL     OW29554   0.291   3.230   8.374 -0.0650 -0.4878  0.5881
 6031SOL    HW129555   0.365   3.172   8.359 -0.1252  0.0050 -1.5705
 6031SOL    HW229556   0.237   3.217   8.296 -0.5611  0.1420  0.8262
 6032SOL     OW29557   2.915   1.966  17.508 -0.2338  0.2108  0.2857
 6032SOL    HW129558   2.919   1.871  17.503 -2.5672  0.0891  0.4031
 6032SOL    HW229559   2.921   1.982  17.602 -2.4289 -0.9224  0.6209
 6033SOL     OW29560   3.459   1.206   9.381  0.2525  0.1078  0.0237
 6033SOL    HW129561   3.533   1.220   9.322 -0.6047  1.6466 -0.7055
 6033SOL    HW229562   3.491   1.263   9.452  4.0189 -0.6341 -1.0488
 6034SOL     OW29563   1.568   4.295   2.235 -0.1619  0.1082 -0.3929
 6034SOL    HW129564   1.498   4.282   2.298 -0.9569  1.1748 -1.0475
 6034SOL    HW229565   1.607   4.210   2.215 -1.8379 -0.5361 -0.9189
 6035SOL     OW29566   4.485   1.332  15.473 -0.0227  0.3225  0.1633
 6035SOL    HW129567   4.528   1.415  15.452  0.0469  0.6286  1.4729
 6035SOL    HW229568   4.554   1.273  15.503 -2.0975 -2.7053 -0.9607
 6036SOL     OW29569   1.956   2.822   8.431 -0.1675  0.5887  0.3430
 6036SOL    HW129570   1.890   2.811   8.500  0.6372  0.3339  1.0698
 6036SOL    HW229571   1.918   2.783   8.352 -0.9255 -0.2155  1.0984
 6037SOL     OW29572   4.124   1.284  13.901  0.5191  0.1308 -0.0760
 6037SOL    HW129573   4.171   1.303  13.820 -0.0441 -0.2794 -0.4986
 6037SOL    HW229574   4.083   1.368  13.922 -1.0288 -0.3686 -1.1715
 6038SOL     OW29575   1.929   0.536   2.771  0.4749  0.0073  0.0674
 6038SOL    HW129576   1.983   0.464   2.803  0.5104 -0.5887 -1.3198
 6038SOL    HW229577   1.981   0.569   2.698 -1.2732  1.2969 -0.6025
 6039SOL     OW29578   0.093   0.858   1.623  0.0726 -0.0852 -0.0005
 6039SOL    HW129579   0.151   0.911   1.570 -0.6756  2.4378  1.7224
 6039SOL    HW229580   0.046   0.921   1.678  0.6499 -0.6757  1.1854
 6040SOL     OW29581   1.288   3.108  11.066  0.3865 -0.1779  0.7208
 6040SOL    HW129582   1.360   3.145  11.117  0.3960 -0.7328  1.1141
 6040SOL    HW229583   1.227   3.180  11.077  0.4625 -0.0783  0.4799
 6041SOL     OW29584   3.457   3.475   3.293 -0.5576 -0.2884  0.4011
 6041SOL    HW129585   3.445   3.569   3.284 -1.1041 -0.3232  0.8181
 6041SOL    HW229586   3.441   3.440   3.205 -0.8060  0.3745  0.1790
 6042SOL     OW29587   1.011   0.169   8.770 -0.4388  0.2158  0.1927
 6042SOL    HW129588   1.063   0.167   8.850 -0.1295  0.4918 -0.0013
 6042SOL    HW229589   1.019   0.075   8.754  1.6148  0.0165  2.3806
 6043SOL     OW29590   2.843   3.452   3.763 -0.1892  0.4277  0.5803
 6043SOL    HW129591   2.918   3.392   3.771  0.3522  0.6387 -2.9120
 6043SOL    HW229592   2.823   3.449   3.669  1.2974  1.2633  0.2437
 6044SOL     OW29593   1.815   4.381   6.721  0.4893  0.0684  0.4033
 6044SOL    HW129594   1.793   4.312   6.783 -1.8540 -0.2379 -0.7563
 6044SOL    HW229595   1.894   4.420   6.758 -0.0337  0.0161  1.5753
 6045SOL     OW29596   1.334   3.249  15.549  0.1116 -0.5626  0.1417
 6045SOL    HW129597   1.268   3.230  15.616 -0.1502 -0.5675 -0.1176
 6045SOL    HW229598   1.341   3.344  15.544  0.2014 -0.4394  2.2928
 6046SOL     OW29599   1.309   1.391  10.034 -0.1031  0.6575  0.5643
 6046SOL    HW129600   1.286   1.298  10.024 -1.0818  0.9868 -0.1769
 6046SOL    HW229601   1.308   1.407  10.129  2.1719 -1.5258  0.9851
 6047SOL     OW29602   1.222   0.319  15.104  0.0894 -0.0885 -0.1450
 6047SOL    HW129603   1.241   0.395  15.159 -0.4441  1.0795 -1.5958
 6047SOL    HW229604   1.306   0.278  15.086  0.5172  1.0354 -0.6792
 6048SOL     OW29605   2.295   1.358   6.853  0.0646 -0.4622  0.0667
 6048SOL    HW129606   2.311   1.278   6.804 -1.4114 -0.1800 -0.8809
 6048SOL    HW229607   2.383   1.383   6.880  0.5425 -0.8895 -1.1301
 6049SOL     OW29608   4.115   4.232  10.717 -0.7035  0.0218  0.0667
 6049SOL    HW129609   4.150   4.272  10.637 -1.4168  0.8244  0.1406
 6049SOL    HW229610   4.023   4.222  10.693 -0.1146  0.4707 -2.3085
 6050SOL     OW29611   2.322   0.837  11.121  0.2114 -0.3189 -0.1095
 6050SOL    HW129612   2.332   0.920  11.076  0.4746 -0.6331 -0.6353
 6050SOL    HW229613   2.293   0.865  11.208 -0.5535 -2.4913  0.3373
 6051SOL     OW29614   1.910   0.708   6.340  0.5097 -0.2540  0.0937
 6051SOL    HW129615   1.838   0.730   6.281 -0.9880 -2.3871  1.0949
 6051SOL    HW229616   1.986   0.709   6.281 -1.1039 -1.2100 -2.0135
 6052SOL     OW29617   2.015   0.878   6.599 -0.1982 -0.5105  0.1715
 6052SOL    HW129618   2.001   0.959   6.549  0.7595 -0.5276 -0.1321
 6052SOL    HW229619   1.951   0.821   6.556  0.1589 -0.4032 -0.5142
 6053SOL     OW29620   2.409   1.538   1.433 -0.0337  0.2452 -1.0068
 6053SOL    HW129621   2.389   1.459   1.485 -0.6696  0.7419 -0.4928
 6053SOL    HW229622   2.319   1.553   1.402 -0.6430  0.3235  0.7818
 6054SOL     OW29623   4.321   2.592   4.470  0.1344 -0.2082 -0.0944
 6054SOL    HW129624   4.399   2.601   4.525  0.3731 -0.8981 -0.3147
 6054SOL    HW229625   4.350   2.514   4.422  0.1625 -0.2909  0.0551
 6055SOL     OW29626   3.847   0.456   3.889 -0.2598 -1.2783 -0.2513
 6055SOL    HW129627   3.939   0.485   3.888 -1.0686  1.2735  1.5724
 6055SOL    HW229628   3.852   0.407   3.807  1.1961  0.0960 -0.9941
 6056SOL     OW29629   2.308   2.986   4.928  0.0640 -0.2612  0.2421
 6056SOL    HW129630   2.385   2.935   4.953  1.4604  0.4824 -2.6090
 6056SOL    HW229631   2.336   3.002   4.838 -1.5406  0.3782 -0.1307
 6057SOL     OW29632   2.302   0.636   2.915  0.2313  0.4062  0.1077
 6057SOL    HW129633   2.392   0.665   2.900 -0.2583  3.1677  2.3844
 6057SOL    HW229634   2.320   0.545   2.937 -0.6777 -0.0568 -1.1261
 6058SOL     OW29635   3.984   1.881   8.419 -0.1655  0.3206  0.0463
 6058SOL    HW129636   4.033   1.877   8.337  0.3605 -1.1250  0.4380
 6058SOL    HW229637   4.052   1.861   8.483 -0.6551 -1.4422  0.0125
 6059SOL     OW29638   3.633   3.104   9.532  0.0771  0.0625 -0.2220
 6059SOL    HW129639   3.606   3.030   9.477  1.4429  0.2613 -1.1587
 6059SOL    HW229640   3.598   3.066   9.613 -2.3060  1.0935 -0.7613
 6060SOL     OW29641   0.492   4.651  15.149 -0.7262  0.1475 -0.1858
 6060SOL    HW129642   0.542   4.578  15.112 -0.9161  0.7103 -1.5795
 6060SOL    HW229643   0.543   4.681  15.224 -0.3264  0.7193 -0.6897
 6061SOL     OW29644   2.259   1.295   8.067 -0.1310  0.7668  0.0218
 6061SOL    HW129645   2.322   1.359   8.034  0.7734  0.7141  1.6756
 6061SOL    HW229646   2.303   1.215   8.038 -0.4460  0.8016 -0.5653
 6062SOL     OW29647   2.581   3.399   8.998  0.1492  0.0144  0.6883
 6062SOL    HW129648   2.647   3.340   9.036  1.6859  1.1612 -0.1741
 6062SOL    HW229649   2.603   3.401   8.905  0.0742  0.4903  0.6826
 6063SOL     OW29650   2.938   1.204   6.334  0.1182  0.5708  0.5142
 6063SOL    HW129651   3.004   1.273   6.344  0.0173  0.6638  0.5335
 6063SOL    HW229652   2.880   1.237   6.402 -2.3975 -3.0654  0.1741
 6064SOL     OW29653   4.572   1.556  17.390 -0.5398 -0.3590  0.3884
 6064SOL    HW129654   4.584   1.577  17.482  1.0660  1.2640 -0.1997
 6064SOL    HW229655   4.583   1.462  17.376 -2.8042 -0.5926  0.1327
 6065SOL     OW29656   4.580   0.952  16.695  0.2466  0.3079 -0.0489
 6065SOL    HW129657   4.533   0.936  16.777 -0.2859 -0.7388 -0.5605
 6065SOL    HW229658   4.555   0.878  16.639 -0.0941  0.1456  0.3143
 6066SOL     OW29659   0.629   0.758   1.423 -0.2409 -0.1020  0.0281
 6066SOL    HW129660   0.715   0.749   1.464 -0.3186  1.6128  0.5502
 6066SOL    HW229661   0.575   0.726   1.495  0.3138 -0.6214  0.2110
 6067SOL     OW29662   1.143   2.672  15.164 -0.0944  0.0975 -0.3940
 6067SOL    HW129663   1.202   2.659  15.090 -0.9962 -0.6976 -0.9647
 6067SOL    HW229664   1.140   2.579  15.186 -3.2948 -0.0844 -1.6698
 6068SOL     OW29665   2.690   2.211   0.491 -0.7752  0.3830 -0.2579
 6068SOL    HW129666   2.700   2.300   0.526 -1.3466 -0.3525  1.8025
 6068SOL    HW229667   2.599   2.222   0.464 -0.9434 -1.2830 -0.3877
 6069SOL     OW29668   3.625   2.129   2.931 -0.3261 -0.4371  0.7647
 6069SOL    HW129669   3.559   2.135   2.862  0.3101  1.2634  0.3139
 6069SOL    HW229670   3.619   2.040   2.968  0.3792 -1.3088 -1.2039
 6070SOL     OW29671   4.242   1.671   8.433  0.3747 -0.1392 -0.3432
 6070SOL    HW129672   4.186   1.606   8.391 -2.4811  0.7529  2.0859
 6070SOL    HW229673   4.250   1.617   8.512 -1.6245  1.2580  0.8132
 6071SOL     OW29674   3.982   1.169   9.068 -0.4865  0.1084 -0.5337
 6071SOL    HW129675   3.991   1.150   9.161 -0.7339 -2.2707 -0.9775
 6071SOL    HW229676   3.967   1.263   9.066  0.4033  0.2610 -0.1230
 6072SOL     OW29677   0.433   1.416  13.160 -0.4780 -0.2426  0.6712
 6072SOL    HW129678   0.369   1.356  13.122  0.1710 -0.4186 -0.1402
 6072SOL    HW229679   0.449   1.478  13.089 -0.8763 -0.6457  0.2197
 6073SOL     OW29680   2.599   2.706   7.101 -0.4387 -0.2740  0.4890
 6073SOL    HW129681   2.584   2.720   7.007 -2.4560  1.5998  1.0754
 6073SOL    HW229682   2.596   2.793   7.141  0.1754 -0.0408  0.0420
 6074SOL     OW29683   2.143   1.847  17.640  0.2025  0.0129  0.3397
 6074SOL    HW129684   2.238   1.847  17.631 -0.0048 -1.7578 -1.8521
 6074SOL    HW229685   2.135   1.790   0.024  0.0956 -0.0918  0.2518
 6075SOL     OW29686   0.117   0.251   4.318 -0.4441 -0.7957  0.4223
 6075SOL    HW129687   0.043   0.291   4.273  1.5441 -0.2559 -2.3525
 6075SOL    HW229688   0.107   0.274   4.410  1.5573 -0.8477  0.6427
 6076SOL     OW29689   2.311   4.438  11.348  0.0994  0.2946  0.1038
 6076SOL    HW129690   2.262   4.477  11.420 -0.9911  1.8124 -1.4741
 6076SOL    HW229691   2.391   4.412  11.395  0.4161  3.1028  1.0699
 6077SOL     OW29692   4.430   3.823   4.916  0.2984  0.2018  0.1072
 6077SOL    HW129693   4.506   3.852   4.865  0.2395 -2.5327 -1.5623
 6077SOL    HW229694   4.377   3.779   4.849  0.2945  0.6657 -0.1951
 6078SOL     OW29695   1.348   0.176   7.872 -0.2680 -0.8507  0.0587
 6078SOL    HW129696   1.367   0.156   7.964  1.9149 -1.6590 -0.5568
 6078SOL    HW229697   1.438   0.159   7.844 -0.1980 -1.2143  0.4966
 6079SOL     OW29698   0.549   4.041  11.315  0.1084 -0.1167 -0.7106
 6079SOL    HW129699   0.615   3.997  11.261 -0.4340 -2.9539  0.8955
 6079SOL    HW229700   0.572   4.029  11.407 -0.7941 -0.0937 -0.4737
 6080SOL     OW29701   1.882   2.585   6.786  0.0167  0.2543  0.3887
 6080SOL    HW129702   1.945   2.646   6.749  1.3942 -1.3751  0.0465
 6080SOL    HW229703   1.821   2.652   6.819 -1.2601 -0.8651  0.3185
 6081SOL     OW29704   1.241   3.943  10.611  0.0648 -0.4886  0.0035
 6081SOL    HW129705   1.218   3.850  10.604 -3.8651  0.3547  1.5856
 6081SOL    HW229706   1.217   3.979  10.526  1.0183 -1.1155 -0.5328
 6082SOL     OW29707   2.770   0.305   7.419 -0.0237 -0.0300  0.5270
 6082SOL    HW129708   2.812   0.341   7.498 -0.4244  0.8368  0.3397
 6082SOL    HW229709   2.676   0.321   7.427 -0.1636  0.2642 -1.7258
 6083SOL     OW29710   4.224   4.171   4.224 -0.9037  0.3902  0.2801
 6083SOL    HW129711   4.286   4.243   4.236  1.2486 -1.3906 -0.2976
 6083SOL    HW229712   4.238   4.134   4.311 -1.2588  0.7683  0.5009
 6084SOL     OW29713   4.067   3.767   3.048 -0.2838  0.4242  0.1086
 6084SOL    HW129714   4.132   3.705   3.016 -0.4790  0.6887 -0.7989
 6084SOL    HW229715   3.993   3.708   3.064 -0.5693  0.7025 -0.1968
 6085SOL     OW29716   2.848   3.994   6.490  0.0413 -0.1065  0.4189
 6085SOL    HW129717   2.807   3.910   6.512 -1.8733  0.4994 -0.8250
 6085SOL    HW229718   2.849   4.028   6.580 -1.7452 -1.3632  0.9269
 6086SOL     OW29719   2.993   1.375   5.931  0.1998  0.1934 -0.0801
 6086SOL    HW129720   3.081   1.376   5.970  1.1510 -1.6684 -2.1879
 6086SOL    HW229721   2.941   1.412   6.002 -2.0413 -1.1446 -1.0525
 6087SOL     OW29722   1.267   0.721  11.897 -0.4372 -0.1293 -0.2541
 6087SOL    HW129723   1.348   0.679  11.866 -0.8760 -1.6290  0.6424
 6087SOL    HW229724   1.245   0.784  11.829  1.2291 -0.0146 -0.6774
 6088SOL     OW29725   0.830   1.385   7.899  0.0247  0.5245 -0.8844
 6088SOL    HW129726   0.920   1.395   7.930 -0.1396 -1.4788  0.2230
 6088SOL    HW229727   0.829   1.446   7.825 -1.2793 -0.0730 -1.3728
 6089SOL     OW29728   2.065   0.086  15.561 -0.2307  0.3132  0.6241
 6089SOL    HW129729   2.145   0.070  15.610 -0.3021 -0.8678  0.3426
 6089SOL    HW229730   2.045   0.001  15.522  0.8053  0.5743 -0.4428
 6090SOL     OW29731   2.067   3.375   2.918 -0.0891 -0.6246 -0.1318
 6090SOL    HW129732   1.978   3.409   2.903 -0.1391  0.2235  2.0430
 6090SOL    HW229733   2.082   3.344   2.828 -2.3287  1.2214 -1.1736
 6091SOL     OW29734   1.796   1.648   2.425 -0.4411 -0.0084 -0.4600
 6091SOL    HW129735   1.879   1.603   2.442  0.5179  1.5493 -0.9253
 6091SOL    HW229736   1.792   1.635   2.330 -0.0075  0.2469 -0.5122
 6092SOL     OW29737   1.638   3.990  12.263 -0.0345 -0.3954  0.0458
 6092SOL    HW129738   1.683   4.071  12.238 -1.8032 -0.6225 -3.9116
 6092SOL    HW229739   1.613   3.957  12.177 -1.3217  2.1204 -0.5448
 6093SOL     OW29740   3.862   1.189  10.505  0.0829  0.2584  0.4636
 6093SOL    HW129741   3.818   1.262  10.462 -1.1043 -0.9627 -0.4040
 6093SOL    HW229742   3.951   1.220  10.522  0.7588 -0.2447 -2.0107
 6094SOL     OW29743   3.473   4.325   1.522 -0.1598 -0.2929 -0.7099
 6094SOL    HW129744   3.445   4.251   1.467  1.8879 -0.4038 -1.5976
 6094SOL    HW229745   3.494   4.282   1.605  0.1594  0.7876 -0.2350
 6095SOL     OW29746   4.566   1.002   4.781 -0.6263  0.0123 -0.7033
 6095SOL    HW129747   4.476   1.022   4.804 -1.0340 -0.9966 -1.4108
 6095SOL    HW229748   4.602   1.039   4.861 -1.5965  1.0308 -0.7413
 6096SOL     OW29749   1.994   2.041   1.955  0.0015  0.6579  0.1927
 6096SOL    HW129750   1.990   1.998   1.870 -1.8617  0.8439  0.1848
 6096SOL    HW229751   1.934   1.976   1.992 -0.5537  0.1931 -1.5065
 6097SOL     OW29752   1.360   1.547   6.588 -0.0608 -0.7753  0.2139
 6097SOL    HW129753   1.452   1.558   6.612  0.6787 -2.2915 -1.8777
 6097SOL    HW229754   1.355   1.466   6.538 -0.3848 -2.1435  2.4776
 6098SOL     OW29755   0.295   1.898  16.890  0.0996 -0.3656  0.4027
 6098SOL    HW129756   0.281   1.992  16.887  1.5408 -0.1915 -0.5469
 6098SOL    HW229757   0.388   1.895  16.913  0.3823 -0.1606 -0.7121
 6099SOL     OW29758   0.201   3.795   5.276 -0.2037  0.0401 -0.1222
 6099SOL    HW129759   0.115   3.806   5.236 -0.6261 -0.8181  0.5553
 6099SOL    HW229760   0.178   3.793   5.369 -2.5333  0.4839 -0.6810
 6100SOL     OW29761   0.967   4.352   8.017 -0.1191 -0.1437  0.1882
 6100SOL    HW129762   0.956   4.438   7.975 -2.3305 -1.7146 -2.4552
 6100SOL    HW229763   0.919   4.303   7.951  0.3231 -2.3045  1.4534
 6101SOL     OW29764   2.660   4.656   6.797 -0.1496  0.1066  0.1601
 6101SOL    HW129765   2.682   4.565   6.818 -0.0537  0.2939  0.8604
 6101SOL    HW229766   2.665   4.688   6.887  0.9845  2.8558 -0.8843
 6102SOL     OW29767   0.780   4.522   2.840  0.5593  0.1353  0.4233
 6102SOL    HW129768   0.835   4.444   2.838  0.3066 -0.0560  0.9572
 6102SOL    HW229769   0.775   4.535   2.935 -2.4026  0.5246  0.2043
 6103SOL     OW29770   0.148   4.593   7.496 -0.2870  0.1983  0.5579
 6103SOL    HW129771   0.240   4.571   7.482 -0.6494 -0.9957  0.0544
 6103SOL    HW229772   0.158   4.658   7.565 -3.1637  2.2668 -0.9506
 6104SOL     OW29773   1.330   1.857  12.392 -0.1143 -0.2430  0.0551
 6104SOL    HW129774   1.337   1.878  12.485 -1.5208  1.7027 -0.2729
 6104SOL    HW229775   1.339   1.762  12.394 -1.0937 -0.3276  0.4487
 6105SOL     OW29776   0.617   4.234  11.994 -0.1743 -0.0539 -0.4028
 6105SOL    HW129777   0.693   4.272  12.038 -1.1407  1.5637 -0.1505
 6105SOL    HW229778   0.655   4.158  11.950 -1.8109 -2.2106  1.8732
 6106SOL     OW29779   0.471   4.519   6.551 -0.5666 -0.0402  0.0784
 6106SOL    HW129780   0.484   4.453   6.619  0.1872 -2.2382 -2.2556
 6106SOL    HW229781   0.460   4.594   6.610  0.5407 -0.9201  1.4123
 6107SOL     OW29782   4.040   4.004  15.436 -0.3679  0.5922  0.6534
 6107SOL    HW129783   4.030   4.062  15.360 -1.6693 -1.7154 -0.9284
 6107SOL    HW229784   3.976   3.942  15.400  0.9985 -0.0528 -0.6570
 6108SOL     OW29785   2.257   3.028   5.443 -0.1065 -0.1865 -0.4790
 6108SOL    HW129786   2.331   2.996   5.392  1.6664  3.4417 -0.1858
 6108SOL    HW229787   2.208   3.070   5.373 -0.7937 -0.6833 -0.2966
 6109SOL     OW29788   3.831   3.019   6.302 -0.0410  0.5646 -0.3852
 6109SOL    HW129789   3.884   2.974   6.236 -0.9331  1.0081 -1.4054
 6109SOL    HW229790   3.804   3.090   6.243  3.4514  0.4212 -2.1206
 6110SOL     OW29791   3.748   2.850  15.523 -0.2562  0.0792 -0.1565
 6110SOL    HW129792   3.705   2.776  15.565  4.1648 -1.9902  0.7080
 6110SOL    HW229793   3.833   2.854  15.565 -0.0981 -1.0600 -0.3730
 6111SOL     OW29794   2.704   2.005  10.347 -0.0733  0.4599  0.3071
 6111SOL    HW129795   2.660   1.944  10.289  0.2466  0.2807  0.2482
 6111SOL    HW229796   2.721   2.083  10.295  2.3911 -0.6217 -0.5128
 6112SOL     OW29797   4.601   3.028  13.202  0.2852  0.0410  0.4427
 6112SOL    HW129798   4.584   3.046  13.294 -2.5126 -0.5552  0.0520
 6112SOL    HW229799   4.691   2.998  13.215  0.8283  1.6503  0.2982
 6113SOL     OW29800   0.097   2.161   7.128 -0.0219  0.0268 -0.2533
 6113SOL    HW129801   0.027   2.162   7.193  0.2722  2.3378  0.0389
 6113SOL    HW229802   0.123   2.252   7.115 -0.9526  0.2234 -0.7957
 6114SOL     OW29803   1.298   3.271   4.448 -0.4659  0.6185 -0.2111
 6114SOL    HW129804   1.237   3.198   4.434  0.6497 -0.3020 -0.2892
 6114SOL    HW229805   1.264   3.300   4.533 -1.7661 -1.2355 -0.0928
 6115SOL     OW29806   4.465   3.542   8.135 -0.6521  0.1859 -0.0791
 6115SOL    HW129807   4.376   3.506   8.128 -0.5631  0.0996 -0.7252
 6115SOL    HW229808   4.463   3.578   8.047 -1.7923  1.4245  0.4399
 6116SOL     OW29809   1.701   2.321   8.254  0.0864 -0.0550 -0.3347
 6116SOL    HW129810   1.683   2.364   8.170 -2.9084  0.6906  0.6624
 6116SOL    HW229811   1.726   2.390   8.315  3.3516 -1.7810  0.2748
 6117SOL     OW29812   3.356   0.206   4.918  0.1781  0.3807  0.5677
 6117SOL    HW129813   3.373   0.196   4.825 -2.1925  0.5734  0.1290
 6117SOL    HW229814   3.441   0.184   4.957  1.1466  1.3342 -1.0018
 6118SOL     OW29815   3.575   0.297   5.911 -0.0997 -0.3889 -0.5213
 6118SOL    HW129816   3.526   0.236   5.856  1.2426  0.0109 -2.1532
 6118SOL    HW229817   3.662   0.265   5.887  0.2951  0.1078  0.2213
 6119SOL     OW29818   0.597   2.117   1.313  0.2744 -0.3305  0.3830
 6119SOL    HW129819   0.575   2.184   1.377 -1.7160  0.5158 -1.1988
 6119SOL    HW229820   0.689   2.093   1.328  0.6573  0.0781 -1.3056
 6120SOL     OW29821   3.353   4.178   7.996 -1.1536 -0.2363  0.0449
 6120SOL    HW129822   3.440   4.154   8.030 -1.1534 -0.8152 -0.3591
 6120SOL    HW229823   3.353   4.115   7.923 -0.9674  0.8611 -0.8965
 6121SOL     OW29824   4.029   4.578   3.185 -0.3275 -0.1666  0.5497
 6121SOL    HW129825   4.049   4.512   3.252  0.2405 -2.2635 -1.6920
 6121SOL    HW229826   3.935   4.563   3.171 -0.2649 -1.4902  1.5543
 6122SOL     OW29827   3.233   4.441  11.366 -0.7862 -0.6534 -0.0228
 6122SOL    HW129828   3.255   4.386  11.291  2.4216 -2.0785  2.0093
 6122SOL    HW229829   3.314   4.460  11.413 -0.4849  0.7187 -1.0785
 6123SOL     OW29830   0.903   3.526   2.674 -0.2986  0.1350 -0.3426
 6123SOL    HW129831   0.879   3.438   2.701  0.6881 -0.5812 -1.7709
 6123SOL    HW229832   0.823   3.578   2.684 -0.0458  0.0732  1.9499
 6124SOL     OW29833   3.034   4.404   1.571 -0.2772 -0.4667 -0.5014
 6124SOL    HW129834   3.114   4.418   1.520  0.2442 -0.9045  0.1955
 6124SOL    HW229835   3.043   4.473   1.636  1.0937 -2.1444  1.0796
 6125SOL     OW29836   1.624   0.353   7.704 -0.0031  0.3742 -0.3778
 6125SOL    HW129837   1.554   0.393   7.754 -0.9554 -2.1418  0.2677
 6125SOL    HW229838   1.666   0.281   7.751 -0.2109 -1.1698 -2.5469
 6126SOL     OW29839   3.469   2.727   5.651  0.2387  0.4267  0.9055
 6126SOL    HW129840   3.385   2.764   5.676  1.6419  3.0449  1.7628
 6126SOL    HW229841   3.532   2.767   5.711  1.0300 -0.5255  0.7206
 6127SOL     OW29842   0.149   2.719   3.414 -0.0164 -0.3373 -0.3241
 6127SOL    HW129843   0.129   2.632   3.380 -2.1754 -0.4095  1.1778
 6127SOL    HW229844   0.117   2.770   3.339 -1.3747 -2.2171 -1.0513
 6128SOL     OW29845   2.714   2.907   5.895 -0.0907  0.2930 -0.0941
 6128SOL    HW129846   2.748   2.986   5.853 -0.8300  1.0923  0.8186
 6128SOL    HW229847   2.720   2.847   5.821 -2.9357 -0.4909  0.2935
 6129SOL     OW29848   0.703   3.138  16.451  0.0501  0.6824 -0.1328
 6129SOL    HW129849   0.762   3.127  16.525  1.8639  0.6077 -1.5640
 6129SOL    HW229850   0.687   3.233  16.453 -0.6423  0.5488  0.2800
 6130SOL     OW29851   3.156   2.575   3.734  0.0772  0.3518 -0.2784
 6130SOL    HW129852   3.147   2.482   3.713  0.1402  0.1331  0.6527
 6130SOL    HW229853   3.222   2.606   3.673  1.8060 -1.5787  0.5942
 6131SOL     OW29854   3.915   3.018  11.619  0.5250  0.1156 -0.0418
 6131SOL    HW129855   3.889   2.929  11.592  0.8132 -0.0003  0.0590
 6131SOL    HW229856   3.936   3.049  11.531  1.3557 -0.1260  0.0709
 6132SOL     OW29857   3.978   3.356   4.733 -0.2427  0.0907 -0.1767
 6132SOL    HW129858   3.911   3.415   4.767 -0.5552  0.0595 -0.7526
 6132SOL    HW229859   4.049   3.393   4.787 -1.3309 -0.2993  1.5222
 6133SOL     OW29860   2.052   1.542   3.398 -0.0500 -0.1386 -0.1764
 6133SOL    HW129861   2.064   1.593   3.478  3.2662  0.0933 -0.8348
 6133SOL    HW229862   1.969   1.496   3.407 -0.1909  0.7468  3.0443
 6134SOL     OW29863   2.486   1.974   5.455 -0.1241 -0.1407 -0.5277
 6134SOL    HW129864   2.397   1.995   5.482 -0.0824 -1.6042  0.7637
 6134SOL    HW229865   2.519   1.922   5.529 -1.0996 -1.5766 -1.1135
 6135SOL     OW29866   3.853   3.814   2.193 -0.3372  0.2133 -0.3360
 6135SOL    HW129867   3.908   3.877   2.238  0.4958 -0.4692 -0.3981
 6135SOL    HW229868   3.770   3.838   2.235 -1.4050 -1.2380 -1.6023
 6136SOL     OW29869   1.753   3.057   7.185  0.1193  0.1543 -0.5665
 6136SOL    HW129870   1.668   3.021   7.161 -1.0027  1.7333  1.1284
 6136SOL    HW229871   1.733   3.148   7.204 -1.6072 -0.4105  0.2772
 6137SOL     OW29872   3.464   1.748   4.356  0.2023  0.4183 -0.4599
 6137SOL    HW129873   3.372   1.737   4.331  0.0657  1.2465 -0.3444
 6137SOL    HW229874   3.459   1.726   4.449 -1.6537 -2.5443 -1.2701
 6138SOL     OW29875   3.451   1.830   0.575 -0.1211 -0.0620  0.3671
 6138SOL    HW129876   3.384   1.763   0.563  0.3696 -0.2975 -1.0274
 6138SOL    HW229877   3.521   1.777   0.612  0.4960  1.4173  1.3438
 6139SOL     OW29878   1.766   1.907   5.083  0.1530 -0.5550  0.0585
 6139SOL    HW129879   1.746   1.886   4.991 -0.0773 -1.4286  0.3025
 6139SOL    HW229880   1.700   1.847   5.119 -0.4522 -0.4775 -0.9151
 6140SOL     OW29881   4.702   2.487  11.375 -0.0260 -0.3337 -0.1607
 6140SOL    HW129882   0.011   2.424  11.310  0.7585 -0.1773  0.0755
 6140SOL    HW229883   4.668   2.563  11.327 -0.1619 -0.9556 -1.0475
 6141SOL     OW29884   4.132   3.783  16.489  0.1334 -0.0890 -0.3078
 6141SOL    HW129885   4.046   3.808  16.457 -0.3308 -1.9337 -0.5119
 6141SOL    HW229886   4.171   3.870  16.494  1.7565 -0.8238 -0.1336
 6142SOL     OW29887   0.056   4.428   3.528 -0.0928 -0.5548  0.1599
 6142SOL    HW129888   0.063   4.334   3.513  0.4735 -0.2198 -1.6228
 6142SOL    HW229889   4.713   4.453   3.464 -2.7718 -1.2083  2.6221
 6143SOL     OW29890   4.333   1.911   8.781  0.5018  0.0236 -0.2915
 6143SOL    HW129891   4.400   1.842   8.777 -1.8112 -2.1034 -2.1869
 6143SOL    HW229892   4.357   1.978   8.717 -1.3098 -0.4320 -1.4349
 6144SOL     OW29893   2.407   2.226  14.138 -0.1803  0.6318  0.3898
 6144SOL    HW129894   2.347   2.299  14.156 -2.0572 -1.0290  0.8235
 6144SOL    HW229895   2.380   2.160  14.201 -0.7184  0.9931  0.5380
 6145SOL     OW29896   4.153   3.410  14.551 -0.0729 -0.9478  0.2093
 6145SOL    HW129897   4.135   3.328  14.596 -0.1913 -1.7333 -1.2672
 6145SOL    HW229898   4.124   3.471  14.619 -2.0897 -1.0201 -0.5912
 6146SOL     OW29899   2.338   1.153   5.718 -0.3858 -0.0455 -0.1971
 6146SOL    HW129900   2.253   1.173   5.679  0.1371  1.2401 -0.6741
 6146SOL    HW229901   2.314   1.150   5.811 -0.0346 -0.1966 -0.1122
 6147SOL     OW29902   1.724   2.443  16.551  0.2197 -0.6007 -0.1607
 6147SOL    HW129903   1.778   2.451  16.630 -1.6837  0.5759  1.0295
 6147SOL    HW229904   1.659   2.513  16.559 -0.1834 -1.3176  2.8370
 6148SOL     OW29905   4.318   4.239   9.087  0.2930 -0.0576  0.4723
 6148SOL    HW129906   4.335   4.333   9.080 -2.9328  0.7146  2.9256
 6148SOL    HW229907   4.223   4.242   9.099  0.0318  0.9132 -1.9025
 6149SOL     OW29908   2.077   1.729   3.598  0.5706 -0.4592 -0.1729
 6149SOL    HW129909   2.140   1.769   3.659 -1.1842 -0.5258  1.6643
 6149SOL    HW229910   2.000   1.742   3.652  0.6461  2.9038 -0.8698
 6150SOL     OW29911   4.316   0.363   1.163  0.0426 -0.0185 -0.0487
 6150SOL    HW129912   4.340   0.392   1.251  3.3808  2.2624 -1.7008
 6150SOL    HW229913   4.222   0.347   1.177  0.4250 -2.1147  0.0261
 6151SOL     OW29914   4.380   3.167   8.678  0.2017  0.0895 -0.1051
 6151SOL    HW129915   4.297   3.177   8.631  0.8232 -3.1527 -1.8954
 6151SOL    HW229916   4.441   3.205   8.614  0.2602 -0.3499 -0.3109
 6152SOL     OW29917   0.818   1.948   6.148  0.3007  0.1994  0.2031
 6152SOL    HW129918   0.842   2.040   6.163  0.9447 -0.0281  0.5743
 6152SOL    HW229919   0.866   1.908   6.221 -1.0165 -0.3054  0.7867
 6153SOL     OW29920   4.668   0.878  17.026 -0.1105 -0.4292  0.0996
 6153SOL    HW129921   4.588   0.930  17.022 -0.4549 -0.9526  0.1437
 6153SOL    HW229922   4.641   0.797  16.982 -0.4756  0.2809 -0.9922
 6154SOL     OW29923   2.776   3.036   8.343 -0.3667 -0.4360 -0.6136
 6154SOL    HW129924   2.739   2.992   8.267  0.0613  1.1856 -1.7463
 6154SOL    HW229925   2.852   3.077   8.300 -0.3981 -0.2300 -0.4747
 6155SOL     OW29926   0.184   3.080   5.355  0.3824  0.5468  0.9104
 6155SOL    HW129927   0.168   3.036   5.272 -0.2107 -0.4422  1.5447
 6155SOL    HW229928   0.202   3.010   5.418  1.2077  0.2299  0.3200
 6156SOL     OW29929   1.929   1.724   2.982 -0.0478 -0.5243  0.0186
 6156SOL    HW129930   1.963   1.697   2.897 -2.1501 -0.7985 -0.7217
 6156SOL    HW229931   1.896   1.641   3.016 -0.5101 -1.3363 -2.4088
 6157SOL     OW29932   2.846   3.282  11.245 -0.2327  0.0787  0.2981
 6157SOL    HW129933   2.906   3.342  11.288 -1.3062 -0.5717  2.6782
 6157SOL    HW229934   2.909   3.212  11.229 -0.1534  0.3938 -0.7797
 6158SOL     OW29935   1.979   3.559  11.462  0.0783 -0.1522  0.0436
 6158SOL    HW129936   2.026   3.640  11.444 -0.3732 -0.5935 -2.9975
 6158SOL    HW229937   1.898   3.598  11.494  0.4780 -0.0126  0.8876
 6159SOL     OW29938   2.836   0.386   6.453  0.1359  0.7222  0.1362
 6159SOL    HW129939   2.829   0.395   6.548  1.2147 -1.2159  0.3956
 6159SOL    HW229940   2.765   0.440   6.418 -1.3436 -2.8345 -2.3358
 6160SOL     OW29941   2.495   1.970   2.952 -0.2150  0.3247  0.1696
 6160SOL    HW129942   2.555   2.017   2.894 -0.7706 -0.8383 -1.3538
 6160SOL    HW229943   2.542   1.990   3.033  1.1140  1.1199 -0.7962
 6161SOL     OW29944   3.547   1.594   2.173  0.8587  0.8646 -0.3613
 6161SOL    HW129945   3.619   1.531   2.161  1.0853  0.4081  3.1893
 6161SOL    HW229946   3.501   1.590   2.089  1.7761 -1.7632 -0.7464
 6162SOL     OW29947   2.032   3.443   6.290  0.1567 -0.3961  0.4134
 6162SOL    HW129948   2.101   3.377   6.290 -0.1847 -0.7493 -0.7055
 6162SOL    HW229949   1.961   3.404   6.240 -0.8735  0.4602  1.2017
 6163SOL     OW29950   4.355   0.193   4.598  0.1495 -0.4576 -0.3641
 6163SOL    HW129951   4.390   0.202   4.509  0.6689 -1.2961 -0.2478
 6163SOL    HW229952   4.305   0.112   4.591  0.4522 -0.6887  0.1905
 6164SOL     OW29953   2.338   4.342  14.409  0.0648  0.0301  0.1399
 6164SOL    HW129954   2.342   4.430  14.371 -0.7827  0.1695  0.3768
 6164SOL    HW229955   2.389   4.300  14.339 -3.5408  0.6308 -2.8537
 6165SOL     OW29956   4.437   4.069   9.309  0.2411 -0.5965  1.2911
 6165SOL    HW129957   4.354   4.071   9.356 -1.1826 -0.4153 -1.2510
 6165SOL    HW229958   4.418   4.146   9.256  0.2110 -1.2629  0.3290
 6166SOL     OW29959   0.512   2.291  15.851 -0.1296 -0.2813 -0.2031
 6166SOL    HW129960   0.571   2.243  15.909 -0.0509  1.4244  1.1244
 6166SOL    HW229961   0.465   2.222  15.804  0.0584 -1.5276  1.4480
 6167SOL     OW29962   2.692   3.726   6.372 -0.1029  0.0123 -0.2125
 6167SOL    HW129963   2.740   3.649   6.401 -2.4013 -0.9653  0.9495
 6167SOL    HW229964   2.644   3.739   6.453  0.5375 -0.4579  0.2370
 6168SOL     OW29965   3.682   4.241   9.771  0.2289  0.4149 -0.4181
 6168SOL    HW129966   3.759   4.288   9.739  2.0213 -1.7714  0.7370
 6168SOL    HW229967   3.615   4.252   9.703  0.3146  2.5950 -0.1567
 6169SOL     OW29968   2.597   4.231   7.337 -0.6081  0.6988 -0.5758
 6169SOL    HW129969   2.642   4.169   7.281  0.2606 -1.4302  2.4719
 6169SOL    HW229970   2.625   4.191   7.419  2.0166  2.4871 -0.5937
 6170SOL     OW29971   0.586   0.015   0.963  0.0907 -0.1265  0.6161
 6170SOL    HW129972   0.568   4.696   0.878  0.7279  2.7510 -0.9601
 6170SOL    HW229973   0.507   4.709   1.008 -1.4576 -1.0200 -2.6372
 6171SOL     OW29974   0.376   0.073   6.526 -0.0475 -0.0996 -0.0304
 6171SOL    HW129975   0.286   0.043   6.535  0.1133 -1.3200 -2.2779
 6171SOL    HW229976   0.402   0.017   6.453  0.0279  0.1504 -0.1934
 6172SOL     OW29977   2.060   2.319   7.291 -0.1371  0.3327 -0.8931
 6172SOL    HW129978   2.135   2.328   7.232  0.8826 -0.3844  0.3042
 6172SOL    HW229979   2.011   2.399   7.271 -2.4183 -1.1373 -1.1478
 6173SOL     OW29980   4.236   3.350   8.430 -0.3250 -0.7294 -0.5038
 6173SOL    HW129981   4.258   3.421   8.369 -1.6471  0.0544 -0.0584
 6173SOL    HW229982   4.173   3.379   8.496  0.3225  0.9554 -0.6341
 6174SOL     OW29983   2.018   4.235  15.369 -0.5099 -0.3038 -0.8163
 6174SOL    HW129984   2.063   4.319  15.362 -1.8996  0.4742 -0.3385
 6174SOL    HW229985   2.045   4.212  15.458  1.1915  0.6919 -1.0845
 6175SOL     OW29986   2.621   4.617   1.575 -0.7975 -0.4687 -0.2696
 6175SOL    HW129987   2.667   4.607   1.492  0.0927  2.1032 -0.0771
 6175SOL    HW229988   2.671   4.561   1.635  0.4854 -0.4914 -1.3659
 6176SOL     OW29989   4.691   3.496   5.038 -0.1891  0.2439 -0.1079
 6176SOL    HW129990   0.039   3.462   4.983 -1.8776 -1.9932 -0.9402
 6176SOL    HW229991   0.017   3.532   5.112  0.5432 -0.8045 -0.0863
 6177SOL     OW29992   4.117   2.489   8.578 -0.7263  0.1622  0.3119
 6177SOL    HW129993   4.111   2.542   8.499 -0.7083  0.5628  0.5789
 6177SOL    HW229994   4.157   2.552   8.639  0.9589  0.1276 -0.7582
 6178SOL     OW29995   2.646   1.637  13.299 -0.3101  0.1203 -0.0461
 6178SOL    HW129996   2.692   1.720  13.286  2.0594 -1.1890 -0.0449
 6178SOL    HW229997   2.682   1.620  13.386 -2.5609  2.8201  1.4232
 6179SOL     OW29998   1.483   2.859   8.135  0.5451 -0.1974 -0.0404
 6179SOL    HW129999   1.392   2.834   8.152  0.8158 -0.6107  0.8415
 6179SOL    HW230000   1.516   2.788   8.081 -0.0152 -0.1705 -0.4209
 6180SOL     OW30001   1.871   1.977   5.325  0.3168  0.2461  0.1019
 6180SOL    HW130002   1.836   1.952   5.240 -0.9153  2.1706  0.0279
 6180SOL    HW230003   1.815   2.054   5.339 -0.9370 -0.3459 -1.6933
 6181SOL     OW30004   0.344   4.525   4.441  0.5537 -0.4024 -0.4646
 6181SOL    HW130005   0.284   4.522   4.515  1.1038  0.4852  0.0186
 6181SOL    HW230006   0.293   4.574   4.376 -0.6169 -1.9365 -0.6982
 6182SOL     OW30007   4.691   2.198   4.199 -0.0952  0.6328  0.4989
 6182SOL    HW130008   4.598   2.183   4.214 -0.7336  1.4387 -2.5859
 6182SOL    HW230009   4.704   2.180   4.106 -2.1412 -0.2708  0.4031
 6183SOL     OW30010   4.236   1.582   3.829 -0.1457 -0.4159  0.4711
 6183SOL    HW130011   4.291   1.619   3.898 -0.6069  1.4480 -0.1804
 6183SOL    HW230012   4.242   1.657   3.770  0.6791 -0.5877  0.3421
 6184SOL     OW30013   1.289   3.006   5.244  0.1923 -0.4125  0.6157
 6184SOL    HW130014   1.328   2.972   5.163 -0.1657  1.6006 -0.3948
 6184SOL    HW230015   1.265   2.919   5.275 -1.2718 -0.3596 -0.3553
 6185SOL     OW30016   4.163   1.781   5.072 -0.1623 -0.6156  0.0147
 6185SOL    HW130017   4.244   1.782   5.124  0.0077 -0.3725 -0.2531
 6185SOL    HW230018   4.112   1.735   5.139  1.7439 -1.6353  0.7810
 6186SOL     OW30019   3.704   3.679   7.294 -0.1296  0.4750 -0.3586
 6186SOL    HW130020   3.741   3.602   7.338  2.3702  0.8968 -1.7554
 6186SOL    HW230021   3.718   3.759   7.345 -1.5414  1.0153 -0.8267
 6187SOL     OW30022   3.296   1.520   7.940  0.0563  0.2051  0.0519
 6187SOL    HW130023   3.207   1.516   7.975 -1.0116 -0.1880 -2.7120
 6187SOL    HW230024   3.276   1.557   7.854 -0.9339 -0.9118 -0.2022
 6188SOL     OW30025   0.652   4.477   4.988 -0.0643 -0.2345  0.4608
 6188SOL    HW130026   0.725   4.444   4.936 -0.2765  0.7785 -0.4897
 6188SOL    HW230027   0.689   4.558   5.023  0.0313 -0.8025  1.6745
 6189SOL     OW30028   3.522   4.715   1.945  0.2175 -0.0955  0.2793
 6189SOL    HW130029   3.521   4.630   1.899 -1.2018 -0.0824  0.2800
 6189SOL    HW230030   3.452   0.033   1.894 -0.1828 -1.5834 -0.3737
 6190SOL     OW30031   3.900   4.336   1.373  0.4439 -0.0654 -0.5348
 6190SOL    HW130032   3.874   4.324   1.281  1.2052 -2.0597 -0.5027
 6190SOL    HW230033   3.994   4.330   1.357  0.3932 -0.6370 -0.6377
 6191SOL     OW30034   1.195   0.722   0.804 -0.5420  0.7612  0.2081
 6191SOL    HW130035   1.261   0.678   0.858 -1.6548 -0.9366  0.1864
 6191SOL    HW230036   1.197   0.667   0.726 -0.2947 -1.8467  2.0207
 6192SOL     OW30037   0.296   2.283   3.498  0.0750  0.3644  0.6537
 6192SOL    HW130038   0.320   2.309   3.587  3.1159  0.1783 -0.1082
 6192SOL    HW230039   0.229   2.219   3.521  0.8991 -0.7819 -0.1447
 6193SOL     OW30040   0.847   2.122   4.114  0.2327 -0.2151  0.4078
 6193SOL    HW130041   0.830   2.163   4.029  0.5402  0.3394  0.6167
 6193SOL    HW230042   0.894   2.042   4.092  0.3423 -0.5324  1.7789
 6194SOL     OW30043   0.180   0.889   5.760  0.6020 -0.0416 -0.4930
 6194SOL    HW130044   0.183   0.896   5.855  0.0717 -2.4040 -0.3069
 6194SOL    HW230045   0.243   0.960   5.746  2.1642 -1.5982 -1.2777
 6195SOL     OW30046   1.999   4.149   7.263  0.0917 -0.2809 -0.4720
 6195SOL    HW130047   2.047   4.143   7.346  2.4671 -0.9373 -1.8940
 6195SOL    HW230048   1.951   4.067   7.267 -0.4883 -0.0258 -2.1425
 6196SOL     OW30049   3.115   1.374  16.912 -0.6433 -0.4024  0.2048
 6196SOL    HW130050   3.184   1.415  16.964  0.0246  1.9383 -2.5305
 6196SOL    HW230051   3.098   1.445  16.850  1.8820  0.8012  0.9023
 6197SOL     OW30052   3.029   1.542   8.031  0.1797  0.2140 -0.5050
 6197SOL    HW130053   2.966   1.477   8.060  0.2084  0.5357  0.2878
 6197SOL    HW230054   3.077   1.563   8.111 -0.1368  1.0546 -0.5354
 6198SOL     OW30055   1.747   2.351   7.673  0.5865 -0.1012 -0.0066
 6198SOL    HW130056   1.754   2.445   7.663 -0.0963  0.1348  1.6318
 6198SOL    HW230057   1.655   2.342   7.649  0.9785 -0.6079 -1.3366
 6199SOL     OW30058   3.901   0.603   5.356 -0.2996  0.1661  0.1329
 6199SOL    HW130059   3.806   0.599   5.354 -0.3279  0.2486  1.0555
 6199SOL    HW230060   3.915   0.696   5.341 -0.7386  0.3249  0.7186
 6200SOL     OW30061   2.828   1.711   6.068  0.7293  0.0122  0.1967
 6200SOL    HW130062   2.921   1.730   6.062  0.3765  1.6689 -0.0481
 6200SOL    HW230063   2.791   1.797   6.048 -4.0801 -1.8869  0.7786
 6201SOL     OW30064   1.389   1.596  12.463  0.0961  0.1163  0.2896
 6201SOL    HW130065   1.424   1.608  12.374  0.3294 -3.0222 -0.0427
 6201SOL    HW230066   1.336   1.518  12.447 -2.1158  2.1017 -2.0980
 6202SOL     OW30067   2.080   2.607   3.822 -0.3074  0.0632 -0.7710
 6202SOL    HW130068   2.054   2.550   3.749 -1.8645 -0.6753  0.3705
 6202SOL    HW230069   2.164   2.640   3.789 -1.3638  2.3426 -1.1793
 6203SOL     OW30070   2.166   1.223  17.561 -0.1642  0.1699  0.2845
 6203SOL    HW130071   2.180   1.294  17.498  2.1840 -0.8722 -0.3602
 6203SOL    HW230072   2.079   1.191  17.538  0.0702 -1.2994  1.4844
 6204SOL     OW30073   2.066   2.103   3.353  0.2979 -0.5050  0.1335
 6204SOL    HW130074   2.110   2.092   3.437  2.5143  1.0182 -0.8223
 6204SOL    HW230075   2.098   2.033   3.296 -0.0942 -0.1059 -0.5736
 6205SOL     OW30076   4.146   0.626   2.850 -0.1864 -0.1281 -1.4101
 6205SOL    HW130077   4.235   0.632   2.883 -1.0306 -2.6822  1.3330
 6205SOL    HW230078   4.149   0.544   2.800  1.4593 -1.5470  1.0093
 6206SOL     OW30079   2.751   3.307   4.659 -0.2974  0.5257 -0.2531
 6206SOL    HW130080   2.755   3.241   4.590  1.9169  1.4435 -0.9887
 6206SOL    HW230081   2.761   3.385   4.604 -0.3737  0.7755  0.0841
 6207SOL     OW30082   1.448   3.103  14.058  0.3696 -0.0952  0.2972
 6207SOL    HW130083   1.429   3.197  14.060  1.5651  0.1457  0.4411
 6207SOL    HW230084   1.416   3.087  13.969 -0.0058 -0.3576  0.4793
 6208SOL     OW30085   0.085   4.307  13.900  0.1405  0.5006  0.4789
 6208SOL    HW130086   0.084   4.282  13.992  2.2336  2.8012  1.1362
 6208SOL    HW230087   0.175   4.281  13.878  0.1067  1.6369 -1.0175
 6209SOL     OW30088   2.742   2.166   7.730  0.1785  0.0421 -0.6550
 6209SOL    HW130089   2.735   2.261   7.728 -1.5851 -0.0378  1.0239
 6209SOL    HW230090   2.834   2.158   7.704  0.9672  2.3431  1.4339
 6210SOL     OW30091   0.548   2.044   8.754  0.2076 -0.0065 -1.0267
 6210SOL    HW130092   0.530   2.133   8.785  1.9105  0.0396 -0.1501
 6210SOL    HW230093   0.536   1.994   8.835 -0.0678  0.1437 -0.9766
 6211SOL     OW30094   4.220   1.955  12.340  0.4422 -0.4206 -0.5597
 6211SOL    HW130095   4.266   1.889  12.289 -0.8147 -0.9226 -1.0368
 6211SOL    HW230096   4.176   1.992  12.264 -0.0123  1.0833  0.4265
 6212SOL     OW30097   4.161   4.328  14.143  0.2377 -0.6479  0.1167
 6212SOL    HW130098   4.123   4.415  14.132  0.7497 -0.5710 -1.1190
 6212SOL    HW230099   4.109   4.313  14.222  0.2832  1.4706  0.5420
 6213SOL     OW30100   3.997   3.381  10.088 -0.1051 -0.5190  0.6344
 6213SOL    HW130101   4.017   3.305  10.142  0.2897  0.3715  1.7355
 6213SOL    HW230102   4.005   3.347   9.999  0.9388 -0.8661  0.8655
 6214SOL     OW30103   2.703   0.171   4.292 -0.0565 -0.4682 -0.5008
 6214SOL    HW130104   2.727   0.197   4.203  2.0277 -0.5193  0.0486
 6214SOL    HW230105   2.607   0.167   4.300  0.0915 -1.0140  0.9445
 6215SOL     OW30106   2.954   3.858  10.512  0.1964  0.4191  0.1963
 6215SOL    HW130107   2.938   3.900  10.596 -0.5101  0.6765 -0.0705
 6215SOL    HW230108   2.866   3.823  10.501  0.6030 -0.8502  0.9563
 6216SOL     OW30109   4.500   2.325   6.203  0.4766 -0.2516  0.0543
 6216SOL    HW130110   4.469   2.278   6.126  0.9359  0.0413 -0.3099
 6216SOL    HW230111   4.578   2.364   6.165  0.1641  0.1451 -0.1772
 6217SOL     OW30112   0.232   4.148   5.781 -0.0405 -0.0285 -0.1166
 6217SOL    HW130113   0.309   4.137   5.837  0.2156  0.7666 -0.3085
 6217SOL    HW230114   0.165   4.120   5.843 -1.0345 -1.8344 -2.0017
 6218SOL     OW30115   4.309   1.603   8.701  0.2544  0.4355  0.4514
 6218SOL    HW130116   4.270   1.580   8.785  0.1250 -1.4885 -0.1308
 6218SOL    HW230117   4.396   1.641   8.715  0.1114  1.5145 -1.5030
 6219SOL     OW30118   1.530   0.697  11.805  0.0576  0.4324 -0.0744
 6219SOL    HW130119   1.511   0.729  11.717  0.1240  0.7665  0.0333
 6219SOL    HW230120   1.550   0.605  11.787 -0.2196  1.0002 -3.2145
 6220SOL     OW30121   0.884   2.913   6.527  0.3759  0.2512  0.0304
 6220SOL    HW130122   0.795   2.945   6.543  0.2126  0.1731 -0.6848
 6220SOL    HW230123   0.856   2.825   6.499 -1.9806  1.4087 -1.2808
 6221SOL     OW30124   1.396   0.541   7.292  0.3667  0.5555 -0.4817
 6221SOL    HW130125   1.372   0.566   7.203 -1.8826 -0.6497 -0.2205
 6221SOL    HW230126   1.420   0.450   7.281 -0.8416  0.2028 -0.2284
 6222SOL     OW30127   4.299   2.836   9.793  0.3888 -0.3521  0.1202
 6222SOL    HW130128   4.208   2.812   9.810  0.1289  1.2156  0.8896
 6222SOL    HW230129   4.342   2.751   9.800  0.1998 -0.6926 -2.6368
 6223SOL     OW30130   0.652   1.783   7.357 -0.1100 -0.0081  0.1653
 6223SOL    HW130131   0.746   1.770   7.369 -0.2231 -0.9195  0.0585
 6223SOL    HW230132   0.644   1.840   7.281  1.0044  2.9187  2.2667
 6224SOL     OW30133   2.222   3.584   4.850 -0.1019 -0.2109  0.5922
 6224SOL    HW130134   2.296   3.644   4.843 -0.6415  0.4930  0.9071
 6224SOL    HW230135   2.260   3.499   4.827 -1.2973 -0.5711 -0.0342
 6225SOL     OW30136   3.689   3.410   0.611 -0.1550  0.0840 -0.2506
 6225SOL    HW130137   3.614   3.401   0.670 -0.1397  0.4137 -0.1818
 6225SOL    HW230138   3.749   3.467   0.659 -1.9156  2.5890 -1.0227
 6226SOL     OW30139   3.100   2.465   7.234  0.3989 -0.4475  0.2178
 6226SOL    HW130140   3.055   2.397   7.184  1.7930 -1.2050 -0.0183
 6226SOL    HW230141   3.066   2.544   7.193 -2.3692 -1.3697  0.7422
 6227SOL     OW30142   4.598   1.308   8.074 -0.6346  0.4040 -0.5665
 6227SOL    HW130143   4.612   1.380   8.134 -2.5058  0.6357 -0.3885
 6227SOL    HW230144   4.685   1.304   8.034 -1.1080 -1.0632 -1.4791
 6228SOL     OW30145   1.788   2.052  11.549  0.9996 -0.4134 -0.3961
 6228SOL    HW130146   1.799   2.072  11.642 -1.8677  1.0153 -0.3755
 6228SOL    HW230147   1.693   2.051  11.536  0.8780  1.0352  0.3844
 6229SOL     OW30148   2.774   0.297   3.161  0.3820  0.1619  0.1140
 6229SOL    HW130149   2.865   0.277   3.184  0.0859 -1.0810  0.2205
 6229SOL    HW230150   2.756   0.347   3.241  0.0120  1.4694 -0.7789
 6230SOL     OW30151   2.278   1.042   3.063  0.1884 -0.2930  0.6698
 6230SOL    HW130152   2.310   0.987   2.992  0.5957 -0.3876  0.9268
 6230SOL    HW230153   2.330   1.122   3.058 -1.7646  0.9706  0.4810
 6231SOL     OW30154   2.782   1.991   8.779  0.7312 -0.3790 -0.5750
 6231SOL    HW130155   2.779   2.051   8.853 -3.2527 -1.3791  0.0737
 6231SOL    HW230156   2.736   1.918   8.819  0.4065  0.5808  0.7857
 6232SOL     OW30157   2.502   0.961   5.783  0.2024  0.1018 -0.1910
 6232SOL    HW130158   2.443   1.028   5.748  1.0465 -0.6845 -3.1070
 6232SOL    HW230159   2.501   0.909   5.704 -0.8389  0.2480 -0.2709
 6233SOL     OW30160   2.863   4.691   0.084 -0.2426  0.8746 -0.3142
 6233SOL    HW130161   2.837   4.705   0.175 -3.0619  1.1879 -1.1442
 6233SOL    HW230162   2.927   0.038   0.078  1.4335 -0.7166 -0.9926
 6234SOL     OW30163   3.792   3.284   3.737  0.3606  0.2322 -0.3445
 6234SOL    HW130164   3.707   3.327   3.747  0.7915  0.8888  0.5723
 6234SOL    HW230165   3.763   3.194   3.724  1.2958  0.0442 -1.1236
 6235SOL     OW30166   1.676   2.808   8.350  0.2953  0.5343 -0.6005
 6235SOL    HW130167   1.673   2.840   8.440 -1.5300 -0.7666 -0.2131
 6235SOL    HW230168   1.601   2.749   8.340 -0.4084  1.4546 -0.7333
 6236SOL     OW30169   3.558   2.530   6.521  0.4426  0.2326  0.8355
 6236SOL    HW130170   3.608   2.607   6.548  0.3878  0.4361  0.3514
 6236SOL    HW230171   3.576   2.524   6.427  0.2312 -0.0187  0.8099
 6237SOL     OW30172   2.246   4.438  15.594  0.0893 -0.1841  0.4058
 6237SOL    HW130173   2.330   4.480  15.611  1.0362 -1.2911 -1.5394
 6237SOL    HW230174   2.205   4.452  15.679 -1.0639 -1.3557  0.0492
 6238SOL     OW30175   1.620   4.022   7.416 -0.5078  0.1554  0.3182
 6238SOL    HW130176   1.624   4.001   7.322 -0.4485  1.3649  0.0440
 6238SOL    HW230177   1.530   4.049   7.433  0.1770  1.9739  1.0627
 6239SOL     OW30178   2.544   1.591   2.737  0.7302  0.0762 -0.1139
 6239SOL    HW130179   2.480   1.643   2.786  2.2105  3.0370 -1.2670
 6239SOL    HW230180   2.581   1.655   2.676  0.7045  1.0484  0.8805
 6240SOL     OW30181   2.801   3.753  14.934  0.1109  0.0365  0.2146
 6240SOL    HW130182   2.730   3.689  14.923 -0.2634  0.6272 -0.8121
 6240SOL    HW230183   2.757   3.823  14.982  2.0476  1.0394  0.5080
 6241SOL     OW30184   3.313   3.023   5.140 -0.0635 -0.3204 -0.0578
 6241SOL    HW130185   3.350   3.009   5.053  0.9559  3.5423 -0.2268
 6241SOL    HW230186   3.323   3.118   5.143  2.6917 -0.6751  2.2789
 6242SOL     OW30187   4.045   4.274  14.988 -0.2661 -0.7217 -0.2108
 6242SOL    HW130188   3.956   4.240  14.981 -1.2344  1.5139  1.3375
 6242SOL    HW230189   4.087   4.202  14.941  0.6323 -0.8333  0.7465
 6243SOL     OW30190   4.359   2.603  16.984 -0.5234 -0.3503 -0.2892
 6243SOL    HW130191   4.345   2.601  16.890 -0.9622 -1.8433 -0.2003
 6243SOL    HW230192   4.443   2.647  16.990 -0.0000 -1.2448 -0.9540
 6244SOL     OW30193   2.060   3.459  12.603  0.0724 -0.0874 -0.0863
 6244SOL    HW130194   2.079   3.508  12.684  2.3483 -0.7201 -0.2403
 6244SOL    HW230195   1.991   3.400  12.633  1.3827 -2.1138 -1.0681
 6245SOL     OW30196   3.093   4.241   7.963  0.5510 -0.1882  0.0008
 6245SOL    HW130197   3.070   4.150   7.983 -1.1020  0.9868  3.3836
 6245SOL    HW230198   3.188   4.230   7.969  0.2817 -1.8778  1.1558
 6246SOL     OW30199   0.309   3.296  15.481  0.1892 -0.2524  0.1094
 6246SOL    HW130200   0.272   3.236  15.417  0.0399 -0.7894  0.6969
 6246SOL    HW230201   0.383   3.337  15.435 -0.6573  0.1582 -0.8785
 6247SOL     OW30202   1.891   0.751   1.692 -0.3964 -0.1498  0.7180
 6247SOL    HW130203   1.797   0.769   1.701 -0.5157 -1.6071  2.2388
 6247SOL    HW230204   1.896   0.683   1.759  0.4559 -0.2537  0.5448
 6248SOL     OW30205   1.307   4.152   4.707  0.3405  0.0750 -0.2042
 6248SOL    HW130206   1.227   4.177   4.662  1.0267  1.9720 -0.3433
 6248SOL    HW230207   1.291   4.188   4.794  1.5487 -1.9212  0.8672
 6249SOL     OW30208   0.411   1.294   7.998  0.1213 -0.0363  0.0790
 6249SOL    HW130209   0.451   1.357   8.058  1.8305 -0.2560 -0.8290
 6249SOL    HW230210   0.391   1.225   8.061 -0.3899 -0.2011 -0.2571
 6250SOL     OW30211   2.860   1.596   7.379 -0.3583  0.8146 -0.9865
 6250SOL    HW130212   2.943   1.570   7.340  0.3205 -0.0285  1.0231
 6250SOL    HW230213   2.797   1.534   7.342  0.0626  0.1544 -0.5909
 6251SOL     OW30214   1.851   3.911   7.532 -0.3188 -0.3892 -0.3052
 6251SOL    HW130215   1.764   3.931   7.498 -0.2797 -0.5503 -0.4997
 6251SOL    HW230216   1.902   3.912   7.451 -0.2228  1.2107 -0.2189
 6252SOL     OW30217   4.633   1.886   3.962  0.2150 -0.0874 -0.0770
 6252SOL    HW130218   4.551   1.936   3.968 -0.5013 -1.0093 -2.2742
 6252SOL    HW230219   4.654   1.881   3.869  0.6079 -0.4102  0.0300
 6253SOL     OW30220   0.030   4.595   8.755 -0.0259  0.1124  0.4252
 6253SOL    HW130221   0.047   4.669   8.812  0.8052 -0.8170  1.3942
 6253SOL    HW230222   0.060   4.628   8.671 -0.8310 -0.2235  0.0069
 6254SOL     OW30223   1.005   3.253   0.026 -0.0339 -0.1033 -0.3324
 6254SOL    HW130224   1.017   3.327  17.659  2.8102 -1.3023 -1.2793
 6254SOL    HW230225   0.966   3.294   0.102  0.3522 -2.2698  1.0192
 6255SOL     OW30226   2.385   1.920   7.126 -0.0416 -0.1494 -0.7524
 6255SOL    HW130227   2.403   2.002   7.172 -2.4368 -1.0670  1.8221
 6255SOL    HW230228   2.289   1.917   7.131 -0.0012  1.4768  0.7291
 6256SOL     OW30229   3.280   1.279   5.243  0.2997  0.4700 -0.2222
 6256SOL    HW130230   3.329   1.217   5.297  2.5699  0.4955 -2.2391
 6256SOL    HW230231   3.214   1.217   5.211 -0.2662  2.2292 -2.4477
 6257SOL     OW30232   3.878   4.166  11.818  0.4471 -0.2279 -0.0704
 6257SOL    HW130233   3.860   4.082  11.861  0.6763  0.8223  2.0587
 6257SOL    HW230234   3.864   4.148  11.725 -1.8928 -1.5552  0.5181
 6258SOL     OW30235   3.126   0.278  15.983 -0.1632 -0.1486  0.0971
 6258SOL    HW130236   3.090   0.190  15.980  0.0279 -0.2211 -0.0616
 6258SOL    HW230237   3.070   0.322  15.919  0.0831 -1.0832 -0.7628
 6259SOL     OW30238   2.574   2.975   2.373 -0.0484  0.0244  0.7328
 6259SOL    HW130239   2.539   2.887   2.379  0.5976 -0.3784 -1.3927
 6259SOL    HW230240   2.664   2.945   2.358 -0.0553 -0.4078  1.5616
 6260SOL     OW30241   1.515   1.172   8.040  0.0687  0.3532  0.2268
 6260SOL    HW130242   1.522   1.201   7.949 -1.3135  1.7931  0.5807
 6260SOL    HW230243   1.474   1.244   8.089 -0.3684 -0.2119  0.6815
 6261SOL     OW30244   3.144   3.262  11.522  0.2497 -0.5139  0.0731
 6261SOL    HW130245   3.204   3.331  11.549  0.5507 -0.6297 -0.3106
 6261SOL    HW230246   3.082   3.307  11.464  3.7642  2.0213 -1.6932
 6262SOL     OW30247   0.445   0.587   4.118  0.4806  0.1337  0.0519
 6262SOL    HW130248   0.365   0.640   4.122  0.2348 -0.7054  6.5687
 6262SOL    HW230249   0.404   0.502   4.098  2.1368 -0.8251  0.7745
 6263SOL     OW30250   0.659   1.744   6.974  0.2324 -0.2481  0.1710
 6263SOL    HW130251   0.624   1.822   7.018 -0.2259 -0.7547  0.6970
 6263SOL    HW230252   0.595   1.676   6.995 -0.9365  1.8346  3.4256
 6264SOL     OW30253   2.267   2.526  10.548 -0.2062  0.1503  0.1911
 6264SOL    HW130254   2.257   2.586  10.622 -1.5520  0.4136 -0.2162
 6264SOL    HW230255   2.213   2.454  10.582 -0.3492  0.5465  0.8019
 6265SOL     OW30256   1.905   2.187  16.232 -0.4154  0.4948  0.5847
 6265SOL    HW130257   1.980   2.221  16.182  0.2950  0.3777  1.5572
 6265SOL    HW230258   1.861   2.271  16.243 -0.7003  0.1693  1.9802
 6266SOL     OW30259   1.007   3.013   4.722  0.3445 -0.6078 -0.3685
 6266SOL    HW130260   0.935   2.954   4.701  0.2481 -0.4957 -0.3593
 6266SOL    HW230261   1.064   2.959   4.776 -1.9671 -1.7814  0.8823
 6267SOL     OW30262   0.622   2.779   3.987  0.1046 -0.0291 -0.8026
 6267SOL    HW130263   0.647   2.687   3.990  0.7607  0.0904 -2.6056
 6267SOL    HW230264   0.697   2.827   4.023 -0.3384 -0.0126  0.1086
 6268SOL     OW30265   2.022   4.450   8.038 -0.2858 -0.3106  0.5681
 6268SOL    HW130266   2.105   4.495   8.026  0.8587 -2.0337  2.0020
 6268SOL    HW230267   2.033   4.404   8.121 -0.6079  3.9625  2.9817
 6269SOL     OW30268   2.027   0.650   4.008 -0.0974  0.0492  0.1565
 6269SOL    HW130269   2.044   0.582   3.943 -2.5543  1.4905 -1.9829
 6269SOL    HW230270   1.932   0.653   4.004 -0.2166 -1.8128  1.3575
 6270SOL     OW30271   2.050   2.093   0.437  0.1845  0.1903 -0.8252
 6270SOL    HW130272   1.958   2.114   0.424 -0.1237 -0.4032  0.4791
 6270SOL    HW230273   2.082   2.183   0.431  2.6596 -0.4623  2.6528
 6271SOL     OW30274   1.616   0.995   5.409  0.2130  0.3758  0.4800
 6271SOL    HW130275   1.615   0.928   5.477  0.3681  0.0006  0.1086
 6271SOL    HW230276   1.667   0.964   5.334 -1.2003 -0.8699  0.0427
 6272SOL     OW30277   0.740   4.080   8.482  0.3310 -0.1484  0.1006
 6272SOL    HW130278   0.781   4.155   8.438 -0.4062  1.0046  1.3810
 6272SOL    HW230279   0.666   4.056   8.426  1.8907 -1.6629 -1.3202
 6273SOL     OW30280   2.823   1.142   9.140 -0.3570  0.3467  0.6610
 6273SOL    HW130281   2.796   1.065   9.189 -0.1824 -1.5007 -2.0998
 6273SOL    HW230282   2.751   1.156   9.078 -0.4374  1.0910  0.9195
 6274SOL     OW30283   3.196   3.594   3.366 -0.1745  0.0848 -0.7234
 6274SOL    HW130284   3.255   3.607   3.440  1.7378 -0.2038 -2.1616
 6274SOL    HW230285   3.249   3.632   3.295 -0.4124  0.8058 -0.5184
 6275SOL     OW30286   4.542   3.229   7.330 -0.1856 -0.3221 -0.5463
 6275SOL    HW130287   4.571   3.229   7.421 -2.1502 -3.7340  0.0727
 6275SOL    HW230288   4.587   3.307   7.297  0.5452  0.0311  1.2746
 6276SOL     OW30289   0.270   1.550   4.916 -0.0184  0.3086 -0.3640
 6276SOL    HW130290   0.247   1.641   4.897  1.7125  0.7230 -0.4213
 6276SOL    HW230291   0.307   1.533   4.829  1.0166  3.5953 -0.5609
 6277SOL     OW30292   0.653   0.998   8.674  0.2122  0.0617  0.1823
 6277SOL    HW130293   0.597   1.068   8.709  0.1513  1.3317 -2.4939
 6277SOL    HW230294   0.602   0.918   8.682  0.6559 -0.5424 -3.1434
 6278SOL     OW30295   0.137   1.921  10.470 -0.0448  0.2893  0.2084
 6278SOL    HW130296   0.210   1.970  10.434 -1.0722  1.4116 -0.3512
 6278SOL    HW230297   0.161   1.835  10.436 -1.5979 -0.5467  1.2186
 6279SOL     OW30298   1.526   1.904   7.556  0.2517 -0.4088  0.6117
 6279SOL    HW130299   1.536   1.840   7.485  3.1890  0.0799  0.6008
 6279SOL    HW230300   1.509   1.978   7.497  2.0265 -0.5079 -0.0286
 6280SOL     OW30301   2.522   3.738   6.753  0.2600 -0.0254 -0.2775
 6280SOL    HW130302   2.597   3.744   6.695  0.2793 -0.4410 -0.2927
 6280SOL    HW230303   2.559   3.785   6.828 -2.1447 -1.9729  2.1181
 6281SOL     OW30304   3.513   0.071   8.848  0.0547  0.1032  0.1412
 6281SOL    HW130305   3.463   0.109   8.921 -1.0612 -1.5973  0.2602
 6281SOL    HW230306   3.474   4.707   8.859 -0.9233  0.2639 -2.1074
 6282SOL     OW30307   1.999   2.239   7.693  0.2626  0.2621 -0.4631
 6282SOL    HW130308   1.912   2.274   7.676 -0.5133 -1.2028  0.5074
 6282SOL    HW230309   1.982   2.145   7.686 -2.1832  0.6459  0.5036
 6283SOL     OW30310   0.368   3.927  12.746 -0.0130 -0.3506 -0.2352
 6283SOL    HW130311   0.337   3.868  12.677  1.1040  0.6444 -1.5735
 6283SOL    HW230312   0.319   4.006  12.721 -1.6153 -1.6608 -1.2840
 6284SOL     OW30313   2.312   2.775   8.244 -0.4615  0.3654  0.4079
 6284SOL    HW130314   2.302   2.692   8.289 -1.3713  0.6767  0.7839
 6284SOL    HW230315   2.387   2.743   8.195  0.7313  4.3968 -0.4314
 6285SOL     OW30316   4.382   2.036  13.273 -0.1794 -0.5404 -0.4933
 6285SOL    HW130317   4.385   2.085  13.355  0.3370 -1.8490  0.2712
 6285SOL    HW230318   4.415   2.100  13.211 -0.3131 -0.3748 -0.3940
 6286SOL     OW30319   1.777   2.674   0.947  0.0891 -0.4617  0.1309
 6286SOL    HW130320   1.800   2.590   0.908 -1.2922 -1.7164  2.0627
 6286SOL    HW230321   1.783   2.663   1.042 -0.5408 -1.6235  0.0247
 6287SOL     OW30322   0.795   4.467   3.596  0.3535  0.2060  0.2039
 6287SOL    HW130323   0.794   4.463   3.691  0.6141 -2.8809  0.0778
 6287SOL    HW230324   0.765   4.378   3.579 -0.2697  0.1528  1.6430
 6288SOL     OW30325   3.394   1.041   3.884 -0.1477 -0.5289  0.4888
 6288SOL    HW130326   3.393   0.948   3.908 -0.3780 -0.2101  1.7601
 6288SOL    HW230327   3.302   1.062   3.866  0.3681  1.6166  0.3771
 6289SOL     OW30328   1.446   1.109   2.958  0.7255 -0.2782 -0.2287
 6289SOL    HW130329   1.395   1.183   2.993 -0.4451  0.3355 -3.2816
 6289SOL    HW230330   1.490   1.145   2.881  3.2642 -1.0292  0.8569
 6290SOL     OW30331   4.020   3.091   9.400  0.1366 -0.2562  0.2390
 6290SOL    HW130332   4.008   3.012   9.453  0.7399  0.4943  1.4932
 6290SOL    HW230333   4.080   3.053   9.336  1.8333  1.7609  0.6163
 6291SOL     OW30334   0.494   3.715   9.165 -0.4401 -0.1071  0.1572
 6291SOL    HW130335   0.496   3.711   9.260  0.6074  1.0813  0.1836
 6291SOL    HW230336   0.509   3.807   9.145  1.1857 -0.1090  1.3309
 6292SOL     OW30337   3.197   2.138   5.997  0.6476  0.0670 -0.0270
 6292SOL    HW130338   3.230   2.193   6.068  0.6301 -0.9481  0.7651
 6292SOL    HW230339   3.253   2.063   6.018  1.7851  0.5357 -1.4387
 6293SOL     OW30340   2.600   1.219   4.091 -0.8066  0.3690 -0.0822
 6293SOL    HW130341   2.638   1.208   4.178 -0.4409  0.5537 -0.2183
 6293SOL    HW230342   2.523   1.164   4.104  0.0895 -0.8272  0.1371
 6294SOL     OW30343   2.488   1.042   6.294  0.5188 -0.0291  0.1706
 6294SOL    HW130344   2.444   0.981   6.235 -1.4247 -1.0730  2.6635
 6294SOL    HW230345   2.414   1.090   6.331  2.0539  2.3277  0.1367
 6295SOL     OW30346   3.178   2.276   3.086 -0.1403  0.4287 -0.3617
 6295SOL    HW130347   3.245   2.325   3.039  0.3443 -0.8869 -1.0495
 6295SOL    HW230348   3.176   2.192   3.040 -2.3668  0.7187 -0.8198
 6296SOL     OW30349   1.313   2.757  17.055 -0.2122 -0.0768  0.4096
 6296SOL    HW130350   1.358   2.764  16.971 -2.7094  0.3259 -0.9011
 6296SOL    HW230351   1.277   2.844  17.071  0.5251 -0.2963  3.2668
 6297SOL     OW30352   4.016   1.826   7.757  0.3359 -0.1275  0.9045
 6297SOL    HW130353   3.936   1.836   7.809  0.0904 -2.1359  0.9218
 6297SOL    HW230354   4.049   1.915   7.764  1.0017 -0.3228  0.2193
 6298SOL     OW30355   3.913   1.895  15.045  0.4878 -0.5726  0.1285
 6298SOL    HW130356   3.827   1.859  15.021  0.6817  0.1080 -1.5640
 6298SOL    HW230357   3.934   1.932  14.959 -0.9081  0.5328  0.2696
 6299SOL     OW30358   3.001   4.044   6.755 -0.2454 -0.0354  0.1679
 6299SOL    HW130359   2.938   4.033   6.826 -1.7109  1.7281 -0.8489
 6299SOL    HW230360   2.998   4.139   6.746 -1.5715 -0.1880 -0.9830
 6300SOL     OW30361   3.424   4.634   3.312  0.2325  0.0934  0.1075
 6300SOL    HW130362   3.425   4.540   3.327  0.3781  0.6789  3.8507
 6300SOL    HW230363   3.349   4.640   3.252 -1.3723 -1.4281  1.9279
 6301SOL     OW30364   3.261   4.591   2.920 -0.7100  0.2471 -0.0317
 6301SOL    HW130365   3.236   4.677   2.885  2.3099  0.6794 -1.1406
 6301SOL    HW230366   3.212   4.587   3.002  1.6625 -4.1195  1.1472
 6302SOL     OW30367   3.867   3.322  11.586 -0.4606 -0.3971  0.5211
 6302SOL    HW130368   3.842   3.324  11.678  0.1544  2.5339  0.6497
 6302SOL    HW230369   3.959   3.347  11.583 -1.1191  2.0459 -0.3911
 6303SOL     OW30370   4.050   2.287   0.179  0.0136  0.7254 -0.1072
 6303SOL    HW130371   3.982   2.348   0.151 -2.5636 -3.2386 -2.6327
 6303SOL    HW230372   4.131   2.322   0.140 -0.8537  1.7880 -0.9530
 6304SOL     OW30373   3.999   3.232   6.893 -0.7040  0.1396  0.2338
 6304SOL    HW130374   3.975   3.285   6.969  0.2084  0.8068  0.0554
 6304SOL    HW230375   3.971   3.147   6.929  2.1474 -1.7725 -2.0362
 6305SOL     OW30376   2.045   1.081  11.658 -0.3441  0.3046 -0.3322
 6305SOL    HW130377   1.965   1.072  11.606 -0.5451  0.6074 -0.0835
 6305SOL    HW230378   2.103   1.017  11.617 -1.0164  0.3222 -1.2998
 6306SOL     OW30379   1.474   1.290  16.294 -0.4751  0.0252 -0.1390
 6306SOL    HW130380   1.494   1.241  16.374  2.2846 -0.1623 -0.9529
 6306SOL    HW230381   1.426   1.353  16.348  2.4178  2.0410  0.0420
 6307SOL     OW30382   0.355   0.247   9.473 -0.1489 -0.7909 -0.2549
 6307SOL    HW130383   0.308   0.294   9.404  0.3042 -0.3699 -0.2771
 6307SOL    HW230384   0.395   0.171   9.430 -1.1630 -0.9423 -0.9443
 6308SOL     OW30385   2.717   3.005  14.229 -0.1849 -0.8677  0.1886
 6308SOL    HW130386   2.743   3.044  14.312  0.8975  0.1208 -0.6257
 6308SOL    HW230387   2.634   2.960  14.245 -0.6953  0.7388  1.9654
 6309SOL     OW30388   3.274   4.499   4.561 -0.1308  0.3168  0.2605
 6309SOL    HW130389   3.234   4.471   4.479  0.5852 -1.3572  0.4796
 6309SOL    HW230390   3.366   4.480   4.540 -0.4122  0.5751 -1.2171
 6310SOL     OW30391   3.576   3.608   5.013 -0.3736 -0.1354 -0.1995
 6310SOL    HW130392   3.630   3.683   5.037  1.0092 -1.1641 -0.0517
 6310SOL    HW230393   3.513   3.657   4.960  0.2508  0.2237 -0.6090
 6311SOL     OW30394   1.378   0.655   7.027 -1.1659  0.1903 -0.4884
 6311SOL    HW130395   1.355   0.565   7.007 -1.3971  0.0273  0.4860
 6311SOL    HW230396   1.314   0.704   6.976 -0.5209  0.9983 -0.5371
 6312SOL     OW30397   2.224   3.015   5.692  0.2181  0.3564  0.1327
 6312SOL    HW130398   2.240   3.015   5.598  1.3131 -1.9329  0.3209
 6312SOL    HW230399   2.312   3.028   5.726 -0.0395 -0.1968  1.0008
 6313SOL     OW30400   2.821   1.342  13.386 -0.2723  0.4056  0.1217
 6313SOL    HW130401   2.810   1.405  13.457 -1.3751 -1.1605  1.3363
 6313SOL    HW230402   2.878   1.391  13.326  1.6730  0.1532  1.7510
 6314SOL     OW30403   0.060   2.913   4.097  0.0819 -0.5913  0.2256
 6314SOL    HW130404   0.044   2.999   4.057 -1.7880 -0.7415  0.6442
 6314SOL    HW230405   0.089   2.872   4.016 -3.6739 -1.1794 -0.8156
 6315SOL     OW30406   4.284   2.412   1.348  0.0830 -0.4799 -0.6546
 6315SOL    HW130407   4.365   2.457   1.372 -1.0276  0.4439  1.3818
 6315SOL    HW230408   4.321   2.336   1.302  0.2382 -1.6432  1.3912
 6316SOL     OW30409   2.381   3.413   7.971 -0.0728  0.0982 -0.3543
 6316SOL    HW130410   2.333   3.380   8.046 -1.1593  1.8158 -0.2806
 6316SOL    HW230411   2.333   3.372   7.899 -0.9417 -0.6128  0.6344
 6317SOL     OW30412   2.423   0.515   4.138 -0.1427  0.5114 -0.5045
 6317SOL    HW130413   2.399   0.442   4.196  0.6243  0.5843 -0.1013
 6317SOL    HW230414   2.384   0.592   4.180 -0.9009 -1.0428  1.6329
 6318SOL     OW30415   3.414   2.578   7.196 -1.0246  0.3219  0.3787
 6318SOL    HW130416   3.501   2.587   7.236 -0.9158  2.4388 -0.3390
 6318SOL    HW230417   3.420   2.557   7.102  0.3051  0.3975  0.4453
 6319SOL     OW30418   4.067   1.039   5.921  0.6299 -0.1663  0.3623
 6319SOL    HW130419   4.027   1.122   5.947 -1.2990 -0.8735 -0.3450
 6319SOL    HW230420   4.001   1.015   5.857  0.4648 -1.2243  0.9227
 6320SOL     OW30421   1.264   2.809   7.013 -0.3435  0.6606 -0.2612
 6320SOL    HW130422   1.189   2.801   7.072  0.3136 -1.6112  0.2516
 6320SOL    HW230423   1.266   2.732   6.956  1.0828  0.6620 -0.2141
 6321SOL     OW30424   2.918   2.245  14.644  0.1142 -0.7993 -0.0463
 6321SOL    HW130425   2.982   2.317  14.647  0.5482 -1.0536 -3.8403
 6321SOL    HW230426   2.858   2.266  14.716 -0.4155  1.3353 -1.0962
 6322SOL     OW30427   1.021   2.355  12.667 -1.1815  0.0183 -0.0239
 6322SOL    HW130428   1.078   2.312  12.731  0.4128  1.5344 -0.3980
 6322SOL    HW230429   1.028   2.450  12.680  1.5444 -0.1021 -0.5265
 6323SOL     OW30430   1.159   1.102   5.659 -0.6911 -0.5636  0.7287
 6323SOL    HW130431   1.086   1.069   5.606 -0.5980 -1.0210  0.8850
 6323SOL    HW230432   1.208   1.024   5.683  2.5876  0.6844 -1.9075
 6324SOL     OW30433   3.070   1.633   5.203 -0.0479 -0.9762  0.0528
 6324SOL    HW130434   3.121   1.701   5.247  0.9022 -1.5543 -0.1483
 6324SOL    HW230435   2.991   1.684   5.186  2.0122  1.7979 -1.1993
 6325SOL     OW30436   3.669   1.059  10.206 -0.0370 -0.0820  0.0653
 6325SOL    HW130437   3.682   0.999  10.279 -0.6966 -0.3051 -0.0071
 6325SOL    HW230438   3.760   1.076  10.182 -0.4309 -0.9166 -1.9613
 6326SOL     OW30439   0.425   1.801   7.526  0.0065 -0.1963 -0.4733
 6326SOL    HW130440   0.454   1.828   7.613  1.4663  1.2477 -1.4041
 6326SOL    HW230441   0.506   1.776   7.481  0.7689 -1.4384  1.5491
 6327SOL     OW30442   4.073   3.658   5.557 -0.5614  0.5189  0.1443
 6327SOL    HW130443   4.081   3.753   5.564 -1.6189  0.5917  0.3666
 6327SOL    HW230444   4.148   3.638   5.502 -1.3039  2.3931 -1.5761
 6328SOL     OW30445   1.194   0.415   8.930  0.5221 -0.5184  0.0532
 6328SOL    HW130446   1.211   0.322   8.944  1.8110  0.3305  4.0892
 6328SOL    HW230447   1.099   0.414   8.941  0.3550 -3.1674 -1.7359
 6329SOL     OW30448   3.748   1.789  13.115  0.1786  0.2406 -0.4674
 6329SOL    HW130449   3.821   1.813  13.057  0.8433  0.5968  0.5116
 6329SOL    HW230450   3.751   1.694  13.111  0.4503  0.3247 -2.8231
 6330SOL     OW30451   0.386   4.000  15.914  0.6160  0.4277  0.4754
 6330SOL    HW130452   0.450   3.929  15.908  1.1190  0.7579  1.9795
 6330SOL    HW230453   0.314   3.969  15.859 -0.7513  2.0824  1.3163
 6331SOL     OW30454   2.856   1.450   3.597  0.1513  0.1138  0.6741
 6331SOL    HW130455   2.866   1.526   3.539 -2.0034 -0.4305 -0.3843
 6331SOL    HW230456   2.892   1.385   3.536 -2.9866  0.1826 -1.2634
 6332SOL     OW30457   2.318   3.036  10.088 -0.4620 -0.3293  0.1256
 6332SOL    HW130458   2.331   3.069  10.177 -1.4886 -0.4052  0.2939
 6332SOL    HW230459   2.396   3.061  10.037  0.9755 -2.0666  1.4573
 6333SOL     OW30460   1.479   3.584   5.232 -0.0408  0.0514 -0.0284
 6333SOL    HW130461   1.570   3.555   5.225 -0.6431 -1.6397 -0.9120
 6333SOL    HW230462   1.483   3.663   5.178 -0.0414 -2.1245 -3.1787
 6334SOL     OW30463   4.142   3.144  10.742 -0.2169  1.3396  0.1642
 6334SOL    HW130464   4.073   3.110  10.799  0.6856  0.0651  0.4817
 6334SOL    HW230465   4.176   3.218  10.793 -0.4029  2.1384 -0.8675
 6335SOL     OW30466   2.440   4.228  11.998 -0.2444  0.6532  0.0141
 6335SOL    HW130467   2.406   4.224  11.909  0.7123 -0.0833 -0.3222
 6335SOL    HW230468   2.365   4.240  12.056 -0.4767  1.6739 -0.4880
 6336SOL     OW30469   0.253   1.586  11.763 -0.0811 -0.0591 -0.0196
 6336SOL    HW130470   0.187   1.655  11.755 -1.1048 -1.2426 -1.8136
 6336SOL    HW230471   0.294   1.584  11.677  1.7768 -1.7798  0.8941
 6337SOL     OW30472   0.002   1.018   4.573  0.0395  0.0708  0.5126
 6337SOL    HW130473   0.017   1.111   4.587  2.9836 -0.6278  2.1984
 6337SOL    HW230474   4.670   1.020   4.651  0.2223  0.4866  0.6277
 6338SOL     OW30475   0.210   3.515  14.234  0.4528 -0.0615  0.2615
 6338SOL    HW130476   0.230   3.605  14.205 -1.3368  0.3744  0.3970
 6338SOL    HW230477   0.270   3.466  14.177  0.1893 -0.0015 -0.0637
 6339SOL     OW30478   2.539   3.105  16.342 -0.6333  0.0638 -0.0821
 6339SOL    HW130479   2.570   3.043  16.277  0.0983 -1.0510  1.3321
 6339SOL    HW230480   2.454   3.127  16.303  0.3469  2.3713 -0.9403
 6340SOL     OW30481   1.103   4.545   2.836  0.0970  0.5176 -0.1396
 6340SOL    HW130482   1.036   4.484   2.807  1.3096  0.0392 -1.9703
 6340SOL    HW230483   1.157   4.493   2.897 -1.7729 -0.3060  0.7987
 6341SOL     OW30484   1.156   3.985   3.000  0.1557  0.0253 -0.1698
 6341SOL    HW130485   1.245   3.999   3.032 -0.4211 -0.4641  1.6781
 6341SOL    HW230486   1.106   4.018   3.075 -1.2804  1.3084 -1.6838
 6342SOL     OW30487   2.595   4.191   1.255  0.6326  0.0997 -0.0316
 6342SOL    HW130488   2.650   4.270   1.256 -0.4990  0.8873  1.5097
 6342SOL    HW230489   2.518   4.234   1.293  2.1700  1.9451  1.0021
 6343SOL     OW30490   0.961   2.437   5.921  0.1740 -0.1797 -0.1359
 6343SOL    HW130491   0.983   2.387   5.843  0.9585 -0.0344 -0.0064
 6343SOL    HW230492   1.047   2.457   5.958 -1.1170  2.8038  1.2547
 6344SOL     OW30493   3.063   3.417  15.496  0.1363  0.6874  0.2960
 6344SOL    HW130494   2.990   3.367  15.462 -0.2355  1.7979 -0.5420
 6344SOL    HW230495   3.094   3.464  15.419 -0.5985  0.9448  0.1571
 6345SOL     OW30496   1.840   0.018   3.420 -0.3006 -0.3217 -0.3978
 6345SOL    HW130497   1.861   0.096   3.472 -0.0482 -0.8177  0.2402
 6345SOL    HW230498   1.777   0.052   3.356  0.3821  2.3213  0.3255
 6346SOL     OW30499   0.922   4.392  16.435  0.0462  0.2513  0.1293
 6346SOL    HW130500   1.000   4.443  16.412 -1.1953  1.1900 -2.0019
 6346SOL    HW230501   0.862   4.417  16.365 -1.2888  0.0512  1.1936
 6347SOL     OW30502   2.101   1.443  11.952  0.3911 -0.3487  0.2009
 6347SOL    HW130503   2.108   1.371  11.889  1.2078  0.9407 -1.1630
 6347SOL    HW230504   2.125   1.514  11.894  5.0361 -0.3421  2.0952
 6348SOL     OW30505   1.636   0.340  16.189  0.0417 -0.0853  0.1959
 6348SOL    HW130506   1.656   0.420  16.140 -0.9680 -0.0358 -0.1359
 6348SOL    HW230507   1.709   0.285  16.164  0.3966  0.3954  0.1725
 6349SOL     OW30508   2.277   3.799  13.973 -0.1078  0.0334 -0.1025
 6349SOL    HW130509   2.372   3.805  13.974 -0.0760 -0.5136 -0.2292
 6349SOL    HW230510   2.261   3.744  14.049  1.8653 -0.9316 -0.4049
 6350SOL     OW30511   0.340   2.963   8.823  0.5724 -0.0994  0.3649
 6350SOL    HW130512   0.309   2.954   8.733  0.0932  0.4360  0.4759
 6350SOL    HW230513   0.434   2.967   8.808  1.2307 -1.0362  4.2149
 6351SOL     OW30514   1.659   4.432   7.641 -0.2912 -0.3964  0.2959
 6351SOL    HW130515   1.588   4.405   7.583 -0.7400  0.0542  0.6316
 6351SOL    HW230516   1.739   4.388   7.611  0.3702  1.0298 -0.0666
 6352SOL     OW30517   4.186   0.023   5.832  0.6379  0.0199 -0.2854
 6352SOL    HW130518   4.204   0.115   5.851 -2.6745  0.1519  2.2788
 6352SOL    HW230519   4.256   4.702   5.879  2.3420 -0.7858 -3.5743
 6353SOL     OW30520   1.846   0.255   1.739 -0.3180 -0.2177  0.0576
 6353SOL    HW130521   1.832   0.300   1.656 -1.1337 -0.7312 -0.0915
 6353SOL    HW230522   1.760   0.219   1.762 -0.4639 -0.6310 -1.1039
 6354SOL     OW30523   0.536   1.522   7.683  0.3192 -0.3145  0.2003
 6354SOL    HW130524   0.564   1.505   7.593  0.4993 -0.6949  0.3285
 6354SOL    HW230525   0.616   1.568   7.710  2.3144 -3.1014 -0.9274
 6355SOL     OW30526   0.110   4.619  17.544  0.1869 -0.3261 -0.0885
 6355SOL    HW130527   0.149   4.541  17.505  1.5238  1.6798 -2.6778
 6355SOL    HW230528   0.189   4.643  17.594  0.8201  0.2173 -1.3554
 6356SOL     OW30529   1.424   4.010   3.061 -0.5196  0.2650 -0.4755
 6356SOL    HW130530   1.477   4.058   3.125 -1.7762 -2.0543  2.3377
 6356SOL    HW230531   1.449   3.918   3.069 -1.1179  0.1741  0.4405
 6357SOL     OW30532   1.843   0.089   2.224 -0.0646  0.5581 -0.1998
 6357SOL    HW130533   1.778   0.029   2.188 -0.0272  0.7254 -0.5532
 6357SOL    HW230534   1.783   0.155   2.261  0.3296 -0.0626  1.5202
 6358SOL     OW30535   1.845   4.229   7.886 -0.0168 -0.2230 -0.4494
 6358SOL    HW130536   1.851   4.241   7.791 -0.5012  1.3230 -0.2963
 6358SOL    HW230537   1.919   4.279   7.920  0.5098 -2.2931  1.4330
 6359SOL     OW30538   4.565   1.223  14.610 -0.4893 -0.1722 -0.1769
 6359SOL    HW130539   4.598   1.147  14.563  1.9742  1.0598 -0.4537
 6359SOL    HW230540   4.472   1.211  14.625 -0.7475  0.7047 -1.0418
 6360SOL     OW30541   2.216   3.172   3.030  0.1784  0.7016  0.0303
 6360SOL    HW130542   2.183   3.258   3.005  0.8237  1.2693  1.1358
 6360SOL    HW230543   2.310   3.169   3.009  0.1743  1.2632 -0.0758
 6361SOL     OW30544   4.015   1.447   9.775  0.7674  0.5425 -0.5646
 6361SOL    HW130545   3.970   1.376   9.730  1.5460 -0.7252  0.6570
 6361SOL    HW230546   3.983   1.444   9.866  0.0962  1.3674 -0.7801
 6362SOL     OW30547   4.664   0.058   1.119  0.2036  0.0552  0.4445
 6362SOL    HW130548   4.643   0.066   1.026  2.4415 -3.6629 -0.3446
 6362SOL    HW230549   0.036   0.049   1.115  0.1448 -0.7819  0.9144
 6363SOL     OW30550   3.514   3.910   5.511  0.4750 -0.5405 -0.1007
 6363SOL    HW130551   3.519   3.816   5.528  0.8477 -0.7319 -1.2720
 6363SOL    HW230552   3.586   3.936   5.569 -0.2142  0.2701  0.3853
 6364SOL     OW30553   2.684   1.565   6.378 -0.4047 -0.0809  0.1171
 6364SOL    HW130554   2.639   1.577   6.294 -0.1564 -0.2043 -0.0359
 6364SOL    HW230555   2.771   1.542   6.347 -1.1644  2.8494 -4.1786
 6365SOL     OW30556   3.999   1.747  11.350  0.3080 -0.4325  0.0536
 6365SOL    HW130557   4.069   1.811  11.361 -0.1164  0.4398 -2.1426
 6365SOL    HW230558   4.048   1.670  11.377 -0.2436 -0.1048  1.9766
 6366SOL     OW30559   1.861   0.756   0.172  0.0819  0.3234  0.1238
 6366SOL    HW130560   1.827   0.780   0.258  2.9682 -1.8248  1.8549
 6366SOL    HW230561   1.849   0.831   0.113  0.3981 -0.6853 -1.2068
 6367SOL     OW30562   3.987   0.219   2.811 -0.2600  0.0744  0.6746
 6367SOL    HW130563   3.954   0.285   2.872  1.9674  1.2275  0.5885
 6367SOL    HW230564   3.968   0.143   2.866  0.3334 -1.5314 -1.3413
 6368SOL     OW30565   1.524   1.082   6.422  0.5213 -0.2274  0.4147
 6368SOL    HW130566   1.561   1.033   6.496 -1.6986 -0.4633  1.3808
 6368SOL    HW230567   1.598   1.081   6.361 -0.0052 -0.6070 -0.2087
 6369SOL     OW30568   3.422   3.205  17.184  0.7068 -0.0449 -0.0074
 6369SOL    HW130569   3.509   3.167  17.195  1.5028  1.4300 -1.1977
 6369SOL    HW230570   3.445   3.298  17.176 -1.2536  0.4969  0.7562
 6370SOL     OW30571   2.415   3.763   3.339 -0.0523  1.1139 -0.0055
 6370SOL    HW130572   2.489   3.768   3.278  0.1685 -1.4513  0.0439
 6370SOL    HW230573   2.444   3.685   3.386  3.8814  2.0591 -0.8644
 6371SOL     OW30574   4.434   3.045   2.045  0.2644  0.0554 -0.1682
 6371SOL    HW130575   4.378   2.992   2.102 -0.2780 -0.9979 -1.6850
 6371SOL    HW230576   4.426   3.002   1.960  0.1955 -1.4462  0.5995
 6372SOL     OW30577   1.042   4.612   8.719  0.2680  0.1583  0.3665
 6372SOL    HW130578   1.018   4.540   8.776  1.4352  0.4154  1.1999
 6372SOL    HW230579   1.103   4.570   8.658 -0.8557 -1.9681  0.7341
 6373SOL     OW30580   0.447   2.490   6.010 -0.2984 -0.3688 -0.4025
 6373SOL    HW130581   0.489   2.435   6.077 -1.1288  0.4693  0.8198
 6373SOL    HW230582   0.501   2.468   5.935  1.3132  0.0262  0.6284
 6374SOL     OW30583   3.616   3.403  13.488 -0.0724  0.4726  0.4034
 6374SOL    HW130584   3.676   3.473  13.461 -0.0579 -0.2633 -1.4547
 6374SOL    HW230585   3.596   3.365  13.403 -1.1589  0.6165  0.5941
 6375SOL     OW30586   4.045   0.939   9.960  0.0287 -0.1281 -0.4281
 6375SOL    HW130587   4.133   0.976   9.964  0.5693 -1.1166 -2.7042
 6375SOL    HW230588   3.996   1.002  10.013  0.1854  0.8580 -1.4491
 6376SOL     OW30589   1.970   0.934   6.164 -0.0624  0.0054  0.5457
 6376SOL    HW130590   2.028   0.938   6.239  3.3948  0.8982 -2.1807
 6376SOL    HW230591   1.900   0.989   6.200 -1.7135 -0.4786 -1.8856
 6377SOL     OW30592   1.288   0.397   7.032  0.2104  0.4406 -1.0400
 6377SOL    HW130593   1.371   0.357   7.058 -0.4240 -0.6289 -0.6212
 6377SOL    HW230594   1.236   0.318   7.018  0.4200  0.3054 -1.0541
 6378SOL     OW30595   3.910   4.240   1.129  0.1724  0.3804 -0.5369
 6378SOL    HW130596   3.946   4.312   1.078  1.4887 -0.6844 -1.1236
 6378SOL    HW230597   3.989   4.186   1.129 -0.8741 -1.1358 -0.8481
 6379SOL     OW30598   1.994   0.364   6.451  0.2778  0.0475 -0.5538
 6379SOL    HW130599   1.906   0.378   6.485  0.9711 -0.6073  1.5489
 6379SOL    HW230600   1.973   0.354   6.358 -1.4348 -1.2874 -0.0098
 6380SOL     OW30601   0.645   1.365   2.338 -0.0738 -0.3734  0.2036
 6380SOL    HW130602   0.628   1.380   2.431  1.4300 -0.8773  0.5580
 6380SOL    HW230603   0.558   1.354   2.301 -0.9416  0.8548  1.8607
 6381SOL     OW30604   0.471   0.742   2.758  0.0547 -0.0021 -0.2882
 6381SOL    HW130605   0.468   0.647   2.756  0.6623 -0.0105 -0.6549
 6381SOL    HW230606   0.557   0.760   2.721 -0.2398  1.5628 -0.2562
 6382SOL     OW30607   1.825   4.395   8.956  0.7276 -0.3045  0.4908
 6382SOL    HW130608   1.769   4.392   9.034  0.6326  1.3173  0.4917
 6382SOL    HW230609   1.834   4.302   8.937 -1.4039 -0.2559 -0.6452
 6383SOL     OW30610   1.389   3.660   2.736  0.2514  0.3162  0.3915
 6383SOL    HW130611   1.439   3.741   2.722 -0.6038  0.4912 -1.6647
 6383SOL    HW230612   1.306   3.694   2.702 -0.7274 -1.9605  0.5172
 6384SOL     OW30613   2.665   2.108   1.468 -0.2416  0.4902  0.1046
 6384SOL    HW130614   2.611   2.033   1.444  0.1089 -0.0431  0.9708
 6384SOL    HW230615   2.758   2.085   1.460 -0.2960  0.2869  0.0413
 6385SOL     OW30616   2.114   0.858  15.565 -0.4433 -0.0073 -0.4457
 6385SOL    HW130617   2.176   0.884  15.498  2.8562 -1.0309  2.2294
 6385SOL    HW230618   2.095   0.940  15.611  1.4379  1.1830 -1.8082
 6386SOL     OW30619   3.881   0.821   6.406  0.1758  0.0278 -0.7650
 6386SOL    HW130620   3.964   0.790   6.441 -1.0522 -0.8129  1.4383
 6386SOL    HW230621   3.907   0.877   6.334 -0.6798  0.9268 -0.3672
 6387SOL     OW30622   1.600   3.164   5.285 -0.6030 -0.0437  0.0078
 6387SOL    HW130623   1.523   3.222   5.286 -1.2228 -0.8739  0.1915
 6387SOL    HW230624   1.653   3.206   5.353 -1.4032  1.1722 -0.1070
 6388SOL     OW30625   3.723   4.524   9.926 -0.2333 -1.0573 -0.0397
 6388SOL    HW130626   3.798   4.579   9.946 -0.3336 -0.6555 -0.7681
 6388SOL    HW230627   3.757   4.452   9.873  2.2927 -0.6007  0.9642
 6389SOL     OW30628   4.136   2.095   4.138 -0.3839 -0.4652 -0.4983
 6389SOL    HW130629   4.095   2.182   4.136 -0.5804 -0.5014  1.5741
 6389SOL    HW230630   4.186   2.091   4.220 -0.1337  0.3715 -0.6032
 6390SOL     OW30631   2.831   1.789  15.052 -0.6993  0.1442  0.3200
 6390SOL    HW130632   2.900   1.775  15.118  0.7144  2.1502 -0.7449
 6390SOL    HW230633   2.884   1.775  14.974 -0.8137  1.0956  0.0686
 6391SOL     OW30634   3.608   1.951  13.468  0.0183  0.2640 -0.0466
 6391SOL    HW130635   3.567   1.985  13.547 -0.5453 -0.6989  0.0766
 6391SOL    HW230636   3.701   1.947  13.488 -0.5253  0.2903  2.5075
 6392SOL     OW30637   1.525   4.565   8.135 -0.5365  0.0128  0.3985
 6392SOL    HW130638   1.497   4.652   8.106 -1.9677 -0.8849 -0.8732
 6392SOL    HW230639   1.616   4.577   8.165 -0.2544 -1.4304  0.1006
 6393SOL     OW30640   2.256   1.788   7.453  0.2571  0.2942 -0.0121
 6393SOL    HW130641   2.224   1.872   7.422 -1.5824  0.3359  2.0855
 6393SOL    HW230642   2.314   1.758   7.382  2.7181  3.8140  0.5199
 6394SOL     OW30643   4.541   4.187  14.483 -0.0746  0.1691 -0.1940
 6394SOL    HW130644   4.474   4.256  14.485  0.1975  0.4008  1.6044
 6394SOL    HW230645   4.620   4.231  14.450 -0.9230 -0.2315 -2.7114
 6395SOL     OW30646   4.641   4.211   4.219 -0.3803  0.0298  0.5633
 6395SOL    HW130647   4.612   4.121   4.232  1.0315 -0.5858 -0.4881
 6395SOL    HW230648   4.641   4.248   4.307  2.2977  2.6825 -0.5616
 6396SOL     OW30649   2.567   3.855   7.322  0.1392 -0.2532 -0.4006
 6396SOL    HW130650   2.632   3.919   7.351 -1.6328  2.4666 -2.4091
 6396SOL    HW230651   2.482   3.898   7.317  0.8610  0.7930 -4.1404
 6397SOL     OW30652   1.360   2.415   5.095  1.0630 -0.1214  0.3408
 6397SOL    HW130653   1.418   2.352   5.052  1.7384  3.1430 -3.4967
 6397SOL    HW230654   1.420   2.450   5.161  0.7380  1.4733 -0.2172
 6398SOL     OW30655   1.530   3.969   3.565  0.2907  0.0850 -0.4017
 6398SOL    HW130656   1.608   4.021   3.583  0.0388 -0.0156  0.9973
 6398SOL    HW230657   1.545   3.955   3.472  1.1706 -0.0424 -0.2406
 6399SOL     OW30658   1.779   3.355   8.850  0.0065 -0.0930  0.0074
 6399SOL    HW130659   1.862   3.373   8.894  0.2178 -2.6792  0.6707
 6399SOL    HW230660   1.728   3.432   8.873 -0.7389 -0.4693 -0.3884
 6400SOL     OW30661   3.466   0.368   9.552 -0.1077 -0.0315  0.9103
 6400SOL    HW130662   3.415   0.449   9.547 -1.6329 -1.0548 -0.3166
 6400SOL    HW230663   3.494   0.362   9.644  1.6464 -0.7959  0.3268
 6401SOL     OW30664   0.783   3.990   7.926 -0.5441 -0.2928  0.0586
 6401SOL    HW130665   0.812   3.941   7.849 -1.2938  0.9847 -1.0667
 6401SOL    HW230666   0.867   3.981   7.970  0.3958  0.9745 -1.4563
 6402SOL     OW30667   2.759   1.802   0.440 -0.4274  0.6616 -0.1325
 6402SOL    HW130668   2.839   1.757   0.416  0.6679  1.4160  2.1902
 6402SOL    HW230669   2.688   1.739   0.424 -0.2488  0.6668 -0.9540
 6403SOL     OW30670   1.507   3.770   6.919 -0.2402 -0.1504 -0.3291
 6403SOL    HW130671   1.418   3.797   6.896 -0.3121 -0.5428 -0.4966
 6403SOL    HW230672   1.514   3.675   6.926  0.0760 -0.1311 -0.3740
 6404SOL     OW30673   0.031   3.930   7.573 -0.3651  0.7650  0.1869
 6404SOL    HW130674   0.066   4.018   7.576 -0.5989  0.8496  0.4066
 6404SOL    HW230675   0.109   3.876   7.562 -0.2173  1.3323 -1.5186
 6405SOL     OW30676   3.045   1.109   8.533 -0.1532  0.2544 -0.2932
 6405SOL    HW130677   2.975   1.054   8.566  0.1938 -0.1748 -0.2650
 6405SOL    HW230678   3.096   1.048   8.479 -0.2294  0.3244 -0.4466
 6406SOL     OW30679   3.171   1.942   6.320 -0.1522  0.5572 -0.1764
 6406SOL    HW130680   3.197   1.851   6.306 -1.9045  0.4530 -2.6443
 6406SOL    HW230681   3.138   1.941   6.410 -0.7416  0.7269 -0.3872
 6407SOL     OW30682   4.307   1.360   7.079  0.4244 -0.1309  0.1935
 6407SOL    HW130683   4.344   1.303   7.146 -0.5157 -1.0376 -0.0491
 6407SOL    HW230684   4.390   1.395   7.047  0.2727  1.6662  1.8037
 6408SOL     OW30685   4.340   0.946   7.947  0.2263  0.3599  0.7995
 6408SOL    HW130686   4.336   1.016   8.012 -0.7152  2.2131 -1.2668
 6408SOL    HW230687   4.251   0.913   7.935  1.7825 -2.9774 -1.4787
 6409SOL     OW30688   1.416   4.715   5.554  0.0518 -0.0684  0.2982
 6409SOL    HW130689   1.477   0.020   5.622 -0.3809  0.3286  0.5238
 6409SOL    HW230690   1.475   0.004   5.480  0.4623  0.2123  0.6723
 6410SOL     OW30691   1.820   2.024   4.643  0.1603 -0.3026  0.5656
 6410SOL    HW130692   1.792   2.110   4.674  1.2448 -0.1411  1.0980
 6410SOL    HW230693   1.857   2.044   4.557 -0.7153  0.1820  0.2986
 6411SOL     OW30694   4.065   0.887   3.982 -0.2607 -0.0505 -0.1367
 6411SOL    HW130695   4.088   0.976   3.957  0.7210 -0.7007 -1.5782
 6411SOL    HW230696   3.974   0.905   4.003 -0.2706  2.1234 -2.0722
 6412SOL     OW30697   1.900   4.495  11.888  0.1194  0.0755 -0.3398
 6412SOL    HW130698   1.942   4.523  11.969 -2.1426  3.1302 -0.2141
 6412SOL    HW230699   1.851   4.568  11.850  1.8205  1.3240 -0.1460
 6413SOL     OW30700   3.887   1.409  11.696 -0.1913  0.7774 -0.0244
 6413SOL    HW130701   3.920   1.417  11.607  0.6259 -2.1288  0.0257
 6413SOL    HW230702   3.852   1.498  11.702 -0.6777  0.5419  0.6104
 6414SOL     OW30703   4.605   1.155   0.532 -0.1845  0.5360 -0.5414
 6414SOL    HW130704   4.533   1.121   0.585  0.6141  1.2402  1.0040
 6414SOL    HW230705   4.597   1.106   0.450  1.2363  0.0717 -0.4062
 6415SOL     OW30706   2.578   0.299   5.437  0.0737  0.2333 -0.1899
 6415SOL    HW130707   2.597   0.283   5.345  1.4065 -0.2266  0.1703
 6415SOL    HW230708   2.502   0.357   5.431 -0.2874 -0.1489  0.7008
 6416SOL     OW30709   2.684   4.288   8.389 -0.9451  0.4701  0.3804
 6416SOL    HW130710   2.635   4.216   8.349  0.7574 -0.8884  0.7287
 6416SOL    HW230711   2.761   4.288   8.333 -1.1385  0.3838  0.1178
 6417SOL     OW30712   2.382   2.491   4.059 -0.2126 -0.1127 -0.1568
 6417SOL    HW130713   2.463   2.466   4.104 -0.5828 -0.0107  0.5530
 6417SOL    HW230714   2.380   2.444   3.975  1.9160  0.1029 -0.3237
 6418SOL     OW30715   4.158   1.324   0.470 -0.0482  0.0318 -0.4724
 6418SOL    HW130716   4.241   1.370   0.478 -1.1289  1.8715  0.3899
 6418SOL    HW230717   4.130   1.323   0.562  0.3573 -0.9948 -0.3690
 6419SOL     OW30718   2.861   3.473   6.788 -0.5616 -0.0352  0.4702
 6419SOL    HW130719   2.933   3.410   6.779 -0.7739 -0.1272 -0.6025
 6419SOL    HW230720   2.822   3.468   6.701  2.4085  1.2949 -0.9281
 6420SOL     OW30721   2.278   3.721   2.307 -0.2636 -0.3659 -0.6342
 6420SOL    HW130722   2.297   3.663   2.234 -0.0084 -0.1208 -0.7657
 6420SOL    HW230723   2.216   3.781   2.265  1.6182  1.1549 -1.2284
 6421SOL     OW30724   4.703   1.159  15.466  0.1624  0.3161  0.7489
 6421SOL    HW130725   0.023   1.198  15.542 -2.2098  2.0886  1.1687
 6421SOL    HW230726   0.026   1.193  15.389 -0.0665  1.7587  1.2589
 6422SOL     OW30727   3.683   3.343  15.577 -0.1889  0.8053  0.5205
 6422SOL    HW130728   3.768   3.387  15.578  1.8437 -3.1614  0.8872
 6422SOL    HW230729   3.688   3.285  15.653 -0.3963 -1.1754 -0.9652
 6423SOL     OW30730   2.270   0.488   8.076 -0.2280  0.9067  0.1360
 6423SOL    HW130731   2.313   0.493   8.162  0.7049  0.4664 -0.3097
 6423SOL    HW230732   2.178   0.468   8.092 -0.4526  0.1979 -2.0919
 6424SOL     OW30733   4.036   1.823  16.753 -0.0882 -1.1431 -0.0908
 6424SOL    HW130734   3.981   1.866  16.818 -0.0849 -0.9977 -0.1830
 6424SOL    HW230735   4.039   1.732  16.782  3.7600 -1.3947 -1.2866
 6425SOL     OW30736   0.636   0.781   3.929  0.6544  0.3736 -0.0460
 6425SOL    HW130737   0.590   0.719   3.986 -0.3937  0.1261 -1.1392
 6425SOL    HW230738   0.568   0.824   3.876  0.3882 -0.9072 -0.7355
 6426SOL     OW30739   2.307   1.128   3.438  0.0369 -0.2426  0.5925
 6426SOL    HW130740   2.322   1.220   3.419 -0.4349 -0.1666  0.5778
 6426SOL    HW230741   2.392   1.111   3.480 -0.0673  1.7997  1.6327
 6427SOL     OW30742   1.567   0.496   8.315  0.0656 -0.2627 -0.0651
 6427SOL    HW130743   1.600   0.556   8.248 -0.7881  1.4508  1.0387
 6427SOL    HW230744   1.517   0.549   8.378  0.2963  1.2144 -1.1263
 6428SOL     OW30745   2.587   4.321   4.392  0.8038  0.0351 -0.2725
 6428SOL    HW130746   2.617   4.234   4.421 -0.2069 -0.1154  0.3296
 6428SOL    HW230747   2.556   4.300   4.304 -0.8428  0.6774  0.1540
 6429SOL     OW30748   3.707   2.968  13.986 -0.0268 -0.2985 -0.3079
 6429SOL    HW130749   3.684   2.909  13.914  1.9182 -2.7120  1.0216
 6429SOL    HW230750   3.683   2.909  14.058  0.4765 -3.6031 -2.8224
 6430SOL     OW30751   1.226   2.341   3.298  0.0485 -0.6051 -0.1814
 6430SOL    HW130752   1.152   2.367   3.353 -0.0129 -1.7766  0.3140
 6430SOL    HW230753   1.273   2.269   3.341  1.4436  0.5756  0.2420
 6431SOL     OW30754   1.003   2.586   4.976 -0.1961  0.0568  0.5154
 6431SOL    HW130755   0.960   2.625   5.052  1.8214 -0.1000  1.7566
 6431SOL    HW230756   1.095   2.610   4.990 -0.1594  1.1054 -1.4553
 6432SOL     OW30757   4.573   1.693   5.360 -0.0505  0.2137 -0.1962
 6432SOL    HW130758   4.576   1.638   5.438  1.1714 -0.5151 -0.7457
 6432SOL    HW230759   4.585   1.782   5.393 -0.5444 -0.1393  0.9291
 6433SOL     OW30760   3.450   4.576  12.001  0.1252 -0.0992  0.3161
 6433SOL    HW130761   3.509   4.651  11.991 -0.4150  0.2869  0.0005
 6433SOL    HW230762   3.398   4.597  11.923  0.9993 -2.8281 -1.0068
 6434SOL     OW30763   1.502   3.894  10.204 -0.5155  0.4166 -1.0039
 6434SOL    HW130764   1.425   3.837  10.210  0.9773 -1.3901  0.9589
 6434SOL    HW230765   1.468   3.979  10.174  1.2820  2.1330  1.8371
 6435SOL     OW30766   0.190   0.348   2.710 -0.5061  0.3058  0.2888
 6435SOL    HW130767   0.097   0.369   2.717 -0.8178 -1.7590  2.3581
 6435SOL    HW230768   0.215   0.377   2.797 -0.6945 -0.5451  0.6243
 6436SOL     OW30769   0.334   1.945  12.422 -0.2756 -0.0983  0.0202
 6436SOL    HW130770   0.428   1.926  12.419 -0.5127 -1.3902  0.8628
 6436SOL    HW230771   0.307   1.909  12.337  0.6490 -2.4715  0.7267
 6437SOL     OW30772   3.716   1.041  11.897 -0.3530  0.1130 -0.4532
 6437SOL    HW130773   3.765   1.029  11.979 -0.2903  2.4612 -0.1289
 6437SOL    HW230774   3.744   1.127  11.866 -1.3971  0.0605 -1.5311
 6438SOL     OW30775   3.251   3.637   5.088  0.1108 -0.2800  0.5931
 6438SOL    HW130776   3.223   3.724   5.059  0.1064 -0.0603  1.2675
 6438SOL    HW230777   3.279   3.604   5.002 -2.2707 -2.2373  0.5432
 6439SOL     OW30778   2.153   0.994  16.495 -0.2036 -0.4145 -0.2193
 6439SOL    HW130779   2.108   0.912  16.515  0.2818 -1.1443 -2.0734
 6439SOL    HW230780   2.195   1.014  16.579 -2.7134 -0.7697  1.1184
 6440SOL     OW30781   2.267   1.808   8.626 -0.1514  0.0969  0.3282
 6440SOL    HW130782   2.176   1.835   8.612  0.1489  2.4102  2.8262
 6440SOL    HW230783   2.306   1.885   8.667 -0.4006 -0.2521  1.2381
 6441SOL     OW30784   1.926   4.076   5.881 -0.0759 -0.0382 -0.0287
 6441SOL    HW130785   2.004   4.071   5.935 -1.4355 -0.9988  1.8335
 6441SOL    HW230786   1.860   4.030   5.932  1.8747  0.0157  2.4848
 6442SOL     OW30787   1.234   0.800  16.493  0.0391  0.5897 -0.0864
 6442SOL    HW130788   1.253   0.817  16.401  2.8296  0.2344  0.4312
 6442SOL    HW230789   1.308   0.746  16.517 -0.0580 -0.3067 -1.8056
 6443SOL     OW30790   0.239   0.510   1.952 -0.3303 -0.0019 -0.0816
 6443SOL    HW130791   0.283   0.476   1.874 -0.0970 -1.9743  0.9027
 6443SOL    HW230792   0.156   0.541   1.916 -0.8619 -1.0226  0.2653
 6444SOL     OW30793   2.233   4.226  17.066  0.2389  0.6907  0.1392
 6444SOL    HW130794   2.267   4.291  17.005  0.4726  0.1300 -0.3284
 6444SOL    HW230795   2.269   4.148  17.023  0.5367 -0.4184  2.4011
 6445SOL     OW30796   1.637   3.177   1.844 -0.3631 -0.2288  0.4542
 6445SOL    HW130797   1.623   3.248   1.908 -1.0638 -0.1056  0.1608
 6445SOL    HW230798   1.584   3.110   1.886 -1.6360  0.2315 -0.4471
 6446SOL     OW30799   4.187   0.639   5.303 -0.8496 -0.5861  0.0338
 6446SOL    HW130800   4.108   0.589   5.323 -0.7201 -0.4876  0.7929
 6446SOL    HW230801   4.180   0.707   5.370 -0.0807 -0.9174  0.4413
 6447SOL     OW30802   1.483   1.828   0.044 -0.1978  0.1531 -0.6661
 6447SOL    HW130803   1.573   1.820   0.012 -0.2452 -1.5485 -0.3853
 6447SOL    HW230804   1.439   1.749   0.011  0.5215 -0.0688 -1.1031
 6448SOL     OW30805   1.814   2.408  12.311  0.0461  0.6759 -0.0171
 6448SOL    HW130806   1.742   2.347  12.325  1.6774 -0.9974  1.1066
 6448SOL    HW230807   1.833   2.392  12.218 -1.0586 -1.5420  0.1412
 6449SOL     OW30808   3.619   1.783  12.667  0.3709  0.0341 -0.0110
 6449SOL    HW130809   3.568   1.769  12.587  1.9700  0.8445 -1.1735
 6449SOL    HW230810   3.660   1.699  12.689 -2.0328 -0.7572  1.3225
 6450SOL     OW30811   4.248   1.385   3.114  0.2169  0.0243  0.3319
 6450SOL    HW130812   4.286   1.301   3.139  0.2861  0.2591  1.0068
 6450SOL    HW230813   4.246   1.367   3.020 -1.5012 -0.9713  0.5541
 6451SOL     OW30814   0.873   3.101   2.312 -0.2835 -0.3771 -0.2949
 6451SOL    HW130815   0.823   3.171   2.355 -0.6555 -1.7715  1.5111
 6451SOL    HW230816   0.803   3.036   2.319 -0.7786  0.2159  0.2944
 6452SOL     OW30817   4.379   0.925   7.235  0.5060 -0.1050  0.0559
 6452SOL    HW130818   4.465   0.949   7.269 -0.1384 -1.0041  2.2843
 6452SOL    HW230819   4.384   0.948   7.142 -0.6157  0.4387  0.1328
 6453SOL     OW30820   1.573   1.992  12.681  0.2986 -0.0078  0.3550
 6453SOL    HW130821   1.496   2.037  12.646 -0.7315 -0.8448  1.5798
 6453SOL    HW230822   1.584   2.021  12.771 -1.5443  2.7130 -0.3062
 6454SOL     OW30823   3.684   0.513  12.611 -0.2411  0.8816 -0.1830
 6454SOL    HW130824   3.653   0.479  12.696  0.6255  1.2018  0.2618
 6454SOL    HW230825   3.662   0.433  12.564  0.0656  1.5692 -1.4734
 6455SOL     OW30826   0.019   1.977   8.064 -0.2267 -0.2261  0.3944
 6455SOL    HW130827   0.100   1.931   8.044 -1.1760 -0.8920 -1.9350
 6455SOL    HW230828   4.708   1.920   8.133  0.4128  0.1938  1.0458
 6456SOL     OW30829   3.985   2.939   7.361  0.3984  0.4656  0.3524
 6456SOL    HW130830   4.010   2.995   7.434 -0.5152  0.6275  0.5372
 6456SOL    HW230831   3.978   2.857   7.409  2.2464 -1.5095 -2.7356
 6457SOL     OW30832   3.911   3.250  16.008  0.6864  0.0773 -0.1982
 6457SOL    HW130833   3.987   3.265  16.065  0.9312 -1.3797 -0.1444
 6457SOL    HW230834   3.952   3.197  15.939 -2.9876 -3.4924  0.4070
 6458SOL     OW30835   1.260   2.077   7.096 -0.2881  0.1851  0.1842
 6458SOL    HW130836   1.290   2.037   7.015 -0.9690  0.0908 -0.0168
 6458SOL    HW230837   1.306   2.161   7.098  3.2367 -1.7121  0.0917
 6459SOL     OW30838   2.987   2.248   4.676 -0.0771  0.6908 -0.5425
 6459SOL    HW130839   2.975   2.167   4.726  5.0561  0.8556  1.0097
 6459SOL    HW230840   3.040   2.224   4.600  0.9976  1.6644 -0.0979
 6460SOL     OW30841   3.376   2.209   5.429  0.3966  0.2571 -0.0824
 6460SOL    HW130842   3.419   2.164   5.357  0.6636  0.2901  0.0584
 6460SOL    HW230843   3.445   2.204   5.495 -0.3515 -1.3499  0.5884
 6461SOL     OW30844   3.427   2.761  13.940 -0.5045 -0.2501  0.0588
 6461SOL    HW130845   3.373   2.839  13.934  1.0841  1.0157  2.2137
 6461SOL    HW230846   3.366   2.699  13.980 -1.3132 -0.2276 -1.1562
 6462SOL     OW30847   2.892   0.302  10.155 -0.8284  0.4754 -0.1335
 6462SOL    HW130848   2.883   0.363  10.228 -1.4304 -0.8094  0.8553
 6462SOL    HW230849   2.802   0.270  10.158 -0.9965  0.9475 -0.0121
 6463SOL     OW30850   0.399   4.588  13.212  0.4486  0.3406 -0.7302
 6463SOL    HW130851   0.416   4.670  13.165 -2.1705  0.1713 -1.9884
 6463SOL    HW230852   0.473   4.534  13.186  0.8352  0.1778  0.7045
 6464SOL     OW30853   0.391   0.536   3.655 -0.2550  0.3385  0.3503
 6464SOL    HW130854   0.332   0.479   3.703 -0.4845  2.1459  2.2058
 6464SOL    HW230855   0.474   0.504   3.690 -0.0086  0.2868 -0.2660
 6465SOL     OW30856   1.809   0.758   4.971 -0.4021  0.2097 -0.0007
 6465SOL    HW130857   1.739   0.732   4.911 -1.3556  1.1420  0.7075
 6465SOL    HW230858   1.854   0.824   4.918 -0.7287 -0.4898 -1.1377
 6466SOL     OW30859   1.227   2.819   9.233  0.2184 -0.3347 -0.3923
 6466SOL    HW130860   1.237   2.832   9.327 -1.8586 -0.2475 -0.1759
 6466SOL    HW230861   1.160   2.751   9.223  1.2221 -1.7695  2.7183
 6467SOL     OW30862   2.114   1.231  16.345  0.2890  0.1848  0.0684
 6467SOL    HW130863   2.182   1.189  16.292  0.1601 -0.4833  0.4236
 6467SOL    HW230864   2.092   1.160  16.405 -1.9932 -0.2296 -1.2360
 6468SOL     OW30865   0.256   0.622   5.789  0.4053  0.2706 -0.3073
 6468SOL    HW130866   0.345   0.655   5.778  0.8804 -1.6397 -2.1393
 6468SOL    HW230867   0.209   0.702   5.766 -0.4071 -0.6713 -1.9565
 6469SOL     OW30868   1.275   3.070   2.508 -0.1236 -0.6483  0.1533
 6469SOL    HW130869   1.229   3.151   2.529  0.8700  0.1704 -0.8451
 6469SOL    HW230870   1.350   3.107   2.463 -1.2866  3.2938  1.4218
 6470SOL     OW30871   1.488   3.752   0.505 -0.1999  0.3031  0.0299
 6470SOL    HW130872   1.445   3.831   0.538  0.9256  1.2664 -0.8147
 6470SOL    HW230873   1.562   3.789   0.458  1.6744 -0.8717  2.0600
 6471SOL     OW30874   3.870   3.334  11.872  0.0590 -0.1992 -0.2181
 6471SOL    HW130875   3.925   3.256  11.864 -0.1329 -0.1620 -2.0910
 6471SOL    HW230876   3.934   3.403  11.854  0.2547  0.1987  2.0371
 6472SOL     OW30877   0.869   4.607  10.547 -0.0653 -0.4068  0.1529
 6472SOL    HW130878   0.858   4.664  10.623  0.5899  1.5309 -1.2254
 6472SOL    HW230879   0.908   4.673  10.490  0.5760 -0.3552  0.6536
 6473SOL     OW30880   0.933   1.355   6.477  0.0176  0.1303 -0.3429
 6473SOL    HW130881   0.845   1.335   6.509 -0.2233 -0.9265 -1.6915
 6473SOL    HW230882   0.954   1.409   6.553 -0.8702 -0.1493  0.0997
 6474SOL     OW30883   4.448   0.780   8.152 -0.1669  0.1787  0.0290
 6474SOL    HW130884   4.419   0.827   8.074 -0.2897  1.5554  0.9031
 6474SOL    HW230885   4.407   0.696   8.131 -1.2989  0.7061  0.1084
 6475SOL     OW30886   3.861   4.005   7.950  0.4322 -0.4691 -0.9017
 6475SOL    HW130887   3.955   4.006   7.935  0.4766  5.1501 -0.4792
 6475SOL    HW230888   3.850   4.076   8.015 -0.4944 -1.5468  0.1238
 6476SOL     OW30889   4.502   3.329  11.684  0.0508 -0.5988 -0.7379
 6476SOL    HW130890   4.566   3.265  11.650 -0.5616  0.3659 -3.6876
 6476SOL    HW230891   4.550   3.408  11.660 -1.6133  0.3139 -1.0504
 6477SOL     OW30892   2.126   1.714   6.240  0.1683 -0.7165  0.5198
 6477SOL    HW130893   2.171   1.766   6.173  1.6297 -1.4764  0.8936
 6477SOL    HW230894   2.193   1.650   6.264  1.6899  1.2989  1.6203
 6478SOL     OW30895   4.100   4.253  13.805  0.0932  0.0686 -0.5035
 6478SOL    HW130896   4.175   4.297  13.766 -3.6151  2.0057 -5.3881
 6478SOL    HW230897   4.041   4.328  13.814  0.1620  0.1870 -1.0674
 6479SOL     OW30898   2.329   4.165   4.630 -0.4255  0.2687 -0.2137
 6479SOL    HW130899   2.239   4.134   4.643 -0.5870  0.7696 -0.1412
 6479SOL    HW230900   2.327   4.248   4.583 -0.2283  0.2119 -0.3202
 6480SOL     OW30901   3.245   2.795   7.242 -0.3641  0.1470  0.2293
 6480SOL    HW130902   3.286   2.709   7.249  1.3205  0.9491  0.2471
 6480SOL    HW230903   3.309   2.861   7.269 -0.7197 -0.0367  1.5467
 6481SOL     OW30904   3.015   2.863  12.977 -0.5926  0.7021 -0.1047
 6481SOL    HW130905   2.955   2.844  12.905 -0.0588  0.3621 -0.4640
 6481SOL    HW230906   3.084   2.877  12.912  0.5295  1.5035  1.2683
 6482SOL     OW30907   1.353   3.372   5.858  0.1384  0.7687 -0.1419
 6482SOL    HW130908   1.296   3.411   5.792  0.5046  2.1025  0.3424
 6482SOL    HW230909   1.406   3.445   5.888  1.7354 -0.1322 -0.7916
 6483SOL     OW30910   4.064   3.162   4.565 -0.5146 -0.1546 -0.0761
 6483SOL    HW130911   4.015   3.211   4.631  1.1806  1.0284  0.2961
 6483SOL    HW230912   4.130   3.116   4.617 -1.0586  0.8902  1.5269
 6484SOL     OW30913   4.125   1.817  15.377  0.1526  0.0939  0.7018
 6484SOL    HW130914   4.103   1.727  15.352  1.3909  0.9280 -3.3495
 6484SOL    HW230915   4.089   1.828  15.465 -0.1764  2.9041  0.2106
 6485SOL     OW30916   2.913   0.559  12.944  0.0579  0.5114 -0.3039
 6485SOL    HW130917   2.956   0.530  13.025 -2.6460  1.3814  1.4662
 6485SOL    HW230918   2.877   0.642  12.976  1.0546 -0.3440  3.0802
 6486SOL     OW30919   1.217   4.558   5.310  0.3825 -0.6737  0.1704
 6486SOL    HW130920   1.218   4.475   5.357  0.4029 -0.9412 -0.2971
 6486SOL    HW230921   1.307   4.585   5.291 -0.4897  0.3100 -2.6679
 6487SOL     OW30922   4.398   2.669   2.227  0.1074  0.4578  0.4617
 6487SOL    HW130923   4.375   2.759   2.248 -1.4012  0.1710  0.0172
 6487SOL    HW230924   4.416   2.646   2.318  1.1090 -0.3188  0.0732
 6488SOL     OW30925   1.789   3.248   5.491  0.3985  0.1851 -0.3661
 6488SOL    HW130926   1.741   3.291   5.563  0.6807  0.0936 -0.1225
 6488SOL    HW230927   1.880   3.250   5.522  0.1221  0.1472  0.4398
 6489SOL     OW30928   4.229   2.063   9.343 -0.2920 -0.2942  0.3203
 6489SOL    HW130929   4.160   2.082   9.279 -0.1920 -0.5169  0.1439
 6489SOL    HW230930   4.247   2.149   9.380 -2.8218  0.9632 -1.4450
 6490SOL     OW30931   0.314   0.710  11.006  0.4562  0.3947  0.5221
 6490SOL    HW130932   0.243   0.655  11.038  0.0029  1.5785  1.5478
 6490SOL    HW230933   0.354   0.742  11.087  0.4600 -1.5271  1.2764
 6491SOL     OW30934   0.729   1.945   2.010  0.4263 -0.0619  0.3149
 6491SOL    HW130935   0.707   1.860   1.972 -0.9413  0.3727  0.1289
 6491SOL    HW230936   0.682   2.004   1.951  2.2027  1.0187 -0.0153
 6492SOL     OW30937   2.750   2.697   3.477  0.4059  0.3744 -0.4494
 6492SOL    HW130938   2.655   2.700   3.483  0.3262  1.0569 -1.9354
 6492SOL    HW230939   2.767   2.696   3.383 -3.4262 -0.6386 -1.1105
 6493SOL     OW30940   1.682   0.947   3.657 -0.3401  0.6161  0.6957
 6493SOL    HW130941   1.776   0.928   3.656 -0.3432  0.5656  2.3468
 6493SOL    HW230942   1.646   0.887   3.591 -1.7965  0.9762  1.1592
 6494SOL     OW30943   1.863   4.112  14.588  0.2453 -0.1106  0.1753
 6494SOL    HW130944   1.819   4.195  14.605  0.1002  0.1727 -1.6420
 6494SOL    HW230945   1.927   4.137  14.520 -0.6625 -1.4861 -1.1654
 6495SOL     OW30946   3.648   2.531   4.537  0.2010 -0.2341  0.1415
 6495SOL    HW130947   3.620   2.441   4.554 -0.1924  0.0888  1.1675
 6495SOL    HW230948   3.741   2.516   4.516  0.6776  0.4614  1.7758
 6496SOL     OW30949   0.045   3.454   4.309 -0.1389 -0.5565 -0.5326
 6496SOL    HW130950   4.684   3.425   4.347 -1.2470  0.2742 -2.3496
 6496SOL    HW230951   0.095   3.438   4.389 -1.6871  0.8227  0.7271
 6497SOL     OW30952   0.968   0.045   8.214  0.4285  0.4529 -0.0512
 6497SOL    HW130953   0.943   0.136   8.232 -0.7779  0.3015 -1.0026
 6497SOL    HW230954   0.886   0.020   8.173  0.4702  0.4032 -0.1043
 6498SOL     OW30955   2.976   4.429   2.186 -0.6764 -0.2926 -0.5066
 6498SOL    HW130956   3.010   4.517   2.199  1.2902 -1.0457 -0.6287
 6498SOL    HW230957   2.941   4.409   2.273 -1.2127  0.4621 -0.5444
 6499SOL     OW30958   2.860   0.532  17.031  0.5119 -0.0043 -0.1157
 6499SOL    HW130959   2.854   0.583  16.950 -3.5853  2.2519  1.6108
 6499SOL    HW230960   2.909   0.591  17.088 -0.7821  1.3521 -0.4148
 6500SOL     OW30961   1.917   4.547   1.672 -0.5636  0.2393  0.2246
 6500SOL    HW130962   1.829   4.558   1.636 -0.2279  0.2168 -0.6013
 6500SOL    HW230963   1.904   4.556   1.766  1.6880 -0.1297  0.5870
 6501SOL     OW30964   3.414   3.544   4.629 -0.6131  0.2964  0.5703
 6501SOL    HW130965   3.353   3.600   4.581  1.5676  1.9971 -0.2220
 6501SOL    HW230966   3.482   3.609   4.644  0.0807 -0.3157  0.0548
 6502SOL     OW30967   4.300   4.138   7.863  0.4234  0.2677  0.2306
 6502SOL    HW130968   4.317   4.060   7.916 -0.5525  0.3042  0.5984
 6502SOL    HW230969   4.238   4.100   7.801 -0.3107  0.8513  0.5943
 6503SOL     OW30970   3.967   4.378   2.844 -0.1194  0.2321 -0.2547
 6503SOL    HW130971   4.006   4.354   2.929 -0.3952 -1.3207 -0.5630
 6503SOL    HW230972   3.881   4.337   2.851 -0.0205  0.0183 -0.2770
 6504SOL     OW30973   2.540   3.170  11.644  0.2120  0.3037  0.3370
 6504SOL    HW130974   2.496   3.116  11.579  2.4142 -2.3730  1.0570
 6504SOL    HW230975   2.551   3.257  11.607  2.1984  0.5609  1.4916
 6505SOL     OW30976   3.202   1.876   5.041  0.0573 -0.5136  0.0951
 6505SOL    HW130977   3.120   1.872   4.994  0.8013  0.1307 -1.2508
 6505SOL    HW230978   3.176   1.882   5.133 -0.9069  0.0690 -0.2150
 6506SOL     OW30979   3.114   2.756  14.372 -0.4013 -0.5921 -0.0917
 6506SOL    HW130980   3.203   2.788  14.389  0.1676 -1.4719 -1.3995
 6506SOL    HW230981   3.128   2.700  14.296 -1.6441 -0.0931 -0.6820
 6507SOL     OW30982   1.577   3.839   5.871 -0.4693 -0.2037  0.0862
 6507SOL    HW130983   1.489   3.817   5.840 -0.8112 -2.0552  2.3232
 6507SOL    HW230984   1.585   3.933   5.852  0.5428 -0.4478 -0.6975
 6508SOL     OW30985   4.190   2.668  15.005  0.4177 -0.0336 -0.2845
 6508SOL    HW130986   4.168   2.755  14.972 -0.2026  0.2369  0.8389
 6508SOL    HW230987   4.242   2.688  15.083 -1.8164  0.3373  1.0915
 6509SOL     OW30988   0.093   2.015   2.426 -0.8121 -0.0104  0.0340
 6509SOL    HW130989   0.057   1.958   2.357  1.4649 -0.0124 -1.1796
 6509SOL    HW230990   0.132   1.949   2.483  0.4375 -0.1852 -1.0067
 6510SOL     OW30991   3.550   2.223   3.179  0.4553  0.1752  0.5573
 6510SOL    HW130992   3.606   2.220   3.101  2.2139 -2.1241  1.8969
 6510SOL    HW230993   3.495   2.301   3.168 -1.5100 -1.4056 -0.8578
 6511SOL     OW30994   3.597   2.320   1.299  0.2117  0.2537 -0.1449
 6511SOL    HW130995   3.530   2.387   1.293  1.5504  1.6151 -0.0934
 6511SOL    HW230996   3.672   2.367   1.336 -0.6162 -0.0572  1.9843
 6512SOL     OW30997   3.358   4.448   2.492 -0.2531  0.0412  0.6834
 6512SOL    HW130998   3.318   4.495   2.419  1.9299  0.8786  0.0036
 6512SOL    HW230999   3.304   4.369   2.497 -1.0647  0.6863  2.0545
 6513SOL     OW31000   2.905   2.592   6.212  0.2935  0.1832  0.2958
 6513SOL    HW131001   2.893   2.685   6.231 -0.3648 -0.0480  0.9851
 6513SOL    HW231002   2.913   2.563   6.302  1.1225 -2.4583 -0.6339
 6514SOL     OW31003   3.144   4.321   9.368  0.0748 -0.1712  0.3065
 6514SOL    HW131004   3.100   4.406   9.376 -0.8635 -0.6859  0.5425
 6514SOL    HW231005   3.140   4.280   9.454  1.7497 -1.4998 -0.2371
 6515SOL     OW31006   1.600   1.777   7.313 -0.3871  0.2737  0.6113
 6515SOL    HW131007   1.630   1.710   7.251 -0.8663  0.3186  0.3347
 6515SOL    HW231008   1.508   1.796   7.295  0.0602  0.4463 -1.4911
 6516SOL     OW31009   1.233   0.928  11.698  0.0669  0.0648  0.1296
 6516SOL    HW131010   1.232   1.020  11.724  0.9759 -0.8808  3.5464
 6516SOL    HW231011   1.170   0.936  11.627 -0.8803 -1.3389  0.8089
 6517SOL     OW31012   4.524   3.398   0.975 -0.2453 -0.2733 -0.4141
 6517SOL    HW131013   4.583   3.400   0.899  0.7133  0.4802  0.3549
 6517SOL    HW231014   4.546   3.487   1.002 -0.2382 -0.8445  1.4680
 6518SOL     OW31015   0.914   2.241   0.734 -0.0960 -0.2195  0.2033
 6518SOL    HW131016   0.876   2.162   0.696  1.3893 -0.6089 -0.4577
 6518SOL    HW231017   0.926   2.295   0.656 -0.6182  2.2121  1.8021
 6519SOL     OW31018   3.276   0.926   8.448 -0.0036  0.1524 -0.3167
 6519SOL    HW131019   3.274   0.841   8.404 -0.3498  0.0863 -0.1805
 6519SOL    HW231020   3.347   0.970   8.401 -0.3909  0.4091 -0.6661
 6520SOL     OW31021   3.943   2.920   9.656  0.4594  0.5703 -0.3019
 6520SOL    HW131022   3.861   2.936   9.703  0.8163  1.1081  0.1317
 6520SOL    HW231023   4.001   2.986   9.693  1.4025 -0.5762  0.2455
 6521SOL     OW31024   2.614   1.993   3.203  0.0675  0.5616 -0.7509
 6521SOL    HW131025   2.623   1.947   3.286  0.3596 -0.5307 -1.3973
 6521SOL    HW231026   2.672   2.068   3.221  0.2433  0.4435 -0.8215
 6522SOL     OW31027   4.341   1.278   4.359 -0.7349 -0.4361  0.1020
 6522SOL    HW131028   4.273   1.332   4.319  0.6152  0.0531 -1.5373
 6522SOL    HW231029   4.315   1.195   4.319 -0.2011 -0.0591 -1.0012
 6523SOL     OW31030   2.091   3.072   1.432 -0.0401 -0.1037  0.0356
 6523SOL    HW131031   2.180   3.103   1.413 -0.7235  0.9874 -1.4358
 6523SOL    HW231032   2.043   3.151   1.459 -0.6073 -0.5251  0.2581
 6524SOL     OW31033   1.170   3.606   8.410  0.2458 -0.5105  0.0792
 6524SOL    HW131034   1.219   3.538   8.456 -3.9616 -3.0997  0.7224
 6524SOL    HW231035   1.090   3.625   8.460 -0.5238 -0.8771 -1.0027
 6525SOL     OW31036   4.684   3.912   4.813 -0.2730  0.5910  0.3216
 6525SOL    HW131037   0.030   3.929   4.876  1.8388 -0.1207 -1.7921
 6525SOL    HW231038   4.697   3.827   4.771 -1.2845  0.6776 -0.1914
 6526SOL     OW31039   1.259   1.459   4.431 -0.2158 -0.6558  0.4140
 6526SOL    HW131040   1.204   1.401   4.483 -0.3445 -0.8985 -0.0016
 6526SOL    HW231041   1.243   1.541   4.479 -1.1262 -0.6905  0.1730
 6527SOL     OW31042   3.897   0.463   5.680  0.1640 -0.5663  0.0224
 6527SOL    HW131043   3.861   0.545   5.712 -1.0997  0.0353 -2.9682
 6527SOL    HW231044   3.884   0.478   5.587 -0.0766 -0.4538  0.0746
 6528SOL     OW31045   3.898   3.471   7.303 -0.4679 -0.1829 -0.4293
 6528SOL    HW131046   3.959   3.541   7.326 -3.2094  2.2422 -0.6104
 6528SOL    HW231047   3.953   3.420   7.244  1.1470  0.8827  0.1588
 6529SOL     OW31048   3.910   0.084   0.566 -0.2909 -0.6629  0.0518
 6529SOL    HW131049   3.998   0.052   0.584  0.4130  1.4773  0.4024
 6529SOL    HW231050   3.898   0.136   0.645  1.2696 -1.7566  0.9862
 6530SOL     OW31051   4.085   1.774   8.739  0.2712 -0.6003 -0.0304
 6530SOL    HW131052   4.122   1.857   8.769  0.8906 -0.2079 -1.8941
 6530SOL    HW231053   4.161   1.730   8.702  2.0723  1.1170  1.6678
 6531SOL     OW31054   3.673   2.862  16.356 -0.3301  0.0896  0.1535
 6531SOL    HW131055   3.678   2.954  16.382 -1.2593  0.1152  0.2674
 6531SOL    HW231056   3.590   2.863  16.307 -1.5378 -0.6364  2.1958
 6532SOL     OW31057   1.739   1.610   4.454 -0.1933  0.5458  0.0546
 6532SOL    HW131058   1.660   1.565   4.424  0.6586 -1.1903  0.3608
 6532SOL    HW231059   1.752   1.682   4.393 -0.6707  1.7322  1.3465
 6533SOL     OW31060   1.491   1.955   9.001 -0.6294  0.5179  0.2826
 6533SOL    HW131061   1.532   2.014   8.936 -2.1207  0.8800 -0.3361
 6533SOL    HW231062   1.498   2.011   9.078 -2.4401 -0.4200  1.1254
 6534SOL     OW31063   3.158   1.506   3.346  0.2644 -0.3216 -0.3918
 6534SOL    HW131064   3.197   1.433   3.298 -1.6047  0.8026 -3.6669
 6534SOL    HW231065   3.198   1.575   3.292  0.7591  0.4684  0.9879
 6535SOL     OW31066   0.707   0.522   9.128 -0.0469 -0.2428  0.7565
 6535SOL    HW131067   0.764   0.575   9.184  0.8193 -0.2096 -0.1539
 6535SOL    HW231068   0.633   0.582   9.130 -0.8114 -1.1900  1.0375
 6536SOL     OW31069   1.782   3.116   3.931 -0.1573  0.1389 -0.2786
 6536SOL    HW131070   1.859   3.117   3.875  0.8214 -0.2826  1.0532
 6536SOL    HW231071   1.820   3.096   4.017  1.7881  1.7603 -0.7567
 6537SOL     OW31072   2.515   4.344   6.083  0.2754 -0.2698  0.3103
 6537SOL    HW131073   2.434   4.393   6.096 -0.1689 -1.3965  1.8330
 6537SOL    HW231074   2.566   4.390   6.149  1.2113  1.2588 -1.4678
 6538SOL     OW31075   3.048   4.191   3.020  0.2325  0.2689  0.1948
 6538SOL    HW131076   3.097   4.239   2.953  0.5138  1.7350  1.4678
 6538SOL    HW231077   2.991   4.255   3.061  1.0710 -0.1357  1.9786
 6539SOL     OW31078   3.271   0.621  17.555 -0.7547  0.3751  0.4186
 6539SOL    HW131079   3.292   0.715  17.554  0.4860  0.1028  0.5648
 6539SOL    HW231080   3.325   0.583  17.486 -2.1860  0.3922 -0.6962
 6540SOL     OW31081   4.368   3.997   8.942 -0.4550 -0.1219 -0.6302
 6540SOL    HW131082   4.352   4.070   9.000  0.8550  0.2787 -0.7748
 6540SOL    HW231083   4.459   4.002   8.913  0.0065 -2.8709  0.3582
 6541SOL     OW31084   1.418   2.145   2.697  0.1701  0.3047  0.2429
 6541SOL    HW131085   1.404   2.162   2.604 -0.8837  1.3397  0.5888
 6541SOL    HW231086   1.412   2.050   2.702 -4.8211  0.6181  0.5358
 6542SOL     OW31087   0.442   2.696   8.646 -0.2263  0.6055 -0.2886
 6542SOL    HW131088   0.477   2.780   8.676  0.8491  0.6841 -1.8045
 6542SOL    HW231089   0.522   2.645   8.637 -0.1489  0.9279 -1.3700
 6543SOL     OW31090   3.469   2.323  13.941  0.1426  0.8019  0.6909
 6543SOL    HW131091   3.459   2.258  14.011 -2.6664  1.8430  1.2882
 6543SOL    HW231092   3.538   2.284  13.888 -0.5769 -0.7740  0.9107
 6544SOL     OW31093   1.195   2.039   3.214  0.3224 -0.5007  0.4578
 6544SOL    HW131094   1.253   2.011   3.143 -1.1565  0.3191 -1.0670
 6544SOL    HW231095   1.253   2.057   3.289  1.2956  0.6039 -0.5628
 6545SOL     OW31096   4.168   1.091   6.419  0.6255  0.2177 -0.3105
 6545SOL    HW131097   4.191   1.119   6.331  1.2266  2.7681  0.6618
 6545SOL    HW231098   4.255   1.063   6.448  0.9124 -0.6320 -1.9582
 6546SOL     OW31099   2.936   4.409   8.195 -0.0506  0.3746  0.6320
 6546SOL    HW131100   3.005   4.427   8.259  1.1634 -1.4177 -0.1456
 6546SOL    HW231101   2.993   4.366   8.130 -2.5215  0.4455 -1.5561
 6547SOL     OW31102   2.344   2.240  11.485  0.0983  0.8312 -0.0025
 6547SOL    HW131103   2.363   2.204  11.399 -0.9927 -0.4864  0.3187
 6547SOL    HW231104   2.339   2.336  11.480  2.7323  0.8990 -1.1344
 6548SOL     OW31105   3.369   0.909  17.269  0.1619 -0.0624  0.0401
 6548SOL    HW131106   3.370   0.937  17.361  1.5360 -0.2225  0.0641
 6548SOL    HW231107   3.441   0.847  17.270 -0.6991 -1.0735 -0.5398
 6549SOL     OW31108   0.903   3.542   3.708  0.0960  0.0485  0.3464
 6549SOL    HW131109   0.926   3.610   3.645 -4.3682  1.1442 -0.0706
 6549SOL    HW231110   0.988   3.504   3.731 -0.8800 -1.2491  1.8542
 6550SOL     OW31111   4.037   2.213   1.803 -0.6699  0.7619  0.6568
 6550SOL    HW131112   4.056   2.293   1.754 -0.5487  1.4276  1.7817
 6550SOL    HW231113   4.016   2.251   1.888  1.1959 -0.9398  1.8728
 6551SOL     OW31114   0.871   2.784   2.986  0.3973  0.3684  0.2948
 6551SOL    HW131115   0.796   2.750   2.936  0.0418  2.4835 -0.5855
 6551SOL    HW231116   0.852   2.757   3.076  0.5417 -0.6641  0.0226
 6552SOL     OW31117   4.559   1.898   7.865  0.1757  0.1855  0.3076
 6552SOL    HW131118   4.595   1.931   7.947  1.0202  0.3705 -0.1375
 6552SOL    HW231119   4.635   1.877   7.811  0.4632 -0.3966  0.9365
 6553SOL     OW31120   4.129   1.067   1.051 -0.1036 -0.4511 -0.8143
 6553SOL    HW131121   4.088   1.105   1.129  1.7411 -1.4165  0.6241
 6553SOL    HW231122   4.069   0.995   1.033 -1.1432  0.6892 -1.9452
 6554SOL     OW31123   1.947   1.536   5.927  0.1038 -0.3961  0.5656
 6554SOL    HW131124   2.020   1.508   5.982  1.3513  0.4295 -0.6838
 6554SOL    HW231125   1.974   1.529   5.836  0.1547 -0.8909  0.6213
 6555SOL     OW31126   0.386   3.430   0.749  0.1084  0.7903 -0.0715
 6555SOL    HW131127   0.366   3.336   0.750  3.4716  0.0802  1.8811
 6555SOL    HW231128   0.431   3.434   0.834 -1.4779  0.4912  0.8007
 6556SOL     OW31129   0.891   0.709   4.903 -0.3946  0.0370 -0.6121
 6556SOL    HW131130   0.929   0.730   4.988  1.6056 -0.9592 -1.2701
 6556SOL    HW231131   0.803   0.682   4.929  0.1029 -0.8283  0.1335
 6557SOL     OW31132   1.439   0.075   6.885 -0.6028 -0.2278  0.2398
 6557SOL    HW131133   1.363   0.122   6.920  0.0830  1.1416 -0.0933
 6557SOL    HW231134   1.500   0.055   6.956  1.2141 -1.5533 -1.7079
 6558SOL     OW31135   1.815   3.172   9.905  0.3292  0.5086  0.3662
 6558SOL    HW131136   1.809   3.112   9.979  1.0223  1.8084  1.4843
 6558SOL    HW231137   1.910   3.183   9.897  0.3784  0.4698  0.8797
 6559SOL     OW31138   1.501   0.471  14.774 -0.1029 -0.2711 -0.0551
 6559SOL    HW131139   1.488   0.523  14.853 -2.1623  0.3279 -0.7693
 6559SOL    HW231140   1.514   0.543  14.712 -1.0780  0.7326  0.8893
 6560SOL     OW31141   2.426   0.295   0.027 -0.5294 -0.5521  0.0225
 6560SOL    HW131142   2.358   0.228   0.028 -3.0927  2.0724  0.5356
 6560SOL    HW231143   2.375   0.376   0.028 -0.7610 -0.7067  0.9526
 6561SOL     OW31144   0.850   1.666   9.173  0.2065  0.5576  0.1857
 6561SOL    HW131145   0.888   1.672   9.086 -2.0486  0.1440 -0.8358
 6561SOL    HW231146   0.821   1.575   9.178 -0.3436  0.5597 -2.8847
 6562SOL     OW31147   3.739   0.245   1.791  0.5487  0.2928 -0.2855
 6562SOL    HW131148   3.775   0.304   1.725 -0.2467 -2.3021 -3.0531
 6562SOL    HW231149   3.820   0.205   1.823  0.1058 -0.3834 -0.0018
 6563SOL     OW31150   0.210   0.481  11.321 -0.2170 -0.1302 -0.2747
 6563SOL    HW131151   0.239   0.390  11.324 -0.1522 -0.0278  1.9757
 6563SOL    HW231152   0.279   0.533  11.360  0.0894 -0.6648 -0.0964
 6564SOL     OW31153   1.964   2.938   5.667 -0.3344 -0.2085  0.2522
 6564SOL    HW131154   1.946   2.950   5.573  3.2099 -1.4308 -0.5553
 6564SOL    HW231155   2.058   2.952   5.671 -0.2097 -2.1663  4.4225
 6565SOL     OW31156   0.331   2.536   2.270 -0.2726  0.0477 -0.0813
 6565SOL    HW131157   0.317   2.442   2.258  0.7490 -0.3369  1.7066
 6565SOL    HW231158   0.369   2.537   2.358  2.6617 -0.9613 -1.3299
 6566SOL     OW31159   3.929   1.434  12.029  0.0578  0.3669 -0.1735
 6566SOL    HW131160   3.947   1.397  12.115 -2.6444 -1.1880 -0.2835
 6566SOL    HW231161   3.954   1.521  12.061 -0.7059  0.6100 -0.2362
 6567SOL     OW31162   2.644   1.781   8.921  0.2205  0.8993 -1.0009
 6567SOL    HW131163   2.548   1.775   8.921  0.3180 -0.8102  0.4278
 6567SOL    HW231164   2.660   1.705   8.866  1.9032  1.0187 -0.6725
 6568SOL     OW31165   1.669   4.533   0.147 -0.0697 -0.3704  0.3226
 6568SOL    HW131166   1.733   4.555   0.079  0.0264 -0.9090  0.2403
 6568SOL    HW231167   1.604   4.479   0.103 -0.4680  1.3702 -1.2394
 6569SOL     OW31168   1.898   4.118   1.192 -0.2417  0.4087  0.4116
 6569SOL    HW131169   1.846   4.141   1.270 -1.0054  1.3337 -0.3698
 6569SOL    HW231170   1.935   4.034   1.221  0.6992  0.5862 -0.2896
 6570SOL     OW31171   3.136   2.109   7.373 -0.1061  0.6103 -0.1871
 6570SOL    HW131172   3.187   2.061   7.438  0.6624  1.6637  0.0018
 6570SOL    HW231173   3.044   2.083   7.378 -0.0090  0.1832 -0.7318
 6571SOL     OW31174   2.492   0.503  14.444  0.2615  0.0990  0.1464
 6571SOL    HW131175   2.551   0.428  14.455  0.2598 -0.6530 -4.7670
 6571SOL    HW231176   2.410   0.465  14.411 -0.4733  1.5812  0.2719
 6572SOL     OW31177   1.948   1.574   8.074  0.4749  0.6445  0.2224
 6572SOL    HW131178   1.932   1.646   8.135 -1.3127 -0.7048  1.3746
 6572SOL    HW231179   1.900   1.602   7.996  0.6954  0.9476  0.1949
 6573SOL     OW31180   2.779   2.174   5.532 -0.1293 -0.4051 -0.4900
 6573SOL    HW131181   2.822   2.242   5.586  2.3794 -3.2644  1.1560
 6573SOL    HW231182   2.780   2.233   5.457 -1.0345  1.6057  1.0759
 6574SOL     OW31183   3.888   1.148   6.469 -0.0521  0.1782 -0.4213
 6574SOL    HW131184   3.983   1.132   6.464  0.0887  0.7051  0.5129
 6574SOL    HW231185   3.891   1.138   6.564  0.7131 -2.0498 -0.6845
 6575SOL     OW31186   1.791   0.457   1.901 -0.0319  0.1953 -0.2305
 6575SOL    HW131187   1.716   0.419   1.947  1.2806 -2.0658  0.0474
 6575SOL    HW231188   1.844   0.382   1.876 -1.8046 -0.5713 -1.5848
 6576SOL     OW31189   4.631   3.965   1.129  0.4567  0.1550 -0.1357
 6576SOL    HW131190   4.694   4.023   1.172  1.5840 -1.5225  0.4836
 6576SOL    HW231191   4.604   4.027   1.061  2.9897 -0.9804 -2.2008
 6577SOL     OW31192   0.554   0.113   3.418 -0.5787 -0.6028 -0.0435
 6577SOL    HW131193   0.514   0.056   3.483 -0.2912 -0.7246  0.0256
 6577SOL    HW231194   0.485   0.110   3.351 -0.2392  0.6967 -0.4510
 6578SOL     OW31195   1.418   3.862   5.165 -0.6045 -0.0089 -0.1639
 6578SOL    HW131196   1.333   3.844   5.205  0.2401 -1.5325  0.9363
 6578SOL    HW231197   1.421   3.957   5.173  0.3418 -0.0266 -0.2639
 6579SOL     OW31198   2.235   2.008  16.280  0.1969  0.1352 -0.4202
 6579SOL    HW131199   2.307   1.946  16.274 -0.5615 -0.7614 -0.3099
 6579SOL    HW231200   2.156   1.955  16.267  0.0487 -0.4699  2.7079
 6580SOL     OW31201   0.329   0.888   3.458 -0.6469  0.2496 -0.1499
 6580SOL    HW131202   0.366   0.977   3.460  0.9815 -0.4203 -0.2965
 6580SOL    HW231203   0.311   0.879   3.364  0.1438 -2.8238 -0.0052
 6581SOL     OW31204   3.278   0.747   7.056  0.5520  0.2101 -0.8291
 6581SOL    HW131205   3.228   0.750   6.975  1.8762  1.6230 -1.5974
 6581SOL    HW231206   3.226   0.691   7.113 -1.8417  1.3509 -1.8858
 6582SOL     OW31207   1.016   2.800   6.171 -0.2309  0.0048  0.0208
 6582SOL    HW131208   1.066   2.718   6.166 -1.4480 -0.6655 -1.0575
 6582SOL    HW231209   0.944   2.776   6.113 -1.6349  1.7244  1.0562
 6583SOL     OW31210   1.305   1.128   6.799  0.3309 -0.3030  0.0599
 6583SOL    HW131211   1.276   1.092   6.715 -1.2858 -1.4069  1.0787
 6583SOL    HW231212   1.281   1.219   6.782 -0.0482 -0.6624 -1.3323
 6584SOL     OW31213   1.573   4.561  11.831 -0.1005  0.5174  0.8454
 6584SOL    HW131214   1.574   4.622  11.904  2.3053 -0.9253  2.0317
 6584SOL    HW231215   1.481   4.543  11.845  0.2121 -2.0457 -0.3161
 6585SOL     OW31216   3.384   2.049  14.639  0.2551 -0.1276 -0.2069
 6585SOL    HW131217   3.290   2.043  14.652 -0.2408  1.0686 -3.0749
 6585SOL    HW231218   3.389   2.059  14.544  1.3779  1.8236  0.0477
 6586SOL     OW31219   0.433   1.837  10.193  0.2910  0.7022  0.0407
 6586SOL    HW131220   0.507   1.856  10.136 -0.4784 -1.6202 -1.7724
 6586SOL    HW231221   0.445   1.747  10.223 -2.8194 -0.0517 -0.9577
 6587SOL     OW31222   2.071   2.878   3.908  0.1142  0.1752  0.0635
 6587SOL    HW131223   2.072   2.788   3.876  0.4500  0.6711 -1.3288
 6587SOL    HW231224   2.062   2.923   3.824 -1.1919  0.1524  0.1969
 6588SOL     OW31225   4.614   3.291   4.769 -0.5983  0.3552 -0.3505
 6588SOL    HW131226   4.686   3.271   4.828 -0.4438 -0.8571 -0.9541
 6588SOL    HW231227   4.584   3.204   4.743  1.4617 -0.0160 -1.4696
 6589SOL     OW31228   4.022   1.865   3.416  0.4033  0.3579  0.2924
 6589SOL    HW131229   4.010   1.932   3.483  0.0987 -0.4511  1.0446
 6589SOL    HW231230   3.961   1.895   3.349  0.0131 -1.0528  0.0064
 6590SOL     OW31231   0.089   0.119   9.400  0.3451  1.2385  0.0978
 6590SOL    HW131232   0.098   0.147   9.491 -4.1528  0.0361  0.9326
 6590SOL    HW231233   0.123   0.199   9.362  0.5267  1.4306  0.6660
 6591SOL     OW31234   0.621   1.979   7.158 -0.2456 -0.0386 -0.2983
 6591SOL    HW131235   0.694   2.024   7.200  0.5310 -0.2848 -1.3880
 6591SOL    HW231236   0.601   2.030   7.080  3.3454  1.5192 -0.1790
 6592SOL     OW31237   2.954   4.691  14.353 -0.0008  0.0051 -0.1271
 6592SOL    HW131238   2.912   4.610  14.381  2.9799 -0.4365  3.0535
 6592SOL    HW231239   2.917   0.016  14.427 -0.1961 -0.1109 -0.1493
 6593SOL     OW31240   1.068   2.542   3.512  0.4738  0.3602  0.4919
 6593SOL    HW131241   0.992   2.589   3.547 -0.5124  0.1841 -1.3915
 6593SOL    HW231242   1.109   2.616   3.467 -0.5176  1.0401  0.7023
 6594SOL     OW31243   2.114   0.295   2.782 -0.0595  0.5317 -0.4451
 6594SOL    HW131244   2.139   0.301   2.690  2.1998  0.2413  0.1527
 6594SOL    HW231245   2.033   0.244   2.781 -0.3002  0.9075 -0.4863
 6595SOL     OW31246   3.626   1.863   0.317  0.3012  0.2366  0.2405
 6595SOL    HW131247   3.605   1.826   0.231  1.7055 -1.0761  0.4608
 6595SOL    HW231248   3.539   1.872   0.355  0.8768  2.0483  1.1079
 6596SOL     OW31249   4.364   4.460   5.754  0.0791  0.5735 -0.0750
 6596SOL    HW131250   4.270   4.468   5.743 -0.1479  1.2986  2.3597
 6596SOL    HW231251   4.394   4.504   5.675  1.3297  1.6467  1.0066
 6597SOL     OW31252   1.352   2.771   3.668  0.3784  0.3390  0.4859
 6597SOL    HW131253   1.379   2.746   3.579  1.1492  2.5184  0.1178
 6597SOL    HW231254   1.365   2.685   3.709 -1.4668 -0.1226  0.0890
 6598SOL     OW31255   2.514   0.672  10.955  0.4950  0.4627  0.5340
 6598SOL    HW131256   2.507   0.736  10.884 -1.2599  1.9672  2.0575
 6598SOL    HW231257   2.454   0.710  11.019  0.3885  0.1049  0.6465
 6599SOL     OW31258   2.038   3.201   3.868  0.3645 -0.5244 -0.3006
 6599SOL    HW131259   2.119   3.190   3.818  1.6299  0.0407  1.6352
 6599SOL    HW231260   2.079   3.262   3.929  0.6059 -0.7643 -0.2188
 6600SOL     OW31261   2.401   1.762  13.286  0.2146  0.8116  0.1351
 6600SOL    HW131262   2.436   1.844  13.321  0.6629  0.8829 -0.4716
 6600SOL    HW231263   2.484   1.715  13.278 -0.5954 -0.4026 -1.1465
 6601SOL     OW31264   2.163   1.834   5.168 -0.2460  0.0033  0.0606
 6601SOL    HW131265   2.200   1.878   5.091  0.6642  0.4109  0.7422
 6601SOL    HW231266   2.243   1.813   5.216 -0.2536  1.4491  0.7022
 6602SOL     OW31267   4.388   0.492   4.152  0.2594 -0.1615 -0.6584
 6602SOL    HW131268   4.330   0.459   4.220 -0.9653 -0.0731 -1.6690
 6602SOL    HW231269   4.352   0.580   4.143  0.9169  0.1986  0.2637
 6603SOL     OW31270   3.105   0.356   7.818 -0.2086  0.1334  0.4944
 6603SOL    HW131271   3.152   0.438   7.803 -2.3542  1.5761  1.7285
 6603SOL    HW231272   3.106   0.354   7.914  0.4300  1.7560  0.5157
 6604SOL     OW31273   2.538   0.364   2.743 -0.1580 -0.1306  0.0308
 6604SOL    HW131274   2.584   0.448   2.752 -2.0496  1.0568 -1.4359
 6604SOL    HW231275   2.468   0.398   2.687  0.1513 -0.0057 -0.2793
 6605SOL     OW31276   0.061   4.222   4.503  0.0051 -0.0489  0.5123
 6605SOL    HW131277   4.709   4.280   4.515 -0.5243 -0.4790 -0.6923
 6605SOL    HW231278   0.130   4.269   4.549  0.5689 -0.3232 -0.0484
 6606SOL     OW31279   1.112   1.272   6.281  0.3289 -0.1727  0.0309
 6606SOL    HW131280   1.148   1.184   6.275 -0.9374 -0.7288  0.5757
 6606SOL    HW231281   1.067   1.264   6.365  1.1793 -2.1782  0.2941
 6607SOL     OW31282   3.087   1.241  12.121 -0.5280  0.4154  0.2850
 6607SOL    HW131283   3.182   1.244  12.113 -0.5163  0.2846  0.3664
 6607SOL    HW231284   3.052   1.171  12.067  0.5986 -0.5308  0.7797
 6608SOL     OW31285   4.429   2.390   0.444  0.0871  0.5288 -0.0148
 6608SOL    HW131286   4.339   2.412   0.469  0.0072  0.2986 -0.1011
 6608SOL    HW231287   4.419   2.346   0.360 -0.4593  0.5671  0.0288
 6609SOL     OW31288   3.887   2.555   3.736 -0.0948  0.2980  0.0977
 6609SOL    HW131289   3.891   2.609   3.657  1.7944  1.9698  1.3463
 6609SOL    HW231290   3.971   2.514   3.720  0.4031  0.8217  1.4228
 6610SOL     OW31291   2.176   0.705   7.451  0.1857  0.3126  0.0807
 6610SOL    HW131292   2.190   0.704   7.546  0.4278  3.3381  0.0698
 6610SOL    HW231293   2.101   0.764   7.447  1.7837  2.3442  0.0617
 6611SOL     OW31294   1.485   4.530   4.719  0.1478  0.3696  0.3398
 6611SOL    HW131295   1.486   4.462   4.786  1.1100  0.0178 -0.0330
 6611SOL    HW231296   1.414   4.501   4.661  1.2261 -2.3881  0.3837
 6612SOL     OW31297   3.066   3.393   7.227 -0.7745  0.2008  0.3673
 6612SOL    HW131298   2.999   3.341   7.182 -0.1190 -0.4275  0.1124
 6612SOL    HW231299   3.103   3.447   7.157 -0.5860 -0.4576 -0.0442
 6613SOL     OW31300   1.706   0.388   6.543 -0.9290 -0.0751  0.4570
 6613SOL    HW131301   1.674   0.393   6.453 -0.6876 -1.5241  0.2827
 6613SOL    HW231302   1.626   0.393   6.597 -0.9717 -0.9995  0.4814
 6614SOL     OW31303   0.989   3.231  16.412  0.1350  0.4677  0.3502
 6614SOL    HW131304   1.019   3.224  16.322 -0.9096  0.1400  0.0269
 6614SOL    HW231305   0.957   3.321  16.413  2.2366  1.2308 -1.1012
 6615SOL     OW31306   3.652   2.219   9.164 -0.2422  0.0796  0.1300
 6615SOL    HW131307   3.559   2.194   9.160  0.2628 -1.7492  0.1595
 6615SOL    HW231308   3.654   2.262   9.250 -0.6186 -0.6262  0.4915
 6616SOL     OW31309   1.077   2.520   7.862  0.5003  0.2475  0.3211
 6616SOL    HW131310   1.165   2.557   7.859  0.0948  1.1579 -0.1028
 6616SOL    HW231311   1.021   2.596   7.876 -0.0458 -0.2754  0.9538
 6617SOL     OW31312   2.179   3.690   0.049  0.4355  0.1289 -0.0101
 6617SOL    HW131313   2.220   3.627  17.683 -1.2932 -0.6346 -0.3834
 6617SOL    HW231314   2.092   3.689   0.010  0.0355  2.1670  0.8696
 6618SOL     OW31315   1.786   3.626   5.747  0.1838  0.6793 -0.8359
 6618SOL    HW131316   1.750   3.557   5.691 -3.1224  1.4938  0.2648
 6618SOL    HW231317   1.721   3.698   5.746  1.0870  1.4747 -2.4120
 6619SOL     OW31318   3.946   1.183   5.477 -0.2483  0.1890 -0.1557
 6619SOL    HW131319   4.018   1.234   5.439  0.7464  0.6498  2.3430
 6619SOL    HW231320   3.881   1.253   5.474 -0.2976  0.1864  0.8911
 6620SOL     OW31321   4.673   2.369   2.677  0.8400  0.0603  0.3338
 6620SOL    HW131322   0.012   2.357   2.606  0.8428  3.0557 -0.1704
 6620SOL    HW231323   4.676   2.464   2.679  2.6861 -0.0004  0.8376
 6621SOL     OW31324   2.859   4.401   7.038 -0.0493  0.1858 -0.1553
 6621SOL    HW131325   2.946   4.436   7.055 -0.0623 -0.4359  1.2342
 6621SOL    HW231326   2.821   4.430   7.122  2.0123  4.3903 -0.6709
 6622SOL     OW31327   4.388   0.020  14.403 -0.2838  0.2649 -0.4705
 6622SOL    HW131328   4.466   0.037  14.457  1.1409 -0.9124 -2.1654
 6622SOL    HW231329   4.420   4.673  14.346  0.3069 -1.2603  1.7147
 6623SOL     OW31330   0.081   0.930  15.643  0.2275 -0.5371 -0.1307
 6623SOL    HW131331   0.100   0.844  15.606 -0.0079 -1.3193  1.5916
 6623SOL    HW231332   0.056   0.980  15.565  3.8036 -0.5327 -1.2901
 6624SOL     OW31333   2.805   1.687   8.379 -0.6667 -0.2495 -0.3621
 6624SOL    HW131334   2.880   1.661   8.324 -1.9228 -1.8386 -1.3537
 6624SOL    HW231335   2.819   1.780   8.396 -0.3732 -0.3169 -0.2296
 6625SOL     OW31336   1.299   4.477   4.505 -0.4917 -0.3869  0.1053
 6625SOL    HW131337   1.329   4.439   4.422  1.5273 -1.2067  1.2131
 6625SOL    HW231338   1.206   4.494   4.488 -0.0137  1.5201 -0.6385
 6626SOL     OW31339   0.534   3.229   7.848  0.0721  0.8229  0.0271
 6626SOL    HW131340   0.610   3.188   7.889 -1.2306 -1.5212  0.1134
 6626SOL    HW231341   0.494   3.271   7.924 -2.0272 -2.3866  0.6843
 6627SOL     OW31342   1.515   0.314   5.380  0.3727  0.3125 -0.0196
 6627SOL    HW131343   1.569   0.235   5.388 -1.0809 -0.9461 -2.7325
 6627SOL    HW231344   1.477   0.296   5.294 -0.6843  2.8757 -0.0920
 6628SOL     OW31345   2.509   3.832   0.839 -0.3293 -0.1954 -0.3440
 6628SOL    HW131346   2.536   3.908   0.890  0.2432 -0.4869 -0.2113
 6628SOL    HW231347   2.469   3.778   0.908 -1.7627  1.0099 -0.2231
 6629SOL     OW31348   2.154   2.211   8.024 -0.3978  0.3241  0.7107
 6629SOL    HW131349   2.060   2.192   8.026 -0.0279 -1.6369 -1.7899
 6629SOL    HW231350   2.152   2.305   8.004 -1.2060  0.2159  0.2834
 6630SOL     OW31351   2.332   2.729   6.836  0.1051 -0.2154  0.3961
 6630SOL    HW131352   2.328   2.663   6.767  2.4375 -0.0434  0.1002
 6630SOL    HW231353   2.338   2.670   6.911 -3.6541 -0.6882  0.3406
 6631SOL     OW31354   3.888   0.367  10.607 -0.0662 -0.4370  0.3327
 6631SOL    HW131355   3.894   0.456  10.642 -0.6191 -0.0717 -0.5070
 6631SOL    HW231356   3.981   0.350  10.593  0.3387  1.0132  1.1752
 6632SOL     OW31357   0.002   1.678   5.132 -0.6994  0.1431  0.6912
 6632SOL    HW131358   4.689   1.713   5.051  0.1591 -0.3846  0.0914
 6632SOL    HW231359   4.673   1.715   5.204 -0.2988 -1.0206  1.5913
 6633SOL     OW31360   3.561   1.324   3.479  0.3366  0.1530 -0.2924
 6633SOL    HW131361   3.612   1.313   3.398  0.4763 -1.0869 -0.0402
 6633SOL    HW231362   3.546   1.240   3.523  0.1255  1.0084  1.2517
 6634SOL     OW31363   4.036   3.494   4.225 -0.4459  0.6399 -0.6513
 6634SOL    HW131364   4.100   3.514   4.157 -1.3516 -0.5024 -1.8275
 6634SOL    HW231365   3.966   3.438   4.191  1.3678 -1.9559 -0.1204
 6635SOL     OW31366   1.000   3.180   2.660 -0.0503  0.2389  0.2032
 6635SOL    HW131367   0.950   3.100   2.672 -0.7223  0.4797 -1.0566
 6635SOL    HW231368   0.976   3.211   2.573  1.6219  0.0948 -0.3044
 6636SOL     OW31369   3.086   3.102   3.897  0.1609  0.0353 -0.4454
 6636SOL    HW131370   3.137   3.025   3.873  0.9943  0.2052  0.7872
 6636SOL    HW231371   3.153   3.162   3.933  2.1435 -1.6900 -1.2577
 6637SOL     OW31372   4.442   3.677   6.024  0.4557  0.4338 -0.3394
 6637SOL    HW131373   4.508   3.725   5.974  0.3736  2.6236  1.6375
 6637SOL    HW231374   4.389   3.641   5.954 -1.5006  2.3274  0.1687
 6638SOL     OW31375   1.831   0.418   3.242 -0.1072  0.7854 -0.8866
 6638SOL    HW131376   1.821   0.504   3.282  1.1976  1.2592 -1.5717
 6638SOL    HW231377   1.924   0.424   3.220  0.1406 -0.5699 -0.2174
 6639SOL     OW31378   3.324   4.513   5.574  0.0368  0.4109  0.6730
 6639SOL    HW131379   3.268   4.573   5.624  2.6502  1.0284  2.8034
 6639SOL    HW231380   3.362   4.572   5.508  1.3993  1.8358  2.7609
 6640SOL     OW31381   4.671   3.626   5.630 -0.0778  0.1322  0.0921
 6640SOL    HW131382   4.718   3.566   5.572  0.4574  0.8099 -0.1808
 6640SOL    HW231383   4.580   3.600   5.624 -0.4402  1.7433 -1.6937
 6641SOL     OW31384   1.014   0.638  15.225  0.1689  0.1321  0.3611
 6641SOL    HW131385   1.031   0.565  15.166 -1.6093  0.4240 -0.5142
 6641SOL    HW231386   0.923   0.658  15.203  0.0997  1.5407  1.9176
 6642SOL     OW31387   3.845   2.520  16.622  0.4496 -0.1949  0.6486
 6642SOL    HW131388   3.819   2.611  16.611  3.9955  0.1905 -4.2856
 6642SOL    HW231389   3.800   2.465  16.558  1.5639  2.2396 -2.2218
 6643SOL     OW31390   4.668   2.028  13.757 -0.5075 -0.1071 -0.4321
 6643SOL    HW131391   4.607   2.036  13.684 -1.0740  0.6444  0.1302
 6643SOL    HW231392   4.689   1.934  13.760 -1.2388 -0.2958 -1.0935
 6644SOL     OW31393   1.894   2.652   5.014  0.2313  0.1968  0.3102
 6644SOL    HW131394   1.957   2.683   5.078  2.0653 -1.6117 -0.6230
 6644SOL    HW231395   1.933   2.673   4.929  1.1950  1.7345  1.1352
 6645SOL     OW31396   2.904   0.704   4.788 -0.5450  0.2773 -0.4277
 6645SOL    HW131397   2.860   0.709   4.873  2.8132  0.4061  1.3275
 6645SOL    HW231398   2.994   0.709   4.821 -0.8780  0.4996  0.4410
 6646SOL     OW31399   4.073   2.362   5.507  0.0049 -0.5049 -0.6344
 6646SOL    HW131400   4.163   2.376   5.479 -0.6905  1.1652 -2.0470
 6646SOL    HW231401   4.017   2.368   5.430 -2.2566  1.6623  1.1633
 6647SOL     OW31402   2.403   1.699   8.878  0.2576 -0.6157 -0.0208
 6647SOL    HW131403   2.328   1.747   8.913  1.0742 -0.9898  2.2956
 6647SOL    HW231404   2.363   1.631   8.824 -0.2008 -0.7266  0.4632
 6648SOL     OW31405   3.521   1.371  14.553  0.5190 -0.2849 -0.0504
 6648SOL    HW131406   3.535   1.315  14.477  0.2055  2.3500 -2.0181
 6648SOL    HW231407   3.451   1.426  14.519 -0.5913 -2.2493 -0.9105
 6649SOL     OW31408   3.897   2.444   8.905  0.2734  0.2572 -0.5565
 6649SOL    HW131409   3.932   2.533   8.897  1.8107 -0.2147  0.9207
 6649SOL    HW231410   3.975   2.402   8.942  0.2617 -0.8037 -1.7628
 6650SOL     OW31411   4.067   0.253   3.741 -0.2292  0.2890  0.1777
 6650SOL    HW131412   4.075   0.187   3.672  4.2139  0.2125  0.7982
 6650SOL    HW231413   4.069   0.336   3.694  0.5623  0.4825  0.5563
 6651SOL     OW31414   3.496   0.779   8.694 -0.0125  0.6897  0.0536
 6651SOL    HW131415   3.542   0.858   8.723  0.1695  0.4969  0.2908
 6651SOL    HW231416   3.405   0.810   8.697  0.6166  2.5008  0.3822
 6652SOL     OW31417   2.041   1.031  10.814 -0.3755 -0.1470  0.2111
 6652SOL    HW131418   2.021   1.121  10.789 -0.4352 -0.0223  0.7090
 6652SOL    HW231419   2.067   0.982  10.736  0.7968 -0.2871  0.6939
 6653SOL     OW31420   2.302   0.804  16.287 -0.0668 -0.3561 -0.3032
 6653SOL    HW131421   2.283   0.874  16.224 -0.4423 -0.7297 -0.6054
 6653SOL    HW231422   2.280   0.854  16.365  1.2151 -0.6887  0.2696
 6654SOL     OW31423   3.707   3.519   8.076 -0.3681 -0.4530  0.2674
 6654SOL    HW131424   3.638   3.543   8.014 -0.9747 -0.7564  0.8310
 6654SOL    HW231425   3.700   3.586   8.144 -3.5866 -0.6953  0.1824
 6655SOL     OW31426   4.435   1.557   6.692 -0.0913  0.5418 -0.0182
 6655SOL    HW131427   4.508   1.495   6.702  1.1652  2.0540  0.2042
 6655SOL    HW231428   4.477   1.636   6.657  0.1013 -0.6863 -2.6312
 6656SOL     OW31429   2.472   4.274   4.159 -0.2227 -0.1456  0.4125
 6656SOL    HW131430   2.527   4.208   4.117 -0.2786 -1.0502  1.7520
 6656SOL    HW231431   2.392   4.234   4.125 -0.5548 -1.4437  2.6974
 6657SOL     OW31432   2.651   1.728  15.565 -0.4381  0.5744 -0.3595
 6657SOL    HW131433   2.636   1.796  15.500 -0.1306 -2.0220 -3.1234
 6657SOL    HW231434   2.635   1.777  15.646 -1.3571 -2.9647  1.5763
 6658SOL     OW31435   0.487   1.730   5.164  0.0943 -0.0012  0.3796
 6658SOL    HW131436   0.433   1.779   5.227 -1.3130  0.6935 -1.3672
 6658SOL    HW231437   0.470   1.771   5.080 -0.2651  0.7945  0.8332
 6659SOL     OW31438   1.129   0.789  12.164 -0.3815  0.2689 -0.1652
 6659SOL    HW131439   1.199   0.791  12.099 -0.9159 -0.5273 -0.7710
 6659SOL    HW231440   1.052   0.757  12.116 -1.7946  1.1262  1.5107
 6660SOL     OW31441   4.042   3.376   5.310 -0.7843 -0.0483  0.3468
 6660SOL    HW131442   4.132   3.406   5.316 -1.3509  1.6768  0.2765
 6660SOL    HW231443   4.054   3.336   5.223 -0.8812 -0.7461  0.6586
 6661SOL     OW31444   1.465   2.697   5.403 -0.3547 -0.1747 -0.7686
 6661SOL    HW131445   1.537   2.724   5.345 -0.0071  1.1462  0.2566
 6661SOL    HW231446   1.483   2.766   5.467  0.4216 -0.2264 -0.9215
 6662SOL     OW31447   1.095   2.973   4.132  0.1413 -0.1527  0.0836
 6662SOL    HW131448   1.189   2.970   4.114  0.4336 -3.1093  2.2588
 6662SOL    HW231449   1.083   2.903   4.196  2.0069  0.7135  1.3730
 6663SOL     OW31450   4.639   2.444   4.778  0.2490 -0.2729  0.9201
 6663SOL    HW131451   0.012   2.440   4.784  0.2643  1.8667  2.0941
 6663SOL    HW231452   4.627   2.419   4.686  0.8968  2.4202  0.1067
 6664SOL     OW31453   0.023   0.768   4.490 -0.4561 -0.1275 -0.4803
 6664SOL    HW131454   0.023   0.862   4.507 -0.9588 -0.1761 -0.1842
 6664SOL    HW231455   4.710   0.734   4.572  1.3432 -0.8422  0.0162
 6665SOL     OW31456   1.936   2.141   5.045  0.3168  0.8925  0.0730
 6665SOL    HW131457   1.904   2.056   5.073  3.4882 -0.4195 -0.3321
 6665SOL    HW231458   1.856   2.191   5.062  1.1519  2.8147 -1.6192
 6666SOL     OW31459   2.929   3.630   4.953  0.7120 -0.0621 -0.0701
 6666SOL    HW131460   2.836   3.648   4.964  1.0065  1.4987 -0.1390
 6666SOL    HW231461   2.956   3.591   5.037 -0.4340  0.6187  0.6060
 6667SOL     OW31462   0.767   3.108   4.424  0.0089 -0.4784  0.2359
 6667SOL    HW131463   0.702   3.072   4.484 -2.8819  2.0567 -1.4195
 6667SOL    HW231464   0.753   3.055   4.345 -0.8020 -0.7890  0.5902
 6668SOL     OW31465   3.580   2.955   4.065  0.2619 -0.0955 -0.1238
 6668SOL    HW131466   3.611   2.886   4.007  1.8226  1.3832 -1.0697
 6668SOL    HW231467   3.646   2.948   4.134 -0.7362 -3.3686  0.4814
 6669SOL     OW31468   3.290   4.310   9.130  0.1957  0.1883 -0.0274
 6669SOL    HW131469   3.303   4.217   9.144  1.5347  0.7392  2.4843
 6669SOL    HW231470   3.233   4.337   9.203  0.6464  4.3079 -1.1744
 6670SOL     OW31471   0.665   0.075   6.483  0.2202 -0.0287  0.1388
 6670SOL    HW131472   0.572   0.061   6.497  0.0268 -0.3025 -1.5332
 6670SOL    HW231473   0.683   0.013   6.413  1.5524 -0.6723  1.0452
 6671SOL     OW31474   0.396   2.136   6.476 -0.1425 -0.0440 -0.8166
 6671SOL    HW131475   0.428   2.101   6.392 -2.8444 -0.7192 -1.5680
 6671SOL    HW231476   0.456   2.209   6.491 -2.1568  1.5694 -0.5977
 6672SOL     OW31477   2.868   2.935   6.147 -0.7121 -0.0728 -0.3727
 6672SOL    HW131478   2.939   2.988   6.110  2.1037 -3.6661 -0.1244
 6672SOL    HW231479   2.804   2.944   6.076  0.4776 -0.7256 -1.5203
 6673SOL     OW31480   1.034   1.996   1.185 -0.4151  0.4958  0.1780
 6673SOL    HW131481   1.061   2.031   1.100  0.3268 -2.0076 -0.6070
 6673SOL    HW231482   1.107   1.938   1.210 -1.3131 -1.2336 -1.2548
 6674SOL     OW31483   2.595   3.928   6.974 -0.3531  0.2341  0.5128
 6674SOL    HW131484   2.627   3.838   6.983 -1.6435 -0.0891  1.8405
 6674SOL    HW231485   2.665   3.990   6.991 -0.2125  0.6405 -1.5215
 6675SOL     OW31486   3.769   2.107   8.113  0.0567  0.2799 -0.0687
 6675SOL    HW131487   3.691   2.159   8.094  0.1632  0.7068  0.6590
 6675SOL    HW231488   3.746   2.088   8.204 -1.6479  0.9415 -0.3503
 6676SOL     OW31489   4.522   1.483   4.087 -0.2671 -0.0074  0.3485
 6676SOL    HW131490   4.460   1.555   4.084 -1.4208 -0.9670  0.9377
 6676SOL    HW231491   4.557   1.473   3.999 -1.6568  1.8567 -0.3974
 6677SOL     OW31492   2.402   1.753   3.637  0.1440 -0.0797 -0.3665
 6677SOL    HW131493   2.369   1.837   3.669  2.2150  0.3886  0.5506
 6677SOL    HW231494   2.468   1.736   3.704 -0.5904 -0.5900  0.2286
 6678SOL     OW31495   2.281   4.399   0.468 -0.4628 -0.1235 -0.1573
 6678SOL    HW131496   2.325   4.468   0.518 -2.2662  0.9106 -0.0297
 6678SOL    HW231497   2.228   4.459   0.416  1.6383  1.9753  0.1525
 6679SOL     OW31498   2.625   2.635   6.579 -0.3649  0.2869  0.1477
 6679SOL    HW131499   2.702   2.615   6.526 -0.5991 -0.2897  0.0232
 6679SOL    HW231500   2.586   2.711   6.538 -0.9373 -0.4921 -0.7447
 6680SOL     OW31501   4.230   1.901  13.035 -0.2448 -0.2096  0.3562
 6680SOL    HW131502   4.314   1.898  12.989  0.3555 -1.0514  1.5000
 6680SOL    HW231503   4.255   1.945  13.117  3.2848 -0.2005 -0.7186
 6681SOL     OW31504   0.307   0.086   8.243 -0.0765 -0.1668 -0.0001
 6681SOL    HW131505   0.380   0.024   8.237  1.1053  0.9425  3.2899
 6681SOL    HW231506   0.338   0.150   8.306  1.9693  1.2136 -2.4094
 6682SOL     OW31507   2.511   4.393   7.574 -0.2984  0.0122  0.1116
 6682SOL    HW131508   2.562   4.313   7.584 -1.0023 -0.6674 -1.8929
 6682SOL    HW231509   2.478   4.397   7.664  1.6542 -0.6516  0.8566
 6683SOL     OW31510   1.842   3.787   1.094  0.1449  0.1602 -0.1421
 6683SOL    HW131511   1.867   3.844   1.021 -1.2459  0.6038 -0.2746
 6683SOL    HW231512   1.879   3.833   1.169 -1.9361 -0.5155  1.2995
 6684SOL     OW31513   2.920   2.564  14.054  0.1758  0.2842 -0.1229
 6684SOL    HW131514   2.881   2.536  14.137 -1.7678 -0.9167 -1.4501
 6684SOL    HW231515   2.926   2.654  14.086  1.0897  1.2303 -2.9715
 6685SOL     OW31516   3.947   1.737   8.085  0.2997  0.6342  0.1870
 6685SOL    HW131517   4.011   1.785   8.137  2.9676 -1.9753 -0.6907
 6685SOL    HW231518   3.916   1.665   8.139  2.2101 -0.4127 -0.1015
 6686SOL     OW31519   0.925   1.817   3.474  0.1005 -0.1737  0.1560
 6686SOL    HW131520   0.872   1.879   3.425 -0.9269 -1.1302  0.0374
 6686SOL    HW231521   0.870   1.738   3.466  0.7531 -0.4639 -1.4886
 6687SOL     OW31522   3.634   2.806   3.670  0.3068  0.0600 -0.3270
 6687SOL    HW131523   3.721   2.789   3.706  0.4424 -0.8258 -1.0999
 6687SOL    HW231524   3.643   2.895   3.637 -2.9622  0.7572  0.6460
 6688SOL     OW31525   3.624   2.606  13.529 -0.1940  0.4529  0.1905
 6688SOL    HW131526   3.656   2.600  13.439 -0.1127  2.3074  0.0967
 6688SOL    HW231527   3.531   2.602  13.506  0.5965 -0.8354 -2.7675
 6689SOL     OW31528   1.466   1.117   5.710  0.4206  0.1545  0.1453
 6689SOL    HW131529   1.381   1.079   5.732  1.1481 -1.4914  0.1460
 6689SOL    HW231530   1.447   1.211   5.710  0.5375  0.1728  2.4458
 6690SOL     OW31531   0.151   2.085   7.687 -0.5930 -0.2271 -0.5371
 6690SOL    HW131532   0.207   2.093   7.609  0.0659 -0.6111 -0.1040
 6690SOL    HW231533   0.077   2.042   7.645 -0.2927 -1.0562 -0.2227
 6691SOL     OW31534   1.817   1.065   7.447 -0.2412 -0.2816 -0.6768
 6691SOL    HW131535   1.889   1.104   7.497 -0.0079 -2.3834  0.6590
 6691SOL    HW231536   1.826   0.970   7.451  2.0116  0.0153  1.4453
 6692SOL     OW31537   0.704   4.448  12.585 -0.0803  0.1244  0.1720
 6692SOL    HW131538   0.773   4.514  12.582 -0.7283  0.8597  1.6076
 6692SOL    HW231539   0.739   4.382  12.525  0.4315 -0.1936  0.8290
 6693SOL     OW31540   2.423   1.309  17.099  1.0550 -0.5381 -0.2468
 6693SOL    HW131541   2.448   1.331  17.188 -0.5236  0.5744 -0.0773
 6693SOL    HW231542   2.346   1.252  17.108  0.9429 -0.2511  0.6278
 6694SOL     OW31543   2.167   3.884   3.406 -0.2166  0.1394 -0.4219
 6694SOL    HW131544   2.235   3.824   3.374 -0.7014 -1.3143  1.2531
 6694SOL    HW231545   2.210   3.968   3.424  0.8140 -0.2107 -1.2136
 6695SOL     OW31546   2.384   4.708   3.679 -0.5632  0.2169  0.2677
 6695SOL    HW131547   2.308   0.040   3.659 -1.9803 -2.2345 -1.1286
 6695SOL    HW231548   2.376   4.682   3.771  0.7205 -2.4036 -0.3633
 6696SOL     OW31549   3.882   4.037   8.774 -0.9758 -0.2712  0.4109
 6696SOL    HW131550   3.966   3.991   8.776 -0.8985 -0.1132  0.7982
 6696SOL    HW231551   3.898   4.121   8.815  1.7208 -0.2608 -0.6527
 6697SOL     OW31552   2.651   3.907   5.731  0.0088  0.1706  0.2812
 6697SOL    HW131553   2.642   3.995   5.694 -1.2441  0.3183  0.9406
 6697SOL    HW231554   2.744   3.909   5.753  0.1099  1.8694 -0.3294
 6698SOL     OW31555   2.541   3.380   4.263  0.4379 -0.1696  0.1961
 6698SOL    HW131556   2.581   3.301   4.227 -0.8341 -0.5305 -0.4340
 6698SOL    HW231557   2.562   3.450   4.203 -0.0456 -0.9016 -0.8370
 6699SOL     OW31558   2.819   4.576   6.462 -0.6477 -0.5291  0.4765
 6699SOL    HW131559   2.896   4.519   6.455  0.3416  0.7013  1.2600
 6699SOL    HW231560   2.859   4.660   6.485  1.1310 -0.8954 -1.2833
 6700SOL     OW31561   0.146   4.455   6.207 -0.0549  0.1706 -1.0386
 6700SOL    HW131562   0.077   4.422   6.149 -1.5481  0.5602  0.5196
 6700SOL    HW231563   0.222   4.404   6.179 -0.1027  0.2689 -1.3379
 6701SOL     OW31564   3.710   3.171  14.394  0.2892 -0.4134 -0.7905
 6701SOL    HW131565   3.802   3.195  14.378  0.1216  1.5664  1.2076
 6701SOL    HW231566   3.728   3.143  14.484  0.2765  0.8978 -0.3817
 6702SOL     OW31567   3.270   0.269   4.507  0.9670  0.4656 -0.7739
 6702SOL    HW131568   3.250   0.177   4.517  1.7286  0.3963  0.1340
 6702SOL    HW231569   3.331   0.275   4.580  0.3448 -1.6496 -0.0972
 6703SOL     OW31570   0.190   4.042   0.282 -0.0890 -0.0596  1.1761
 6703SOL    HW131571   0.273   4.077   0.251 -1.7430  2.4991 -0.3475
 6703SOL    HW231572   0.197   4.089   0.366  0.3720  1.0808  0.5026
 6704SOL     OW31573   0.266   2.338   7.348  0.2248  0.0476  0.3378
 6704SOL    HW131574   0.319   2.335   7.268  0.7657 -2.2242  0.7867
 6704SOL    HW231575   0.263   2.243   7.364 -0.7283  0.2055  1.1159
 6705SOL     OW31576   2.507   4.422  16.618 -0.7128 -0.3707 -0.1706
 6705SOL    HW131577   2.460   4.433  16.701 -1.2966 -0.2244 -0.5224
 6705SOL    HW231578   2.526   4.515  16.604 -0.8413 -0.4234 -0.6992
 6706SOL     OW31579   2.881   3.474   4.196  0.0250 -0.9401  0.0320
 6706SOL    HW131580   2.928   3.541   4.147 -0.2979 -0.8223 -0.1138
 6706SOL    HW231581   2.809   3.459   4.134 -0.9345  0.3593  0.8430
 6707SOL     OW31582   3.447   1.787   3.357 -0.0164  0.0833  0.0555
 6707SOL    HW131583   3.438   1.879   3.330 -1.2736 -0.2247 -0.5684
 6707SOL    HW231584   3.374   1.783   3.419  1.5178 -0.5664  1.8230
 6708SOL     OW31585   0.130   3.860  11.824  0.0017 -0.4470  0.0769
 6708SOL    HW131586   0.221   3.840  11.800  0.5278 -0.8104  2.3647
 6708SOL    HW231587   0.122   3.945  11.781 -0.3957 -0.0862  0.8490
 6709SOL     OW31588   2.964   2.340   7.011  0.2409  0.5952  0.2045
 6709SOL    HW131589   2.880   2.367   7.046  0.7615  1.0285  1.1264
 6709SOL    HW231590   2.965   2.380   6.924 -0.3425 -0.2946 -0.2148
 6710SOL     OW31591   0.844   1.573  16.614 -0.0111  0.1261 -0.4211
 6710SOL    HW131592   0.905   1.564  16.540 -2.0088 -0.6935 -1.9746
 6710SOL    HW231593   0.807   1.486  16.630  2.8969 -0.8754  0.8694
 6711SOL     OW31594   1.512   0.881   4.138 -0.1436  0.1766 -0.4825
 6711SOL    HW131595   1.558   0.927   4.069 -0.0288  1.8550  0.7106
 6711SOL    HW231596   1.467   0.953   4.182 -0.5166 -0.4225  0.1263
 6712SOL     OW31597   1.283   0.168   4.934  0.4320  0.7815 -0.3216
 6712SOL    HW131598   1.355   0.159   4.871  0.1646 -1.6819 -0.2694
 6712SOL    HW231599   1.222   0.217   4.878 -0.6836  0.0722  0.2849
 6713SOL     OW31600   0.917   0.783  11.433 -0.2697  0.4939 -0.2060
 6713SOL    HW131601   0.874   0.703  11.465 -0.2332  0.5660  0.0281
 6713SOL    HW231602   0.843   0.812  11.379 -0.9451 -1.6358 -0.4298
 6714SOL     OW31603   0.474   3.499   4.087  0.0960  0.1296 -0.0799
 6714SOL    HW131604   0.489   3.433   4.155  0.2922 -0.8778 -1.1148
 6714SOL    HW231605   0.398   3.460   4.045 -0.5935  0.4894  0.8291
 6715SOL     OW31606   2.906   2.156  14.391 -0.2741 -0.3783  0.0729
 6715SOL    HW131607   2.938   2.160  14.481  0.3211  3.2751 -0.3059
 6715SOL    HW231608   2.881   2.063  14.390 -1.1819 -0.1271 -0.9049
 6716SOL     OW31609   0.458   4.460  12.740 -0.7860  0.8552  0.6313
 6716SOL    HW131610   0.530   4.434  12.683 -0.2538 -0.1603  1.7780
 6716SOL    HW231611   0.461   4.555  12.726 -1.6647  0.8785  0.5968
 6717SOL     OW31612   0.665   1.320  16.582 -0.0316 -0.0661  0.1017
 6717SOL    HW131613   0.722   1.244  16.581 -0.0129 -0.0955  3.5603
 6717SOL    HW231614   0.604   1.290  16.649 -0.4358 -0.0760 -0.2624
 6718SOL     OW31615   3.962   2.694   9.522 -0.4749  0.0882  0.5301
 6718SOL    HW131616   4.030   2.640   9.562 -1.1311 -1.6404 -0.6698
 6718SOL    HW231617   3.966   2.766   9.585 -1.6371 -0.2107  0.9424
 6719SOL     OW31618   3.829   4.562  16.398  0.1662 -0.0575 -0.3630
 6719SOL    HW131619   3.781   4.624  16.452  1.2402  1.1535 -0.8046
 6719SOL    HW231620   3.818   4.480  16.447  0.0158 -0.2975 -0.8006
 6720SOL     OW31621   1.406   1.643   3.190 -0.1074  0.2019 -0.0773
 6720SOL    HW131622   1.400   1.658   3.096  0.3321 -0.6038 -0.2302
 6720SOL    HW231623   1.319   1.608   3.211  0.6577 -1.4366  0.3441
 6721SOL     OW31624   2.563   0.438   5.812 -0.5545  0.2883 -0.1942
 6721SOL    HW131625   2.497   0.465   5.747 -1.0016 -0.9764 -0.2554
 6721SOL    HW231626   2.529   0.475   5.893  1.9899  1.6247  0.2564
 6722SOL     OW31627   4.295   3.588  13.489 -0.0749 -0.4359 -0.2146
 6722SOL    HW131628   4.204   3.565  13.469  0.3311 -2.1117 -0.0568
 6722SOL    HW231629   4.315   3.648  13.417 -1.2084 -2.3535 -2.1157
 6723SOL     OW31630   0.685   2.705  11.872 -0.8992  0.2139  0.0537
 6723SOL    HW131631   0.664   2.772  11.937  0.4134 -0.4307  1.1484
 6723SOL    HW231632   0.728   2.763  11.809 -0.4123  1.4820  1.5497
 6724SOL     OW31633   2.479   4.501   2.803  0.4600  0.2479 -0.3671
 6724SOL    HW131634   2.442   4.461   2.725  1.7507  0.8197 -1.2587
 6724SOL    HW231635   2.568   4.515   2.771  0.7112  0.2852  0.3497
 6725SOL     OW31636   4.595   1.167  15.891 -0.3932  0.0892  0.3086
 6725SOL    HW131637   4.500   1.166  15.897 -0.3487  0.1712  1.0400
 6725SOL    HW231638   4.616   1.074  15.881 -0.5120  0.1812 -0.7613
 6726SOL     OW31639   0.844   3.680  17.425 -0.4014  0.2047  0.3882
 6726SOL    HW131640   0.900   3.750  17.390 -0.4557  0.7840  1.4536
 6726SOL    HW231641   0.795   3.644  17.351 -0.6577  0.0176  0.6502
 6727SOL     OW31642   0.551   2.037   9.459 -0.4168  0.2344  0.8078
 6727SOL    HW131643   0.476   1.978   9.468 -0.3319 -0.2664 -1.8063
 6727SOL    HW231644   0.591   2.048   9.545  0.8188  1.6411  0.0611
 6728SOL     OW31645   3.474   0.075   5.766  0.3764 -0.6790  0.4069
 6728SOL    HW131646   3.381   0.052   5.760  0.2361 -0.2022  0.6918
 6728SOL    HW231647   3.490   0.064   5.672  1.5544 -3.1532  0.9320
 6729SOL     OW31648   3.061   1.614  14.553 -0.1242 -0.2256 -0.3024
 6729SOL    HW131649   3.095   1.692  14.509  1.8089 -0.9739 -0.1435
 6729SOL    HW231650   3.126   1.546  14.535 -0.5057 -1.0960  1.6130
 6730SOL     OW31651   4.234   2.323  16.417  0.1325 -0.2799 -0.8343
 6730SOL    HW131652   4.148   2.360  16.398 -0.3017  0.5262  2.5758
 6730SOL    HW231653   4.214   2.268  16.493 -1.0559 -0.9618 -1.6420
 6731SOL     OW31654   0.938   1.808   9.398  0.1915  0.3172  0.4168
 6731SOL    HW131655   0.931   1.757   9.318  3.8281 -0.4225  0.5653
 6731SOL    HW231656   1.033   1.806   9.409  0.3790 -1.8225 -1.7556
 6732SOL     OW31657   4.022   3.541  13.472 -0.2620  0.8941  0.7707
 6732SOL    HW131658   3.941   3.584  13.445 -0.6429 -0.9656 -1.0170
 6732SOL    HW231659   3.997   3.517  13.561  0.6271  0.5854  0.9411
 6733SOL     OW31660   4.499   3.547   6.273  0.1492 -0.6949 -0.3885
 6733SOL    HW131661   4.423   3.489   6.277  1.0391 -1.7265  1.4152
 6733SOL    HW231662   4.477   3.589   6.190 -0.4069 -1.5347 -0.6715
 6734SOL     OW31663   2.811   0.519   8.408 -0.0064  0.0389 -0.1666
 6734SOL    HW131664   2.896   0.563   8.409  0.3919 -0.6587 -2.0385
 6734SOL    HW231665   2.833   0.435   8.449 -1.2028  0.7237  1.8423
 6735SOL     OW31666   3.334   2.560   7.747  0.3244 -0.2492  0.1038
 6735SOL    HW131667   3.339   2.649   7.784 -1.1582 -0.6494  1.2828
 6735SOL    HW231668   3.271   2.521   7.808  1.6905  1.1850  2.4388
 6736SOL     OW31669   3.337   3.417  13.876  0.4378  0.2656 -0.0575
 6736SOL    HW131670   3.248   3.403  13.844  0.1558  3.0441 -0.4123
 6736SOL    HW231671   3.352   3.505  13.844 -1.1529  0.4017 -0.4220
 6737SOL     OW31672   3.375   2.226  15.879 -0.1323  0.2109 -0.1226
 6737SOL    HW131673   3.438   2.154  15.882 -1.4840 -0.9855 -0.4230
 6737SOL    HW231674   3.307   2.196  15.818  0.4147  2.2188 -1.7132
 6738SOL     OW31675   4.075   2.121   8.845  0.3479 -0.4152 -0.4367
 6738SOL    HW131676   4.158   2.091   8.807  0.9317  1.1080 -0.3392
 6738SOL    HW231677   4.046   2.172   8.770  0.4991  1.0858  0.5317
 6739SOL     OW31678   3.201   0.069   5.123  0.2307 -0.7093  0.5039
 6739SOL    HW131679   3.212   0.142   5.062  1.1584 -0.5864  0.8184
 6739SOL    HW231680   3.134   0.022   5.073  1.2824 -0.9131 -0.7335
 6740SOL     OW31681   4.519   0.875   7.756 -0.3917  0.6027  0.0226
 6740SOL    HW131682   4.473   0.928   7.821  1.0262  0.7302  0.9318
 6740SOL    HW231683   4.463   0.890   7.680  0.5709 -0.2149 -0.8450
 6741SOL     OW31684   3.973   0.699   9.854  0.2195 -0.2308  0.1975
 6741SOL    HW131685   3.958   0.664   9.942  0.2979 -0.7637 -0.0008
 6741SOL    HW231686   3.998   0.787   9.882  0.4820 -0.7399  1.6014
 6742SOL     OW31687   1.088   4.174   4.138  0.7388  0.3541  0.6710
 6742SOL    HW131688   1.001   4.150   4.169  0.3388 -1.9541 -2.2997
 6742SOL    HW231689   1.148   4.107   4.172  1.1148  0.3069 -0.0859
 6743SOL     OW31690   1.309   3.975   8.258 -0.3082  0.1463 -0.7065
 6743SOL    HW131691   1.307   3.921   8.337 -0.3761  1.8568  0.4470
 6743SOL    HW231692   1.320   4.064   8.290 -1.1620  0.1181 -0.3504
 6744SOL     OW31693   2.141   0.154   1.542 -0.4017 -0.0346  0.2135
 6744SOL    HW131694   2.158   0.239   1.584  3.2489 -1.2090  1.1017
 6744SOL    HW231695   2.208   0.099   1.581 -0.9490 -1.0047 -0.2189
 6745SOL     OW31696   0.498   3.413   6.166 -0.3992  0.2317 -0.0862
 6745SOL    HW131697   0.578   3.456   6.133  0.6793 -2.3786 -0.8861
 6745SOL    HW231698   0.532   3.382   6.249  0.0318 -1.8915 -1.0540
 6746SOL     OW31699   3.143   0.744   4.914  0.4689 -0.3369  0.1083
 6746SOL    HW131700   3.186   0.810   4.969 -0.6252  0.2133  0.3105
 6746SOL    HW231701   3.188   0.662   4.937  2.1657  0.2146 -1.2553
 6747SOL     OW31702   0.887   2.250   5.327  0.3048 -0.4096 -0.2484
 6747SOL    HW131703   0.932   2.184   5.275  0.6946  0.4117 -0.9525
 6747SOL    HW231704   0.965   2.304   5.339 -0.6303  0.5387  1.5659
 6748SOL     OW31705   2.153   2.636   4.356  0.3653 -0.0808  0.6048
 6748SOL    HW131706   2.208   2.700   4.310  1.0921 -1.9630 -1.1250
 6748SOL    HW231707   2.220   2.573   4.383  0.7989 -0.7418 -2.0667
 6749SOL     OW31708   1.062   4.128   8.624 -0.2617  0.1255 -0.3793
 6749SOL    HW131709   1.016   4.139   8.541 -0.6462 -0.3834 -0.2325
 6749SOL    HW231710   1.064   4.033   8.610  0.3719 -0.3157  2.8832
 6750SOL     OW31711   0.582   2.262   6.164  1.1421 -0.4593  0.5015
 6750SOL    HW131712   0.559   2.174   6.191 -1.3270 -1.2732 -4.1702
 6750SOL    HW231713   0.657   2.236   6.110  1.3596  0.9456  0.1098
 6751SOL     OW31714   2.164   3.869   6.929  0.0554  0.8980 -0.3153
 6751SOL    HW131715   2.159   3.954   6.884 -1.8260 -0.7986 -3.3068
 6751SOL    HW231716   2.082   3.857   6.977  0.2375 -0.6304 -0.3954
 6752SOL     OW31717   4.159   2.428   1.604  0.4066  0.1364  0.1428
 6752SOL    HW131718   4.205   2.396   1.526 -0.3452 -1.7090  0.4683
 6752SOL    HW231719   4.115   2.504   1.567  3.6096  2.2802  0.7473
 6753SOL     OW31720   1.319   0.246   6.130 -0.4580 -0.0216  0.1499
 6753SOL    HW131721   1.272   0.218   6.209  1.3242 -1.8863  0.5483
 6753SOL    HW231722   1.396   0.191   6.141 -2.1755 -2.2067  1.2454
 6754SOL     OW31723   2.165   1.417   1.166 -0.7166 -0.5302 -0.1269
 6754SOL    HW131724   2.225   1.422   1.091  0.1785 -0.9925  0.5458
 6754SOL    HW231725   2.193   1.338   1.213  0.1451  0.4141  0.9556
 6755SOL     OW31726   1.728   3.453  17.506 -0.4552  0.5307  0.3085
 6755SOL    HW131727   1.746   3.376  17.559 -1.6223 -0.3129 -0.5264
 6755SOL    HW231728   1.655   3.484  17.558  0.0203  0.1132  1.2267
 6756SOL     OW31729   3.863   2.963  14.570 -0.6667 -0.5605  0.0231
 6756SOL    HW131730   3.803   3.022  14.614 -1.9782 -0.5467 -1.8145
 6756SOL    HW231731   3.942   3.015  14.587 -0.4804 -1.7520  2.8472
 6757SOL     OW31732   0.952   2.707   2.488 -0.4409 -0.3327 -0.0134
 6757SOL    HW131733   0.861   2.684   2.504 -0.5377 -0.0206 -0.1131
 6757SOL    HW231734   0.988   2.697   2.577 -1.4598  1.2780  0.5846
 6758SOL     OW31735   2.798   1.896   6.468  0.2568 -0.3348 -0.6163
 6758SOL    HW131736   2.866   1.829   6.474 -0.0667 -0.3025  3.4079
 6758SOL    HW231737   2.815   1.960   6.538 -1.1286 -0.4111 -0.1963
 6759SOL     OW31738   3.583   0.125   5.032 -0.3151  0.2733  0.1799
 6759SOL    HW131739   3.561   0.032   5.039  0.0109  0.3650  2.5370
 6759SOL    HW231740   3.678   0.116   5.038  0.0544  3.8965 -0.3148
 6760SOL     OW31741   0.810   1.391   8.370 -0.2343 -0.4474  0.4092
 6760SOL    HW131742   0.822   1.296   8.375  2.1353 -0.1392  0.5544
 6760SOL    HW231743   0.743   1.414   8.305 -1.2895 -1.9910  0.9658
 6761SOL     OW31744   3.318   2.331  14.905 -0.2222  0.3644  0.7907
 6761SOL    HW131745   3.323   2.415  14.860  1.5885 -0.2129 -0.0943
 6761SOL    HW231746   3.318   2.361  14.996 -0.1033  0.4590  0.7594
 6762SOL     OW31747   2.011   0.858   5.883 -0.0464  0.2168  0.3232
 6762SOL    HW131748   2.016   0.898   5.970  2.4937  1.1981 -0.2678
 6762SOL    HW231749   1.918   0.855   5.861  0.0887  0.0121 -0.2204
 6763SOL     OW31750   1.658   3.937   4.664 -0.1725  0.0586 -0.3709
 6763SOL    HW131751   1.599   3.938   4.739 -0.1730 -1.7251 -0.3627
 6763SOL    HW231752   1.742   3.959   4.704  0.1899 -0.0950 -1.0357
 6764SOL     OW31753   2.660   3.408  14.638  0.3646 -0.7254  0.3762
 6764SOL    HW131754   2.705   3.325  14.624  0.0183 -0.7976 -0.3367
 6764SOL    HW231755   2.729   3.463  14.676  0.9826 -1.0129 -0.3291
 6765SOL     OW31756   0.428   1.016   6.076  0.0201  0.3929  0.4836
 6765SOL    HW131757   0.483   1.093   6.059 -0.8108  0.7755 -0.4594
 6765SOL    HW231758   0.359   1.052   6.132 -0.0387 -1.0500  1.3416
 6766SOL     OW31759   2.408   3.716   3.737  0.2404  0.1602 -0.1140
 6766SOL    HW131760   2.390   3.643   3.678  0.5587  0.2184 -0.2897
 6766SOL    HW231761   2.441   3.780   3.674  1.4360 -0.3491 -0.0060
 6767SOL     OW31762   1.807   2.454   0.811  0.4035 -0.4983  0.9545
 6767SOL    HW131763   1.887   2.419   0.849  1.3277 -0.0172 -0.5688
 6767SOL    HW231764   1.822   2.420   0.723  0.5959 -1.0029  1.1801
 6768SOL     OW31765   3.503   2.611   2.612 -0.0638  0.3961 -0.6188
 6768SOL    HW131766   3.440   2.543   2.588 -1.1604  1.2556 -0.1354
 6768SOL    HW231767   3.564   2.561   2.666 -2.2542 -0.7027  0.8534
 6769SOL     OW31768   4.508   1.724   9.389 -0.2928 -0.3609 -0.8887
 6769SOL    HW131769   4.431   1.777   9.408 -0.2004 -0.8292  0.7937
 6769SOL    HW231770   4.492   1.651   9.448  1.5844  0.9057  1.2096
 6770SOL     OW31771   0.566   3.798  16.524  0.2228  0.3250  0.0833
 6770SOL    HW131772   0.569   3.868  16.459 -1.2052  0.6717  0.3919
 6770SOL    HW231773   0.655   3.804  16.558 -0.6457  3.3319  1.8080
 6771SOL     OW31774   3.512   0.225   9.977 -0.4359  0.5223 -0.2025
 6771SOL    HW131775   3.523   0.131   9.965  1.1952  0.7377 -0.3596
 6771SOL    HW231776   3.566   0.229  10.056 -0.4945  0.9849 -0.1845
 6772SOL     OW31777   4.085   4.605   5.525  0.2108 -0.0416 -0.3201
 6772SOL    HW131778   4.111   4.697   5.520 -0.2916  0.1804  1.2988
 6772SOL    HW231779   4.121   4.567   5.445 -1.6154  1.1975 -1.7376
 6773SOL     OW31780   2.802   4.527   7.567 -0.0376  0.2882  0.7498
 6773SOL    HW131781   2.707   4.535   7.570 -0.1877  0.4059 -4.6987
 6773SOL    HW231782   2.819   4.437   7.593  2.0681  0.9756  1.7978
 6774SOL     OW31783   0.153   3.825   5.586 -0.2756 -0.3074 -0.4117
 6774SOL    HW131784   0.232   3.788   5.626 -0.0445  0.3389 -0.2766
 6774SOL    HW231785   0.096   3.773   5.643  0.5486 -1.3607 -0.5433
 6775SOL     OW31786   1.348   3.522   6.685 -0.3884  0.5022 -0.0865
 6775SOL    HW131787   1.264   3.504   6.728  0.0797 -0.7583  0.3143
 6775SOL    HW231788   1.329   3.601   6.635 -0.0272  1.1957  0.8636
 6776SOL     OW31789   3.073   3.733   0.936  0.7403  0.0747  0.4326
 6776SOL    HW131790   3.004   3.799   0.945  1.4225  0.2992  3.8123
 6776SOL    HW231791   3.072   3.718   0.841 -1.5180 -0.5047  0.5417
 6777SOL     OW31792   0.313   2.282   2.186 -0.2450 -0.0031  0.4963
 6777SOL    HW131793   0.253   2.290   2.111 -0.1125 -1.2856  0.2534
 6777SOL    HW231794   0.375   2.215   2.159  0.7287  1.1416 -0.1059
 6778SOL     OW31795   1.748   2.223   4.198  0.2534 -0.0862 -1.2716
 6778SOL    HW131796   1.725   2.240   4.106 -1.8677 -2.6074 -1.1968
 6778SOL    HW231797   1.810   2.294   4.211 -0.1584  0.0055  0.1875
 6779SOL     OW31798   4.696   3.184  11.577  0.0364 -0.4717  0.5119
 6779SOL    HW131799   0.022   3.107  11.607  0.2491 -1.8893 -3.4141
 6779SOL    HW231800   0.049   3.222  11.532  0.3209  0.9626  2.2200
 6780SOL     OW31801   3.410   0.459   7.063 -0.4322  0.2195  0.0818
 6780SOL    HW131802   3.495   0.480   7.025 -0.1981 -0.7234  0.0751
 6780SOL    HW231803   3.409   0.364   7.053 -2.5429 -0.0479  2.6450
 6781SOL     OW31804   3.107   3.906   4.374 -0.5943 -0.0353 -0.1134
 6781SOL    HW131805   3.016   3.925   4.353 -0.4553 -1.8517 -2.3751
 6781SOL    HW231806   3.109   3.811   4.366  1.1157  0.0368 -0.5354
 6782SOL     OW31807   2.853   3.532   1.268  0.1709 -0.0801 -0.0213
 6782SOL    HW131808   2.800   3.605   1.235 -1.1233 -1.1256 -0.2852
 6782SOL    HW231809   2.878   3.577   1.348  0.3045 -0.6784  0.2762
 6783SOL     OW31810   4.029   2.777   9.263  0.0133  0.0490 -0.7164
 6783SOL    HW131811   3.981   2.776   9.346 -2.6045  1.0663 -2.2287
 6783SOL    HW231812   4.060   2.686   9.261 -1.6773 -0.5512  0.8806
 6784SOL     OW31813   3.768   1.629   6.805  0.0669  0.4176  0.1739
 6784SOL    HW131814   3.804   1.557   6.754 -1.7959  1.7239 -3.0447
 6784SOL    HW231815   3.800   1.704   6.754  0.5317  0.2032  0.1586
 6785SOL     OW31816   2.357   4.319   7.243 -0.1623 -0.0048 -0.0230
 6785SOL    HW131817   2.329   4.338   7.332 -0.4896  1.5527 -0.4594
 6785SOL    HW231818   2.447   4.295   7.266 -0.2807 -1.6879 -1.2751
 6786SOL     OW31819   0.406   2.445   7.707  0.0440  0.2771 -0.1118
 6786SOL    HW131820   0.428   2.524   7.756  0.7118  0.9726 -1.5250
 6786SOL    HW231821   0.372   2.393   7.780  1.5164  0.3896  0.6415
 6787SOL     OW31822   2.748   0.555   3.780  0.0316  0.6470 -0.5886
 6787SOL    HW131823   2.682   0.607   3.734  1.1253  2.1903 -0.4257
 6787SOL    HW231824   2.707   0.535   3.864 -1.5454  0.3139 -1.4462
 6788SOL     OW31825   2.035   2.958   4.158  0.2676  0.5249  0.0553
 6788SOL    HW131826   2.129   2.951   4.175  0.5256  1.5298 -0.9693
 6788SOL    HW231827   2.033   2.920   4.070 -0.1620  2.4883 -0.7866
 6789SOL     OW31828   1.400   1.910   0.292  0.5241  0.2280 -0.3948
 6789SOL    HW131829   1.419   1.906   0.198  1.2412 -1.6244 -0.1588
 6789SOL    HW231830   1.473   1.967   0.316 -1.4995  1.8511  1.9930
 6790SOL     OW31831   2.895   3.927  17.649  0.2110  0.0891 -0.0656
 6790SOL    HW131832   2.859   4.012  17.622  0.3750 -0.9926 -3.5508
 6790SOL    HW231833   2.986   3.941  17.622  0.7099  0.7631  1.9348
 6791SOL     OW31834   2.594   4.020   1.003  0.8306 -0.0520  0.2208
 6791SOL    HW131835   2.592   4.015   1.099  1.5309 -0.2138  0.2224
 6791SOL    HW231836   2.568   4.111   0.987 -3.1542 -1.0149  1.1619
 6792SOL     OW31837   0.157   3.641  10.876 -0.7480 -0.2326 -0.2603
 6792SOL    HW131838   0.083   3.627  10.935 -0.1189 -0.2095  0.5295
 6792SOL    HW231839   0.199   3.556  10.884 -0.4181  0.0067  0.5525
 6793SOL     OW31840   1.700   2.226   6.283 -0.3880 -0.2094  0.8355
 6793SOL    HW131841   1.645   2.297   6.250 -0.0662 -1.0002 -1.4001
 6793SOL    HW231842   1.760   2.219   6.209  2.0120  0.7861  2.7050
 6794SOL     OW31843   0.678   3.418  16.448 -0.3760 -0.3176  0.2751
 6794SOL    HW131844   0.585   3.400  16.437 -0.2216 -0.3609 -0.9404
 6794SOL    HW231845   0.680   3.479  16.522 -0.0624 -2.1908  1.8017
 6795SOL     OW31846   1.344   0.150   5.219 -0.1930 -0.2020  1.2736
 6795SOL    HW131847   1.314   0.147   5.128  2.8434 -2.9017  0.3634
 6795SOL    HW231848   1.392   0.068   5.224  1.2574  0.5661  0.0495
 6796SOL     OW31849   4.001   1.040  11.517 -0.5748  0.0838 -0.3349
 6796SOL    HW131850   4.067   1.003  11.458 -0.2391 -0.2402  0.2488
 6796SOL    HW231851   3.944   0.964  11.533  0.6824 -0.5216  1.2515
 6797SOL     OW31852   1.905   1.847  12.790  0.0572  0.0969 -0.3942
 6797SOL    HW131853   1.833   1.785  12.803 -1.1756  2.0131  2.0990
 6797SOL    HW231854   1.945   1.824  12.706  0.2181 -1.8763  0.2213
 6798SOL     OW31855   4.003   2.405  10.248 -0.1052 -1.4703 -0.0006
 6798SOL    HW131856   3.966   2.438  10.330 -0.4517  0.8960 -1.1002
 6798SOL    HW231857   3.962   2.321  10.229 -3.3813  0.0626  0.3620
 6799SOL     OW31858   4.617   2.767  16.992  0.1038  0.4418  0.1072
 6799SOL    HW131859   4.670   2.688  16.990 -0.6686 -0.0433 -1.0457
 6799SOL    HW231860   4.618   2.793  16.900 -1.7857 -0.2290 -0.1179
 6800SOL     OW31861   3.809   2.459  14.227  0.2939  0.3493  0.1782
 6800SOL    HW131862   3.808   2.533  14.166 -1.9447 -1.0939 -1.5418
 6800SOL    HW231863   3.891   2.490  14.265  0.4861 -0.6769  0.6008
 6801SOL     OW31864   2.100   0.521   2.518 -0.0035  0.2301  0.1539
 6801SOL    HW131865   2.095   0.605   2.471  1.6690 -0.8929 -2.0420
 6801SOL    HW231866   2.029   0.477   2.472  1.1222 -0.3086 -1.0512
 6802SOL     OW31867   1.836   0.696   4.242 -0.2016 -0.0092 -0.1217
 6802SOL    HW131868   1.860   0.607   4.268 -1.0908 -0.2240 -0.0258
 6802SOL    HW231869   1.777   0.678   4.169 -1.0200 -3.5630  1.4228
 6803SOL     OW31870   0.916   4.041  14.068 -0.3712 -0.4432  0.4221
 6803SOL    HW131871   0.967   3.981  14.122  0.4052  0.8176  1.0832
 6803SOL    HW231872   0.852   4.081  14.128 -0.2539 -0.8642  0.8217
 6804SOL     OW31873   4.334   0.945   5.142 -0.4952  0.4132 -0.4596
 6804SOL    HW131874   4.393   0.906   5.207  0.0164 -2.9914 -2.9294
 6804SOL    HW231875   4.292   1.008   5.201 -0.1787 -0.5173  0.7702
 6805SOL     OW31876   1.713   4.063   0.130  0.2018  0.2560 -0.5220
 6805SOL    HW131877   1.777   4.031   0.066 -0.6570 -0.0459 -1.2268
 6805SOL    HW231878   1.664   4.122   0.073  0.2851  0.3986 -0.4451
 6806SOL     OW31879   2.487   3.413   3.103  0.5804 -0.5823  0.0237
 6806SOL    HW131880   2.500   3.336   3.048  1.3649 -0.1609 -0.3710
 6806SOL    HW231881   2.490   3.479   3.034 -0.6689  1.9019  2.3528
 6807SOL     OW31882   2.556   3.787  13.952  0.5633  0.2829  0.5854
 6807SOL    HW131883   2.629   3.826  13.904  2.5477 -0.4173  3.0144
 6807SOL    HW231884   2.565   3.693  13.935 -1.0489 -0.0665  1.6769
 6808SOL     OW31885   2.230   0.915  15.961 -0.1170 -0.0764 -0.7772
 6808SOL    HW131886   2.316   0.927  15.921  0.5781 -1.4254  0.3326
 6808SOL    HW231887   2.169   0.962  15.904  0.3771  1.2301 -0.2415
 6809SOL     OW31888   0.216   3.327   5.283  0.2569 -0.1433  0.0484
 6809SOL    HW131889   0.254   3.326   5.195  1.0117  0.7361  0.3621
 6809SOL    HW231890   0.200   3.233   5.298 -0.8591 -0.3113 -2.1963
 6810SOL     OW31891   2.248   2.422  14.234 -0.0934 -0.3476  0.1382
 6810SOL    HW131892   2.184   2.431  14.304 -0.2735 -2.8633  0.3119
 6810SOL    HW231893   2.212   2.474  14.162 -0.5385  2.0626  2.1220
 6811SOL     OW31894   0.246   4.087   1.650 -0.2170 -0.2699 -0.2116
 6811SOL    HW131895   0.247   4.115   1.558 -0.2945 -0.2564 -0.2084
 6811SOL    HW231896   0.213   3.998   1.637  1.0763 -0.8743  0.7213
 6812SOL     OW31897   1.775   3.650   7.744 -0.1326  0.0165  0.5590
 6812SOL    HW131898   1.861   3.688   7.727 -0.1846 -0.0505  0.1638
 6812SOL    HW231899   1.745   3.713   7.809  0.8731  0.1479  0.8933
 6813SOL     OW31900   3.432   0.713   3.266 -0.0572  0.0143 -0.3146
 6813SOL    HW131901   3.399   0.669   3.188  0.1879 -0.3292 -0.2225
 6813SOL    HW231902   3.412   0.799   3.228 -0.4060  1.1018  2.2749
 6814SOL     OW31903   2.127   0.118   4.431  0.4169 -0.2614  0.0027
 6814SOL    HW131904   2.179   0.114   4.511 -0.1230  2.0547  0.4651
 6814SOL    HW231905   2.086   0.204   4.440 -1.4049 -1.0396 -0.8491
 6815SOL     OW31906   2.057   2.301   0.178  0.3026  0.3011  0.3517
 6815SOL    HW131907   2.124   2.257   0.125  2.3375 -0.2972  3.4525
 6815SOL    HW231908   1.992   2.336   0.117  0.8314 -0.0432 -0.4112
 6816SOL     OW31909   0.774   3.538   9.649 -0.2440 -0.1883  0.1097
 6816SOL    HW131910   0.766   3.633   9.650 -2.1539 -0.3565  1.6226
 6816SOL    HW231911   0.859   3.527   9.692 -0.7713 -2.6868  0.4935
 6817SOL     OW31912   0.102   1.079   9.824  1.0404  0.4000 -0.1958
 6817SOL    HW131913   0.094   1.169   9.792  0.4155 -0.0310 -1.2483
 6817SOL    HW231914   0.176   1.043   9.775 -0.5601 -0.2894 -2.0930
 6818SOL     OW31915   2.515   4.286  14.038  0.0608  0.3687 -0.3185
 6818SOL    HW131916   2.447   4.220  14.037 -0.5839  1.0150  3.0776
 6818SOL    HW231917   2.499   4.326  13.952 -0.1494  1.1288  0.0725
 6819SOL     OW31918   0.877   1.609   7.101 -0.5001  0.0650 -0.3258
 6819SOL    HW131919   0.801   1.651   7.061 -0.0660  0.7908 -0.4047
 6819SOL    HW231920   0.945   1.629   7.036  0.9314 -1.3290  0.7569
 6820SOL     OW31921   0.857   1.688   5.274  0.1840  0.4743  0.3061
 6820SOL    HW131922   0.788   1.637   5.232  0.7273 -2.0088  2.4231
 6820SOL    HW231923   0.855   1.657   5.364 -0.8594  1.1553  0.5084
 6821SOL     OW31924   2.900   4.292   0.957  0.5205 -0.6346 -0.4791
 6821SOL    HW131925   2.943   4.371   0.925 -3.8552  0.4046 -3.7617
 6821SOL    HW231926   2.967   4.225   0.946  0.6189 -0.7185  0.6600
 6822SOL     OW31927   2.146   3.648   9.665 -0.2253 -0.2388 -0.3763
 6822SOL    HW131928   2.111   3.566   9.631 -2.2919  1.1118 -1.4598
 6822SOL    HW231929   2.123   3.714   9.600  0.5590  2.1317  1.7345
 6823SOL     OW31930   3.792   2.038   5.554 -0.6528  0.5631  0.0827
 6823SOL    HW131931   3.779   2.085   5.472 -0.9500  0.5949  0.1490
 6823SOL    HW231932   3.707   2.058   5.593 -1.5194  2.1759 -2.6819
 6824SOL     OW31933   2.591   2.410   4.876 -0.1422 -0.0037 -0.2507
 6824SOL    HW131934   2.682   2.381   4.883 -0.3296 -0.5146  0.0567
 6824SOL    HW231935   2.596   2.491   4.926 -2.0313 -0.9114  1.3888
 6825SOL     OW31936   3.328   3.199   3.292  0.0690  0.0071 -0.1433
 6825SOL    HW131937   3.383   3.277   3.305 -1.1926  0.4798  2.4289
 6825SOL    HW231938   3.346   3.167   3.204 -0.9457 -0.3420 -0.2141
 6826SOL     OW31939   0.752   3.179   8.061  0.5699  0.9231 -0.0095
 6826SOL    HW131940   0.749   3.103   8.118  1.2933  2.2096  1.7510
 6826SOL    HW231941   0.823   3.236   8.091  1.0351 -0.5069  1.5627
 6827SOL     OW31942   1.941   2.230  14.707  0.1009 -0.3409 -0.3681
 6827SOL    HW131943   1.920   2.316  14.743 -0.1347  0.0358 -1.4008
 6827SOL    HW231944   2.031   2.218  14.737  0.2482  0.3730 -0.5250
 6828SOL     OW31945   0.861   4.370   5.305 -0.3143 -0.4178 -0.7877
 6828SOL    HW131946   0.916   4.393   5.231 -0.2926  1.9492 -0.0511
 6828SOL    HW231947   0.863   4.275   5.304  0.1726 -0.4203  0.4146
 6829SOL     OW31948   0.146   4.082   7.276  0.6869 -0.5857  0.3806
 6829SOL    HW131949   0.110   4.150   7.220 -0.8942  0.3535  2.5515
 6829SOL    HW231950   0.116   4.121   7.357  0.3188 -0.9852  0.4372
 6830SOL     OW31951   3.627   4.665  14.560 -0.3250  0.3204  0.4037
 6830SOL    HW131952   3.679   0.008  14.606  1.2964  0.8700 -2.2018
 6830SOL    HW231953   3.541   4.707  14.573 -1.2909 -0.7109 -2.6697
 6831SOL     OW31954   4.301   3.004  17.295 -0.0568 -0.1141  0.2486
 6831SOL    HW131955   4.227   2.947  17.272  0.4302  0.2311 -2.1419
 6831SOL    HW231956   4.361   2.933  17.318  0.6481  0.0447 -1.1381
 6832SOL     OW31957   0.458   2.913  11.592 -0.4001 -0.1827  0.0814
 6832SOL    HW131958   0.390   2.879  11.534 -0.5957  1.2556 -0.5218
 6832SOL    HW231959   0.428   2.860  11.667  3.2186 -2.0222  0.2769
 6833SOL     OW31960   0.070   3.312   3.568  0.1564 -0.4760  0.0823
 6833SOL    HW131961   0.164   3.311   3.556  0.2322 -0.1208  0.6381
 6833SOL    HW231962   0.058   3.337   3.660 -1.6213 -1.8928  0.2435
 6834SOL     OW31963   1.380   2.922  14.251  0.2821  0.0232 -0.7277
 6834SOL    HW131964   1.456   2.865  14.262  1.7715  1.3726 -3.8394
 6834SOL    HW231965   1.412   2.978  14.180 -0.0053  0.3216 -0.6250
 6835SOL     OW31966   2.815   4.443   5.543 -0.9333 -0.4051  1.0148
 6835SOL    HW131967   2.839   4.508   5.609  1.1203 -0.6248  0.4867
 6835SOL    HW231968   2.877   4.371   5.560  0.2355 -0.5201 -3.5213
 6836SOL     OW31969   1.238   3.807   4.056 -0.3230 -0.6286 -1.0794
 6836SOL    HW131970   1.198   3.847   3.979 -0.5402  1.2404  0.0047
 6836SOL    HW231971   1.267   3.724   4.017 -0.1382 -1.9596  1.8976
 6837SOL     OW31972   3.394   2.778   5.376 -0.1874  0.3178 -0.0577
 6837SOL    HW131973   3.310   2.734   5.388 -2.0020  3.5615 -0.8243
 6837SOL    HW231974   3.432   2.751   5.459 -0.4879  0.4182  0.1166
 6838SOL     OW31975   3.003   2.576   4.541  0.0009  0.5912  0.1158
 6838SOL    HW131976   2.934   2.531   4.492 -0.7873  2.0334 -0.0881
 6838SOL    HW231977   3.073   2.511   4.546 -1.0256 -0.3372  2.3673
 6839SOL     OW31978   3.512   2.955  15.933 -0.0847  0.2690 -0.3189
 6839SOL    HW131979   3.458   2.955  15.854  0.4928  0.5983 -0.7179
 6839SOL    HW231980   3.592   2.913  15.900  1.0989  0.5220  2.2564
 6840SOL     OW31981   3.932   3.698   0.612  0.1279  0.1453 -0.4484
 6840SOL    HW131982   4.028   3.692   0.616  0.1670  1.1233 -0.1740
 6840SOL    HW231983   3.912   3.659   0.697 -1.5839  0.0980 -0.8779
 6841SOL     OW31984   1.633   2.767   5.175  0.0968  0.3232  0.1767
 6841SOL    HW131985   1.691   2.704   5.132 -0.7021  0.9094 -1.7611
 6841SOL    HW231986   1.689   2.845   5.173 -0.6260  0.8160 -0.4772
 6842SOL     OW31987   3.957   4.639  14.405  0.0694  0.3655  0.3122
 6842SOL    HW131988   4.013   4.641  14.482 -1.3394  1.1997  1.3070
 6842SOL    HW231989   3.905   4.718  14.417  0.1679  0.5142 -0.2362
 6843SOL     OW31990   2.525   1.529   4.083 -0.6443  0.2312  0.4055
 6843SOL    HW131991   2.532   1.560   4.173 -1.2595  1.2137  0.1078
 6843SOL    HW231992   2.498   1.439   4.102 -0.1944  0.5470  2.6062
 6844SOL     OW31993   0.408   3.779   2.931  0.0615 -0.3649  0.4171
 6844SOL    HW131994   0.479   3.735   2.883 -0.7895  0.1896 -1.3721
 6844SOL    HW231995   0.368   3.817   2.852  0.5905 -0.4253  0.1219
 6845SOL     OW31996   3.344   1.865  16.753  0.7273  0.3189 -0.4336
 6845SOL    HW131997   3.371   1.811  16.827 -1.6494 -1.6584 -0.9913
 6845SOL    HW231998   3.379   1.951  16.775  0.5267  0.2841  0.0194
 6846SOL     OW31999   4.618   3.579  13.144  0.5245 -0.2896 -0.4444
 6846SOL    HW132000   4.685   3.644  13.120 -0.5809  1.3214  0.8938
 6846SOL    HW232001   4.624   3.509  13.079 -1.2861 -0.8043 -0.0393
 6847SOL     OW32002   2.996   1.811   8.010 -0.2256  0.7689 -0.2257
 6847SOL    HW132003   2.986   1.716   8.009  0.4401  0.6511  2.7976
 6847SOL    HW232004   2.932   1.846   7.947  1.5602 -2.7031 -3.9027
 6848SOL     OW32005   4.157   2.895   9.049  0.2513 -0.1325  0.5258
 6848SOL    HW132006   4.101   2.848   9.110  1.8426 -0.0646  2.0455
 6848SOL    HW232007   4.231   2.835   9.035 -1.4614 -2.1100  0.0254
 6849SOL     OW32008   0.865   0.540  11.273  0.1331  0.2263  0.5323
 6849SOL    HW132009   0.946   0.490  11.284  0.3399  0.7837  1.5285
 6849SOL    HW232010   0.800   0.471  11.260 -0.0354  0.1161  1.9673
 6850SOL     OW32011   3.123   3.039   5.348 -0.0208  0.2855  0.1197
 6850SOL    HW132012   3.182   3.029   5.274 -0.4628 -1.2291 -0.0172
 6850SOL    HW232013   3.187   3.057   5.417 -0.9063 -0.9361  1.2662
 6851SOL     OW32014   3.571   2.797  15.333  0.2797  0.5445 -0.9393
 6851SOL    HW132015   3.633   2.780  15.262  0.5370 -1.8680 -0.1324
 6851SOL    HW232016   3.628   2.831  15.402 -0.0349  1.0050 -0.9021
 6852SOL     OW32017   0.511   1.543  13.382 -0.0040 -0.0089 -0.1494
 6852SOL    HW132018   0.472   1.503  13.304 -0.4768 -0.8108  0.5027
 6852SOL    HW232019   0.597   1.556  13.342 -0.5316 -1.9398 -1.9086
 6853SOL     OW32020   2.976   3.701   0.676  0.2914 -0.8516 -0.1087
 6853SOL    HW132021   3.018   3.727   0.594 -1.3026  0.8209 -0.3886
 6853SOL    HW232022   2.892   3.746   0.665  2.5621  2.8583 -2.5205
 6854SOL     OW32023   0.531   0.417   3.374  0.1416  0.5490  0.1006
 6854SOL    HW132024   0.542   0.332   3.419  0.9183  0.5606 -0.0621
 6854SOL    HW232025   0.585   0.474   3.429  0.9797 -1.5994  1.5326
 6855SOL     OW32026   2.014   0.471  11.982  0.3166  0.2817  0.2229
 6855SOL    HW132027   2.021   0.533  12.055  2.3039 -0.6907  0.8343
 6855SOL    HW232028   2.103   0.441  11.965 -0.5425 -1.3095 -1.4506
 6856SOL     OW32029   0.516   2.648   6.726 -0.1776 -0.1315  0.0323
 6856SOL    HW132030   0.566   2.688   6.654 -1.4864 -0.1238 -0.8805
 6856SOL    HW232031   0.567   2.672   6.803  0.7209 -0.0147 -0.5955
 6857SOL     OW32032   2.160   2.545  15.060  0.2959 -0.3590 -0.6283
 6857SOL    HW132033   2.143   2.455  15.085  1.1114 -0.7008 -1.2934
 6857SOL    HW232034   2.170   2.532  14.966  0.2851  2.0344 -0.9822
 6858SOL     OW32035   2.117   3.280   2.117 -0.5596  0.1214  0.1822
 6858SOL    HW132036   2.183   3.253   2.052  2.4425 -0.4207  3.4589
 6858SOL    HW232037   2.041   3.296   2.061 -0.7025  0.9249  0.6069
 6859SOL     OW32038   2.091   0.411   4.875 -0.2208  0.2475  0.1688
 6859SOL    HW132039   2.134   0.445   4.953  0.1154 -2.1405  0.9956
 6859SOL    HW232040   2.130   0.476   4.816 -1.9398  0.5004 -0.6855
 6860SOL     OW32041   3.441   0.824   5.366  0.4418 -0.6551  0.4812
 6860SOL    HW132042   3.455   0.918   5.355  1.5487 -0.7513  1.0723
 6860SOL    HW232043   3.364   0.832   5.423  0.0984 -0.1827 -0.0482
 6861SOL     OW32044   3.317   0.543  12.623  0.1175 -0.0621 -0.4654
 6861SOL    HW132045   3.229   0.527  12.658  0.8528  2.1404  2.3611
 6861SOL    HW232046   3.370   0.552  12.702 -2.7791  0.2816  1.4522
 6862SOL     OW32047   2.675   1.682   2.062  0.5396 -0.2682 -0.6130
 6862SOL    HW132048   2.748   1.744   2.066  0.3021  0.0857 -1.8264
 6862SOL    HW232049   2.600   1.732   2.030 -0.4047 -0.3537  1.3959
 6863SOL     OW32050   3.587   4.416   7.645 -0.5329 -0.0252 -0.3075
 6863SOL    HW132051   3.616   4.326   7.658  1.4694  0.3746 -1.9418
 6863SOL    HW232052   3.674   4.453   7.661  0.4715 -1.6976 -1.8938
 6864SOL     OW32053   3.804   2.350   5.650  0.1068 -0.0066 -0.1308
 6864SOL    HW132054   3.817   2.335   5.744 -0.6950  0.2095  0.0137
 6864SOL    HW232055   3.879   2.303   5.613  2.9634  2.7621  2.0995
 6865SOL     OW32056   2.094   2.454  12.304  0.8377 -0.1659  0.7293
 6865SOL    HW132057   2.135   2.480  12.387  0.1693  0.3316  0.9006
 6865SOL    HW232058   2.000   2.455  12.325  0.8150 -1.6254  0.7181
 6866SOL     OW32059   3.076   4.306   8.647  0.7691  0.4271 -0.0834
 6866SOL    HW132060   3.127   4.334   8.723 -1.2934 -1.0615  1.8677
 6866SOL    HW232061   3.067   4.387   8.598  1.8865  0.3184 -0.4583
 6867SOL     OW32062   3.041   3.074  11.795 -0.1747 -0.1456 -0.5559
 6867SOL    HW132063   2.986   3.151  11.779  0.6883  0.8829  1.4853
 6867SOL    HW232064   2.991   3.000  11.759 -1.0785  0.2170 -0.0537
 6868SOL     OW32065   2.503   2.878   1.312  0.2649  0.0824 -0.2425
 6868SOL    HW132066   2.572   2.878   1.378 -0.1136  1.3988  0.1534
 6868SOL    HW232067   2.457   2.957   1.341  2.6633  1.0729  0.8692
 6869SOL     OW32068   2.790   3.455   3.485  0.2411  0.3618 -0.2797
 6869SOL    HW132069   2.722   3.464   3.418  2.3193  1.2957 -2.2542
 6869SOL    HW232070   2.867   3.472   3.432  0.7338 -0.0791  0.2998
 6870SOL     OW32071   4.646   2.408   0.605  0.0843  0.3480 -0.8211
 6870SOL    HW132072   4.622   2.316   0.620 -0.0249  0.7276  1.3371
 6870SOL    HW232073   4.576   2.437   0.546 -1.1193  0.6314  0.7315
 6871SOL     OW32074   1.703   2.948   6.353  0.6288 -0.5441 -0.9465
 6871SOL    HW132075   1.712   2.875   6.292  3.0342 -0.3077 -0.8795
 6871SOL    HW232076   1.617   2.983   6.329  0.0301 -1.3849 -0.0136
 6872SOL     OW32077   1.994   2.325   5.239 -0.6585  0.0168 -0.0789
 6872SOL    HW132078   1.986   2.278   5.156 -0.6067  2.5528 -1.5069
 6872SOL    HW232079   2.072   2.376   5.218  0.9121 -2.7067 -0.8297
 6873SOL     OW32080   0.853   4.621   7.904 -0.1857 -0.1217 -0.8315
 6873SOL    HW132081   0.794   4.665   7.965  0.7069 -0.1427  0.0425
 6873SOL    HW232082   0.918   4.688   7.887  0.9692 -1.1463 -0.4943
 6874SOL     OW32083   4.596   2.875  12.588 -0.1991  0.6317 -0.3149
 6874SOL    HW132084   4.651   2.895  12.513  0.6776 -1.8120 -0.3019
 6874SOL    HW232085   4.562   2.959  12.620 -1.3262  0.1026 -0.0933
 6875SOL     OW32086   2.806   3.137   5.800  0.5095 -0.4355  0.4724
 6875SOL    HW132087   2.879   3.156   5.741  0.4800  0.1112  0.6167
 6875SOL    HW232088   2.732   3.178   5.755  0.9681 -2.2919 -1.9622
 6876SOL     OW32089   1.639   3.216   6.074  0.1472  0.0963 -0.0192
 6876SOL    HW132090   1.597   3.290   6.119 -0.1417  0.2112 -0.4805
 6876SOL    HW232091   1.574   3.160   6.031 -1.5409  2.1259 -0.1119
 6877SOL     OW32092   4.084   0.623   3.922 -0.6319 -0.1527  0.1692
 6877SOL    HW132093   4.051   0.712   3.917  1.6789  0.6728 -0.1912
 6877SOL    HW232094   4.165   0.622   3.871 -0.6524  0.3439  0.1263
 6878SOL     OW32095   0.472   4.405   7.271  0.5691 -0.3370  0.7325
 6878SOL    HW132096   0.562   4.373   7.271  0.7518  0.1709  1.7093
 6878SOL    HW232097   0.453   4.386   7.179 -1.4619  1.6171  0.7371
 6879SOL     OW32098   4.265   2.273   9.500  0.4697 -0.3226 -0.0832
 6879SOL    HW132099   4.239   2.365   9.495  0.2277 -0.3018  1.6150
 6879SOL    HW232100   4.326   2.281   9.574  0.3763 -1.0108  0.0712
 6880SOL     OW32101   4.632   0.904  11.448 -0.5064 -0.7833 -0.2698
 6880SOL    HW132102   4.646   0.824  11.499  0.1294  0.4942  1.5579
 6880SOL    HW232103   4.615   0.962  11.523  0.5117 -0.7280 -0.0816
 6881SOL     OW32104   2.669   2.644   2.252  0.2804  0.5468 -0.4425
 6881SOL    HW132105   2.620   2.693   2.186  0.9538  1.3768 -0.3265
 6881SOL    HW232106   2.618   2.670   2.328 -1.2294  1.1050 -1.6558
 6882SOL     OW32107   2.642   2.726   9.098 -0.1394 -0.7307 -0.1091
 6882SOL    HW132108   2.639   2.642   9.052  2.3619 -1.8636  1.7864
 6882SOL    HW232109   2.684   2.786   9.036 -0.2216  0.3744  0.9090
 6883SOL     OW32110   2.044   2.860   2.644 -0.3985  0.2597 -0.4545
 6883SOL    HW132111   2.097   2.780   2.648 -1.0717 -0.3022 -2.5305
 6883SOL    HW232112   1.961   2.815   2.661  0.4453 -1.1267 -0.0139
 6884SOL     OW32113   2.682   3.228   6.159  0.0515  0.4049  0.1216
 6884SOL    HW132114   2.689   3.298   6.094 -1.2939  1.4270  1.0531
 6884SOL    HW232115   2.759   3.242   6.214 -0.0221 -0.2124  0.3872
 6885SOL     OW32116   1.075   4.721   1.293 -0.3660 -0.4288 -0.5937
 6885SOL    HW132117   1.046   4.645   1.343 -0.1104 -1.7726 -2.5110
 6885SOL    HW232118   1.154   4.688   1.250  0.0106 -0.1066 -0.1485
 6886SOL     OW32119   3.868   0.687   8.853  0.4442  0.3716  0.3485
 6886SOL    HW132120   3.942   0.747   8.849  1.6829 -1.1906  0.1121
 6886SOL    HW232121   3.878   0.650   8.765  0.8015  1.4608 -0.0712
 6887SOL     OW32122   2.380   1.287   8.643  0.0948  0.0818  0.0283
 6887SOL    HW132123   2.333   1.363   8.677  3.0785  0.7139  2.7447
 6887SOL    HW232124   2.369   1.315   8.552 -0.1885 -0.7134 -0.1850
 6888SOL     OW32125   1.032   1.064   6.906  0.0087 -0.0419 -0.7263
 6888SOL    HW132126   1.047   1.050   6.999 -2.6952 -0.6599 -0.3997
 6888SOL    HW232127   1.119   1.049   6.869 -0.0192  0.9046 -1.1959
 6889SOL     OW32128   1.162   3.412   3.965  0.0495  0.7418 -0.3791
 6889SOL    HW132129   1.228   3.387   4.028 -1.7856 -1.0921  0.8048
 6889SOL    HW232130   1.089   3.366   4.007  0.9888 -0.8391 -0.5033
 6890SOL     OW32131   2.267   1.489   2.857 -0.1747 -0.3583  0.2485
 6890SOL    HW132132   2.259   1.562   2.919  1.2800  0.2753 -0.3257
 6890SOL    HW232133   2.355   1.460   2.880  1.0461  3.2742  0.1187
 6891SOL     OW32134   3.807   0.508   2.770 -0.5769 -0.5334  0.2040
 6891SOL    HW132135   3.890   0.515   2.723 -1.1810 -0.2062 -0.8134
 6891SOL    HW232136   3.834   0.493   2.860  1.8383 -2.7382 -0.8940
 6892SOL     OW32137   3.770   2.688  15.164  0.3936 -0.2686 -0.2666
 6892SOL    HW132138   3.797   2.689  15.072 -1.2266  1.5769 -0.7044
 6892SOL    HW232139   3.780   2.596  15.191 -0.6030 -0.5269 -0.7745
 6893SOL     OW32140   1.695   4.409   8.501  0.3963 -0.1864  0.4789
 6893SOL    HW132141   1.635   4.338   8.475  0.0921 -0.6259  2.3937
 6893SOL    HW232142   1.723   4.382   8.589 -0.8227  0.5234  1.0844
 6894SOL     OW32143   2.943   4.169  15.457 -0.3359 -0.4704  0.0482
 6894SOL    HW132144   2.895   4.150  15.538 -0.0602 -2.1141 -0.1845
 6894SOL    HW232145   2.999   4.092  15.448  0.7571  0.4658 -1.1917
 6895SOL     OW32146   3.182   2.326  12.013 -0.0225  0.0340 -0.2024
 6895SOL    HW132147   3.089   2.309  11.998  0.3331  0.0422 -2.3404
 6895SOL    HW232148   3.191   2.371  11.930  0.0439  1.0403  0.3442
 6896SOL     OW32149   1.653   0.504  12.573  0.3753  0.3340 -0.1290
 6896SOL    HW132150   1.566   0.527  12.541  1.3301  2.7594 -0.9644
 6896SOL    HW232151   1.673   0.460  12.491  0.6431 -1.4030  0.8740
 6897SOL     OW32152   2.907   2.925  13.951  0.1120 -0.4508  0.2492
 6897SOL    HW132153   2.819   2.906  13.919 -1.2979  0.3162  3.6740
 6897SOL    HW232154   2.904   3.010  13.995  0.9998  0.6383 -1.7725
 6898SOL     OW32155   1.646   4.721   9.343 -0.7619 -0.4842 -0.2927
 6898SOL    HW132156   1.553   4.721   9.323 -1.0428  1.2971  0.9588
 6898SOL    HW232157   1.635   0.000   9.438  1.2869  3.4107 -0.1455
 6899SOL     OW32158   3.493   2.031  13.705  0.4931  0.4378  0.5011
 6899SOL    HW132159   3.444   1.989  13.776 -1.7608 -0.7600 -1.7682
 6899SOL    HW232160   3.545   2.090  13.760  0.1766 -0.5441  1.8552
 6900SOL     OW32161   0.111   4.491   5.256  0.4463  0.1423  0.5445
 6900SOL    HW132162   0.084   4.399   5.250 -1.1484  0.7173 -1.1041
 6900SOL    HW232163   0.065   4.526   5.333 -1.5877 -0.2918 -0.4890
 6901SOL     OW32164   0.834   2.038   1.358 -0.4212  0.5192 -0.0847
 6901SOL    HW132165   0.852   1.955   1.402 -3.9736 -0.9974 -1.4137
 6901SOL    HW232166   0.901   2.039   1.290 -0.7662  1.8203 -0.4006
 6902SOL     OW32167   3.588   2.875   5.114  0.0434 -0.4181  0.8658
 6902SOL    HW132168   3.539   2.915   5.043  1.7896  0.6798  0.2657
 6902SOL    HW232169   3.677   2.907   5.100 -0.4042  1.6587  2.7502
 6903SOL     OW32170   2.453   3.437   8.321  0.0114  0.1261 -0.3690
 6903SOL    HW132171   2.367   3.393   8.322 -0.4186  0.9887  0.7109
 6903SOL    HW232172   2.503   3.366   8.360 -1.3226  0.5116  2.0468
 6904SOL     OW32173   4.345   1.191  10.589  0.0652 -0.0283  0.5358
 6904SOL    HW132174   4.409   1.212  10.657 -0.9254  1.2607  1.0502
 6904SOL    HW232175   4.393   1.115  10.555  0.1352  0.8425 -1.2813
 6905SOL     OW32176   2.632   0.267  14.438 -0.4381 -0.4279  0.3034
 6905SOL    HW132177   2.675   0.188  14.405  4.9489  3.1016 -0.9405
 6905SOL    HW232178   2.660   0.331  14.372  0.5850  2.0291  3.1367
 6906SOL     OW32179   0.268   3.223  12.512  0.3043 -0.7178 -0.2127
 6906SOL    HW132180   0.316   3.295  12.471  0.5459 -0.3093  0.7948
 6906SOL    HW232181   0.336   3.156  12.515  1.5223  0.4835 -0.8216
 6907SOL     OW32182   2.738   4.571   2.973  0.2091  0.5823 -0.7874
 6907SOL    HW132183   2.809   4.526   2.926  0.7202  0.5413  0.0210
 6907SOL    HW232184   2.781   4.590   3.057  3.0727  1.8762 -2.5375
 6908SOL     OW32185   3.825   4.172   8.542  0.2651 -0.6854  0.6549
 6908SOL    HW132186   3.790   4.133   8.622  0.4525 -2.0040  0.0904
 6908SOL    HW232187   3.809   4.266   8.555  0.0347 -0.5839 -0.3590
 6909SOL     OW32188   1.412   3.888   6.141  0.9653  0.7134  0.4531
 6909SOL    HW132189   1.351   3.815   6.141  1.1706  0.5537  1.7140
 6909SOL    HW232190   1.483   3.869   6.079 -1.1190  2.5060 -2.5032
 6910SOL     OW32191   3.136   1.573  13.763 -0.0741  0.0146  0.5576
 6910SOL    HW132192   3.086   1.611  13.690  1.3895  1.9185  0.5307
 6910SOL    HW232193   3.154   1.488  13.724  1.2563  0.1723  0.8328
 6911SOL     OW32194   0.738   1.011   2.827  0.6392 -0.2496 -0.1869
 6911SOL    HW132195   0.683   1.032   2.903 -0.2273  0.1120 -0.9220
 6911SOL    HW232196   0.712   1.073   2.760 -2.9268  0.0357  1.4695
 6912SOL     OW32197   3.475   3.849  11.776  0.2255  0.0599  0.1058
 6912SOL    HW132198   3.493   3.775  11.717 -2.9573 -1.1727  0.7265
 6912SOL    HW232199   3.531   3.913  11.731  1.8338 -0.7702  0.9050
 6913SOL     OW32200   1.631   2.964   0.317  0.9358  0.3484  0.1382
 6913SOL    HW132201   1.643   2.871   0.339  0.4224  0.2512 -0.0002
 6913SOL    HW232202   1.593   2.963   0.230  0.1246  1.1994  0.4903
 6914SOL     OW32203   2.107   2.188   5.860  0.2491  0.2251  0.1815
 6914SOL    HW132204   2.120   2.105   5.905  0.9308  0.6534  0.7809
 6914SOL    HW232205   2.056   2.169   5.781  2.7983 -1.3795 -1.0780
 6915SOL     OW32206   0.191   1.112   5.398  0.6488 -0.0319 -0.5613
 6915SOL    HW132207   0.096   1.102   5.402  0.6966 -0.8352 -1.6462
 6915SOL    HW232208   0.213   1.023   5.373 -1.3071 -0.9542  1.0490
 6916SOL     OW32209   0.943   1.821   6.364 -0.0197 -0.4647 -0.3067
 6916SOL    HW132210   0.971   1.732   6.345  1.2667  0.0209 -0.6354
 6916SOL    HW232211   0.995   1.833   6.443 -1.0387  0.7097  0.2045
 6917SOL     OW32212   2.269   3.326  14.977 -0.4319 -0.5482  0.0059
 6917SOL    HW132213   2.208   3.396  14.997 -0.3078 -0.5587  0.4223
 6917SOL    HW232214   2.279   3.351  14.885  0.1801  0.8229  0.4438
 6918SOL     OW32215   4.396   4.520   9.064  0.3406  0.4908 -0.3500
 6918SOL    HW132216   4.491   4.507   9.063  0.1241 -1.2811  1.2421
 6918SOL    HW232217   4.386   4.572   9.143  1.2555  1.2546 -0.7313
 6919SOL     OW32218   2.509   2.214   5.719  0.4685  0.1877 -0.3404
 6919SOL    HW132219   2.501   2.126   5.756 -0.3508  0.4427  0.1032
 6919SOL    HW232220   2.583   2.214   5.659  0.6269  3.1640 -0.1636
 6920SOL     OW32221   1.930   2.805   3.437 -0.1046  0.2430 -0.1248
 6920SOL    HW132222   1.889   2.723   3.464  0.9313 -0.8160 -1.7253
 6920SOL    HW232223   1.996   2.779   3.372 -1.1366  0.5227 -1.2872
 6921SOL     OW32224   3.642   1.762   8.767 -0.2526 -0.6656  0.3061
 6921SOL    HW132225   3.701   1.823   8.722 -2.6208  0.5388 -1.1171
 6921SOL    HW232226   3.635   1.803   8.853  1.0248  0.6071 -0.1871
 6922SOL     OW32227   1.912   2.152  12.130  0.4040 -0.2582 -0.2406
 6922SOL    HW132228   1.841   2.106  12.174  0.6116 -0.6510 -0.3166
 6922SOL    HW232229   1.870   2.225  12.083 -0.7068 -1.8632 -1.7400
 6923SOL     OW32230   3.950   2.032   4.483 -0.1347 -0.0425 -0.4341
 6923SOL    HW132231   3.977   2.118   4.451  0.2302  0.7599  1.9951
 6923SOL    HW232232   4.033   2.011   4.528 -1.8107  0.4112  2.8980
 6924SOL     OW32233   2.771   1.847   7.421 -0.1922 -0.5911  0.6492
 6924SOL    HW132234   2.816   1.765   7.403 -2.1667 -1.2658 -1.1829
 6924SOL    HW232235   2.687   1.818   7.457 -1.6655  1.6369 -0.9591
 6925SOL     OW32236   4.466   0.227   7.771 -0.5243  0.4931 -0.3805
 6925SOL    HW132237   4.557   0.203   7.786 -0.8699 -0.9588 -0.6241
 6925SOL    HW232238   4.426   0.225   7.858 -2.8786  0.0110 -1.4519
 6926SOL     OW32239   2.793   4.695   4.476 -0.6792 -0.0328  0.0257
 6926SOL    HW132240   2.745   0.038   4.427  2.3895 -0.2841 -3.2377
 6926SOL    HW232241   2.855   4.666   4.409  2.2356  1.2212  2.1685
 6927SOL     OW32242   1.988   3.507   2.580  0.1729  0.3718  0.2242
 6927SOL    HW132243   2.056   3.485   2.516 -0.3561  0.7385 -0.4600
 6927SOL    HW232244   1.916   3.450   2.551  0.7953 -0.3221  0.0453
 6928SOL     OW32245   0.589   1.228   5.214  0.7434  0.2003 -0.2059
 6928SOL    HW132246   0.500   1.262   5.228  0.5439 -0.5580  0.3770
 6928SOL    HW232247   0.571   1.142   5.176 -2.5659  0.6807  0.2729
 6929SOL     OW32248   1.680   4.532  10.733  0.6033  0.0464 -0.1124
 6929SOL    HW132249   1.726   4.615  10.730 -2.5420  1.8355  1.1347
 6929SOL    HW232250   1.614   4.538  10.664  1.6253  0.1676 -1.0720
 6930SOL     OW32251   0.193   0.309  12.894 -0.2415  0.5895 -0.3250
 6930SOL    HW132252   0.121   0.314  12.957  0.0690  4.2627 -0.2577
 6930SOL    HW232253   0.252   0.379  12.922  0.4919 -0.2744  0.2661
 6931SOL     OW32254   2.316   2.589   7.563 -0.0122  0.6533 -0.0315
 6931SOL    HW132255   2.363   2.651   7.508  3.2243 -2.5620 -0.9024
 6931SOL    HW232256   2.245   2.640   7.603 -2.3638  0.2447 -3.6712
 6932SOL     OW32257   0.465   1.072   9.130 -0.2782  0.2958  0.1565
 6932SOL    HW132258   0.479   1.052   9.223 -0.5532  0.3167  0.2032
 6932SOL    HW232259   0.557   1.084   9.106 -0.3781  1.0051  0.1139
 6933SOL     OW32260   3.807   3.040   5.008 -0.7088  0.0142 -0.5882
 6933SOL    HW132261   3.865   2.986   5.061  0.9653  0.5276 -1.8900
 6933SOL    HW232262   3.850   3.125   5.018  0.6590 -0.5386 -1.8036
 6934SOL     OW32263   3.820   4.468   6.793  0.3051  0.3757  0.5720
 6934SOL    HW132264   3.808   4.488   6.700  0.1300 -1.9596  0.0788
 6934SOL    HW232265   3.757   4.395   6.794 -0.1359  0.6952 -1.9361
 6935SOL     OW32266   3.314   2.146   7.597  0.3788  0.0693 -0.0743
 6935SOL    HW132267   3.378   2.213   7.621 -0.6213  1.0317 -0.0480
 6935SOL    HW232268   3.237   2.186   7.638  0.0201  1.8169 -2.4380
 6936SOL     OW32269   4.270   0.225   1.662  0.0481 -0.3289  0.0769
 6936SOL    HW132270   4.209   0.268   1.602  0.6265  0.1989 -0.1324
 6936SOL    HW232271   4.316   0.158   1.611 -1.5648 -0.2925 -1.4034
 6937SOL     OW32272   1.679   0.242   8.237  0.1534  0.0780 -0.7677
 6937SOL    HW132273   1.639   0.309   8.291 -1.1433 -0.2909 -1.2816
 6937SOL    HW232274   1.623   0.251   8.160  0.8024 -0.8292 -1.3625
 6938SOL     OW32275   4.436   1.408   0.454 -0.3348 -0.0063  0.0594
 6938SOL    HW132276   4.446   1.315   0.474 -0.5724 -0.1246 -0.3824
 6938SOL    HW232277   4.515   1.432   0.406 -0.2579 -0.6900 -0.1551
 6939SOL     OW32278   1.524   0.818   0.978  0.1291 -0.7551 -0.4058
 6939SOL    HW132279   1.500   0.834   1.069  0.0220  0.7577 -0.6981
 6939SOL    HW232280   1.457   0.858   0.923 -0.9896 -0.1774  1.3910
 6940SOL     OW32281   2.835   0.970   5.111 -0.0909  0.3297 -0.3298
 6940SOL    HW132282   2.769   0.939   5.173  0.0308  1.0049  0.1393
 6940SOL    HW232283   2.828   0.902   5.044  0.5993 -1.1701  1.1090
 6941SOL     OW32284   0.376   3.100   6.288  0.2051 -0.3187 -0.1788
 6941SOL    HW132285   0.408   3.084   6.199 -0.9508  0.9685 -0.8359
 6941SOL    HW232286   0.295   3.146   6.264  0.8577  0.0223 -1.7699
 6942SOL     OW32287   0.313   0.008   4.782 -0.0044 -0.6447  0.4802
 6942SOL    HW132288   0.361   0.053   4.714  0.1759 -3.4350 -1.2641
 6942SOL    HW232289   0.271   0.081   4.827  0.7307 -0.1360  0.3242
 6943SOL     OW32290   0.430   0.332   6.641 -0.0156  0.1705 -0.1383
 6943SOL    HW132291   0.434   0.335   6.737  0.3803 -0.0211 -0.1498
 6943SOL    HW232292   0.392   0.248   6.614 -0.3542  1.4207 -3.5181
 6944SOL     OW32293   1.229   4.335  13.467  0.1151  0.1801  0.6429
 6944SOL    HW132294   1.265   4.264  13.521 -1.1207 -3.1963 -2.9061
 6944SOL    HW232295   1.307   4.376  13.431  2.2513 -2.9349  1.6822
 6945SOL     OW32296   0.370   3.742   4.332  0.0475  0.1447 -0.4836
 6945SOL    HW132297   0.432   3.814   4.322 -0.1209  0.2892 -0.4818
 6945SOL    HW232298   0.430   3.677   4.369  1.2449  1.1947 -0.5968
 6946SOL     OW32299   1.402   2.785  12.088 -0.0944 -0.2680 -0.0879
 6946SOL    HW132300   1.464   2.744  12.148 -1.9160  0.7372  2.4822
 6946SOL    HW232301   1.350   2.826  12.156  1.5335 -0.7144  1.4169
 6947SOL     OW32302   3.233   3.884  10.454  0.2306 -0.0161 -0.0025
 6947SOL    HW132303   3.262   3.892  10.545 -0.5408  1.8078  0.0954
 6947SOL    HW232304   3.140   3.867  10.468  0.3879 -1.0504 -0.2174
 6948SOL     OW32305   1.007   2.536   2.154  0.7582 -0.4269  0.1721
 6948SOL    HW132306   1.016   2.441   2.163 -1.8477 -0.5521  1.2317
 6948SOL    HW232307   0.951   2.535   2.076  1.8114  0.1644 -0.5961
 6949SOL     OW32308   0.383   1.748   8.331  0.0767  0.3818 -0.0656
 6949SOL    HW132309   0.379   1.781   8.420 -1.0491 -0.1100  0.0633
 6949SOL    HW232310   0.437   1.811   8.282 -0.0024  1.3257  1.0608
 6950SOL     OW32311   3.196   2.820   6.977  0.3259  0.3174 -0.0136
 6950SOL    HW132312   3.206   2.803   7.071  0.0695  3.0416  0.5092
 6950SOL    HW232313   3.282   2.859   6.963 -0.1260  1.2492 -0.1423
 6951SOL     OW32314   0.233   4.296   5.015  0.8137 -0.5973  0.3625
 6951SOL    HW132315   0.301   4.339   4.962 -0.2898 -0.1981 -0.7308
 6951SOL    HW232316   0.278   4.286   5.099 -1.9287 -3.0375  1.5157
 6952SOL     OW32317   0.968   3.454  17.541  0.1229  0.1272 -0.1879
 6952SOL    HW132318   1.043   3.444  17.483  0.0070  0.7546 -0.4474
 6952SOL    HW232319   0.915   3.521  17.498  1.0070  1.1773  0.3513
 6953SOL     OW32320   3.815   0.964   8.572  0.6319  0.3598 -0.0912
 6953SOL    HW132321   3.894   0.987   8.621  1.5561 -1.7360 -0.5971
 6953SOL    HW232322   3.748   0.963   8.640  0.7117 -0.1514 -0.0196
 6954SOL     OW32323   4.080   3.916  11.102  0.0973  0.5521 -0.2821
 6954SOL    HW132324   4.101   3.850  11.036 -0.5310 -0.1117  0.1959
 6954SOL    HW232325   4.069   3.990  11.041 -1.6713  0.5191 -0.0124
 6955SOL     OW32326   0.357   1.563  16.372 -0.1773  0.0175 -0.2733
 6955SOL    HW132327   0.451   1.555  16.353 -0.4121 -0.3564 -1.2782
 6955SOL    HW232328   0.354   1.647  16.417 -0.6706  0.6584 -1.5301
 6956SOL     OW32329   4.577   1.256   5.507  0.4940 -0.1134 -0.4137
 6956SOL    HW132330   4.599   1.274   5.415 -0.0987 -0.1082 -0.5541
 6956SOL    HW232331   4.659   1.279   5.551  1.3088 -0.4366 -1.7669
 6957SOL     OW32332   2.675   4.038   0.224  0.2235  0.0274 -0.0493
 6957SOL    HW132333   2.688   4.039   0.318  0.5077  1.0962 -0.1030
 6957SOL    HW232334   2.724   4.118   0.207 -0.9560  1.1147  1.7028
 6958SOL     OW32335   2.186   4.704  17.280  0.0314 -0.5645  0.4885
 6958SOL    HW132336   2.262   4.661  17.241 -0.8838 -1.2171 -0.5736
 6958SOL    HW232337   2.215   0.067  17.251  2.1248 -1.8217 -1.1446
 6959SOL     OW32338   4.227   2.071  15.758  0.2947  0.9906  0.0574
 6959SOL    HW132339   4.296   2.060  15.823  0.0541  2.0328  0.4921
 6959SOL    HW232340   4.162   2.010  15.794 -0.7007  1.3184 -1.1645
 6960SOL     OW32341   1.436   0.306   1.374 -0.3429  0.1007  1.1268
 6960SOL    HW132342   1.521   0.344   1.352 -0.9304  1.0070  0.4087
 6960SOL    HW232343   1.457   0.214   1.391  0.8894  0.2573  0.4364
 6961SOL     OW32344   3.221   1.413  14.496  0.1868  1.0478 -0.6558
 6961SOL    HW132345   3.227   1.411  14.401  0.0828  1.9196 -0.6850
 6961SOL    HW232346   3.212   1.320  14.517  0.5506  1.0556 -0.4474
 6962SOL     OW32347   0.541   3.172   4.822 -0.2357 -0.0396  0.0526
 6962SOL    HW132348   0.519   3.250   4.771  0.4622  1.1834  1.6390
 6962SOL    HW232349   0.636   3.184   4.827 -0.6078  1.8460  3.0247
 6963SOL     OW32350   3.147   1.180   8.052  0.0075  0.1505 -0.1200
 6963SOL    HW132351   3.129   1.124   7.977  0.9136  1.0579 -1.0221
 6963SOL    HW232352   3.060   1.188   8.091  1.3061  0.4281  2.7634
 6964SOL     OW32353   1.294   0.806   1.764 -0.1358  0.3082  0.3719
 6964SOL    HW132354   1.283   0.743   1.835 -2.6952  2.2658  1.7100
 6964SOL    HW232355   1.221   0.865   1.780  0.3019  1.0847 -0.5419
 6965SOL     OW32356   1.516   4.252   4.319 -0.2110  0.4776  0.3745
 6965SOL    HW132357   1.522   4.173   4.265  1.3190  0.4704  0.5465
 6965SOL    HW232358   1.538   4.218   4.406 -0.8636  0.0463  0.3703
 6966SOL     OW32359   4.159   4.485  12.952 -0.3097  0.4346  0.0362
 6966SOL    HW132360   4.087   4.508  12.894  0.9767 -0.3891 -1.8618
 6966SOL    HW232361   4.232   4.536  12.916  0.2599 -0.8981 -0.6811
 6967SOL     OW32362   0.223   1.709  16.723  0.2705 -0.2014 -0.1775
 6967SOL    HW132363   0.237   1.779  16.787 -0.0546  0.6594 -1.0534
 6967SOL    HW232364   0.285   1.732  16.653 -0.9655  3.5875 -0.0452
 6968SOL     OW32365   2.158   2.269   1.886  0.6101  0.2717  0.0755
 6968SOL    HW132366   2.113   2.201   1.937  1.6631 -2.0353 -2.1243
 6968SOL    HW232367   2.106   2.260   1.807  0.9788  0.1082 -0.1467
 6969SOL     OW32368   2.694   3.380   2.651  0.0557 -0.5246  0.2337
 6969SOL    HW132369   2.649   3.305   2.614  0.2065 -1.5823  2.2146
 6969SOL    HW232370   2.737   3.338   2.725  1.4171  0.0191 -0.2447
 6970SOL     OW32371   3.612   0.571   3.538 -0.0060 -0.3215  0.1730
 6970SOL    HW132372   3.684   0.515   3.567  0.5979  1.0665  1.3325
 6970SOL    HW232373   3.569   0.508   3.480  0.8822 -0.7889  0.0120
 6971SOL     OW32374   4.351   4.656   2.795  0.4227  0.4549  0.2479
 6971SOL    HW132375   4.331   4.564   2.812  1.4241  0.2513  0.3226
 6971SOL    HW232376   4.294   4.696   2.861 -1.4006  0.0060 -1.0343
 6972SOL     OW32377   0.802   2.966   2.732 -0.6906 -0.0701 -0.0540
 6972SOL    HW132378   0.803   2.876   2.764 -0.8636  0.3854  1.2237
 6972SOL    HW232379   0.770   3.015   2.807  0.7514  0.3920  0.2540
 6973SOL     OW32380   4.035   3.001   9.990  0.1568  1.0930 -0.4282
 6973SOL    HW132381   4.033   3.076   9.931  1.0849  1.8992  0.5701
 6973SOL    HW232382   3.944   2.973   9.978  0.5182  0.0400 -0.7412
 6974SOL     OW32383   2.904   2.021   1.519  0.4150 -0.1533 -0.9532
 6974SOL    HW132384   2.943   1.934   1.532 -2.2097 -1.0535  0.8632
 6974SOL    HW232385   2.980   2.078   1.527 -1.0897  2.0680 -2.5590
 6975SOL     OW32386   0.599   2.697   2.319 -0.0912  0.2147  0.2338
 6975SOL    HW132387   0.649   2.615   2.324  1.0044  0.9230  1.1143
 6975SOL    HW232388   0.513   2.661   2.341  0.2772 -1.6639 -1.3611
 6976SOL     OW32389   3.096   2.422   5.121 -1.2115 -0.0658 -0.0850
 6976SOL    HW132390   3.146   2.343   5.099 -1.1250 -0.0477  0.0441
 6976SOL    HW232391   3.137   2.441   5.206 -2.4546  1.0234  0.2703
 6977SOL     OW32392   3.338   3.700   3.147  0.2826  0.5181 -0.2933
 6977SOL    HW132393   3.403   3.770   3.143  2.2383 -1.3771 -1.1192
 6977SOL    HW232394   3.326   3.689   3.053 -0.9631 -0.9879  0.0536
 6978SOL     OW32395   4.143   3.953   8.814 -0.1933 -0.3407  0.0697
 6978SOL    HW132396   4.215   3.948   8.876 -1.9888  2.2791  2.3403
 6978SOL    HW232397   4.161   4.039   8.777 -0.6721 -0.1632  0.2529
 6979SOL     OW32398   1.881   3.749   6.982 -0.1865 -0.0230  0.7163
 6979SOL    HW132399   1.921   3.670   6.947 -1.5767 -0.6085  0.4312
 6979SOL    HW232400   1.834   3.725   7.063  0.3430  0.8949  1.2860
 6980SOL     OW32401   3.322   2.095   1.331  0.6349  0.0930  0.3725
 6980SOL    HW132402   3.268   2.114   1.408 -1.5459  0.2185 -1.2120
 6980SOL    HW232403   3.284   2.157   1.269 -0.9799 -1.6377 -0.3453
 6981SOL     OW32404   0.825   3.916  13.709  0.1043 -0.2980  0.2878
 6981SOL    HW132405   0.751   3.872  13.668  1.3049 -0.6315 -1.5061
 6981SOL    HW232406   0.892   3.896  13.645  0.1363  0.1045  0.1928
 6982SOL     OW32407   0.920   2.404   8.798  0.0033 -0.4683 -0.0251
 6982SOL    HW132408   0.908   2.346   8.722  0.6732  2.0221 -2.0473
 6982SOL    HW232409   0.915   2.346   8.874  0.5256  2.1755  2.0247
 6983SOL     OW32410   3.957   3.567   7.989 -0.3537  0.3108  0.8710
 6983SOL    HW132411   3.944   3.662   7.989  1.5681  0.5785  1.5596
 6983SOL    HW232412   3.868   3.544   8.014  0.1345 -3.2753 -0.8432
 6984SOL     OW32413   0.357   3.513  17.512  0.6051 -0.0809  0.4337
 6984SOL    HW132414   0.426   3.478  17.569  0.8808  0.9102  0.6954
 6984SOL    HW232415   0.294   3.550  17.574  0.0928  0.7104 -0.5779
 6985SOL     OW32416   0.712   0.257  15.735 -0.8095  0.4165 -0.1070
 6985SOL    HW132417   0.698   0.336  15.682  1.8602 -1.6520 -3.8781
 6985SOL    HW232418   0.707   0.281  15.828  1.7059 -0.0364  0.1447
 6986SOL     OW32419   4.695   1.475   6.697  0.2472 -0.0550  0.4084
 6986SOL    HW132420   0.011   1.467   6.784 -1.2616  0.5204  1.1251
 6986SOL    HW232421   0.009   1.560   6.676 -0.9296  0.2130 -0.5718
 6987SOL     OW32422   2.601   1.203   8.916 -0.0073 -0.4718  0.3131
 6987SOL    HW132423   2.508   1.179   8.914  0.0981 -1.0520  1.8933
 6987SOL    HW232424   2.598   1.294   8.948  1.6692 -0.8787  1.6300
 6988SOL     OW32425   2.080   4.100   4.669  0.2875 -0.0498 -0.2957
 6988SOL    HW132426   2.037   4.171   4.622 -0.8317  1.0338  2.4296
 6988SOL    HW232427   2.053   4.025   4.615 -0.8404  0.0441  0.1431
 6989SOL     OW32428   1.209   0.962   6.580 -0.4646  0.0937  0.2958
 6989SOL    HW132429   1.124   0.960   6.536 -0.8625 -0.3228  1.0698
 6989SOL    HW232430   1.264   0.979   6.504  0.9528 -0.1077  1.2875
 6990SOL     OW32431   4.060   2.684  14.755  0.4726 -0.1331 -0.1315
 6990SOL    HW132432   4.110   2.637  14.822  0.4032  1.6986  1.2100
 6990SOL    HW232433   4.045   2.770  14.795 -0.9405  0.3409 -1.7042
 6991SOL     OW32434   3.491   0.730   1.500 -0.7198  0.1678  0.1591
 6991SOL    HW132435   3.474   0.823   1.513 -1.2513 -0.0607  1.1195
 6991SOL    HW232436   3.416   0.692   1.547 -2.2345  1.5797 -1.1023
 6992SOL     OW32437   0.677   0.566   1.176  0.5994  0.5345 -0.4194
 6992SOL    HW132438   0.739   0.498   1.202  0.1423 -0.1995 -1.2570
 6992SOL    HW232439   0.668   0.616   1.257  0.6964  1.0947 -0.7578
 6993SOL     OW32440   0.184   1.669  10.440 -0.1995  0.4407  0.1369
 6993SOL    HW132441   0.253   1.612  10.472 -1.6130  0.8491  3.9679
 6993SOL    HW232442   0.118   1.603  10.419 -0.4033 -0.0641  2.3463
 6994SOL     OW32443   0.537   2.308  11.638 -0.2906 -0.1578 -0.0737
 6994SOL    HW132444   0.548   2.368  11.712 -0.3584 -1.5109  1.0379
 6994SOL    HW232445   0.485   2.244  11.686  0.3091  1.4369  2.7390
 6995SOL     OW32446   1.756   0.203   5.754 -0.3681 -0.0964 -0.1670
 6995SOL    HW132447   1.802   0.197   5.671  0.3088  3.0138 -0.0004
 6995SOL    HW232448   1.705   0.122   5.756 -1.4132  0.5333 -1.6228
 6996SOL     OW32449   0.216   1.591   5.385 -0.4232 -0.0701 -0.1050
 6996SOL    HW132450   0.228   1.673   5.338  2.3627  0.2073  1.0618
 6996SOL    HW232451   0.204   1.524   5.318 -0.3088  1.5187 -1.6871
 6997SOL     OW32452   2.322   1.231  12.126 -0.4854  0.1195  0.2404
 6997SOL    HW132453   2.281   1.251  12.041 -0.2958  0.2892  0.1900
 6997SOL    HW232454   2.361   1.149  12.094 -1.6493 -0.6073  0.7026
 6998SOL     OW32455   2.976   1.517  13.251 -0.1927  0.5140 -0.2619
 6998SOL    HW132456   3.019   1.550  13.172 -0.5763 -0.3252 -0.8243
 6998SOL    HW232457   2.998   1.584  13.315  1.1712 -0.6415  0.4801
 6999SOL     OW32458   0.179   1.722   8.667  0.0975 -0.2198 -0.1433
 6999SOL    HW132459   0.110   1.750   8.607  0.6044 -2.0418 -1.5709
 6999SOL    HW232460   0.241   1.792   8.644  1.0003 -0.2762  2.0428
 7000SOL     OW32461   1.743   2.701   0.342 -0.6026  0.3281 -0.2838
 7000SOL    HW132462   1.822   2.730   0.388 -0.4893  1.8143 -1.4022
 7000SOL    HW232463   1.745   2.606   0.340  2.3776  0.3517  1.6756
 7001SOL     OW32464   1.756   3.511  16.843  0.1686  0.6219  0.1347
 7001SOL    HW132465   1.790   3.501  16.932  2.6071 -2.0121 -1.1357
 7001SOL    HW232466   1.663   3.500  16.862  1.0329 -1.5635  2.9983
 7002SOL     OW32467   1.514   2.747   2.002  0.2704 -0.5143  0.0303
 7002SOL    HW132468   1.514   2.842   2.011 -1.2875 -0.3547 -1.7102
 7002SOL    HW232469   1.426   2.737   2.039  1.6062 -6.8005  1.5070
 7003SOL     OW32470   4.133   0.798   8.828  0.1593 -0.0547 -0.1211
 7003SOL    HW132471   4.071   0.870   8.818 -0.2529 -0.3771  0.1211
 7003SOL    HW232472   4.191   0.810   8.903 -1.5649 -0.8549  1.3254
 7004SOL     OW32473   4.220   3.072   0.614 -0.2149 -0.2437  0.0623
 7004SOL    HW132474   4.172   3.155   0.606  0.8262  0.3800  0.3193
 7004SOL    HW232475   4.299   3.096   0.565 -0.0131  1.9706  1.5010
 7005SOL     OW32476   2.902   0.221   5.038  0.2677  0.7348 -0.4791
 7005SOL    HW132477   2.985   0.268   5.025  0.2161  0.8776 -0.2894
 7005SOL    HW232478   2.867   0.226   4.949  1.6036  0.5255 -1.0197
 7006SOL     OW32479   1.745   4.550  15.024 -0.3651  0.7128  0.3363
 7006SOL    HW132480   1.714   4.626  15.073  0.7585  0.3555  1.5951
 7006SOL    HW232481   1.822   4.526  15.075 -1.4760  0.3882  1.8535
 7007SOL     OW32482   3.499   1.810   2.343  0.0754  0.0603 -0.1715
 7007SOL    HW132483   3.578   1.784   2.391 -1.3256 -1.9425  1.0704
 7007SOL    HW232484   3.502   1.752   2.267 -1.3682 -0.3815  0.1176
 7008SOL     OW32485   2.058   1.943  12.299 -0.1604 -0.1618  0.4101
 7008SOL    HW132486   2.139   1.911  12.259 -0.2055 -0.9845  0.9749
 7008SOL    HW232487   2.054   2.038  12.282  0.2075 -0.2305 -0.0627
 7009SOL     OW32488   1.660   0.987   8.170  0.2666 -0.2597  0.3254
 7009SOL    HW132489   1.576   0.944   8.185  0.9255 -1.2665  1.1366
 7009SOL    HW232490   1.626   1.063   8.122  1.7885 -1.0359 -1.9379
 7010SOL     OW32491   0.512   1.819  13.446  1.0128  0.2899 -0.7472
 7010SOL    HW132492   0.446   1.806  13.513 -0.3360 -0.8070 -2.2818
 7010SOL    HW232493   0.493   1.741  13.394  1.8818 -0.7743  0.5552
 7011SOL     OW32494   0.021   1.450   2.552  0.6298  0.3785 -0.1364
 7011SOL    HW132495   0.072   1.497   2.486  0.2471  1.0655  0.0483
 7011SOL    HW232496   4.684   1.405   2.492  0.5904 -1.0291  0.9646
 7012SOL     OW32497   2.563   2.631   3.158  0.3766  0.8567 -0.1586
 7012SOL    HW132498   2.558   2.648   3.064  0.9338  1.7690 -0.0214
 7012SOL    HW232499   2.658   2.629   3.165  0.3812  0.1833 -0.4360
 7013SOL     OW32500   3.827   1.941   8.664  0.1246  0.1650  0.2599
 7013SOL    HW132501   3.879   1.992   8.726 -0.8338  0.0152  1.2045
 7013SOL    HW232502   3.899   1.893   8.624 -1.9826 -2.3244 -0.6036
 7014SOL     OW32503   0.795   1.160   9.136 -0.0636  0.3243  0.3301
 7014SOL    HW132504   0.844   1.097   9.190 -0.3071 -1.9269 -2.0768
 7014SOL    HW232505   0.847   1.164   9.056  0.0414  1.1516  0.4392
 7015SOL     OW32506   4.606   3.301  12.533 -0.0049 -0.4393 -0.3652
 7015SOL    HW132507   4.568   3.327  12.449  2.7684  2.9245 -0.5755
 7015SOL    HW232508   4.548   3.354  12.588  1.0434 -1.1054  1.3800
 7016SOL     OW32509   3.710   0.521   9.307  0.2892 -0.1206 -0.2073
 7016SOL    HW132510   3.624   0.541   9.344 -0.1482  1.4759 -2.0936
 7016SOL    HW232511   3.774   0.555   9.370 -1.2031 -1.7203  2.1853
 7017SOL     OW32512   1.323   4.635   1.218  0.1465  0.0811 -0.2640
 7017SOL    HW132513   1.353   4.547   1.199  0.8698  0.5781 -1.3929
 7017SOL    HW232514   1.368   4.682   1.148  1.4552  0.5225  0.8782
 7018SOL     OW32515   0.726   2.650   2.609 -0.4573  0.1396  0.0445
 7018SOL    HW132516   0.708   2.559   2.630  0.9026  0.0037  0.6281
 7018SOL    HW232517   0.681   2.689   2.684 -1.4862  1.3786 -1.2183
 7019SOL     OW32518   4.028   3.529   1.386  0.5982  0.1183 -0.0657
 7019SOL    HW132519   4.047   3.439   1.414 -1.5065 -0.5814 -0.8823
 7019SOL    HW232520   4.085   3.529   1.309  1.7382  2.6164  0.7819
 7020SOL     OW32521   4.411   3.348   1.745  0.9550  0.4264 -0.1815
 7020SOL    HW132522   4.372   3.266   1.713 -0.3892  1.1310 -0.3616
 7020SOL    HW232523   4.345   3.374   1.810  0.9637  0.6383 -0.2598
 7021SOL     OW32524   0.637   1.733   1.023  0.1678  0.3652 -0.1766
 7021SOL    HW132525   0.642   1.667   0.954 -0.3530  0.1094  0.0355
 7021SOL    HW232526   0.650   1.810   0.969 -0.1879 -1.9213 -3.5555
 7022SOL     OW32527   4.245   0.333   2.466 -0.1408  0.3591  0.5340
 7022SOL    HW132528   4.247   0.279   2.544  0.3490 -3.0323 -1.8194
 7022SOL    HW232529   4.305   0.294   2.402  0.3977 -0.4095  1.5233
 7023SOL     OW32530   0.983   4.393   5.600 -0.3803  0.2871 -0.0592
 7023SOL    HW132531   1.058   4.336   5.584  0.8600  0.9244  3.3806
 7023SOL    HW232532   0.968   4.424   5.511 -0.7221  1.6186  0.4599
 7024SOL     OW32533   4.581   0.981   8.268  0.2537 -0.0193  0.4850
 7024SOL    HW132534   4.551   0.976   8.359  0.3730  1.8487  0.6238
 7024SOL    HW232535   4.527   0.917   8.222  0.6337 -0.6686  0.9286
 7025SOL     OW32536   3.619   3.253   4.036 -0.1253  0.0041  0.8193
 7025SOL    HW132537   3.710   3.282   4.033  0.6836 -2.5187  1.0948
 7025SOL    HW232538   3.629   3.162   4.062  2.4531  0.2725  0.7568
 7026SOL     OW32539   3.031   1.884   3.908 -0.4476 -0.3945  0.5884
 7026SOL    HW132540   2.968   1.832   3.958  1.9995  0.0399  4.1723
 7026SOL    HW232541   3.010   1.976   3.923 -1.2196 -0.4529 -0.1922
 7027SOL     OW32542   0.907   0.128   6.895 -0.2915  0.5236 -0.4202
 7027SOL    HW132543   0.913   0.203   6.954 -1.6661  0.0708  0.2787
 7027SOL    HW232544   0.883   0.175   6.815 -0.1252  1.7972  0.2743
 7028SOL     OW32545   1.868   1.564   8.474  0.0421  0.5155  0.2248
 7028SOL    HW132546   1.860   1.605   8.388 -1.7528  0.9661  0.6032
 7028SOL    HW232547   1.809   1.619   8.526  0.5643  1.0267  0.2821
 7029SOL     OW32548   1.178   1.520   0.451  0.5926  0.5056 -0.3872
 7029SOL    HW132549   1.198   1.533   0.544  0.5036  0.8463 -0.4139
 7029SOL    HW232550   1.251   1.567   0.410  0.2766  2.3415  1.1591
 7030SOL     OW32551   1.226   4.083   6.141 -0.1858 -0.4020  0.4262
 7030SOL    HW132552   1.284   4.135   6.197  0.6321  2.0188 -2.7079
 7030SOL    HW232553   1.287   4.012   6.122  0.8320  0.8986 -1.0898
 7031SOL     OW32554   0.403   4.514   7.482 -0.1510  0.1192  0.4180
 7031SOL    HW132555   0.492   4.546   7.464 -0.7722 -0.0210 -2.8329
 7031SOL    HW232556   0.398   4.473   7.396  2.0225  0.5171  0.0819
 7032SOL     OW32557   0.317   2.325   9.209  0.1466 -0.3128  0.3409
 7032SOL    HW132558   0.258   2.349   9.280 -3.5195 -0.7414 -2.5620
 7032SOL    HW232559   0.370   2.250   9.236  0.7926  0.1250  0.2969
 7033SOL     OW32560   3.842   0.997   9.720 -0.3617  0.0867  0.1596
 7033SOL    HW132561   3.792   0.964   9.645 -1.7879  0.4567  0.9554
 7033SOL    HW232562   3.916   0.937   9.716  0.3279  0.8938  0.8739
 7034SOL     OW32563   1.378   2.730   8.864 -0.2741 -0.5560  1.0390
 7034SOL    HW132564   1.340   2.645   8.846 -0.2092 -0.4760  0.5281
 7034SOL    HW232565   1.443   2.709   8.932 -0.2514  0.5485  1.3625
 7035SOL     OW32566   4.523   1.494   3.216 -0.0325  0.2670  0.3586
 7035SOL    HW132567   4.491   1.469   3.302  0.1990 -0.3445  0.2691
 7035SOL    HW232568   4.439   1.516   3.175 -0.4700  0.1040  1.1839
 7036SOL     OW32569   1.985   1.132   9.420 -0.2114 -0.0589  0.2747
 7036SOL    HW132570   1.979   1.188   9.342 -0.5600 -2.0342 -1.1063
 7036SOL    HW232571   1.978   1.045   9.381 -0.6867 -0.0171  0.2602
 7037SOL     OW32572   2.897   3.455   7.969 -0.1804  0.0698 -0.1595
 7037SOL    HW132573   2.803   3.466   7.961 -0.2220 -0.2306 -0.0995
 7037SOL    HW232574   2.922   3.428   7.881 -3.1434 -0.5646 -0.7995
 7038SOL     OW32575   1.431   4.341   3.186  0.1315  0.0169 -0.5725
 7038SOL    HW132576   1.501   4.312   3.128 -0.2721 -0.7487 -0.6673
 7038SOL    HW232577   1.469   4.415   3.235  2.6028 -1.7641  0.2128
 7039SOL     OW32578   3.132   2.320   7.720 -0.1148  0.4168  0.7205
 7039SOL    HW132579   3.116   2.346   7.629  2.1385  0.8483  0.4654
 7039SOL    HW232580   3.052   2.354   7.760 -0.4633  0.4312  0.0043
 7040SOL     OW32581   0.445   3.001   5.174  0.0730  0.3588 -0.0169
 7040SOL    HW132582   0.539   3.018   5.178  0.2593 -1.1590  1.9498
 7040SOL    HW232583   0.434   2.907   5.190 -1.4402  0.6508  0.7292
 7041SOL     OW32584   1.406   3.302   7.573  0.1486  0.1430 -0.1405
 7041SOL    HW132585   1.450   3.375   7.617 -2.8789  1.2749  0.9635
 7041SOL    HW232586   1.338   3.359   7.537  0.7306 -1.4749 -3.8689
 7042SOL     OW32587   2.740   1.980   5.348 -0.2934  0.1488 -0.1347
 7042SOL    HW132588   2.650   1.967   5.376 -0.7410  2.1288 -0.6854
 7042SOL    HW232589   2.773   2.042   5.414  1.3549 -0.4881 -0.3547
 7043SOL     OW32590   3.065   0.847  11.804 -0.7149  0.0914 -0.1466
 7043SOL    HW132591   2.982   0.829  11.760 -0.3549 -2.5993  0.3141
 7043SOL    HW232592   3.115   0.768  11.784 -0.8842 -0.3596  1.2370
 7044SOL     OW32593   0.343   4.098  16.671  0.2781 -0.3237  0.3434
 7044SOL    HW132594   0.312   4.170  16.616  1.6231  2.1436  2.8481
 7044SOL    HW232595   0.301   4.026  16.624  1.0359  0.7955 -2.0414
 7045SOL     OW32596   3.937   4.419  11.794 -0.0347 -0.2257  0.0952
 7045SOL    HW132597   3.917   4.334  11.834 -2.6905  1.7615  2.9298
 7045SOL    HW232598   3.860   4.422  11.737 -1.0486  1.5368  1.5407
 7046SOL     OW32599   4.627   3.193   5.312  0.1870  0.2421 -0.5912
 7046SOL    HW132600   4.619   3.105   5.275  0.1595 -0.4440  1.0477
 7046SOL    HW232601   4.702   3.181   5.371 -1.7828  0.1836  1.9410
 7047SOL     OW32602   0.550   2.696   8.067  0.1530  0.0834 -0.1023
 7047SOL    HW132603   0.541   2.649   8.149 -0.6931 -0.1363 -0.3275
 7047SOL    HW232604   0.483   2.649   8.017  0.5419  0.0360 -0.5915
 7048SOL     OW32605   4.192   1.710   3.256  0.4633 -0.4477  0.0768
 7048SOL    HW132606   4.190   1.633   3.312 -0.7463  1.7590  3.0974
 7048SOL    HW232607   4.123   1.767   3.290  0.4322 -1.8946  2.4210
 7049SOL     OW32608   4.431   0.036   5.700  0.0298  0.2249  0.0617
 7049SOL    HW132609   4.438   0.052   5.606  0.2937 -0.0261  0.0383
 7049SOL    HW232610   4.336   0.029   5.710 -0.1266  1.7212 -0.4848
 7050SOL     OW32611   1.010   1.097   2.953 -0.1195  0.1754 -0.0720
 7050SOL    HW132612   0.955   1.157   3.003 -1.5728 -0.5704 -0.7856
 7050SOL    HW232613   0.946   1.035   2.917  1.7250 -1.1669 -1.0722
 7051SOL     OW32614   4.712   1.791   9.964  0.8626 -0.0694  0.0333
 7051SOL    HW132615   0.053   1.788  10.036 -1.4272 -2.4582  1.9547
 7051SOL    HW232616   0.026   1.731   9.899 -1.3651 -2.7866  1.2893
 7052SOL     OW32617   2.004   1.791  12.533 -0.2642 -0.5263  0.0698
 7052SOL    HW132618   2.056   1.856  12.485  0.6321 -0.5504  1.0040
 7052SOL    HW232619   2.058   1.712  12.522 -0.7830 -1.3676  3.5615
 7053SOL     OW32620   0.165   3.326   7.617 -0.4325 -0.6558  0.1337
 7053SOL    HW132621   0.180   3.409   7.663 -0.9964 -0.8218  0.6213
 7053SOL    HW232622   0.253   3.291   7.622 -0.3501 -0.5491 -0.5236
 7054SOL     OW32623   1.165   3.629  16.908  0.2797  0.0679 -0.1553
 7054SOL    HW132624   1.166   3.720  16.937 -0.7285 -0.4826  1.6475
 7054SOL    HW232625   1.118   3.582  16.977  0.2557  0.7580  0.3063
 7055SOL     OW32626   0.358   2.147   4.900 -0.7108  0.4806 -0.1691
 7055SOL    HW132627   0.363   2.218   4.835  0.3593 -1.2022 -1.9468
 7055SOL    HW232628   0.290   2.178   4.959 -0.0170 -0.1010  0.9129
 7056SOL     OW32629   0.847   1.115   5.943  0.2823 -0.1135 -0.6847
 7056SOL    HW132630   0.918   1.175   5.967 -1.7008  1.6698  0.6761
 7056SOL    HW232631   0.834   1.133   5.849 -1.1279  0.3650 -0.3943
 7057SOL     OW32632   0.052   3.383   0.840 -0.1894 -0.9791 -0.1587
 7057SOL    HW132633   0.088   3.318   0.780  1.3448 -1.3400  1.1694
 7057SOL    HW232634   0.126   3.404   0.897 -1.2598 -0.6351  1.1117
 7058SOL     OW32635   0.036   4.383   0.944 -0.6879  0.1539 -0.7491
 7058SOL    HW132636   4.701   4.316   0.979  0.7485 -1.6207 -1.7718
 7058SOL    HW232637   0.120   4.355   0.980  0.0625  1.1875 -1.6863
 7059SOL     OW32638   3.488   2.326   4.275  0.5756  0.3016 -0.2866
 7059SOL    HW132639   3.487   2.320   4.180  3.0405  0.6252 -0.3453
 7059SOL    HW232640   3.396   2.342   4.294  0.2451 -1.6336 -0.2507
 7060SOL     OW32641   3.960   0.689   4.267 -0.4737 -0.2015  0.1976
 7060SOL    HW132642   3.959   0.697   4.363  1.5815 -1.6878  0.3415
 7060SOL    HW232643   3.893   0.753   4.241  1.6764  1.9781  0.0564
 7061SOL     OW32644   2.337   3.823   4.691  0.1697  0.1323  0.1329
 7061SOL    HW132645   2.333   3.763   4.617 -1.3231 -1.7079  1.7206
 7061SOL    HW232646   2.264   3.882   4.674  0.8235  1.0729  0.5555
 7062SOL     OW32647   2.696   4.693   8.823 -0.0749  0.1061 -0.4880
 7062SOL    HW132648   2.614   4.698   8.774  0.4448 -0.4651 -1.4002
 7062SOL    HW232649   2.729   0.060   8.815 -1.1144  0.4539 -0.8294
 7063SOL     OW32650   1.841   1.148   4.421 -0.1124 -0.4765 -0.7597
 7063SOL    HW132651   1.914   1.209   4.406 -0.8329  0.1262 -1.8676
 7063SOL    HW232652   1.862   1.069   4.373  0.2698 -0.2139 -1.0260
 7064SOL     OW32653   3.363   2.124   2.770 -0.1379  0.3818  0.0309
 7064SOL    HW132654   3.365   2.048   2.713  0.4476 -0.9906  1.8827
 7064SOL    HW232655   3.284   2.101   2.819  0.0381  0.2614  0.2622
 7065SOL     OW32656   3.814   3.544   9.920  0.1678  0.3481 -0.1788
 7065SOL    HW132657   3.759   3.466   9.918 -0.5931  0.8508  1.5664
 7065SOL    HW232658   3.889   3.500   9.960  0.5385 -0.8354 -2.1387
 7066SOL     OW32659   2.725   1.866  16.649  0.4845  0.2158  0.7670
 7066SOL    HW132660   2.672   1.808  16.594  0.9195  0.9166 -0.4132
 7066SOL    HW232661   2.810   1.823  16.662  1.5754  2.2159  0.2196
 7067SOL     OW32662   1.446   4.447   3.935  0.1985 -0.7435 -0.5406
 7067SOL    HW132663   1.369   4.390   3.930 -0.3341 -0.0574 -0.1532
 7067SOL    HW232664   1.444   4.468   4.028  0.5179 -1.2531 -0.4169
 7068SOL     OW32665   0.185   2.453   5.766 -0.1118  0.3224  0.1157
 7068SOL    HW132666   0.178   2.410   5.681  2.0969 -0.5801  0.3869
 7068SOL    HW232667   0.149   2.533   5.726 -1.5612 -0.7680 -0.7419
 7069SOL     OW32668   3.297   1.146   9.772  0.1387  0.4164  0.1366
 7069SOL    HW132669   3.331   1.081   9.835  0.4285 -0.6308 -1.0948
 7069SOL    HW232670   3.287   1.097   9.690  0.6585  0.6727 -0.0804
 7070SOL     OW32671   3.905   1.036   5.716 -0.0656 -0.4582 -0.1204
 7070SOL    HW132672   3.925   1.094   5.643  1.5749 -0.3510  0.4189
 7070SOL    HW232673   3.811   1.055   5.713  0.4051  1.8612 -0.0148
 7071SOL     OW32674   3.967   1.646   4.917  0.1956  0.9593  0.0552
 7071SOL    HW132675   3.976   1.737   4.944 -0.3326  1.4603 -1.4480
 7071SOL    HW232676   4.056   1.631   4.885 -0.3453 -0.0594 -0.9927
 7072SOL     OW32677   0.346   0.785  16.073 -0.2449 -0.0625  0.9497
 7072SOL    HW132678   0.392   0.735  16.141 -0.5176 -1.3345  0.2107
 7072SOL    HW232679   0.404   0.768  15.999  2.2888 -0.0714  2.9476
 7073SOL     OW32680   3.806   3.884   8.569  0.4650  0.4358  0.2351
 7073SOL    HW132681   3.822   3.944   8.643  3.0682 -0.0496  0.0434
 7073SOL    HW232682   3.891   3.890   8.527  0.1903  0.1312 -0.3557
 7074SOL     OW32683   1.026   2.038   8.378 -0.2003 -0.0091  0.1722
 7074SOL    HW132684   1.030   2.114   8.436 -1.4185 -0.2200  0.5179
 7074SOL    HW232685   1.070   2.074   8.300 -1.3183 -1.0212 -0.9323
 7075SOL     OW32686   2.331   4.238   6.676 -0.0462 -0.8215 -0.5984
 7075SOL    HW132687   2.328   4.269   6.586 -0.1010 -0.0393 -0.3331
 7075SOL    HW232688   2.322   4.323   6.719 -0.2544  0.1523 -2.5902
 7076SOL     OW32689   2.027   3.947   7.999  0.4484 -0.3628  0.4361
 7076SOL    HW132690   2.117   3.972   7.977  0.1426 -0.8445 -1.3977
 7076SOL    HW232691   2.025   3.999   8.079 -0.6463 -0.4518  0.4638
 7077SOL     OW32692   0.793   3.545   5.598 -0.4189 -0.0891 -0.0430
 7077SOL    HW132693   0.759   3.475   5.541 -0.5928  2.2387 -2.8110
 7077SOL    HW232694   0.836   3.599   5.532 -1.4893  1.3860  0.4775
 7078SOL     OW32695   0.844   3.218   4.844  0.4355 -0.0487  0.0532
 7078SOL    HW132696   0.856   3.132   4.805  1.4546  0.2887 -0.3799
 7078SOL    HW232697   0.904   3.225   4.918 -0.9121  3.1802  0.8431
 7079SOL     OW32698   3.820   2.230   4.749 -0.2986 -0.1751 -0.3037
 7079SOL    HW132699   3.732   2.214   4.782 -0.3933 -0.3867 -0.6616
 7079SOL    HW232700   3.813   2.247   4.655  1.3055  0.0190 -0.3964
 7080SOL     OW32701   1.002   3.538  14.816 -0.6276  0.2015  0.1606
 7080SOL    HW132702   0.979   3.578  14.732 -3.8200  0.3997  1.1247
 7080SOL    HW232703   1.015   3.444  14.800  3.0225  0.6197  0.6854
 7081SOL     OW32704   3.098   4.384   6.140  0.9124  0.2182 -0.2302
 7081SOL    HW132705   3.179   4.337   6.159 -0.4142 -2.2641 -0.6305
 7081SOL    HW232706   3.068   4.427   6.220  0.3789 -0.9121  0.1788
 7082SOL     OW32707   2.287   2.333   5.402  0.2283  0.5828  0.4856
 7082SOL    HW132708   2.257   2.244   5.383  2.9446  0.2828 -2.5209
 7082SOL    HW232709   2.285   2.342   5.497 -0.6376 -2.9867  0.7762
 7083SOL     OW32710   3.042   4.578   9.290  0.5465 -0.2979  0.6897
 7083SOL    HW132711   2.957   4.535   9.290  0.4899 -0.1882  0.5048
 7083SOL    HW232712   3.037   4.627   9.208  1.9733  0.5898  1.1369
 7084SOL     OW32713   1.732   2.445   0.286  0.2675  0.0426 -0.1716
 7084SOL    HW132714   1.644   2.475   0.265  0.0004 -0.1963  0.6109
 7084SOL    HW232715   1.724   2.352   0.307 -0.1998  0.4579  1.5382
 7085SOL     OW32716   2.573   2.948  15.229 -0.1951 -0.3764 -0.2109
 7085SOL    HW132717   2.540   2.900  15.305 -0.7122  1.2503  0.5879
 7085SOL    HW232718   2.608   2.871  15.183 -1.9900 -0.2184 -1.7954
 7086SOL     OW32719   1.753   2.548   5.650  0.5171 -0.5513 -0.3206
 7086SOL    HW132720   1.672   2.591   5.676  1.9895 -0.6076  4.2181
 7086SOL    HW232721   1.808   2.584   5.719 -1.2651  0.6847  0.4411
 7087SOL     OW32722   3.354   2.160   6.690 -0.1046  0.9594 -0.0371
 7087SOL    HW132723   3.385   2.115   6.769 -1.0180 -1.2190 -0.9188
 7087SOL    HW232724   3.415   2.234   6.693 -0.1090  0.9062  1.3848
 7088SOL     OW32725   1.271   4.206   8.384  0.5985  0.0436 -0.0543
 7088SOL    HW132726   1.264   4.229   8.477 -0.6903  0.3469 -0.2296
 7088SOL    HW232727   1.227   4.274   8.334  1.9322  1.1458  0.2608
 7089SOL     OW32728   3.831   0.205  15.825  0.1757 -0.2230 -0.4120
 7089SOL    HW132729   3.735   0.201  15.824  0.2185 -1.5947  1.5311
 7089SOL    HW232730   3.849   0.199  15.919 -0.0413  0.9230 -0.2902
 7090SOL     OW32731   4.494   1.183   3.450 -0.1112 -0.4792 -0.4939
 7090SOL    HW132732   4.490   1.171   3.355  1.5810  1.4782 -0.8253
 7090SOL    HW232733   4.537   1.105   3.485  1.3598  1.3376  1.7261
 7091SOL     OW32734   2.039   4.490   8.636 -0.5893 -0.2322 -0.4130
 7091SOL    HW132735   2.087   4.436   8.698  0.9729  0.7952 -0.7147
 7091SOL    HW232736   1.968   4.536   8.681  1.3506  0.6225  1.7871
 7092SOL     OW32737   4.545   2.855   6.570 -0.2178 -0.4805 -0.3313
 7092SOL    HW132738   4.471   2.877   6.626 -0.7434 -2.2215 -0.3344
 7092SOL    HW232739   4.497   2.865   6.488 -1.9004  0.7131  0.7861
 7093SOL     OW32740   1.526   1.136   9.942  0.1997  0.0742 -0.6127
 7093SOL    HW132741   1.431   1.137   9.952  0.0954 -0.0370 -1.5858
 7093SOL    HW232742   1.532   1.173   9.854  0.7447  2.1250  0.2793
 7094SOL     OW32743   4.645   0.401   4.198 -0.2543  0.7343 -0.3973
 7094SOL    HW132744   4.613   0.465   4.135 -0.9145  0.3730 -0.4346
 7094SOL    HW232745   4.577   0.333   4.200  0.5977 -0.1641 -2.2988
 7095SOL     OW32746   1.570   1.601   7.640  0.2729 -0.2015 -0.4291
 7095SOL    HW132747   1.626   1.539   7.595 -1.4609 -0.9258 -1.6101
 7095SOL    HW232748   1.492   1.614   7.586 -0.0593  0.7061  0.2718
 7096SOL     OW32749   0.642   2.887  12.072  0.1633 -0.1548  0.2741
 7096SOL    HW132750   0.701   2.928  12.135 -0.0165 -1.0899  1.0526
 7096SOL    HW232751   0.589   2.961  12.043 -1.2506 -1.4054 -0.3339
 7097SOL     OW32752   4.660   3.963  12.922  0.0477  0.1497 -0.0650
 7097SOL    HW132753   0.002   3.990  12.858 -1.7736  1.3611 -1.4129
 7097SOL    HW232754   4.697   3.887  12.967  0.0674 -0.2911 -0.8174
 7098SOL     OW32755   3.635   2.390   5.011 -0.3406 -0.4318  0.3827
 7098SOL    HW132756   3.682   2.468   4.982  0.6189 -0.4222  1.9867
 7098SOL    HW232757   3.663   2.376   5.102 -1.7009  1.1038  1.0459
 7099SOL     OW32758   4.172   2.211   8.341  0.4774 -0.0076 -0.1432
 7099SOL    HW132759   4.102   2.212   8.406  0.6679 -0.5159  0.0707
 7099SOL    HW232760   4.128   2.267   8.277  0.5129  1.0274  0.7314
 7100SOL     OW32761   0.884   1.559   2.084  0.0266  0.3693  0.2560
 7100SOL    HW132762   0.823   1.598   2.146 -2.3314 -4.1228  0.8052
 7100SOL    HW232763   0.828   1.518   2.017  1.5859 -1.1524 -0.1157
 7101SOL     OW32764   0.391   1.885   1.036 -0.4009 -0.2927 -0.3464
 7101SOL    HW132765   0.347   1.970   1.037  0.2590  0.0741 -2.3813
 7101SOL    HW232766   0.406   1.869   0.943 -6.2217 -2.1707 -0.9844
 7102SOL     OW32767   3.782   0.117  14.307 -0.7766  0.4460  0.1466
 7102SOL    HW132768   3.700   0.160  14.328 -1.5240  0.5760 -2.9676
 7102SOL    HW232769   3.839   0.191  14.283 -0.9717  0.5242 -0.0821
 7103SOL     OW32770   2.437   4.705  13.368 -0.1503  0.0757 -0.0000
 7103SOL    HW132771   2.469   4.618  13.391  0.3447  0.1721 -0.3290
 7103SOL    HW232772   2.487   0.039  13.426 -0.8837 -0.1233  0.8303
 7104SOL     OW32773   2.748   3.769   7.849  0.6247 -0.1228 -0.7386
 7104SOL    HW132774   2.837   3.747   7.820  0.9036  0.8305 -0.6170
 7104SOL    HW232775   2.703   3.685   7.842 -2.8655  1.6661  0.2114
 7105SOL     OW32776   2.199   1.950   7.752 -0.2492 -0.0418 -0.1274
 7105SOL    HW132777   2.268   2.015   7.767  2.2198 -1.9924 -3.1346
 7105SOL    HW232778   2.160   1.969   7.667  0.6969 -0.3327 -0.6339
 7106SOL     OW32779   2.558   1.431   2.029  0.0751 -0.1566 -0.4285
 7106SOL    HW132780   2.555   1.419   2.124 -1.0911  0.0451 -0.4397
 7106SOL    HW232781   2.608   1.512   2.021 -0.3005 -0.1421 -2.5769
 7107SOL     OW32782   2.697   1.887   3.722 -0.6793  0.1500 -1.3636
 7107SOL    HW132783   2.653   1.821   3.775  0.8618  0.4880  0.3522
 7107SOL    HW232784   2.707   1.956   3.787  1.1435 -2.4144  1.1013
 7108SOL     OW32785   1.945   2.317   4.817  0.5762 -0.2822  0.6788
 7108SOL    HW132786   2.025   2.366   4.834  0.2323  0.3174  0.5522
 7108SOL    HW232787   1.940   2.263   4.896  1.3595 -0.7995  0.3747
 7109SOL     OW32788   3.109   3.423   3.031  0.0751 -0.0289 -0.5560
 7109SOL    HW132789   3.102   3.364   2.956  1.5669  1.1817 -1.6550
 7109SOL    HW232790   3.203   3.412   3.045  0.0745  0.4144 -0.1834
 7110SOL     OW32791   0.185   4.111   4.202  0.1429 -0.5151 -0.0025
 7110SOL    HW132792   0.168   4.018   4.188 -1.2899 -0.3244  0.4666
 7110SOL    HW232793   0.101   4.156   4.210 -1.0463 -3.1419  2.3263
 7111SOL     OW32794   3.239   0.274   9.450  0.4519  0.7141 -0.0907
 7111SOL    HW132795   3.191   0.318   9.520 -0.2907  0.0375 -0.1708
 7111SOL    HW232796   3.330   0.296   9.470  0.8885  0.0053 -1.2764
 7112SOL     OW32797   0.870   2.502  17.294 -0.0110  0.0122 -0.0515
 7112SOL    HW132798   0.794   2.543  17.335 -0.2478  0.1504 -0.6286
 7112SOL    HW232799   0.835   2.413  17.284 -0.2655 -0.0394  1.3714
 7113SOL     OW32800   0.996   0.996   0.692  0.4256  0.1631  0.3985
 7113SOL    HW132801   0.997   0.908   0.730  0.2698 -0.2540 -0.5625
 7113SOL    HW232802   1.056   0.991   0.618  2.6086  0.1569  2.1889
 7114SOL     OW32803   1.858   1.343   7.814 -0.4185  0.4198  0.1605
 7114SOL    HW132804   1.884   1.433   7.834  0.2881  0.2757 -0.0795
 7114SOL    HW232805   1.901   1.304   7.890 -2.0361 -0.6660  0.5028
 7115SOL     OW32806   3.310   0.989   6.550  0.2932  0.8427 -0.1736
 7115SOL    HW132807   3.288   0.956   6.462  0.2950  0.9866 -0.2272
 7115SOL    HW232808   3.277   0.917   6.604 -0.2919 -0.8435 -2.7337
 7116SOL     OW32809   3.742   1.258   4.327  0.6026  0.3999 -0.9271
 7116SOL    HW132810   3.745   1.319   4.253  0.8770  0.3653 -0.9427
 7116SOL    HW232811   3.669   1.286   4.382 -0.0492 -2.3998 -0.3547
 7117SOL     OW32812   2.433   2.715   7.316  0.0902 -0.2643  0.5105
 7117SOL    HW132813   2.359   2.697   7.257  1.2172 -3.1349  0.0212
 7117SOL    HW232814   2.502   2.671   7.267 -1.8557 -2.6157 -0.0867
 7118SOL     OW32815   3.525   1.109   8.407  0.1548 -0.4052  0.2629
 7118SOL    HW132816   3.491   1.183   8.458  1.8518  0.7609 -0.2905
 7118SOL    HW232817   3.613   1.136   8.381 -1.1528  3.9641  0.2582
 7119SOL     OW32818   3.113   3.400   4.688  0.0063  0.4592  0.1502
 7119SOL    HW132819   3.086   3.490   4.708 -0.7549  0.5480 -1.2339
 7119SOL    HW232820   3.098   3.392   4.594 -1.4712 -2.4867  0.6415
 7120SOL     OW32821   1.762   3.284  16.573 -0.5996 -0.6274  0.4298
 7120SOL    HW132822   1.848   3.267  16.611 -0.1252 -0.5786 -0.6463
 7120SOL    HW232823   1.700   3.263  16.643 -0.7383 -0.4271  0.3674
 7121SOL     OW32824   2.195   1.445   7.656  0.4555  0.7718  0.1299
 7121SOL    HW132825   2.276   1.494   7.639  1.3040 -0.6307  0.1254
 7121SOL    HW232826   2.228   1.355   7.650  2.9606  1.6436  1.0309
 7122SOL     OW32827   3.764   3.227   6.126 -0.2415 -0.0048  0.1308
 7122SOL    HW132828   3.787   3.251   6.036  0.2481 -0.1004  0.2291
 7122SOL    HW232829   3.673   3.255   6.136 -0.4475 -0.4624 -0.4750
 7123SOL     OW32830   3.195   4.431  16.463  0.0483  1.2952 -0.4490
 7123SOL    HW132831   3.286   4.455  16.483  0.4194 -0.4931  0.0225
 7123SOL    HW232832   3.179   4.395  16.551 -0.6172  0.1118 -1.0519
 7124SOL     OW32833   1.026   3.907   4.440  0.3509 -0.0254  0.8520
 7124SOL    HW132834   0.988   3.826   4.406  0.8475 -1.1801  3.0093
 7124SOL    HW232835   1.106   3.885   4.488  0.4471  1.0816  1.1985
 7125SOL     OW32836   2.495   0.059   1.154  0.0586  0.1262 -0.0128
 7125SOL    HW132837   2.429   0.125   1.176 -0.5255 -0.2960 -0.5031
 7125SOL    HW232838   2.551   0.117   1.103 -0.1404 -2.5389 -3.2836
 7126SOL     OW32839   3.433   0.670   2.736 -0.2666 -0.3794 -0.0299
 7126SOL    HW132840   3.411   0.624   2.817  2.2384  0.3020  1.0489
 7126SOL    HW232841   3.383   0.635   2.663  0.4454  0.6291 -0.9860
 7127SOL     OW32842   3.049   2.001   8.256 -0.1681 -0.1801  0.4278
 7127SOL    HW132843   3.068   1.945   8.181  0.0124  1.0907 -0.4718
 7127SOL    HW232844   2.989   2.068   8.222 -0.7520 -0.6845  0.4635
 7128SOL     OW32845   1.307   1.832  13.081  0.3231  0.1401  0.7633
 7128SOL    HW132846   1.314   1.925  13.060  2.0138 -0.1142  0.1629
 7128SOL    HW232847   1.392   1.809  13.119 -0.3190  0.2760  2.2695
 7129SOL     OW32848   4.663   1.025  11.207 -0.0959 -0.1647 -0.0694
 7129SOL    HW132849   4.641   0.968  11.281 -2.4299 -1.5041 -1.8015
 7129SOL    HW232850   0.033   1.041  11.226  0.2259 -2.2662  0.1165
 7130SOL     OW32851   2.865   2.732   2.931 -0.0998  0.2054  0.4782
 7130SOL    HW132852   2.895   2.642   2.945 -0.5316 -0.0939 -0.6011
 7130SOL    HW232853   2.942   2.775   2.892 -1.2471  1.9605  0.1574
 7131SOL     OW32854   3.356   0.897  11.908 -0.0268  0.9226 -0.4575
 7131SOL    HW132855   3.276   0.890  11.856  0.4560  1.2099 -1.2506
 7131SOL    HW232856   3.320   0.917  11.994  0.9728  4.2267 -0.8255
 7132SOL     OW32857   4.387   2.559   2.713  0.3511 -0.4879 -0.6096
 7132SOL    HW132858   4.328   2.634   2.710  0.1678 -0.5527  2.0231
 7132SOL    HW232859   4.397   2.536   2.805  0.6937  1.4311 -0.1702
 7133SOL     OW32860   2.875   1.276   8.122  0.6343  0.9707  0.2455
 7133SOL    HW132861   2.830   1.289   8.206  0.0808  0.5321  0.0163
 7133SOL    HW232862   2.809   1.228   8.073  1.3877 -1.1801  1.3661
 7134SOL     OW32863   2.600   3.231  17.648  0.1326 -0.2670  0.3557
 7134SOL    HW132864   2.603   3.305  17.588 -0.2682 -0.1052  0.5335
 7134SOL    HW232865   2.552   3.163  17.601 -1.2924  2.4806 -2.1791
 7135SOL     OW32866   3.146   3.894   6.596 -0.2105  0.0057  0.1446
 7135SOL    HW132867   3.088   3.941   6.657 -1.3798  0.8752 -1.6485
 7135SOL    HW232868   3.220   3.953   6.610 -1.7898  2.0207 -0.0242
 7136SOL     OW32869   3.477   1.317   6.354  0.1365 -0.4922  0.0921
 7136SOL    HW132870   3.510   1.236   6.392 -0.3766  0.6416  2.9046
 7136SOL    HW232871   3.483   1.288   6.263  0.0885  0.7467 -0.3079
 7137SOL     OW32872   2.016   2.680   0.530  0.1168 -0.0614 -0.0851
 7137SOL    HW132873   2.027   2.745   0.460  0.4341 -0.2884 -0.2459
 7137SOL    HW232874   1.934   2.715   0.564 -0.5350 -0.9587 -0.7265
 7138SOL     OW32875   4.669   1.917   7.579 -0.0850 -0.0868 -0.0398
 7138SOL    HW132876   4.606   1.848   7.599 -1.1310  0.9842  0.3918
 7138SOL    HW232877   0.014   1.864   7.539 -0.7421  1.9124 -3.8341
 7139SOL     OW32878   0.440   0.847  14.712 -0.4557  0.1941  0.4681
 7139SOL    HW132879   0.507   0.882  14.771  0.3687  2.0902 -1.6162
 7139SOL    HW232880   0.394   0.924  14.681 -1.5608 -0.8449 -0.4554
 7140SOL     OW32881   2.539   3.192  15.374  0.0734  0.2736 -0.2271
 7140SOL    HW132882   2.599   3.130  15.414  0.0279  1.1206  1.1534
 7140SOL    HW232883   2.524   3.146  15.291  1.0913 -0.5163  0.0331
 7141SOL     OW32884   0.022   3.737  11.122 -0.3058  0.0202 -0.1788
 7141SOL    HW132885   0.085   3.734  11.193 -0.9529  0.6244  0.4276
 7141SOL    HW232886   4.699   3.818  11.144  1.7837  1.3722 -0.8193
 7142SOL     OW32887   0.484   4.314   0.851  0.4940  0.1202 -0.2838
 7142SOL    HW132888   0.442   4.389   0.809 -1.3877 -1.9563 -2.1076
 7142SOL    HW232889   0.410   4.285   0.904  1.1186 -0.6846  0.1589
 7143SOL     OW32890   2.320   2.327   0.632  0.0773 -0.5357  0.6370
 7143SOL    HW132891   2.319   2.268   0.557 -1.0768 -0.4559  0.5792
 7143SOL    HW232892   2.258   2.398   0.614  1.0218 -0.1683 -1.1770
 7144SOL     OW32893   4.158   2.577  17.364 -0.0282 -0.3091  0.1951
 7144SOL    HW132894   4.131   2.486  17.376 -1.4003  0.1467  0.6028
 7144SOL    HW232895   4.138   2.583  17.270 -3.5995 -0.8922  0.8940
 7145SOL     OW32896   1.294   0.538  17.239  0.5504 -0.3127  0.4016
 7145SOL    HW132897   1.234   0.472  17.274 -1.4857  1.7279  0.7163
 7145SOL    HW232898   1.235   0.579  17.177  1.8575  0.4997 -0.3036
 7146SOL     OW32899   2.604   2.940   2.791  0.2853  0.0677  0.0436
 7146SOL    HW132900   2.596   3.008   2.723  0.7090  1.0496  0.9880
 7146SOL    HW232901   2.695   2.953   2.816  0.4289  0.0231 -0.4572
 7147SOL     OW32902   3.499   3.703   4.361 -0.3513 -0.3104 -0.0094
 7147SOL    HW132903   3.593   3.691   4.353  0.0008  2.4080 -0.1118
 7147SOL    HW232904   3.454   3.619   4.360  1.0412 -1.0404 -2.1129
 7148SOL     OW32905   1.906   2.340   8.949  0.2512 -0.0328 -0.3757
 7148SOL    HW132906   1.971   2.393   8.996 -0.4223 -0.2169  0.7500
 7148SOL    HW232907   1.825   2.371   8.990  0.3617  1.7543 -1.4868
 7149SOL     OW32908   1.493   0.549   5.590  0.3097  0.9537 -0.6804
 7149SOL    HW132909   1.495   0.484   5.660  1.6183  2.7329  0.9585
 7149SOL    HW232910   1.515   0.502   5.510 -0.9557  1.3354 -1.2402
 7150SOL     OW32911   1.136   1.740   5.424  0.4633 -0.0984 -0.7612
 7150SOL    HW132912   1.051   1.768   5.389 -0.4064 -0.6460  0.9038
 7150SOL    HW232913   1.115   1.727   5.516  0.5506  1.2709 -0.5401
 7151SOL     OW32914   3.553   1.897   5.361 -0.1857  0.2977 -0.3296
 7151SOL    HW132915   3.649   1.899   5.364 -0.1655 -1.6079  0.8858
 7151SOL    HW232916   3.522   1.806   5.370 -1.8887  0.8529 -0.5601
 7152SOL     OW32917   1.697   3.961   8.864 -0.0727  0.1586  0.3078
 7152SOL    HW132918   1.661   3.919   8.786 -1.0800  0.3586  0.6576
 7152SOL    HW232919   1.610   3.973   8.903  0.1214 -0.5341  0.9408
 7153SOL     OW32920   2.176   1.260   7.116  0.0413  0.6176 -0.0695
 7153SOL    HW132921   2.226   1.180   7.097 -2.0716  0.2796 -4.1906
 7153SOL    HW232922   2.172   1.300   7.030 -2.3487 -0.8135 -0.6125
 7154SOL     OW32923   2.663   4.501   9.059 -0.4175  0.2562 -0.1725
 7154SOL    HW132924   2.702   4.518   8.974 -1.5226  0.5794 -0.6084
 7154SOL    HW232925   2.572   4.504   9.029  0.6805 -0.2186 -3.5341
 7155SOL     OW32926   4.218   0.870   0.712 -0.0379 -0.0650 -0.0392
 7155SOL    HW132927   4.151   0.908   0.769  0.6001  0.5010  0.3277
 7155SOL    HW232928   4.239   0.789   0.758 -0.9182  0.2848  0.9994
 7156SOL     OW32929   0.695   0.021   5.533  0.1193  0.1732 -0.4797
 7156SOL    HW132930   0.675   4.690   5.457 -0.3913  2.9587 -2.3327
 7156SOL    HW232931   0.785   4.717   5.551  0.9080  2.2046 -1.3643
 7157SOL     OW32932   2.202   0.807   4.139  0.4448  0.7320  0.0072
 7157SOL    HW132933   2.222   0.762   4.221  0.5136  0.2372 -0.2851
 7157SOL    HW232934   2.149   0.739   4.098  0.5209  0.5165  0.2721
 7158SOL     OW32935   0.853   1.677   1.199 -0.3255 -0.2209  0.1282
 7158SOL    HW132936   0.779   1.649   1.146  1.5595 -2.3619 -1.3345
 7158SOL    HW232937   0.899   1.720   1.127 -0.3193 -3.4908 -1.7809
 7159SOL     OW32938   4.025   4.099   7.030 -0.2783 -0.0494  0.4899
 7159SOL    HW132939   4.091   4.096   6.960  0.1564  1.3046  0.8459
 7159SOL    HW232940   3.996   4.187   7.007 -0.2105  0.1490  1.1738
 7160SOL     OW32941   4.594   1.460   1.042 -0.4288  0.3266  0.2262
 7160SOL    HW132942   4.560   1.525   0.980 -0.2021 -0.8547 -1.1252
 7160SOL    HW232943   4.629   1.395   0.981  2.7020  2.4807 -0.2438
 7161SOL     OW32944   0.769   4.248  13.858  0.5812  0.1999 -0.5953
 7161SOL    HW132945   0.774   4.304  13.781 -1.2487  0.6791 -0.3651
 7161SOL    HW232946   0.830   4.280  13.924  1.8656  0.4365 -1.8999
 7162SOL     OW32947   0.291   1.577   7.770  0.3450  0.5716  0.3581
 7162SOL    HW132948   0.385   1.571   7.752 -0.1218 -2.7880 -1.0088
 7162SOL    HW232949   0.252   1.624   7.696  1.2609 -1.5286 -1.4531
 7163SOL     OW32950   3.345   2.892  15.191 -0.3238 -0.3903  0.2412
 7163SOL    HW132951   3.308   2.979  15.209  1.8504  0.5661  0.1243
 7163SOL    HW232952   3.395   2.873  15.270 -1.3224 -5.0298 -0.2480
 7164SOL     OW32953   0.911   2.075   9.267  0.0793 -0.3427 -0.0714
 7164SOL    HW132954   0.997   2.087   9.226 -0.6191  0.1265 -1.3915
 7164SOL    HW232955   0.913   1.982   9.291  0.0120  0.1438  1.8152
 7165SOL     OW32956   1.555   4.674   2.402 -0.1316 -0.2992  0.2339
 7165SOL    HW132957   1.459   4.676   2.409 -0.2070 -0.1773 -0.8962
 7165SOL    HW232958   1.562   4.643   2.312 -1.9936  0.3677 -0.1464
 7166SOL     OW32959   3.173   2.369   9.520 -0.1485  0.4555  0.3491
 7166SOL    HW132960   3.198   2.333   9.435  0.1601 -0.9204  1.0221
 7166SOL    HW232961   3.179   2.463   9.504 -0.4503  0.7639  2.0287
 7167SOL     OW32962   0.054   2.168   6.065  0.3567  0.6425 -0.5725
 7167SOL    HW132963   0.020   2.152   6.153  0.6221  2.4583 -0.1408
 7167SOL    HW232964   0.133   2.212   6.097  0.5208  2.0621 -2.9696
 7168SOL     OW32965   2.866   0.876   6.652  0.8761  0.1284 -0.1250
 7168SOL    HW132966   2.929   0.949   6.658 -0.0464  0.7728  1.6540
 7168SOL    HW232967   2.924   0.801   6.644  1.1320  0.2807  0.3092
 7169SOL     OW32968   3.081   4.575   8.541  0.5403  0.2607  0.9202
 7169SOL    HW132969   3.010   4.622   8.498  0.7309 -0.2759  0.0151
 7169SOL    HW232970   3.089   4.627   8.622  1.3929 -0.1797  1.1257
 7170SOL     OW32971   4.012   4.585  15.127  0.0298  0.4060  0.7812
 7170SOL    HW132972   3.999   4.493  15.148 -0.2653  0.3488  0.3357
 7170SOL    HW232973   3.927   4.625  15.143  1.1642  3.5616 -1.1350
 7171SOL     OW32974   3.470   0.584   8.888  0.6053 -0.3869  0.4191
 7171SOL    HW132975   3.477   0.632   8.806 -1.0380 -2.7063 -1.0990
 7171SOL    HW232976   3.377   0.584   8.912  0.4141  0.1445 -0.3252
 7172SOL     OW32977   3.889   4.451  14.048 -0.4829 -0.8569 -0.0800
 7172SOL    HW132978   3.879   4.490  13.961  2.6123 -2.2538 -1.0297
 7172SOL    HW232979   3.877   4.358  14.029 -0.0730 -0.7337 -0.9260
 7173SOL     OW32980   1.832   4.514  11.442 -0.0895  0.2712  0.2250
 7173SOL    HW132981   1.828   4.590  11.500 -0.1961  1.3991 -1.2722
 7173SOL    HW232982   1.915   4.480  11.474  1.0519  0.8174 -2.2092
 7174SOL     OW32983   2.426   3.468   5.039  0.0741 -0.8562  0.4869
 7174SOL    HW132984   2.390   3.385   5.069  0.2054 -2.0269 -2.6148
 7174SOL    HW232985   2.355   3.530   5.059  1.0680  0.1291  0.9271
 7175SOL     OW32986   0.159   1.807   7.452 -0.5591 -0.2292  0.5996
 7175SOL    HW132987   0.240   1.773   7.489  0.0767  1.1172  0.4225
 7175SOL    HW232988   0.199   1.850   7.377 -0.5443 -1.7812 -0.2972
 7176SOL     OW32989   0.210   2.932   3.629  0.0004  0.2753 -0.0926
 7176SOL    HW132990   0.139   2.978   3.585 -1.3741 -0.9900  0.8010
 7176SOL    HW232991   0.230   2.875   3.555 -0.2221 -0.2531  0.2526
 7177SOL     OW32992   2.370   0.875   8.650  0.0446 -0.1263 -0.0220
 7177SOL    HW132993   2.368   0.812   8.579  0.9120 -0.7459  0.4949
 7177SOL    HW232994   2.442   0.936   8.630  1.1820 -1.9478 -1.4143
 7178SOL     OW32995   0.107   4.568  13.826  0.2577  0.2676 -0.4812
 7178SOL    HW132996   0.017   4.589  13.850 -0.2487 -3.0336  0.5131
 7178SOL    HW232997   0.099   4.473  13.830  1.4445  0.1061 -1.9673
 7179SOL     OW32998   1.038   3.887   6.127  0.0745  0.2575  0.2349
 7179SOL    HW132999   1.064   3.852   6.042 -2.4517  0.2472 -0.5545
 7179SOL    HW233000   1.094   3.964   6.135  0.8413 -0.1695 -1.1264
 7180SOL     OW33001   2.613   2.784   6.823  0.1794  0.0181  0.7766
 7180SOL    HW133002   2.519   2.796   6.808  0.6253 -0.6630 -2.6681
 7180SOL    HW233003   2.628   2.710   6.764  1.4443 -0.2580  1.4540
 7181SOL     OW33004   0.851   0.407   2.638  0.0605 -0.2630 -0.2270
 7181SOL    HW133005   0.859   0.470   2.709 -0.1856 -1.9643  1.3081
 7181SOL    HW233006   0.786   0.454   2.587  0.4810  1.3751  0.7515
 7182SOL     OW33007   0.633   1.500  16.373  0.0472 -0.0522 -0.1395
 7182SOL    HW133008   0.699   1.568  16.385 -0.7386  0.4163  1.5205
 7182SOL    HW233009   0.660   1.448  16.449  0.0203 -1.6152 -1.1955
 7183SOL     OW33010   0.222   3.614   9.138  0.0795  0.0282  0.3531
 7183SOL    HW133011   0.287   3.685   9.134 -0.7049  0.6750 -0.8787
 7183SOL    HW233012   0.229   3.580   9.227 -0.0211  1.2344  0.8208
 7184SOL     OW33013   4.185   3.212   3.763 -0.3799 -0.4757  0.2640
 7184SOL    HW133014   4.132   3.205   3.683  1.9289  1.4400 -1.4444
 7184SOL    HW233015   4.263   3.162   3.738  0.3903  0.6183  0.5234
 7185SOL     OW33016   2.745   3.683   6.114  0.3484 -0.4126 -0.0689
 7185SOL    HW133017   2.806   3.622   6.158 -0.4349 -0.0932  1.4486
 7185SOL    HW233018   2.705   3.724   6.191 -1.1827 -0.7461 -0.7015
 7186SOL     OW33019   0.554   2.239   1.558 -0.0262 -0.0446 -0.4839
 7186SOL    HW133020   0.624   2.286   1.605 -1.5678  0.5191  1.2651
 7186SOL    HW233021   0.527   2.183   1.631  0.1028 -1.6312 -1.6751
 7187SOL     OW33022   3.765   3.460   8.956 -0.4273  0.4729 -0.4511
 7187SOL    HW133023   3.840   3.459   8.897  0.2542 -1.1694  0.4412
 7187SOL    HW233024   3.720   3.542   8.939  0.0049  0.5158 -1.3680
 7188SOL     OW33025   2.168   2.656   4.671  0.0097  0.4589  0.5948
 7188SOL    HW133026   2.155   2.612   4.755  2.7943 -1.0383  0.2449
 7188SOL    HW233027   2.244   2.608   4.638  0.2785  1.8149 -0.7659
 7189SOL     OW33028   0.115   1.064   2.829  0.0617 -0.5740  0.5408
 7189SOL    HW133029   0.175   1.006   2.782  0.1595 -0.2078  0.2143
 7189SOL    HW233030   0.098   1.014   2.908  1.8646 -1.4380  0.3808
 7190SOL     OW33031   0.929   0.359  13.936  0.0374  0.0338  0.1806
 7190SOL    HW133032   0.977   0.285  13.975  0.7347  0.5381  0.2684
 7190SOL    HW233033   0.853   0.317  13.896 -1.9920  3.1763  0.8085
 7191SOL     OW33034   0.674   1.664   6.195  0.1807  0.5071  0.2554
 7191SOL    HW133035   0.617   1.713   6.136 -0.8426 -1.4080 -0.3508
 7191SOL    HW233036   0.680   1.716   6.276 -0.0972 -1.6142  1.6360
 7192SOL     OW33037   3.817   3.574  15.213 -0.2598 -0.3224 -0.1166
 7192SOL    HW133038   3.781   3.496  15.171 -1.5342 -0.6736  1.6000
 7192SOL    HW233039   3.776   3.644  15.162  0.0203  0.0074  0.1055
 7193SOL     OW33040   1.466   2.817   2.357 -0.6019 -0.4130 -0.1212
 7193SOL    HW133041   1.396   2.757   2.331 -3.0040  1.6597  1.4750
 7193SOL    HW233042   1.421   2.853   2.433 -1.9662 -0.0626 -1.0870
 7194SOL     OW33043   0.567   4.187   1.096 -0.3114  0.3274  0.5996
 7194SOL    HW133044   0.476   4.186   1.066 -0.0572 -0.2479 -0.1496
 7194SOL    HW233045   0.607   4.238   1.026  1.5198 -1.6479  0.2351
 7195SOL     OW33046   3.156   1.377   6.395 -0.0634 -0.4408  0.6538
 7195SOL    HW133047   3.237   1.335   6.425 -0.3722 -0.5032  1.4173
 7195SOL    HW233048   3.176   1.418   6.311  0.1870 -0.5358  0.6693
 7196SOL     OW33049   0.137   4.235   6.799 -0.3315 -0.2724 -0.8216
 7196SOL    HW133050   0.135   4.150   6.755  0.9177 -0.9238  0.3819
 7196SOL    HW233051   0.229   4.261   6.805 -0.3634 -0.8167  1.8607
 7197SOL     OW33052   2.961   0.869   9.749  0.2813 -0.4857  0.0310
 7197SOL    HW133053   2.960   0.916   9.666 -2.5655 -0.4237  0.0852
 7197SOL    HW233054   2.952   0.775   9.733  0.8720  0.1948 -4.1489
 7198SOL     OW33055   1.988   3.789   6.311  0.3492  0.4529  0.2335
 7198SOL    HW133056   2.059   3.810   6.372 -1.3582  1.2793  1.9340
 7198SOL    HW233057   2.038   3.772   6.231 -1.6547  3.1067 -1.6072
 7199SOL     OW33058   1.646   2.836   4.312  0.1561  0.2987 -0.7722
 7199SOL    HW133059   1.638   2.767   4.247 -0.7023  0.7475 -1.1457
 7199SOL    HW233060   1.561   2.876   4.298 -0.3202  0.0415  1.4480
 7200SOL     OW33061   0.752   1.885   4.524 -0.3754 -0.2596  0.2797
 7200SOL    HW133062   0.828   1.931   4.560 -1.0995  0.5186  0.7928
 7200SOL    HW233063   0.682   1.949   4.521  0.1171  0.2391 -0.3536
 7201SOL     OW33064   4.333   2.518   7.259 -0.0363 -0.3476 -0.3464
 7201SOL    HW133065   4.381   2.546   7.181  0.1244  2.1572  0.6696
 7201SOL    HW233066   4.397   2.549   7.323 -2.0536  2.7504  0.1670
 7202SOL     OW33067   4.165   1.919   4.606 -0.6719 -0.3421  0.1561
 7202SOL    HW133068   4.256   1.894   4.616 -0.6818  0.3812  2.2081
 7202SOL    HW233069   4.167   1.995   4.665 -0.8039 -0.1685 -0.0614
 7203SOL     OW33070   2.022   3.586   6.826  0.7528 -0.1203  0.4656
 7203SOL    HW133071   2.113   3.586   6.795  0.5384 -1.4878 -0.1873
 7203SOL    HW233072   1.986   3.563   6.740  0.1966 -1.6788  1.1135
 7204SOL     OW33073   3.548   3.257   8.765  0.8127 -0.1399 -0.6549
 7204SOL    HW133074   3.491   3.334   8.771  1.3146  0.3573 -2.1225
 7204SOL    HW233075   3.534   3.205   8.844 -1.8573 -2.4001 -2.6262
 7205SOL     OW33076   0.225   3.241   5.836  0.0087  0.3766  0.2961
 7205SOL    HW133077   0.262   3.176   5.896  3.1350 -0.0121 -2.0509
 7205SOL    HW233078   0.157   3.271   5.896 -0.4897  1.1436 -0.6577
 7206SOL     OW33079   3.043   2.133   0.984 -0.4438 -0.0135 -0.2298
 7206SOL    HW133080   3.108   2.083   0.936 -0.5200  0.2064 -0.5591
 7206SOL    HW233081   2.959   2.119   0.940 -0.6281  0.5854 -0.0712
 7207SOL     OW33082   3.425   4.645   7.635  0.2900 -0.2135  0.1071
 7207SOL    HW133083   3.459   4.559   7.609 -1.5865 -0.6927 -0.8261
 7207SOL    HW233084   3.477   4.704   7.581  0.1818 -0.8571 -0.7085
 7208SOL     OW33085   2.143   0.459   5.496 -0.1349  0.6794  0.2002
 7208SOL    HW133086   2.118   0.403   5.423  0.2671  1.1727 -0.3188
 7208SOL    HW233087   2.187   0.395   5.552 -2.5185  0.7640  2.1819
 7209SOL     OW33088   0.570   3.546  10.841  0.2593  0.2091  0.4503
 7209SOL    HW133089   0.482   3.513  10.861  0.1764  1.0269  1.4533
 7209SOL    HW233090   0.591   3.500  10.761 -0.2683  1.3243 -0.3303
 7210SOL     OW33091   3.821   2.961  17.429 -0.1441  0.3153 -0.0520
 7210SOL    HW133092   3.917   2.963  17.434 -0.1761 -0.5321  1.0271
 7210SOL    HW233093   3.795   2.963  17.522 -1.4505  0.1365 -0.4137
 7211SOL     OW33094   1.120   2.619  12.682  0.2556  0.3731  0.0692
 7211SOL    HW133095   1.072   2.681  12.627 -0.7172 -0.1792  0.2928
 7211SOL    HW233096   1.085   2.629  12.770  0.2932 -2.7938  0.4573
 7212SOL     OW33097   4.567   2.411  16.827  0.3750  0.7815  0.3428
 7212SOL    HW133098   4.480   2.375  16.809  0.9028  0.0825 -0.8155
 7212SOL    HW233099   4.582   2.460  16.747  0.1938  0.7516  0.2912
 7213SOL     OW33100   0.534   2.781   4.301  0.0859  0.1539 -0.4652
 7213SOL    HW133101   0.494   2.769   4.388  1.6539 -0.2435  0.1972
 7213SOL    HW233102   0.463   2.760   4.241 -0.3034 -0.6447  0.2570
 7214SOL     OW33103   1.784   3.509  13.917 -0.1925 -0.1707  0.3230
 7214SOL    HW133104   1.794   3.536  14.008  0.4425  0.8386 -0.0390
 7214SOL    HW233105   1.725   3.582  13.898 -2.2746 -1.4012  2.1170
 7215SOL     OW33106   3.892   1.851   0.668 -0.0937 -0.9726  0.3238
 7215SOL    HW133107   3.872   1.885   0.580  0.1685  0.1746  0.7078
 7215SOL    HW233108   3.813   1.802   0.691 -0.1478 -1.2342 -0.4218
 7216SOL     OW33109   1.426   2.727   1.671 -0.0988 -0.1285 -0.2906
 7216SOL    HW133110   1.355   2.791   1.673  0.7190  0.7890 -0.6376
 7216SOL    HW233111   1.394   2.673   1.599 -0.6566 -1.5379  1.0211
 7217SOL     OW33112   2.191   3.258   8.417 -0.2327  0.2325  0.3109
 7217SOL    HW133113   2.186   3.168   8.385  0.1525  0.5473 -0.6219
 7217SOL    HW233114   2.116   3.254   8.476 -1.2927 -1.9112 -1.1720
 7218SOL     OW33115   2.683   1.171   2.392  0.2329 -0.2366 -0.1871
 7218SOL    HW133116   2.619   1.109   2.427  0.0554  0.0717  0.0314
 7218SOL    HW233117   2.644   1.258   2.396 -0.9676 -0.8904  1.8775
 7219SOL     OW33118   1.901   2.442   4.254 -0.5365  0.8245  0.2822
 7219SOL    HW133119   1.882   2.536   4.256 -1.9306  0.5685 -1.0395
 7219SOL    HW233120   1.994   2.445   4.232 -0.7853 -1.0603 -0.9812
 7220SOL     OW33121   3.161   2.832   8.256  0.0543  0.2957  0.0635
 7220SOL    HW133122   3.073   2.807   8.284 -1.2423  3.0402 -1.5167
 7220SOL    HW233123   3.196   2.745   8.236 -0.6764  0.2830 -1.1733
 7221SOL     OW33124   3.944   0.032   5.977  0.4240 -0.3778 -0.0734
 7221SOL    HW133125   4.019   0.036   5.918  1.6484  1.1645  1.5889
 7221SOL    HW233126   3.912   0.122   5.968  2.1635  0.3358  0.9678
 7222SOL     OW33127   2.724   1.942   5.978 -0.0670 -0.1037 -0.0367
 7222SOL    HW133128   2.705   1.958   5.885  2.0197  0.0777 -0.4247
 7222SOL    HW233129   2.797   2.001   5.995 -0.3299  0.1646  0.1448
 7223SOL     OW33130   4.155   0.019   4.972  0.2859 -0.2204  0.3364
 7223SOL    HW133131   4.212   0.095   4.979 -1.3007  0.9726  0.2040
 7223SOL    HW233132   4.216   4.668   4.963 -1.4898 -1.6651  0.1007
 7224SOL     OW33133   0.107   4.292   3.833 -0.0031 -0.2484 -0.0262
 7224SOL    HW133134   0.017   4.263   3.850  0.6882 -0.0270  4.0436
 7224SOL    HW233135   0.077   4.374   3.794 -1.9634  0.2578  2.4868
 7225SOL     OW33136   2.316   2.333   8.504 -0.6418  0.3500 -0.1503
 7225SOL    HW133137   2.253   2.284   8.452 -1.1515 -0.5882  1.3414
 7225SOL    HW233138   2.261   2.339   8.583 -0.4704 -3.2733  0.2621
 7226SOL     OW33139   2.583   1.704   6.595 -0.0898  0.1360 -0.1067
 7226SOL    HW133140   2.594   1.797   6.576  0.1628  0.1755  0.2425
 7226SOL    HW233141   2.631   1.663   6.522  0.5274  2.5009 -1.0225
 7227SOL     OW33142   4.425   0.234   3.619  0.2173 -0.8519  0.5379
 7227SOL    HW133143   4.470   0.307   3.576 -0.8549  0.5588  1.8125
 7227SOL    HW233144   4.368   0.288   3.674  3.3094  3.0212 -0.0450
 7228SOL     OW33145   4.576   4.187   3.002  0.0649  0.1434 -0.6258
 7228SOL    HW133146   4.581   4.213   2.910  2.4641 -0.0435 -0.5526
 7228SOL    HW233147   4.634   4.256   3.035 -0.5051 -0.8404  2.4358
 7229SOL     OW33148   3.254   0.275   5.768  0.0001  0.7159  0.3136
 7229SOL    HW133149   3.170   0.230   5.756  1.0715 -1.2930  0.2932
 7229SOL    HW233150   3.300   0.253   5.687 -1.9376  0.9907 -0.8765
 7230SOL     OW33151   2.427   1.966   2.125 -0.0929  0.2354 -0.0372
 7230SOL    HW133152   2.452   2.054   2.156 -1.5216  0.9338 -0.8513
 7230SOL    HW233153   2.442   1.955   2.031 -0.0234  0.8857 -0.1064
 7231SOL     OW33154   0.996   3.338  10.211  0.8226 -0.2398  0.0007
 7231SOL    HW133155   0.930   3.273  10.232  1.6687 -1.1891 -0.3010
 7231SOL    HW233156   0.953   3.385  10.139  1.7119 -3.1168 -2.3793
 7232SOL     OW33157   1.672   1.383   2.439  0.2196 -0.0553  0.1979
 7232SOL    HW133158   1.760   1.354   2.462  0.9625  0.7536 -1.6258
 7232SOL    HW233159   1.688   1.477   2.450  0.7948  0.0559 -1.5390
 7233SOL     OW33160   1.362   2.534   7.571  0.2738  0.0433 -0.7033
 7233SOL    HW133161   1.267   2.544   7.576  0.3442  1.1024 -1.4599
 7233SOL    HW233162   1.397   2.576   7.649 -0.9606 -0.6873  0.2303
 7234SOL     OW33163   2.171   4.474  11.825  0.5080  0.7907  0.3588
 7234SOL    HW133164   2.087   4.459  11.869  0.8464  0.7905  1.0010
 7234SOL    HW233165   2.196   4.382  11.817  1.4713  0.9595  1.3711
 7235SOL     OW33166   1.607   2.127   3.747 -0.2594  0.1540 -0.0707
 7235SOL    HW133167   1.527   2.173   3.719 -0.4298 -0.4218 -0.5226
 7235SOL    HW233168   1.626   2.196   3.811 -2.0863  0.3326  0.2822
 7236SOL     OW33169   0.861   0.540   7.212  0.2924 -0.3632 -0.1779
 7236SOL    HW133170   0.877   0.553   7.305 -0.0115 -0.4835 -0.1083
 7236SOL    HW233171   0.772   0.573   7.207  1.3665  2.7353  1.3496
 7237SOL     OW33172   2.864   3.020   2.774  0.6037 -1.1200 -0.1543
 7237SOL    HW133173   2.879   2.997   2.682 -0.0525  1.1136 -0.8191
 7237SOL    HW233174   2.930   2.958   2.805  0.5831 -1.2805 -0.4335
 7238SOL     OW33175   2.454   3.981   5.488 -0.0373 -0.6113  0.2603
 7238SOL    HW133176   2.431   4.009   5.577  0.6116 -1.9564  0.8519
 7238SOL    HW233177   2.411   3.895   5.486  1.5153 -1.4426  1.9008
 7239SOL     OW33178   2.250   1.078   0.987 -0.0473 -0.1723 -0.1109
 7239SOL    HW133179   2.322   1.065   1.048 -1.7834  1.8968  2.3684
 7239SOL    HW233180   2.288   1.114   0.907 -1.3103 -0.7443 -0.9817
 7240SOL     OW33181   4.084   3.680   8.915 -0.4420  0.4591 -0.4442
 7240SOL    HW133182   4.005   3.671   8.968  1.0723 -0.7718  1.6045
 7240SOL    HW233183   4.096   3.774   8.911  0.2596  0.3721 -0.3172
 7241SOL     OW33184   4.002   3.077   3.957 -0.6153  0.0995  0.0608
 7241SOL    HW133185   4.009   2.993   3.912  0.2758  0.5343 -0.6003
 7241SOL    HW233186   4.061   3.131   3.904 -0.3724 -0.4854 -0.2623
 7242SOL     OW33187   1.110   1.075   8.470 -0.6174 -0.4219 -0.0812
 7242SOL    HW133188   1.173   1.095   8.540 -0.7441  1.3459 -0.4607
 7242SOL    HW233189   1.105   0.981   8.457  1.4835 -0.4758 -0.5685
 7243SOL     OW33190   3.682   0.524   7.491 -0.3178  0.0331 -0.2163
 7243SOL    HW133191   3.606   0.574   7.461  0.5655  2.9315  2.3012
 7243SOL    HW233192   3.741   0.580   7.542 -1.1922  0.2904  0.5257
 7244SOL     OW33193   2.554   3.695   8.121  0.4121  0.1521 -0.3517
 7244SOL    HW133194   2.507   3.764   8.074  0.7677  1.0346  0.5968
 7244SOL    HW233195   2.643   3.710   8.089 -0.1985  1.7771 -1.2950
 7245SOL     OW33196   1.409   4.276   2.455 -0.0776  0.3668  0.5921
 7245SOL    HW133197   1.416   4.326   2.536  0.0195 -1.8050  1.9491
 7245SOL    HW233198   1.325   4.229   2.459  0.4475 -0.4143  2.9389
 7246SOL     OW33199   4.678   1.344   3.577  0.2283  0.2950  0.1168
 7246SOL    HW133200   4.715   1.275   3.633  1.9743 -0.3619 -1.8628
 7246SOL    HW233201   4.614   1.297   3.523  0.4728  0.7781 -0.5901
 7247SOL     OW33202   2.498   4.322   0.214 -0.1405 -0.6070 -0.2979
 7247SOL    HW133203   2.463   4.242   0.253 -0.7025  0.0218  0.4830
 7247SOL    HW233204   2.488   4.394   0.276  0.0857 -1.2485  0.4871
 7248SOL     OW33205   1.233   1.820  12.781 -0.3900  0.3102 -0.0000
 7248SOL    HW133206   1.139   1.803  12.769 -0.1564 -0.3301 -0.8806
 7248SOL    HW233207   1.248   1.797  12.873  1.7104  0.2565 -0.3657
 7249SOL     OW33208   1.302   2.500  12.527  0.3131  0.0304  0.0949
 7249SOL    HW133209   1.316   2.421  12.579 -2.2384 -1.1897 -1.0862
 7249SOL    HW233210   1.254   2.547  12.595 -3.6695 -1.4318 -1.7224
 7250SOL     OW33211   1.668   1.589   7.137 -0.4099 -0.4579 -0.4721
 7250SOL    HW133212   1.706   1.637   7.063 -0.4611 -0.2582 -0.3706
 7250SOL    HW233213   1.729   1.517   7.153  1.8705  1.6269  0.4199
 7251SOL     OW33214   2.537   1.631   6.987 -0.0223  0.1366  0.2000
 7251SOL    HW133215   2.553   1.544   7.024  1.1383  0.6764  0.9616
 7251SOL    HW233216   2.565   1.619   6.896  2.7147 -2.7746  1.4034
 7252SOL     OW33217   2.437   0.102   6.696 -0.2803 -0.3900  0.1243
 7252SOL    HW133218   2.519   0.056   6.718 -1.7550 -3.1114 -0.1119
 7252SOL    HW233219   2.392   0.087   6.779  0.9027  0.6997  0.9679
 7253SOL     OW33220   0.476   2.940   2.836  0.3458 -0.6486 -0.6425
 7253SOL    HW133221   0.447   2.904   2.752 -2.3935 -0.8501  0.3898
 7253SOL    HW233222   0.393   2.955   2.883  0.0299 -0.4046 -1.2852
 7254SOL     OW33223   1.839   4.625   8.783  0.2934  0.3707  0.0685
 7254SOL    HW133224   1.828   4.564   8.855  0.4040 -0.2473 -0.4330
 7254SOL    HW233225   1.878   4.698   8.830  0.4062 -0.4981  1.3176
 7255SOL     OW33226   2.917   1.673   5.459  0.0430  0.1006  0.2951
 7255SOL    HW133227   2.898   1.721   5.379  2.1773  0.2950 -0.1024
 7255SOL    HW233228   3.011   1.688   5.465  0.5593 -1.9041 -2.4484
 7256SOL     OW33229   0.352   4.565   8.843 -0.1493  0.2174 -0.0332
 7256SOL    HW133230   0.424   4.587   8.901 -1.6716  1.4638  1.3913
 7256SOL    HW233231   0.354   4.469   8.842  2.0722  0.2672 -0.1200
 7257SOL     OW33232   4.463   2.049  17.504 -0.0219 -0.1372  0.4186
 7257SOL    HW133233   4.394   1.982  17.497 -0.2374  0.0923  0.3335
 7257SOL    HW233234   4.405   2.125  17.501  0.0381 -0.1146 -0.1814
 7258SOL     OW33235   2.570   0.931   7.788  0.1400  0.4032  0.2459
 7258SOL    HW133236   2.648   0.917   7.842  0.0324 -1.5018 -0.1151
 7258SOL    HW233237   2.560   0.846   7.747  0.1201  1.2878 -1.6036
 7259SOL     OW33238   2.011   4.517  12.139  0.1946  0.1801 -0.2946
 7259SOL    HW133239   2.000   4.552  12.228 -0.1961 -0.6603 -0.0196
 7259SOL    HW233240   2.012   4.423  12.156 -3.1324 -0.1552 -1.8914
 7260SOL     OW33241   4.378   2.716   4.979 -0.0590  0.4101  0.2736
 7260SOL    HW133242   4.389   2.811   4.988  0.5944  0.4618 -1.0811
 7260SOL    HW233243   4.413   2.682   5.061 -0.6617  1.5430  0.9951
 7261SOL     OW33244   2.683   1.736   5.649 -0.3606 -0.4576 -0.2485
 7261SOL    HW133245   2.750   1.802   5.668  0.7886 -2.1630  1.6026
 7261SOL    HW233246   2.739   1.678   5.599  2.7652  0.9084  1.6660
 7262SOL     OW33247   2.152   2.544  14.021 -0.6248 -0.2175 -0.1699
 7262SOL    HW133248   2.206   2.523  13.945  0.0305 -0.4446  0.3614
 7262SOL    HW233249   2.083   2.590  13.973 -0.6828 -0.1538 -0.0275
 7263SOL     OW33250   4.044   1.735   6.837  0.2361 -1.5534  0.1824
 7263SOL    HW133251   4.020   1.765   6.925  2.8109  0.4218  0.2239
 7263SOL    HW233252   4.116   1.674   6.858  0.8570 -0.5175  1.0925
 7264SOL     OW33253   2.942   3.063   9.522  0.1325  0.3357 -0.1024
 7264SOL    HW133254   2.979   2.979   9.550 -0.6765  0.9367  2.6638
 7264SOL    HW233255   2.924   3.101   9.608  0.6754  1.2989 -0.4144
 7265SOL     OW33256   3.733   2.904  11.028 -0.7869  0.4784 -0.9317
 7265SOL    HW133257   3.697   2.953  11.102 -0.2326 -2.3074  1.2050
 7265SOL    HW233258   3.684   2.822  11.039  0.7387 -0.2812  0.1239
 7266SOL     OW33259   4.467   3.273   3.998 -0.1044  0.3177 -0.5305
 7266SOL    HW133260   4.504   3.352   4.039 -0.9150 -0.0931  0.9742
 7266SOL    HW233261   4.379   3.299   3.973  0.4456  2.6879 -0.0721
 7267SOL     OW33262   2.442   1.725   1.625  0.3157 -0.4812  0.5622
 7267SOL    HW133263   2.504   1.792   1.597  0.5291  0.0014  2.2280
 7267SOL    HW233264   2.443   1.672   1.545  0.0310 -0.2089  0.3731
 7268SOL     OW33265   2.506   4.169  16.416  0.4516 -0.3346  0.3884
 7268SOL    HW133266   2.537   4.117  16.490  1.0891  0.9660  1.0346
 7268SOL    HW233267   2.500   4.259  16.448  2.2413 -0.3450  0.7540
 7269SOL     OW33268   3.395   2.135   7.155  0.2800  0.0948 -0.4714
 7269SOL    HW133269   3.387   2.225   7.188  0.1719  0.5071 -1.6179
 7269SOL    HW233270   3.324   2.095   7.205  1.2803 -0.1750  0.7240
 7270SOL     OW33271   2.542   1.387   2.565  0.3109 -0.2649  0.0525
 7270SOL    HW133272   2.553   1.459   2.627  0.7984  2.9875 -3.7704
 7270SOL    HW233273   2.490   1.328   2.619 -1.5178  1.1300 -0.1858
 7271SOL     OW33274   3.517   2.479   8.681  0.1706  0.3796 -0.2997
 7271SOL    HW133275   3.500   2.555   8.737  0.3595  0.3986 -0.2674
 7271SOL    HW233276   3.611   2.464   8.689  0.7368  4.8382  1.6149
 7272SOL     OW33277   0.261   3.024   6.008  0.2467 -0.0823  0.0396
 7272SOL    HW133278   0.189   2.965   6.029 -0.1743  0.3161 -0.2791
 7272SOL    HW233279   0.333   2.962   5.997  1.5517  1.6359 -1.0672
 7273SOL     OW33280   1.021   3.319   7.605  0.1191  0.2026 -0.6637
 7273SOL    HW133281   0.969   3.253   7.557 -0.6186 -0.0997  0.5412
 7273SOL    HW233282   0.948   3.367   7.645  1.5550  0.5846  1.4757
 7274SOL     OW33283   2.406   3.462   5.962 -0.0754 -0.0551 -0.3423
 7274SOL    HW133284   2.431   3.543   5.918  0.1481  0.3454  0.5247
 7274SOL    HW233285   2.380   3.481   6.053 -1.4400 -0.1233 -0.7136
 7275SOL     OW33286   0.408   3.775  17.407  0.2796 -0.4810  0.3939
 7275SOL    HW133287   0.383   3.690  17.442 -1.6818 -0.3630 -0.6846
 7275SOL    HW233288   0.452   3.811  17.483 -1.2451  1.3128  0.4400
 7276SOL     OW33289   4.707   4.590   7.180  0.3046  0.7758 -0.1396
 7276SOL    HW133290   4.669   4.521   7.126  1.5119  0.0187 -0.0135
 7276SOL    HW233291   4.722   4.549   7.265 -0.3942  0.5250 -0.1435
 7277SOL     OW33292   2.321   1.543   6.307 -0.1649 -0.7266 -0.1627
 7277SOL    HW133293   2.402   1.545   6.256 -0.2138 -1.2990 -0.2697
 7277SOL    HW233294   2.334   1.512   6.397 -0.4712 -2.6592 -0.7741
 7278SOL     OW33295   0.419   4.593  10.507  0.4804 -0.1209 -0.4329
 7278SOL    HW133296   0.501   4.554  10.477 -0.2118 -0.7039 -1.5947
 7278SOL    HW233297   0.357   4.570  10.438  0.2802  0.4340 -0.4326
 7279SOL     OW33298   4.561   0.465   2.925 -0.2009  0.0270  0.0826
 7279SOL    HW133299   4.524   0.553   2.926 -1.6332 -0.5989  1.9234
 7279SOL    HW233300   4.623   0.458   2.998  0.9470  1.3134 -0.7578
 7280SOL     OW33301   2.182   2.315   6.160  0.3515  0.1897 -0.4521
 7280SOL    HW133302   2.242   2.344   6.092 -1.2450  0.5225 -1.7367
 7280SOL    HW233303   2.136   2.398   6.173  1.1203  0.6124 -0.4234
 7281SOL     OW33304   4.375   4.376   4.347  0.7147  0.3297  0.2354
 7281SOL    HW133305   4.440   4.377   4.417 -0.6393 -0.9757  1.5229
 7281SOL    HW233306   4.292   4.394   4.391  1.4728  3.0687  0.5203
 7282SOL     OW33307   4.682   0.619   8.201  0.1545  0.3806  0.1136
 7282SOL    HW133308   4.592   0.628   8.232  0.5825 -0.6303  1.6554
 7282SOL    HW233309   4.711   0.708   8.185  2.9730 -0.0089  2.9215
 7283SOL     OW33310   3.061   0.053   9.618 -0.2979  0.1434  0.4555
 7283SOL    HW133311   3.106   0.110   9.680 -3.2797  1.4116  1.4125
 7283SOL    HW233312   3.055   0.107   9.539 -2.1520 -2.3333 -1.0922
 7284SOL     OW33313   3.649   4.217   9.237 -0.0022  0.1870 -0.2753
 7284SOL    HW133314   3.703   4.224   9.316  2.2834  2.7926 -2.0726
 7284SOL    HW233315   3.567   4.184   9.274  0.5628 -0.1565  0.6726
 7285SOL     OW33316   2.368   2.395  10.275 -0.6464  0.4985 -0.2719
 7285SOL    HW133317   2.461   2.378  10.291 -0.8184 -0.4473 -0.2698
 7285SOL    HW233318   2.345   2.442  10.355 -0.0025  0.6793 -0.1891
 7286SOL     OW33319   1.763   0.582  12.954  0.6573 -0.4864  0.2355
 7286SOL    HW133320   1.839   0.598  13.011  2.0092 -0.8020 -1.4919
 7286SOL    HW233321   1.737   0.498  12.993  2.6435 -0.8241  0.8499
 7287SOL     OW33322   0.585   3.864   1.632 -0.0321  0.6429 -0.4631
 7287SOL    HW133323   0.588   3.925   1.559  2.4632  1.6239  0.4610
 7287SOL    HW233324   0.536   3.912   1.699 -0.3233  0.1567 -0.3238
 7288SOL     OW33325   2.057   1.668   5.424  0.4553 -0.3576  0.8148
 7288SOL    HW133326   1.964   1.690   5.419  1.0743  1.0750 -4.1775
 7288SOL    HW233327   2.095   1.749   5.389  2.4932 -1.5343  0.2924
 7289SOL     OW33328   0.698   0.839   0.580 -0.4648 -0.2306 -0.4136
 7289SOL    HW133329   0.773   0.792   0.617  3.1202  1.7537 -5.0563
 7289SOL    HW233330   0.631   0.812   0.642  1.1078 -1.6887  0.6621
 7290SOL     OW33331   0.856   1.841   8.708  0.0505  0.3629  0.4494
 7290SOL    HW133332   0.769   1.840   8.747 -0.1625 -1.1849 -0.0640
 7290SOL    HW233333   0.843   1.835   8.613 -0.7372 -0.2347  0.5995
 7291SOL     OW33334   1.972   2.710  13.912  0.2707  0.5168  1.0852
 7291SOL    HW133335   1.986   2.770  13.838  1.6480  2.0387  2.5757
 7291SOL    HW233336   1.889   2.753  13.935 -0.7064 -1.3425  0.9914
 7292SOL     OW33337   3.826   2.473  11.743 -0.2992  0.3585  0.1954
 7292SOL    HW133338   3.844   2.561  11.775 -1.1795  1.1261 -1.4200
 7292SOL    HW233339   3.901   2.452  11.688 -0.3293  1.3232 -0.2201
 7293SOL     OW33340   2.262   4.160   8.407 -0.1990  0.4091 -0.8366
 7293SOL    HW133341   2.270   4.222   8.480  3.4110  0.9981 -1.7254
 7293SOL    HW233342   2.353   4.135   8.393 -0.0420  0.9181 -0.7517
 7294SOL     OW33343   2.898   4.059   9.768 -0.2346  0.2433  0.4200
 7294SOL    HW133344   2.806   4.032   9.763  0.2730 -1.2534 -0.8693
 7294SOL    HW233345   2.895   4.086   9.860 -0.5643  2.0642 -0.1267
 7295SOL     OW33346   2.171   0.257   7.930  0.0932  0.0699 -0.6418
 7295SOL    HW133347   2.220   0.292   8.004 -0.2446 -0.9002  0.0399
 7295SOL    HW233348   2.227   0.193   7.888  1.8476 -1.3607  3.8534
 7296SOL     OW33349   3.583   1.290   3.976 -0.5890 -0.3947 -0.4922
 7296SOL    HW133350   3.510   1.314   3.919 -0.3707 -1.2331 -1.1327
 7296SOL    HW233351   3.563   1.202   4.008 -0.4150 -0.6192 -0.9980
 7297SOL     OW33352   0.066   0.794   5.541 -0.6827 -0.2027 -0.1087
 7297SOL    HW133353   0.097   0.863   5.482  0.5624  1.6646  2.7306
 7297SOL    HW233354   0.092   0.826   5.628 -1.6508 -1.6825  0.7258
 7298SOL     OW33355   3.634   3.674  13.965  0.4393 -0.2416 -0.0358
 7298SOL    HW133356   3.706   3.610  13.961  0.9462  0.6107 -3.7059
 7298SOL    HW233357   3.648   3.700  14.056 -0.8272 -4.1393  1.2818
 7299SOL     OW33358   3.783   1.946   3.182  0.5780  0.0460  0.0265
 7299SOL    HW133359   3.743   1.982   3.261 -0.5816  0.0423 -0.5557
 7299SOL    HW233360   3.773   1.854   3.206 -0.0716  0.6143  1.9434
 7300SOL     OW33361   0.194   3.013   7.637 -0.0532 -0.2422 -0.1264
 7300SOL    HW133362   0.230   3.100   7.622 -0.0435  0.0042  1.3324
 7300SOL    HW233363   0.165   2.991   7.548 -1.2283  0.6930  0.0214
 7301SOL     OW33364   3.092   4.174   6.401 -0.2930  0.5710 -0.0786
 7301SOL    HW133365   3.161   4.161   6.466 -1.3006 -0.6822  0.7489
 7301SOL    HW233366   3.035   4.100   6.422  3.4421 -2.3260 -0.1184
 7302SOL     OW33367   4.116   4.385   0.734 -0.3304  0.4824  0.0899
 7302SOL    HW133368   4.186   4.403   0.797  0.7346 -2.8886 -0.0898
 7302SOL    HW233369   4.055   4.445   0.776 -0.2691 -1.2694  2.7179
 7303SOL     OW33370   3.209   1.187   2.973 -0.2427  0.2158 -0.2790
 7303SOL    HW133371   3.138   1.236   2.932 -0.2553 -0.7865 -1.4433
 7303SOL    HW233372   3.194   1.093   2.960 -0.4739  0.3239 -0.7874
 7304SOL     OW33373   4.576   0.109  10.981  0.2432 -0.2353  0.1300
 7304SOL    HW133374   4.632   0.053  11.035  0.2901 -0.9166 -0.6226
 7304SOL    HW233375   4.610   0.070  10.901 -0.0062 -0.4394  0.1240
 7305SOL     OW33376   2.051   1.862   4.633  0.1774  0.4357  0.4832
 7305SOL    HW133377   2.008   1.776   4.630  2.6229 -0.7325 -1.2116
 7305SOL    HW233378   1.984   1.906   4.685 -0.2258 -0.6570  0.8986
 7306SOL     OW33379   1.986   1.422   4.476 -0.4650  0.2721 -0.1784
 7306SOL    HW133380   1.897   1.454   4.462 -0.4883 -0.0560 -0.7481
 7306SOL    HW233381   2.013   1.406   4.386 -1.3547 -1.6926 -0.0949
 7307SOL     OW33382   1.188   2.225  12.229  0.3830  0.3083  0.0720
 7307SOL    HW133383   1.110   2.236  12.284 -0.3113  0.4013 -0.9331
 7307SOL    HW233384   1.178   2.136  12.194  1.3788  0.2492 -0.0610
 7308SOL     OW33385   0.658   1.081  12.397  0.6236 -0.2935  0.2846
 7308SOL    HW133386   0.710   1.008  12.432 -0.7754 -0.3337  2.2950
 7308SOL    HW233387   0.711   1.087  12.317  0.4072  1.1274  0.2387
 7309SOL     OW33388   3.637   0.322   8.475 -0.9072  0.2634 -0.5085
 7309SOL    HW133389   3.559   0.265   8.479  0.3533 -1.4252  0.0855
 7309SOL    HW233390   3.597   0.409   8.470  0.7612  0.9176 -2.2607
 7310SOL     OW33391   1.534   4.098   4.973  0.3514  0.0919  0.2763
 7310SOL    HW133392   1.610   4.041   4.968  0.4168  0.2513 -0.5366
 7310SOL    HW233393   1.468   4.034   4.945 -0.0755  0.9308 -0.6076
 7311SOL     OW33394   4.213   1.909   5.330  0.5519 -0.5838 -0.3949
 7311SOL    HW133395   4.157   1.949   5.263  0.3479 -1.7632 -0.9145
 7311SOL    HW233396   4.154   1.911   5.405  0.1354  0.1083 -0.7417
 7312SOL     OW33397   3.335   4.678   7.891  0.3710 -0.2873 -0.1315
 7312SOL    HW133398   3.299   0.036   7.857  0.7313  0.0244  0.2170
 7312SOL    HW233399   3.353   4.650   7.802  1.7600  0.7228 -0.1719
 7313SOL     OW33400   3.687   0.378   7.195  0.3161 -0.0232 -0.0874
 7313SOL    HW133401   3.666   0.451   7.138  0.9058 -1.1741 -1.7859
 7313SOL    HW233402   3.670   0.431   7.273 -0.9465  1.9957 -1.7357
 7314SOL     OW33403   4.184   3.392   6.058  0.6201  0.2135 -0.6457
 7314SOL    HW133404   4.149   3.305   6.041 -2.8386  1.8753 -1.9618
 7314SOL    HW233405   4.136   3.443   5.993  2.3898  0.3632 -1.8227
 7315SOL     OW33406   1.416   1.433   3.517  0.2895  0.2160 -0.5557
 7315SOL    HW133407   1.464   1.360   3.479  2.5071  1.8239 -0.7797
 7315SOL    HW233408   1.445   1.490   3.447 -2.0124  2.3685  0.2159
 7316SOL     OW33409   0.970   3.210   7.262  0.2977 -0.1004 -0.2245
 7316SOL    HW133410   0.924   3.177   7.339  0.2658  3.2620  1.2212
 7316SOL    HW233411   0.900   3.245   7.205  1.3549  0.5198 -1.1415
 7317SOL     OW33412   0.683   0.756   4.484 -0.1066  0.0390 -0.2896
 7317SOL    HW133413   0.611   0.815   4.460  0.2015  0.4471 -0.2123
 7317SOL    HW233414   0.746   0.792   4.422 -0.5760  3.0907  0.9490
 7318SOL     OW33415   3.326   4.709   2.318 -0.0146 -0.5211  0.0366
 7318SOL    HW133416   3.359   0.049   2.383  1.7675  0.7021 -2.0450
 7318SOL    HW233417   3.406   4.663   2.291  1.3096  0.7940  1.7002
 7319SOL     OW33418   2.939   0.062   4.724  0.1826 -0.5765  0.0342
 7319SOL    HW133419   3.012   0.076   4.663 -0.5875 -1.5606 -1.1154
 7319SOL    HW233420   2.875   0.030   4.660 -2.1010  1.0179  1.5478
 7320SOL     OW33421   3.764   1.006   4.520  0.5369 -0.3204  0.0005
 7320SOL    HW133422   3.749   1.055   4.439  1.2958  2.4303  1.5212
 7320SOL    HW233423   3.697   1.039   4.579  1.9347  2.9335 -0.2555
 7321SOL     OW33424   2.515   4.281   0.986  0.0065  0.7738  0.2096
 7321SOL    HW133425   2.445   4.345   0.976 -0.6805  0.3051  1.9284
 7321SOL    HW233426   2.550   4.322   1.065  1.2563 -0.0259  0.0708
 7322SOL     OW33427   2.093   2.119  13.339  0.0893  0.0391 -0.2841
 7322SOL    HW133428   2.126   2.081  13.258 -2.0825 -3.4782  0.4597
 7322SOL    HW233429   2.162   2.084  13.396  0.1678 -1.2892 -1.2017
 7323SOL     OW33430   3.837   1.594  11.186  0.8233  0.0959 -0.0688
 7323SOL    HW133431   3.755   1.623  11.225  1.6960 -1.2867  2.7992
 7323SOL    HW233432   3.904   1.643  11.232 -0.2187  2.4191 -1.0597
 7324SOL     OW33433   1.076   1.396  14.059 -0.1729  0.0892  0.0383
 7324SOL    HW133434   1.092   1.438  13.974  0.2927  2.7017  1.4514
 7324SOL    HW233435   1.142   1.442  14.110 -0.0252  0.2639 -0.3065
 7325SOL     OW33436   1.752   1.010   8.874 -0.2423 -0.2258  0.6340
 7325SOL    HW133437   1.764   1.013   8.969 -0.0979  0.6280  0.5917
 7325SOL    HW233438   1.660   1.034   8.863  0.1672  0.3353 -1.6515
 7326SOL     OW33439   3.909   3.256   8.014 -0.0621  0.3673 -0.7077
 7326SOL    HW133440   3.850   3.314   8.062 -0.0255 -0.1333 -0.0708
 7326SOL    HW233441   3.922   3.191   8.082  1.8319  1.3738 -0.0933
 7327SOL     OW33442   3.836   0.303   7.961 -0.1442 -0.5961  0.0971
 7327SOL    HW133443   3.921   0.271   7.930  0.6692  1.5189  0.1269
 7327SOL    HW233444   3.850   0.396   7.980 -0.4864 -0.2233 -1.4846
 7328SOL     OW33445   3.010   2.948   4.806  0.1062  0.2017  0.4249
 7328SOL    HW133446   3.067   2.972   4.879  1.9436 -1.3590 -0.4995
 7328SOL    HW233447   2.963   3.030   4.817  1.2812  1.0148 -0.7009
 7329SOL     OW33448   1.778   3.150  14.131 -0.2180 -0.0692  0.1421
 7329SOL    HW133449   1.860   3.195  14.109  0.5475 -0.9474  1.2137
 7329SOL    HW233450   1.719   3.192  14.068  1.7182  0.3516 -1.3949
 7330SOL     OW33451   2.260   0.257   7.401  0.1408 -0.2691  0.6401
 7330SOL    HW133452   2.172   0.258   7.364  0.9294 -0.5072 -1.2459
 7330SOL    HW233453   2.232   0.280   7.490 -0.6570  0.3547  0.2318
 7331SOL     OW33454   4.468   3.443   5.240  0.2647  0.1501 -0.2211
 7331SOL    HW133455   4.530   3.372   5.258 -0.2971 -0.0675  0.8158
 7331SOL    HW233456   4.465   3.442   5.144 -0.5793 -1.5782 -0.1787
 7332SOL     OW33457   2.530   3.320   6.559 -0.5323  0.2496  0.2269
 7332SOL    HW133458   2.625   3.307   6.552 -0.9155 -1.8534 -1.1302
 7332SOL    HW233459   2.505   3.332   6.467 -0.5866  0.1422  0.2273
 7333SOL     OW33460   2.685   4.050  16.015  0.1265  0.2892 -0.5273
 7333SOL    HW133461   2.594   4.046  16.044 -0.2319 -1.4067 -1.8626
 7333SOL    HW233462   2.678   3.989  15.942  0.1385 -0.3237 -0.0240
 7334SOL     OW33463   0.774   3.614   8.355  0.1305  0.1899 -0.0998
 7334SOL    HW133464   0.804   3.576   8.438 -0.1678  1.5955  0.6393
 7334SOL    HW233465   0.809   3.703   8.356  1.2944 -0.2868  1.8734
 7335SOL     OW33466   0.234   1.660   2.830  0.3410 -0.4786 -0.3089
 7335SOL    HW133467   0.189   1.575   2.830 -0.1848 -0.2029  0.1716
 7335SOL    HW233468   0.201   1.695   2.913  1.2230  1.5532 -0.8051
 7336SOL     OW33469   4.409   4.267  17.046 -0.1040 -0.2868  0.2409
 7336SOL    HW133470   4.425   4.177  17.074 -0.6525 -0.4424  0.0550
 7336SOL    HW233471   4.324   4.266  17.003  0.6729  2.4828 -1.3337
 7337SOL     OW33472   0.305   1.370   0.701  0.0670  0.4414 -0.1879
 7337SOL    HW133473   0.356   1.290   0.688  2.1277  1.9609 -1.4799
 7337SOL    HW233474   0.274   1.368   0.792 -1.1467 -1.8650 -0.6432
 7338SOL     OW33475   0.295   0.017   7.943  0.6056  0.1443 -0.0476
 7338SOL    HW133476   0.282   4.653   7.979  3.6765  0.0356  0.8007
 7338SOL    HW233477   0.282   0.072   8.021 -1.3922 -2.4639  1.4407
 7339SOL     OW33478   2.611   3.787   2.649 -0.0825  0.4131 -0.5750
 7339SOL    HW133479   2.574   3.866   2.609 -0.0124  1.0276  0.5734
 7339SOL    HW233480   2.698   3.821   2.669  1.0356 -2.3771 -0.7436
 7340SOL     OW33481   2.317   4.336   5.798  0.4321 -0.0392  0.1053
 7340SOL    HW133482   2.271   4.419   5.783  0.6109  0.1524  0.6127
 7340SOL    HW233483   2.272   4.313   5.879  1.0238  3.1643  1.3483
 7341SOL     OW33484   2.774   2.970   0.655 -0.0675  0.0722 -0.5631
 7341SOL    HW133485   2.807   3.025   0.726 -1.0798  0.4372 -0.3690
 7341SOL    HW233486   2.802   2.885   0.690 -0.7230  0.1683  0.2164
 7342SOL     OW33487   0.593   0.303   9.009  0.1280  0.2667 -0.3205
 7342SOL    HW133488   0.656   0.230   9.011 -0.0770  0.0856 -0.4660
 7342SOL    HW233489   0.631   0.373   9.062 -0.7989 -0.9113  1.9245
 7343SOL     OW33490   2.617   3.561   9.842  0.0772 -0.4308  0.0225
 7343SOL    HW133491   2.622   3.588   9.750 -0.7150  0.5708  0.2711
 7343SOL    HW233492   2.543   3.612   9.875  1.5712  1.4753  0.4367
 7344SOL     OW33493   3.267   3.814   8.953  0.2508 -0.2966  0.8543
 7344SOL    HW133494   3.258   3.895   8.902 -1.0060 -1.9430 -1.5244
 7344SOL    HW233495   3.272   3.856   9.039  1.3623 -0.6611  0.9660
 7345SOL     OW33496   3.288   0.320   3.191  0.4351  0.5964  0.0828
 7345SOL    HW133497   3.265   0.381   3.121 -0.1132 -0.0529 -0.3029
 7345SOL    HW233498   3.358   0.270   3.148 -0.3503  0.8363 -1.4957
 7346SOL     OW33499   3.261   3.202   5.965 -0.0558 -0.1833 -0.2873
 7346SOL    HW133500   3.355   3.218   5.959  0.1465 -1.6209 -0.9624
 7346SOL    HW233501   3.230   3.282   6.009  1.3709  1.1759 -1.7643
 7347SOL     OW33502   3.181   0.775   9.896 -0.2380  0.2026 -0.1102
 7347SOL    HW133503   3.233   0.832   9.952 -2.9135  1.8680  0.6922
 7347SOL    HW233504   3.104   0.827   9.869  0.5455 -0.5170 -3.6212
 7348SOL     OW33505   1.986   3.500   6.565 -0.2842 -0.4131 -0.1834
 7348SOL    HW133506   1.944   3.517   6.480 -1.4634  0.3275  0.5346
 7348SOL    HW233507   2.052   3.438   6.536  1.0605  0.3146  1.3102
 7349SOL     OW33508   1.277   2.658   0.987  0.4022  0.5610  0.2074
 7349SOL    HW133509   1.312   2.747   0.989  1.8302  0.0306 -0.7208
 7349SOL    HW233510   1.348   2.607   1.024  0.5410 -2.0385 -3.6314
 7350SOL     OW33511   1.187   0.163   6.965  0.4518  0.4492  0.5802
 7350SOL    HW133512   1.204   0.089   7.024  3.3710  0.4994 -0.1686
 7350SOL    HW233513   1.114   0.125   6.916  0.4792 -2.5570  2.8051
 7351SOL     OW33514   0.731   1.988   0.922  0.9929  0.4783  0.5528
 7351SOL    HW133515   0.670   2.050   0.962 -1.8728 -1.8475 -0.2634
 7351SOL    HW233516   0.753   2.028   0.838 -0.3629  0.2918  0.1144
 7352SOL     OW33517   0.892   1.446   3.288  0.0428 -0.1431  0.2869
 7352SOL    HW133518   0.833   1.501   3.339 -0.1226  0.7267 -0.8494
 7352SOL    HW233519   0.892   1.366   3.341  0.7217 -0.4647 -0.1977
 7353SOL     OW33520   3.972   2.388  16.359 -0.4963  0.1363  0.2113
 7353SOL    HW133521   3.916   2.413  16.286  0.1216 -0.2183 -0.3821
 7353SOL    HW233522   3.983   2.478  16.389  0.9583 -0.0903  0.3590
 7354SOL     OW33523   0.501   0.964   5.176 -0.1239 -0.8101  0.1553
 7354SOL    HW133524   0.489   0.910   5.098 -1.6737 -1.0653  0.5849
 7354SOL    HW233525   0.449   0.925   5.246  1.1854 -1.4110  0.7931
 7355SOL     OW33526   0.272   3.561   7.716  0.5468  0.3288 -0.1813
 7355SOL    HW133527   0.356   3.558   7.763 -0.0917  1.7693  1.0786
 7355SOL    HW233528   0.299   3.617   7.643  0.5499 -0.4393 -0.7668
 7356SOL     OW33529   4.145   3.160   6.298 -0.1509  0.3967  0.5295
 7356SOL    HW133530   4.076   3.219   6.328 -1.3857  0.5390 -2.6323
 7356SOL    HW233531   4.145   3.102   6.374 -0.9036 -1.0516 -0.5791
 7357SOL     OW33532   1.482   4.720  10.188  0.0768  0.1937  0.2340
 7357SOL    HW133533   1.455   4.712  10.280  1.5864 -1.1220  0.5751
 7357SOL    HW233534   1.513   0.088  10.191 -1.3387  0.6403  1.0639
 7358SOL     OW33535   3.847   3.719   3.870  0.3144 -0.2072  0.0111
 7358SOL    HW133536   3.874   3.663   3.797  1.2719  2.0094 -1.3147
 7358SOL    HW233537   3.784   3.658   3.909 -1.2668  1.0572 -0.6144
 7359SOL     OW33538   0.243   4.484   7.949  0.1447 -0.2251  0.4452
 7359SOL    HW133539   0.170   4.513   7.894 -0.5961 -2.2070  0.3779
 7359SOL    HW233540   0.275   4.419   7.886  1.3340 -0.5260  1.3636
 7360SOL     OW33541   0.513   3.346  13.078 -0.5618 -0.3145 -0.4017
 7360SOL    HW133542   0.555   3.432  13.081  0.6422 -0.9800  2.1246
 7360SOL    HW233543   0.583   3.293  13.041 -0.6722 -0.6225 -0.1714
 7361SOL     OW33544   3.092   1.065   0.402 -0.1935 -0.0328  0.7342
 7361SOL    HW133545   3.173   1.052   0.451  1.1609  0.6827 -1.2885
 7361SOL    HW233546   3.051   1.135   0.452  0.9949  0.4384  1.0358
 7362SOL     OW33547   3.295   2.715  13.192  0.7390  0.0680  0.0694
 7362SOL    HW133548   3.240   2.669  13.128  1.7950  0.0703 -0.8158
 7362SOL    HW233549   3.343   2.772  13.133 -0.8193 -1.0524 -2.3047
 7363SOL     OW33550   4.124   0.189   0.191 -0.2900 -0.3493  0.0856
 7363SOL    HW133551   4.158   0.109   0.151  1.3406  0.0461  0.6567
 7363SOL    HW233552   4.164   0.190   0.278  0.7823  0.2917 -0.4164
 7364SOL     OW33553   3.872   0.745   4.749  0.2937  0.1706 -0.1241
 7364SOL    HW133554   3.850   0.659   4.713  3.4563 -0.1988 -1.1675
 7364SOL    HW233555   3.889   0.716   4.838 -0.7897 -1.1948 -0.3421
 7365SOL     OW33556   0.297   4.175   8.092 -0.0413  0.4390 -0.0001
 7365SOL    HW133557   0.369   4.119   8.123 -1.1370 -0.8124  0.3024
 7365SOL    HW233558   0.292   4.151   8.000 -0.0538 -1.6661  0.5402
 7366SOL     OW33559   1.124   2.606   6.574  0.1579 -0.4566 -0.2395
 7366SOL    HW133560   1.160   2.527   6.534  0.4512  0.3307 -1.5326
 7366SOL    HW233561   1.109   2.660   6.496 -2.2234  0.3402  0.7831
 7367SOL     OW33562   3.534   3.834   4.119  0.2158  0.1503  0.2297
 7367SOL    HW133563   3.505   3.924   4.134  0.2717  0.6413 -2.5911
 7367SOL    HW233564   3.538   3.783   4.199 -3.0462  0.2950  0.5141
 7368SOL     OW33565   0.411   1.853   5.638  0.2444 -0.4865 -0.1192
 7368SOL    HW133566   0.382   1.910   5.567 -0.0225  0.2199  0.5514
 7368SOL    HW233567   0.453   1.776   5.600  1.2706  0.8971 -1.8083
 7369SOL     OW33568   1.110   1.938   7.287 -0.0527  0.0551 -0.0725
 7369SOL    HW133569   1.089   1.991   7.364 -3.7560 -0.8602 -0.4515
 7369SOL    HW233570   1.125   2.014   7.231  0.7130  0.9122  1.2977
 7370SOL     OW33571   2.237   2.498   7.986 -0.9417 -0.5556  0.2003
 7370SOL    HW133572   2.320   2.541   7.965 -1.6039  0.4058 -0.4612
 7370SOL    HW233573   2.254   2.482   8.079 -1.5076 -0.0023  0.4035
 7371SOL     OW33574   4.186   2.222  13.014  0.0124  0.3426 -0.3715
 7371SOL    HW133575   4.145   2.266  13.089 -0.3836  1.3693 -1.1897
 7371SOL    HW233576   4.114   2.199  12.955 -0.7933  2.5952 -0.2953
 7372SOL     OW33577   0.115   2.609   2.784  0.7184 -0.3353 -0.0598
 7372SOL    HW133578   0.115   2.601   2.879 -1.8788  0.9896  0.0446
 7372SOL    HW233579   0.205   2.588   2.757  1.1917 -0.1370  1.3426
 7373SOL     OW33580   2.522   0.419  10.833 -0.1480  0.2124 -0.6126
 7373SOL    HW133581   2.539   0.507  10.865 -2.2781  0.4467 -0.1405
 7373SOL    HW233582   2.448   0.394  10.888 -0.1737  1.1000 -0.2539
 7374SOL     OW33583   1.945   1.287   2.459 -0.4502 -0.3715 -0.7289
 7374SOL    HW133584   2.011   1.325   2.518 -2.5988  0.5622  1.0667
 7374SOL    HW233585   1.983   1.296   2.371 -2.3273 -0.6582 -1.5629
 7375SOL     OW33586   0.510   3.688   8.254 -0.6430  0.6303 -0.2161
 7375SOL    HW133587   0.488   3.635   8.330 -0.7518 -0.2240 -0.8513
 7375SOL    HW233588   0.581   3.640   8.211 -0.5559 -1.2416  2.0514
 7376SOL     OW33589   4.272   4.340   5.128 -0.3381  0.0303 -0.6032
 7376SOL    HW133590   4.245   4.388   5.207  0.8517 -2.0960  1.1067
 7376SOL    HW233591   4.260   4.249   5.154 -4.1237 -0.0152 -2.4791
 7377SOL     OW33592   3.802   0.293   7.516  0.2457  0.0465 -0.1811
 7377SOL    HW133593   3.748   0.372   7.521  0.1806  0.1542 -2.4811
 7377SOL    HW233594   3.743   0.234   7.470  0.6819 -0.2790 -0.3262
 7378SOL     OW33595   3.645   0.680   2.572 -0.8395  0.3790 -0.0493
 7378SOL    HW133596   3.700   0.614   2.615 -2.7178 -0.5105  1.0424
 7378SOL    HW233597   3.566   0.695   2.625 -3.9745 -4.8691 -3.2304
 7379SOL     OW33598   0.011   2.724   7.934  0.1477 -0.5056 -0.4228
 7379SOL    HW133599   0.036   2.717   8.026 -0.5794  2.2804 -0.0295
 7379SOL    HW233600   4.699   2.636   7.919 -0.3715 -0.0640 -1.8382
 7380SOL     OW33601   3.473   1.444   5.177  0.6110 -0.2845  0.4136
 7380SOL    HW133602   3.553   1.393   5.169 -0.3379 -1.6345 -0.4410
 7380SOL    HW233603   3.400   1.386   5.200  0.7599 -0.3893  0.6145
 7381SOL     OW33604   4.122   1.431  11.845  0.4911 -0.2318  0.6505
 7381SOL    HW133605   4.080   1.425  11.759  2.8724  0.4507 -0.5534
 7381SOL    HW233606   4.048   1.440  11.905 -1.1556 -0.9798 -1.2670
 7382SOL     OW33607   4.199   3.381   6.744 -0.3503  0.0445 -0.2744
 7382SOL    HW133608   4.170   3.347   6.829  0.6368 -0.4637 -0.1429
 7382SOL    HW233609   4.120   3.432   6.731 -0.5892 -0.1289  0.4774
 7383SOL     OW33610   2.453   4.197   0.470 -0.5552 -0.1592  0.9722
 7383SOL    HW133611   2.508   4.212   0.547  1.6117 -0.3453 -0.5591
 7383SOL    HW233612   2.403   4.278   0.478 -0.2942 -0.0208  1.2096
 7384SOL     OW33613   1.639   1.943  16.122  0.6298  0.9802  0.3305
 7384SOL    HW133614   1.604   2.002  16.188  0.4327  0.5425  0.6152
 7384SOL    HW233615   1.669   1.873  16.180  2.6722  1.2493 -0.3941
 7385SOL     OW33616   0.595   3.253   6.399  0.0238 -0.4675  0.1160
 7385SOL    HW133617   0.539   3.177   6.382 -2.3698  0.9949  1.4847
 7385SOL    HW233618   0.677   3.207   6.419  0.4319  1.6229  3.1547
 7386SOL     OW33619   0.312   2.133   0.955 -0.0878  0.2798  0.6867
 7386SOL    HW133620   0.231   2.144   0.905  1.5036  0.0813 -1.9157
 7386SOL    HW233621   0.289   2.207   1.012 -1.3526  0.9333 -0.6591
 7387SOL     OW33622   0.966   2.630   4.023 -0.3441  0.0830 -0.2966
 7387SOL    HW133623   0.949   2.576   3.946  0.2673  1.5660 -1.4643
 7387SOL    HW233624   0.925   2.709   3.987 -3.1564 -0.3253  1.9797
 7388SOL     OW33625   0.613   4.124  16.634 -0.1458  0.1495  0.4891
 7388SOL    HW133626   0.520   4.146  16.644 -0.4090 -1.9955  2.7971
 7388SOL    HW233627   0.622   4.098  16.542  0.2465  0.8021  0.3389
 7389SOL     OW33628   1.480   0.812   8.267  0.3420  0.3395 -0.1925
 7389SOL    HW133629   1.456   0.792   8.357 -1.7359 -1.8953 -1.2307
 7389SOL    HW233630   1.405   0.843   8.217  1.4557  0.9077 -1.5066
 7390SOL     OW33631   3.063   4.162   4.894  0.2024  0.0313  0.1323
 7390SOL    HW133632   3.003   4.089   4.880 -0.4005  0.2252  1.5922
 7390SOL    HW233633   3.078   4.192   4.805  1.7041 -0.5679  0.1956
 7391SOL     OW33634   3.835   0.639   7.940  0.2605 -0.3123  0.0842
 7391SOL    HW133635   3.920   0.646   7.983 -0.1593 -0.6872  0.9592
 7391SOL    HW233636   3.771   0.666   8.006 -0.5328  0.7677 -1.1244
 7392SOL     OW33637   2.745   2.581   7.733  0.0779  0.4854  0.4222
 7392SOL    HW133638   2.710   2.659   7.776  0.0361  0.7098 -0.0237
 7392SOL    HW233639   2.747   2.606   7.641  1.6519 -1.6000 -0.1143
 7393SOL     OW33640   1.584   2.861   3.952 -0.1514  0.5705  0.0656
 7393SOL    HW133641   1.619   2.947   3.933  1.6240 -0.3582 -0.8344
 7393SOL    HW233642   1.589   2.816   3.867  1.1187  0.2902  0.2946
 7394SOL     OW33643   3.895   2.818  14.174  0.0090 -0.2899 -0.0611
 7394SOL    HW133644   3.806   2.821  14.208 -0.1825  0.0100 -0.5966
 7394SOL    HW233645   3.878   2.766  14.096  0.1827 -2.5057  1.3630
 7395SOL     OW33646   1.223   3.742   7.937  0.0315  0.3195 -0.7103
 7395SOL    HW133647   1.249   3.681   8.006  0.3115  1.3977  0.1321
 7395SOL    HW233648   1.293   3.806   7.945 -0.8775  1.5056 -2.2380
 7396SOL     OW33649   0.693   2.134  15.999 -0.3465  0.2572 -0.4558
 7396SOL    HW133650   0.734   2.072  16.061  1.8532  1.3217 -0.8483
 7396SOL    HW233651   0.772   2.157  15.949  0.5686  0.8571  1.2681
 7397SOL     OW33652   3.206   3.752   8.587 -0.3500 -0.2717  0.3603
 7397SOL    HW133653   3.287   3.763   8.637 -2.0613 -0.9937  3.2934
 7397SOL    HW233654   3.213   3.669   8.540 -2.8070 -0.5589  0.4788
 7398SOL     OW33655   3.937   2.817   4.584 -0.1001  0.2399  1.0439
 7398SOL    HW133656   3.939   2.878   4.511  1.2631 -0.8691  0.1429
 7398SOL    HW233657   3.905   2.874   4.653 -1.8369  0.1555  0.3205
 7399SOL     OW33658   3.511   1.990  15.856 -0.0386  0.2569  0.2462
 7399SOL    HW133659   3.534   1.911  15.905  0.3278  0.3900  0.2918
 7399SOL    HW233660   3.516   1.965  15.764  0.6364  2.5235 -0.3416
 7400SOL     OW33661   4.159   4.183  13.294 -0.3833  0.1192  0.5818
 7400SOL    HW133662   4.115   4.266  13.275 -0.4528 -0.1724 -0.5510
 7400SOL    HW233663   4.227   4.187  13.226 -2.2477  0.5578 -1.2703
 7401SOL     OW33664   2.874   2.776   5.275  0.3959 -0.6608  0.2182
 7401SOL    HW133665   2.822   2.843   5.231  3.0084  0.7829 -0.7141
 7401SOL    HW233666   2.828   2.777   5.359 -0.7322 -3.6341 -0.3553
 7402SOL     OW33667   3.283   1.097   7.814 -0.2544 -0.1706 -0.8487
 7402SOL    HW133668   3.371   1.121   7.786  0.7789 -3.3116 -0.3320
 7402SOL    HW233669   3.283   1.142   7.899 -1.5549 -0.3876 -0.7349
 7403SOL     OW33670   2.760   1.621   7.878  0.7610  0.0126 -0.2969
 7403SOL    HW133671   2.840   1.621   7.824  1.5238 -1.1149  0.8431
 7403SOL    HW233672   2.790   1.561   7.946 -0.2727 -0.2620 -0.0870
 7404SOL     OW33673   0.526   1.012  15.872  0.1867  0.0708 -0.4830
 7404SOL    HW133674   0.452   0.960  15.840  1.7683 -2.5655  0.0916
 7404SOL    HW233675   0.484   1.096  15.886 -1.0239 -0.9343  1.8978
 7405SOL     OW33676   2.027   3.768  11.951  0.0545 -0.2737 -0.0362
 7405SOL    HW133677   1.993   3.776  12.040  1.3594 -1.0120  0.5166
 7405SOL    HW233678   2.113   3.729  11.964 -0.4006 -1.9603 -2.0591
 7406SOL     OW33679   0.528   3.116   8.307  0.2269  0.1016  0.0628
 7406SOL    HW133680   0.555   3.077   8.223  0.5115  0.3636  0.0322
 7406SOL    HW233681   0.594   3.095   8.373  0.8134 -0.4585 -0.6921
 7407SOL     OW33682   2.848   1.768  15.947  0.0430  0.0496 -0.2100
 7407SOL    HW133683   2.932   1.773  15.902  0.1362  1.7464  0.1310
 7407SOL    HW233684   2.878   1.711  16.018 -0.8995  2.5408  2.2015
 7408SOL     OW33685   3.860   4.206  10.615 -0.3752 -0.3712 -0.1612
 7408SOL    HW133686   3.878   4.233  10.526  1.0704  0.6231  0.4345
 7408SOL    HW233687   3.789   4.142  10.614  0.1588 -1.0477  2.5864
 7409SOL     OW33688   2.606   0.862   8.857  0.7788 -0.0031  0.0429
 7409SOL    HW133689   2.515   0.835   8.859  0.4020  1.2590 -0.0487
 7409SOL    HW233690   2.603   0.952   8.825  0.1216 -0.4102 -1.0342
 7410SOL     OW33691   3.372   1.773  17.000 -0.0116  0.0114  0.9747
 7410SOL    HW133692   3.445   1.829  17.025  0.8841 -0.6614 -0.1693
 7410SOL    HW233693   3.300   1.827  17.035 -1.9782 -0.5873 -2.1467
 7411SOL     OW33694   3.275   0.835   4.123  0.1817 -0.8364  0.1666
 7411SOL    HW133695   3.256   0.772   4.193 -1.6445 -1.3726 -0.7891
 7411SOL    HW233696   3.257   0.774   4.051 -1.2704  1.2432 -1.2190
 7412SOL     OW33697   3.459   3.955  13.971  0.4765 -0.2332 -0.2139
 7412SOL    HW133698   3.479   4.048  13.959 -0.8390  0.2528  1.4144
 7412SOL    HW233699   3.364   3.952  13.964  0.4271 -2.5007  1.2015
 7413SOL     OW33700   2.671   4.006  11.611  0.6698 -0.1127  0.2384
 7413SOL    HW133701   2.729   3.934  11.637 -0.5849 -1.2190 -0.0649
 7413SOL    HW233702   2.713   4.080  11.656 -0.2753  1.9936 -2.3427
 7414SOL     OW33703   2.040   0.770   5.256  0.3663  0.1622 -0.4466
 7414SOL    HW133704   1.985   0.844   5.229  1.9828  1.2883 -0.6448
 7414SOL    HW233705   1.984   0.753   5.331 -0.0684  1.4592 -0.4716
 7415SOL     OW33706   2.821   1.303   5.084 -0.0851 -0.0956  0.1193
 7415SOL    HW133707   2.844   1.337   5.170  0.2542  1.7180 -0.7008
 7415SOL    HW233708   2.804   1.210   5.101 -0.7245  0.0234  0.1362
 7416SOL     OW33709   1.319   2.089   6.247  0.5117  0.1612  0.4838
 7416SOL    HW133710   1.350   2.015   6.195 -1.6060 -0.2133 -0.2642
 7416SOL    HW233711   1.363   2.167   6.212  0.6728  0.6412  1.7580
 7417SOL     OW33712   0.365   4.400   5.455 -0.9315 -0.0763  0.0702
 7417SOL    HW133713   0.395   4.405   5.365  0.1943  1.0016  0.5019
 7417SOL    HW233714   0.432   4.339   5.488 -0.0622 -0.6536 -2.7765
 7418SOL     OW33715   3.213   3.304   5.122  0.4209  1.1453 -0.6007
 7418SOL    HW133716   3.151   3.325   5.193  1.6796 -0.9439  1.1266
 7418SOL    HW233717   3.207   3.381   5.066 -2.8291  1.7598  0.5554
 7419SOL     OW33718   0.545   3.779  15.960  0.5134  0.1519 -1.2255
 7419SOL    HW133719   0.519   3.750  16.048  1.4909 -0.6381 -1.2017
 7419SOL    HW233720   0.549   3.699  15.907 -0.7345  0.1169 -1.2799
 7420SOL     OW33721   3.399   2.028   2.448  0.1204 -0.1846  0.2304
 7420SOL    HW133722   3.426   1.954   2.394 -0.9595 -1.1537  1.0118
 7420SOL    HW233723   3.353   1.979   2.517 -1.6313  1.0091 -0.0745
 7421SOL     OW33724   4.046   2.139   8.036  0.7385 -0.3376  0.6778
 7421SOL    HW133725   4.092   2.184   8.108  0.5488 -3.3195  2.6605
 7421SOL    HW233726   3.954   2.155   8.056  0.8429  1.0798 -0.0018
 7422SOL     OW33727   0.026   3.040   3.234  0.0940  0.3566 -0.1480
 7422SOL    HW133728   0.060   3.094   3.163  0.4832 -1.0255 -1.0031
 7422SOL    HW233729   0.043   2.953   3.198  1.2942  1.1529 -1.4805
 7423SOL     OW33730   2.186   2.238  10.099 -0.6480 -0.1995 -0.1044
 7423SOL    HW133731   2.199   2.144  10.097  2.6807  0.2878 -1.3268
 7423SOL    HW233732   2.245   2.271  10.167 -2.9951  1.2834  1.2284
 7424SOL     OW33733   0.496   4.218   1.770  0.3411 -0.0353  0.2068
 7424SOL    HW133734   0.450   4.247   1.692  0.5226  0.5691  0.3253
 7424SOL    HW233735   0.462   4.134   1.801 -1.0838  0.8547  1.0739
 7425SOL     OW33736   2.575   3.832  14.694  0.1415  0.1023  0.2109
 7425SOL    HW133737   2.544   3.764  14.754 -3.4423  0.6420 -1.0239
 7425SOL    HW233738   2.590   3.779  14.616  0.7454  0.7225 -0.0964
 7426SOL     OW33739   2.544   4.611   3.401  0.1375 -0.3533 -0.0754
 7426SOL    HW133740   2.548   4.675   3.473  1.3162 -0.3521 -0.1486
 7426SOL    HW233741   2.481   4.645   3.338 -0.4786 -0.5302  0.4385
 7427SOL     OW33742   1.528   3.512   7.683  0.2224  0.2923 -0.3251
 7427SOL    HW133743   1.468   3.582   7.655  0.6405  0.3885 -0.9764
 7427SOL    HW233744   1.598   3.557   7.731 -0.7928  0.5548  0.9171
 7428SOL     OW33745   1.374   3.194   2.868  0.7362 -0.3747  0.0895
 7428SOL    HW133746   1.437   3.164   2.802  2.0801  0.5533  0.9497
 7428SOL    HW233747   1.338   3.260   2.809  0.3991  0.7220  1.5538
 7429SOL     OW33748   2.620   4.134   7.589 -0.5812  0.2912  0.0439
 7429SOL    HW133749   2.662   4.149   7.673 -0.3419 -1.2791  0.2197
 7429SOL    HW233750   2.632   4.039   7.576  1.4398  0.2922  1.9921
 7430SOL     OW33751   3.465   2.860   3.282 -0.0555  0.3345 -0.3819
 7430SOL    HW133752   3.504   2.905   3.207  1.4437  0.8463  0.7011
 7430SOL    HW233753   3.468   2.773   3.244 -2.0807  0.4298 -0.7971
 7431SOL     OW33754   2.165   1.639   4.285 -0.1918  0.0631  0.0900
 7431SOL    HW133755   2.223   1.564   4.300 -1.2321 -0.7015  0.3082
 7431SOL    HW233756   2.087   1.600   4.325 -0.5219  1.2719  0.6103
 7432SOL     OW33757   2.296   1.087   1.949  0.4467 -0.0020 -1.1075
 7432SOL    HW133758   2.225   1.083   2.012 -0.3161  0.2490 -1.9506
 7432SOL    HW233759   2.269   1.025   1.882  1.0325 -2.8353  1.2777
 7433SOL     OW33760   2.509   2.972   1.742  0.5451  0.2227  0.2433
 7433SOL    HW133761   2.544   2.950   1.656  1.6523  0.7493  0.5666
 7433SOL    HW233762   2.462   2.891   1.761  0.1659  0.1874 -0.8380
 7434SOL     OW33763   4.687   3.529  15.277 -0.0582  0.5249  0.9081
 7434SOL    HW133764   4.619   3.530  15.210  2.0962 -1.5913 -1.2771
 7434SOL    HW233765   0.008   3.448  15.253 -0.9830  0.1376  0.5118
 7435SOL     OW33766   4.358   2.658   8.193  0.1265  0.1170  0.2376
 7435SOL    HW133767   4.381   2.659   8.286  0.0269  3.7608  0.2373
 7435SOL    HW233768   4.419   2.722   8.157 -1.1026  2.2454  1.9707
 7436SOL     OW33769   0.010   1.732   4.611  0.0512 -0.1649  0.3313
 7436SOL    HW133770   4.709   1.639   4.608  1.0222 -0.4919  2.9514
 7436SOL    HW233771   4.659   1.773   4.565  0.7171  0.4462 -0.1868
 7437SOL     OW33772   3.447   2.391   3.998 -0.2570 -0.6538  0.0158
 7437SOL    HW133773   3.404   2.476   4.003 -0.7933 -1.0008  1.3789
 7437SOL    HW233774   3.391   2.337   3.942 -0.4889 -0.0121 -0.3729
 7438SOL     OW33775   4.232   0.602  16.017  0.4269  0.2988  0.0825
 7438SOL    HW133776   4.141   0.592  15.989  0.6492 -0.9669 -0.1504
 7438SOL    HW233777   4.269   0.656  15.947 -1.6411 -0.3738 -1.5314
 7439SOL     OW33778   1.399   1.931  17.333  0.1801  0.0784  0.9728
 7439SOL    HW133779   1.358   1.954  17.416 -0.8837 -1.7117  0.9502
 7439SOL    HW233780   1.328   1.954  17.273  1.9754  1.3907 -0.6709
 7440SOL     OW33781   1.569   4.109   3.886  0.2048  0.0370 -0.5592
 7440SOL    HW133782   1.566   4.054   3.965  0.0613 -0.9829 -1.2721
 7440SOL    HW233783   1.490   4.083   3.839  0.2812 -1.9636  0.3895
 7441SOL     OW33784   0.600   2.487   3.844 -0.1553 -0.3425  0.0349
 7441SOL    HW133785   0.508   2.465   3.829 -0.5446 -0.0990  1.9971
 7441SOL    HW233786   0.622   2.522   3.758  0.2762 -0.8555 -0.0633
 7442SOL     OW33787   0.684   2.151   2.176 -0.6337 -0.2729 -0.0802
 7442SOL    HW133788   0.700   2.061   2.148  1.6111 -0.3683  1.6218
 7442SOL    HW233789   0.595   2.156   2.140  0.1402 -0.9754 -2.1299
 7443SOL     OW33790   4.330   4.507   4.640 -0.5373  0.2382 -0.6599
 7443SOL    HW133791   4.310   4.584   4.586 -0.4371  2.5798  2.6310
 7443SOL    HW233792   4.269   4.443   4.604 -3.9764  1.2813  3.3856
 7444SOL     OW33793   3.675   1.969   9.471  0.6964  0.2271  0.2077
 7444SOL    HW133794   3.731   1.956   9.547 -0.1603  1.3607  1.0347
 7444SOL    HW233795   3.611   2.032   9.504 -0.1409  0.0048 -0.9687
 7445SOL     OW33796   1.573   4.588   1.040 -0.5509 -0.5673  0.4897
 7445SOL    HW133797   1.518   4.517   1.071 -0.6221 -0.7842 -0.1397
 7445SOL    HW233798   1.596   4.613   1.129 -0.5620 -0.6523  0.5158
 7446SOL     OW33799   3.673   4.592  15.081  0.5153 -0.1407 -0.1264
 7446SOL    HW133800   3.715   4.582  14.996  0.8175  1.2890 -0.1481
 7446SOL    HW233801   3.684   4.687  15.091  0.3796 -0.3103  1.6510
 7447SOL     OW33802   3.221   1.168   5.616 -1.1948 -0.0002  0.6851
 7447SOL    HW133803   3.179   1.099   5.668 -0.7216  1.0825  2.5179
 7447SOL    HW233804   3.182   1.236   5.671  0.0751  0.5364  0.9215
 7448SOL     OW33805   2.579   2.671  14.452 -0.5771 -0.1919  0.3764
 7448SOL    HW133806   2.579   2.594  14.396  0.6958 -1.3008  1.8932
 7448SOL    HW233807   2.673   2.688  14.451 -0.6248 -0.0322 -1.3906
 7449SOL     OW33808   4.342   0.694   6.264  0.1470 -0.0750  0.2178
 7449SOL    HW133809   4.283   0.624   6.238  0.8024  0.7074 -3.2894
 7449SOL    HW233810   4.389   0.712   6.183  0.2463  2.1162  0.7522
 7450SOL     OW33811   0.283   2.184   8.063 -0.4131 -0.5197 -0.1636
 7450SOL    HW133812   0.316   2.260   8.016  0.1526 -1.7114 -1.6797
 7450SOL    HW233813   0.307   2.202   8.154  0.2688 -2.2537 -0.0001
 7451SOL     OW33814   4.553   1.076  13.764 -0.7277 -0.0396 -0.2159
 7451SOL    HW133815   4.626   1.058  13.706 -1.3564 -3.0955 -0.0979
 7451SOL    HW233816   4.556   1.001  13.824  0.1191  0.7392  0.7283
 7452SOL     OW33817   3.463   1.983   5.034  0.0975 -0.2923 -0.1671
 7452SOL    HW133818   3.513   1.906   5.059  0.2786 -0.1053  0.0504
 7452SOL    HW233819   3.371   1.974   5.059  1.0807 -2.2342  2.7892
 7453SOL     OW33820   2.320   0.067   2.838  0.0539 -0.0438  0.3705
 7453SOL    HW133821   2.232   0.069   2.875  0.1116 -1.2636  0.5803
 7453SOL    HW233822   2.298   0.045   2.747  0.3049  0.8907  0.0863
 7454SOL     OW33823   2.225   4.658   3.946  0.2403  0.5340  0.1191
 7454SOL    HW133824   2.251   4.580   3.995  0.8389  0.0636 -0.9671
 7454SOL    HW233825   2.136   4.631   3.925 -0.2014  1.0195  1.3306
 7455SOL     OW33826   3.616   1.024   8.757 -0.4341  0.5157 -0.3461
 7455SOL    HW133827   3.559   1.027   8.834  0.3073 -2.1179  0.2994
 7455SOL    HW233828   3.657   1.111   8.755 -0.2852  0.4558  0.0894
 7456SOL     OW33829   4.204   4.336  17.285 -0.2782 -0.9545  0.0232
 7456SOL    HW133830   4.142   4.272  17.320 -1.1357 -0.4230 -0.5472
 7456SOL    HW233831   4.265   4.276  17.241 -0.2591 -0.4263 -0.6603
 7457SOL     OW33832   3.211   4.414   4.078  0.0692 -0.1632 -0.4932
 7457SOL    HW133833   3.264   4.352   4.128 -1.4122 -0.3511  0.8310
 7457SOL    HW233834   3.128   4.406   4.124 -0.0422  1.2419 -0.4427
 7458SOL     OW33835   3.687   0.794   3.312 -0.0600 -0.4604 -0.4980
 7458SOL    HW133836   3.702   0.795   3.218  1.4151 -0.0983 -0.2483
 7458SOL    HW233837   3.611   0.735   3.314 -0.1342 -0.3383  0.2333
 7459SOL     OW33838   1.043   1.711   7.987  0.3214  0.5069  0.2932
 7459SOL    HW133839   1.062   1.619   8.007 -0.5778  0.2938  0.1959
 7459SOL    HW233840   1.119   1.750   8.029 -0.2721  1.0089  0.9046
 7460SOL     OW33841   1.683   2.198   7.891 -0.0349 -0.6828  1.2700
 7460SOL    HW133842   1.596   2.169   7.860 -0.3461  1.3303  0.2597
 7460SOL    HW233843   1.721   2.225   7.807  1.1801  1.0886  2.4065
 7461SOL     OW33844   2.264   4.494   6.094 -0.2026  0.6735 -0.4703
 7461SOL    HW133845   2.187   4.526   6.048 -1.4821  0.0517  1.2476
 7461SOL    HW233846   2.268   4.564   6.159 -2.9173 -0.8077  1.2957
 7462SOL     OW33847   3.028   1.086   6.710  0.6946  0.0350  0.1048
 7462SOL    HW133848   3.053   1.089   6.802 -1.9582 -2.2714  0.8588
 7462SOL    HW233849   3.084   1.152   6.669 -0.0451  1.2141  0.9946
 7463SOL     OW33850   2.152   1.266  15.918  0.5446 -0.8326  0.0595
 7463SOL    HW133851   2.247   1.260  15.925  0.7354  0.6483 -1.2532
 7463SOL    HW233852   2.141   1.325  15.843 -1.8548 -0.3808  0.7688
 7464SOL     OW33853   3.792   0.638   6.720 -0.2136 -0.7239 -0.2344
 7464SOL    HW133854   3.835   0.558   6.689 -0.3041 -1.3814  1.3441
 7464SOL    HW233855   3.759   0.680   6.640  0.4612  0.2397 -0.0018
 7465SOL     OW33856   2.576   3.356   5.788 -0.0014  0.4278  0.0520
 7465SOL    HW133857   2.537   3.407   5.860 -0.3437  0.8693 -0.4477
 7465SOL    HW233858   2.669   3.363   5.811 -0.1964  2.9638  0.0728
 7466SOL     OW33859   1.570   0.778   3.438  0.0237  0.3732 -0.2844
 7466SOL    HW133860   1.604   0.764   3.350  0.5263  0.8468 -0.1635
 7466SOL    HW233861   1.493   0.721   3.441  0.7043 -0.4873  0.6438
 7467SOL     OW33862   3.955   4.085   5.684 -0.8319  0.4278 -0.1555
 7467SOL    HW133863   4.038   4.039   5.673 -1.4474 -0.7194  0.0369
 7467SOL    HW233864   3.980   4.178   5.685  0.4078  0.0596  2.3626
 7468SOL     OW33865   1.672   3.664  10.098 -0.3642 -0.0777 -0.6325
 7468SOL    HW133866   1.733   3.590  10.100  0.6450  0.7240 -1.4320
 7468SOL    HW233867   1.602   3.628  10.044 -0.4113 -4.1041  2.1167
 7469SOL     OW33868   2.349   3.995   1.845 -0.1986  0.3917  0.3728
 7469SOL    HW133869   2.301   4.026   1.922  0.2179 -0.5699  1.0156
 7469SOL    HW233870   2.440   3.993   1.872 -0.2516  0.4898  0.5568
 7470SOL     OW33871   2.733   0.742   4.094  0.1959  0.4185 -0.0935
 7470SOL    HW133872   2.747   0.731   4.189 -0.9029 -0.1157  0.0168
 7470SOL    HW233873   2.699   0.653   4.078  2.1444 -0.3262 -0.0238
 7471SOL     OW33874   1.021   0.027   4.884  0.2146 -0.0062  0.2479
 7471SOL    HW133875   1.109   0.064   4.891  0.6716 -0.9986 -0.1769
 7471SOL    HW233876   1.018   0.003   4.976  1.0218 -2.0662 -0.2530
 7472SOL     OW33877   1.989   3.426   3.495 -0.0178  0.2932 -0.1834
 7472SOL    HW133878   2.019   3.516   3.509 -1.3984  1.1707 -2.9696
 7472SOL    HW233879   2.018   3.421   3.404  0.7855 -0.2080  0.1057
 7473SOL     OW33880   0.798   0.146  15.498 -0.5136  0.3367  0.4274
 7473SOL    HW133881   0.877   0.194  15.473 -1.2949  0.7447 -1.3062
 7473SOL    HW233882   0.766   0.190  15.576 -0.4195 -0.6803  1.0388
 7474SOL     OW33883   2.466   4.535   4.507  0.2862 -0.2273  0.7789
 7474SOL    HW133884   2.511   4.465   4.460 -1.1143 -0.4669 -0.1875
 7474SOL    HW233885   2.382   4.495   4.532  0.4995  0.1165  2.0340
 7475SOL     OW33886   3.008   3.414   3.309  0.8523 -0.0613  0.9279
 7475SOL    HW133887   3.077   3.475   3.336  0.0106  1.9144 -1.3729
 7475SOL    HW233888   3.036   3.412   3.218  1.9367  2.0992  1.1979
 7476SOL     OW33889   1.728   0.670   3.212  0.3648  0.1865 -0.5922
 7476SOL    HW133890   1.752   0.759   3.187  0.1126  0.5584  0.4617
 7476SOL    HW233891   1.704   0.627   3.130  1.6181 -2.0011  0.1899
 7477SOL     OW33892   0.851   4.691  14.590 -0.2798  0.0343 -0.2913
 7477SOL    HW133893   0.899   4.621  14.545 -1.3055 -1.3717  0.8017
 7477SOL    HW233894   0.792   4.648  14.651 -0.9115  1.7694  0.3131
 7478SOL     OW33895   4.151   4.558  17.054  0.1679  0.4608 -0.0856
 7478SOL    HW133896   4.193   4.578  16.971 -0.2549 -0.6083 -0.5569
 7478SOL    HW233897   4.175   4.466  17.062 -2.9872 -0.4290 -1.0294
 7479SOL     OW33898   1.086   0.635   4.738  0.6841 -0.2227 -0.7124
 7479SOL    HW133899   1.147   0.703   4.764 -1.0846  1.0534  0.1386
 7479SOL    HW233900   1.008   0.670   4.783  0.1307 -1.8026 -0.4272
 7480SOL     OW33901   2.498   0.949   2.045 -0.3467 -0.4814  0.2680
 7480SOL    HW133902   2.442   1.025   2.024 -0.0423 -0.1550  0.6305
 7480SOL    HW233903   2.498   0.947   2.140 -0.7106  0.5005  0.2963
 7481SOL     OW33904   1.862   1.101   6.566  0.5360  0.1223  0.3620
 7481SOL    HW133905   1.850   1.165   6.636 -1.5081  0.0029  0.0985
 7481SOL    HW233906   1.791   1.043   6.592 -1.0996  0.6049 -3.0568
 7482SOL     OW33907   4.629   1.110   0.898  0.2176 -0.3171 -0.0199
 7482SOL    HW133908   4.545   1.149   0.926  0.1734 -1.2192  1.0683
 7482SOL    HW233909   4.633   1.050   0.972  2.8576 -2.8326 -2.2490
 7483SOL     OW33910   4.221   4.673   2.163 -0.3964  0.6744 -0.0284
 7483SOL    HW133911   4.142   4.660   2.215 -1.1537  0.5784 -1.2005
 7483SOL    HW233912   4.189   4.671   2.073 -1.0995  1.0550  0.2142
 7484SOL     OW33913   4.022   2.738   5.880 -0.4384  0.5600 -0.0899
 7484SOL    HW133914   4.061   2.693   5.805 -0.7542  1.4622 -0.7790
 7484SOL    HW233915   4.027   2.675   5.952 -0.7369 -1.3597 -1.7578
 7485SOL     OW33916   3.013   1.710  15.238  0.3294 -0.3267 -0.1541
 7485SOL    HW133917   2.958   1.738  15.312 -0.2908  0.0386 -0.7462
 7485SOL    HW233918   3.101   1.739  15.260  0.7221 -0.8881 -1.0310
 7486SOL     OW33919   0.535   2.496   4.175  0.2263 -0.3586  0.0117
 7486SOL    HW133920   0.574   2.463   4.093  1.7541 -1.7436  1.2862
 7486SOL    HW233921   0.597   2.469   4.243  0.0968  0.0452  0.2903
 7487SOL     OW33922   1.596   2.680   7.944 -0.1655  0.1294  0.6364
 7487SOL    HW133923   1.670   2.722   7.899 -1.6391  0.6809 -1.2699
 7487SOL    HW233924   1.645   2.610   7.986 -0.9673 -1.1724 -0.5926
 7488SOL     OW33925   2.257   2.549   8.340 -0.0543 -0.5095  0.5482
 7488SOL    HW133926   2.176   2.501   8.321 -0.4701 -0.2240  1.5472
 7488SOL    HW233927   2.300   2.485   8.397 -0.4085 -0.3177  1.0384
 7489SOL     OW33928   2.862   2.136   4.909  0.1176 -0.0173 -0.3441
 7489SOL    HW133929   2.805   2.150   4.984 -0.6062 -0.9615 -0.7199
 7489SOL    HW233930   2.794   2.109   4.847  0.6899 -1.2507 -0.4392
 7490SOL     OW33931   2.981   0.058  17.029  0.1090  0.1118 -0.1547
 7490SOL    HW133932   3.067   0.016  17.032 -0.1696 -0.3925  0.9803
 7490SOL    HW233933   2.969   0.039  16.936 -2.6892  0.2019  0.1734
 7491SOL     OW33934   2.115   4.704   7.659  0.1010  0.1463  0.2369
 7491SOL    HW133935   2.188   4.678   7.715  0.0158  2.0892  1.2547
 7491SOL    HW233936   2.059   4.627   7.656 -2.2434  1.9628 -3.0012
 7492SOL     OW33937   2.443   0.715   5.871  0.2919 -0.0168  0.1403
 7492SOL    HW133938   2.378   0.669   5.818 -0.1139  2.6095 -1.6296
 7492SOL    HW233939   2.468   0.783   5.809 -0.3424 -1.8080 -2.0848
 7493SOL     OW33940   4.029   0.358   3.324 -0.0591 -0.9744 -0.3164
 7493SOL    HW133941   4.121   0.339   3.305  0.1078  0.8837 -1.4078
 7493SOL    HW233942   3.989   0.274   3.346 -3.0425  0.8337  1.0868
 7494SOL     OW33943   1.212   3.999   6.627 -0.3776  0.0408 -0.2526
 7494SOL    HW133944   1.228   4.088   6.597  0.2557  0.1296  0.3719
 7494SOL    HW233945   1.142   3.976   6.566 -1.3073  3.6141 -0.5155
 7495SOL     OW33946   0.794   3.692   4.652 -0.4573 -0.0010  0.1969
 7495SOL    HW133947   0.879   3.649   4.644 -0.1495 -0.0005  3.4635
 7495SOL    HW233948   0.790   3.729   4.564 -0.2311 -2.1629 -0.7283
 7496SOL     OW33949   1.629   2.162  12.889  0.2186  0.1486 -0.1866
 7496SOL    HW133950   1.638   2.254  12.916 -1.8267 -0.1254  1.3717
 7496SOL    HW233951   1.702   2.121  12.936 -1.1986 -0.6846  1.2819
 7497SOL     OW33952   3.574   0.164   2.156 -0.1342 -0.7824 -0.0449
 7497SOL    HW133953   3.623   0.240   2.124 -0.0012 -0.3164  1.2909
 7497SOL    HW233954   3.562   0.106   2.081  0.5932  0.0702 -0.8202
 7498SOL     OW33955   1.567   3.544   1.794 -0.9158  0.0409 -0.7097
 7498SOL    HW133956   1.488   3.564   1.744  2.1826  1.6245 -4.9272
 7498SOL    HW233957   1.639   3.572   1.737  0.5043 -1.2525  0.4365
 7499SOL     OW33958   2.854   0.756  11.657 -0.2611 -0.4037 -0.2015
 7499SOL    HW133959   2.778   0.716  11.698  0.5240 -0.7892  0.8558
 7499SOL    HW233960   2.817   0.763  11.569  0.8362 -1.3402 -0.7310
 7500SOL     OW33961   1.624   1.846  16.590  0.2879  0.0512  0.1542
 7500SOL    HW133962   1.668   1.903  16.652 -1.7136  1.9962 -0.2211
 7500SOL    HW233963   1.530   1.851  16.603  0.3277  0.4856  0.2757
 7501SOL     OW33964   1.063   4.144   0.175 -0.2264 -0.1078 -0.2543
 7501SOL    HW133965   1.122   4.092   0.229 -1.0455 -0.1948  0.5662
 7501SOL    HW233966   1.123   4.152   0.101 -0.7514 -0.4126 -0.7115
 7502SOL     OW33967   3.573   1.827   4.650 -0.1142  0.4828 -0.2746
 7502SOL    HW133968   3.547   1.735   4.639  0.1676  0.2005  1.3585
 7502SOL    HW233969   3.554   1.839   4.743  1.6296  0.2006  0.1150
 7503SOL     OW33970   1.676   3.073   3.650  0.2580 -0.0849 -0.2538
 7503SOL    HW133971   1.730   3.082   3.571 -0.6926 -1.8738 -1.1167
 7503SOL    HW233972   1.733   3.113   3.715 -0.4679  0.4974  0.0204
 7504SOL     OW33973   4.170   2.429  10.877 -0.0311 -0.3660  0.0507
 7504SOL    HW133974   4.137   2.436  10.788  0.9833 -1.1670 -0.3846
 7504SOL    HW233975   4.215   2.514  10.873 -1.5445  0.5384  2.0267
 7505SOL     OW33976   3.194   2.570   3.416 -0.0051  0.3250  0.7426
 7505SOL    HW133977   3.274   2.613   3.449  0.9197  0.4937 -1.6862
 7505SOL    HW233978   3.217   2.478   3.429 -1.1932 -0.0560  0.1210
 7506SOL     OW33979   3.855   3.685   5.866  0.5743 -0.4348 -0.1294
 7506SOL    HW133980   3.763   3.668   5.846 -0.1166  1.2719  1.6197
 7506SOL    HW233981   3.845   3.755   5.930 -0.2548 -0.3714 -0.3189
 7507SOL     OW33982   0.977   2.267  11.382 -0.0796 -0.2832  0.1037
 7507SOL    HW133983   0.982   2.288  11.476  0.4770  1.3177 -0.2892
 7507SOL    HW233984   0.883   2.285  11.372 -0.0682  1.3245  2.8445
 7508SOL     OW33985   3.924   1.053  12.069 -0.4305 -0.9741  0.3181
 7508SOL    HW133986   3.986   1.120  12.041 -2.3479  0.4949 -0.4530
 7508SOL    HW233987   3.946   1.037  12.161 -1.3085 -1.1041  0.5127
 7509SOL     OW33988   1.056   0.777   8.482  0.2408  0.4910  0.2782
 7509SOL    HW133989   1.053   0.691   8.440  0.6049 -0.9472  3.1990
 7509SOL    HW233990   1.094   0.759   8.568  1.1236  0.8177 -0.0414
 7510SOL     OW33991   3.019   4.070   8.559 -0.6609 -0.1876  0.1040
 7510SOL    HW133992   3.035   4.157   8.594 -1.8926  0.1774 -0.2655
 7510SOL    HW233993   2.972   4.025   8.629 -0.2639  1.5749  1.5000
 7511SOL     OW33994   1.881   2.286   6.040 -0.4092 -0.3312  0.4984
 7511SOL    HW133995   1.892   2.191   6.039 -0.0845 -0.2805 -1.7324
 7511SOL    HW233996   1.964   2.319   6.006  0.2568  0.5791  3.0547
 7512SOL     OW33997   3.625   4.617  15.412  0.3236 -0.1011  0.0573
 7512SOL    HW133998   3.652   4.699  15.454 -2.4998  0.3637  0.9799
 7512SOL    HW233999   3.547   4.612  15.468 -0.1579 -0.2367 -0.6232
 7513SOL     OW34000   1.238   1.952  10.579  0.1490  0.7729 -0.2494
 7513SOL    HW134001   1.154   1.910  10.599  1.6873 -1.2858  1.8607
 7513SOL    HW234002   1.228   2.042  10.609 -0.1841  0.7304 -0.2329
 7514SOL     OW34003   0.412   2.609   0.065 -0.0339  0.0390 -0.3146
 7514SOL    HW134004   0.488   2.664   0.045  0.5943 -1.0945 -1.0620
 7514SOL    HW234005   0.360   2.628  17.681 -1.0877  0.7605  0.5601
 7515SOL     OW34006   3.232   3.944  11.826  0.5025  0.3091 -0.2664
 7515SOL    HW134007   3.217   4.004  11.753  1.3948  1.1508  0.2343
 7515SOL    HW234008   3.312   3.901  11.795  1.5064  3.3299 -1.9020
 7516SOL     OW34009   3.229   2.213   8.457 -0.1112  0.1005  0.3139
 7516SOL    HW134010   3.315   2.175   8.441  1.1764  2.5331  1.4505
 7516SOL    HW234011   3.233   2.295   8.406 -0.5808  0.7483  1.3130
 7517SOL     OW34012   2.075   3.503  15.061 -0.9193 -0.7339 -0.1992
 7517SOL    HW134013   2.002   3.528  15.004 -1.6414 -0.2259  0.9509
 7517SOL    HW234014   2.071   3.580  15.119  2.4260  0.2984 -1.3779
 7518SOL     OW34015   0.876   0.906   9.484 -0.2253 -0.5376  0.5334
 7518SOL    HW134016   0.877   0.831   9.544  1.2109 -2.3580 -1.7171
 7518SOL    HW234017   0.941   0.964   9.524 -0.1267 -0.9296  0.9450
 7519SOL     OW34018   0.791   3.954   3.174  0.4405 -0.3267  0.4491
 7519SOL    HW134019   0.700   3.953   3.145  0.4193 -0.6605  0.5278
 7519SOL    HW234020   0.835   3.875   3.141 -0.9248 -0.9219  0.0192
 7520SOL     OW34021   2.317   1.110  15.599  0.6845  0.4707  0.2055
 7520SOL    HW134022   2.309   1.062  15.516  0.0766 -1.3602  1.3284
 7520SOL    HW234023   2.262   1.187  15.582 -0.5504 -0.3221  0.5794
 7521SOL     OW34024   1.520   1.200   8.510  0.1129  0.1057  0.8209
 7521SOL    HW134025   1.589   1.220   8.446  0.2351 -1.1118  0.5730
 7521SOL    HW234026   1.534   1.107   8.528  1.1447  0.5488  2.3171
 7522SOL     OW34027   0.706   1.736  15.058  0.1171 -0.2196 -0.2647
 7522SOL    HW134028   0.647   1.665  15.033 -0.6483 -0.2590  1.6593
 7522SOL    HW234029   0.777   1.734  14.994 -0.2388  0.1617 -0.6770
 7523SOL     OW34030   1.320   0.911   5.467 -0.3454 -0.4746 -0.6028
 7523SOL    HW134031   1.314   0.983   5.404 -0.2411  1.1407  1.2440
 7523SOL    HW234032   1.414   0.916   5.484 -0.1485 -0.1076 -1.8519
 7524SOL     OW34033   2.656   3.963  15.046 -0.2570 -0.4100 -0.0984
 7524SOL    HW134034   2.626   4.015  14.971  0.1840 -1.0128 -0.6845
 7524SOL    HW234035   2.715   4.030  15.081  0.4212 -0.9240 -0.2748
 7525SOL     OW34036   3.298   0.567   3.058 -0.2761 -0.2694  0.3321
 7525SOL    HW134037   3.341   0.505   2.999 -1.7645 -0.7735 -0.2197
 7525SOL    HW234038   3.223   0.605   3.013 -1.3416 -1.7142  0.8944
 7526SOL     OW34039   1.559   1.494   1.009 -0.0318 -0.4277 -0.4420
 7526SOL    HW134040   1.574   1.450   0.926  0.1198 -2.0314  0.4406
 7526SOL    HW234041   1.599   1.581   1.000 -0.9399 -0.1171 -1.3918
 7527SOL     OW34042   4.337   1.346   5.599  0.4254 -0.0130 -0.0911
 7527SOL    HW134043   4.424   1.343   5.557  0.8147  3.9610  0.4073
 7527SOL    HW234044   4.306   1.420   5.547  0.7669  1.3552  1.6806
 7528SOL     OW34045   3.354   4.271   5.420  0.2904 -0.3023  0.1119
 7528SOL    HW134046   3.262   4.247   5.423  0.4576 -0.8799  0.7527
 7528SOL    HW234047   3.353   4.346   5.480  0.4505  0.5329 -0.9363
 7529SOL     OW34048   4.425   2.385   8.536 -0.0259 -0.3853  0.0199
 7529SOL    HW134049   4.347   2.349   8.494  0.6479 -0.4775 -1.1579
 7529SOL    HW234050   4.424   2.479   8.520  0.2067 -0.3385  0.2952
 7530SOL     OW34051   2.093   1.184   4.656 -0.3984 -0.0378  0.1233
 7530SOL    HW134052   2.014   1.239   4.662 -0.0939  0.4066  0.0277
 7530SOL    HW234053   2.128   1.188   4.745  1.6836  1.1610 -0.7680
 7531SOL     OW34054   2.569   3.581   2.452  1.0468 -0.0956 -0.0854
 7531SOL    HW134055   2.611   3.516   2.508  0.8393  0.1018  0.2999
 7531SOL    HW234056   2.620   3.659   2.475 -0.0936  0.8111 -0.5996
 7532SOL     OW34057   3.816   2.437  15.206 -0.5367 -0.1068 -0.4267
 7532SOL    HW134058   3.822   2.382  15.285  1.3298  0.2811 -0.2870
 7532SOL    HW234059   3.899   2.407  15.169  0.7399  0.9038  1.5982
 7533SOL     OW34060   4.249   0.072   3.848 -0.3465 -0.4332  0.3101
 7533SOL    HW134061   4.267   0.027   3.765 -0.9483 -1.7823  0.9154
 7533SOL    HW234062   4.169   0.121   3.828 -0.3990 -0.5602  0.2103
 7534SOL     OW34063   1.557   2.942   0.062  0.7030 -0.1885  0.0226
 7534SOL    HW134064   1.465   2.945   0.036  0.9808  1.8812 -0.7173
 7534SOL    HW234065   1.573   2.853   0.029 -2.2802 -0.9528  0.6368
 7535SOL     OW34066   0.283   1.313  10.578  0.1282  0.3762  0.5254
 7535SOL    HW134067   0.187   1.322  10.577  0.0422 -0.5377  0.3605
 7535SOL    HW234068   0.290   1.274  10.491 -1.0086  1.5271 -0.0881
 7536SOL     OW34069   4.372   1.311   8.715 -0.2095 -0.4379  0.2274
 7536SOL    HW134070   4.459   1.350   8.706  0.1794 -1.0385  1.4113
 7536SOL    HW234071   4.324   1.393   8.724  2.5229  0.9629  1.9812
 7537SOL     OW34072   3.851   2.847   8.234 -0.0495 -0.8203  0.0090
 7537SOL    HW134073   3.864   2.886   8.320 -0.6819  2.2951 -1.3062
 7537SOL    HW234074   3.928   2.879   8.187 -0.2601  0.7776  0.7639
 7538SOL     OW34075   3.749   3.490   2.204  0.4622 -0.1625 -0.1355
 7538SOL    HW134076   3.741   3.409   2.155 -0.8735 -0.1274  0.0285
 7538SOL    HW234077   3.827   3.474   2.257  0.2826  1.6333  0.6778
 7539SOL     OW34078   3.806   0.361   4.241 -0.2143 -0.0478  0.0469
 7539SOL    HW134079   3.793   0.290   4.178 -0.7927  1.6658 -1.7617
 7539SOL    HW234080   3.850   0.419   4.179  0.4046 -1.4567 -0.8254
 7540SOL     OW34081   2.680   4.371   6.857 -0.4434  0.4671 -0.3038
 7540SOL    HW134082   2.620   4.320   6.911  0.9254 -2.4245 -1.5533
 7540SOL    HW234083   2.756   4.382   6.914 -0.0515  0.6863 -0.8736
 7541SOL     OW34084   1.397   1.073   4.372 -0.5980 -1.1095 -0.4083
 7541SOL    HW134085   1.394   0.982   4.403 -1.1685 -0.6805  0.8010
 7541SOL    HW234086   1.381   1.114   4.457 -3.5326  0.9343 -1.9609
 7542SOL     OW34087   4.545   4.522   5.548  0.0513  0.5192  0.1745
 7542SOL    HW134088   4.618   4.538   5.607  0.6219 -1.4822  0.0119
 7542SOL    HW234089   4.538   4.611   5.512 -0.3215  0.1496 -0.6794
 7543SOL     OW34090   2.947   3.983   9.524  0.0392  0.2667  0.0346
 7543SOL    HW134091   2.859   3.998   9.488 -0.4114  1.4838  1.6281
 7543SOL    HW234092   2.937   4.024   9.610  1.7807  0.2335  0.2407
 7544SOL     OW34093   1.601   2.993   4.791 -0.2299  0.6182 -0.6717
 7544SOL    HW134094   1.544   3.055   4.835 -1.3705  0.3459 -1.7706
 7544SOL    HW234095   1.552   2.999   4.709  1.1338  1.8162 -1.3881
 7545SOL     OW34096   1.089   2.052   5.983 -0.2729  0.3205 -0.6204
 7545SOL    HW134097   1.107   2.139   5.948  1.2435  0.4043  0.3800
 7545SOL    HW234098   1.054   2.072   6.070 -2.1817 -1.2844 -1.0197
 7546SOL     OW34099   4.088   1.233   9.430 -0.5247  0.1491  0.7147
 7546SOL    HW134100   4.156   1.177   9.469 -0.3083  0.3708  0.6563
 7546SOL    HW234101   4.123   1.322   9.434 -0.4030  0.1050  0.6407
 7547SOL     OW34102   2.085   4.511  16.463 -0.4287  0.2998  0.2451
 7547SOL    HW134103   2.040   4.503  16.378  0.7783 -1.8401 -0.1839
 7547SOL    HW234104   2.088   4.607  16.459 -1.3709  0.2949 -0.5474
 7548SOL     OW34105   3.149   3.871  15.022 -0.1021 -0.5345 -0.2236
 7548SOL    HW134106   3.241   3.879  15.047 -0.2518  4.2150 -1.3962
 7548SOL    HW234107   3.117   3.961  15.030  1.8911  0.2407 -1.1730
 7549SOL     OW34108   0.669   4.649   5.885  0.7809 -0.5252  0.1135
 7549SOL    HW134109   0.748   4.664   5.833 -1.8563  2.9555 -2.9224
 7549SOL    HW234110   0.661   0.014   5.922 -2.3445  0.3988 -2.8001
 7550SOL     OW34111   3.136   1.490   2.532 -0.4754 -0.1911  0.0185
 7550SOL    HW134112   3.178   1.541   2.463 -0.5874 -0.7763 -0.4925
 7550SOL    HW234113   3.186   1.515   2.609  0.2452  1.1366 -0.8995
 7551SOL     OW34114   2.753   4.397   1.677  0.0693 -0.0375 -0.1473
 7551SOL    HW134115   2.846   4.389   1.653  0.1159 -0.6190  0.2267
 7551SOL    HW234116   2.703   4.351   1.610  0.3665 -0.9431  0.2463
 7552SOL     OW34117   1.512   0.326   7.178  0.2578 -0.9134 -0.5259
 7552SOL    HW134118   1.600   0.351   7.147  0.4842 -0.1459  0.7142
 7552SOL    HW234119   1.528   0.251   7.235 -3.2556 -0.9148  0.4338
 7553SOL     OW34120   0.792   0.802   8.884  0.3877  0.1485  0.7295
 7553SOL    HW134121   0.714   0.774   8.932 -0.5928  2.5851  0.5790
 7553SOL    HW234122   0.804   0.718   8.841  0.4386  0.5273  0.0076
 7554SOL     OW34123   1.872   2.370   0.555  0.2140 -0.6399  0.6080
 7554SOL    HW134124   1.792   2.353   0.505 -0.6859  2.8914  0.8538
 7554SOL    HW234125   1.929   2.405   0.487 -1.7212  1.4923  0.0685
 7555SOL     OW34126   2.914   4.298   0.635  0.1807 -0.5466  0.4445
 7555SOL    HW134127   2.918   4.206   0.607  0.6142  0.3391 -2.4183
 7555SOL    HW234128   2.830   4.290   0.680  0.2822  2.3303  1.1622
 7556SOL     OW34129   0.494   2.294   8.854 -0.2531  0.2469  0.2938
 7556SOL    HW134130   0.462   2.353   8.923  0.3851  2.0655 -0.9834
 7556SOL    HW234131   0.437   2.320   8.781 -1.5061 -0.5808  0.9679
 7557SOL     OW34132   3.000   3.191  12.928  0.2931 -0.2895 -0.3533
 7557SOL    HW134133   3.092   3.216  12.921  0.0601  0.1098 -1.9978
 7557SOL    HW234134   3.006   3.096  12.924  1.3121 -0.3629  3.1565
 7558SOL     OW34135   4.271   2.690   7.617  0.1260 -0.5393 -0.0428
 7558SOL    HW134136   4.229   2.605   7.600 -1.1544  0.0107  0.3980
 7558SOL    HW234137   4.243   2.701   7.708 -4.4376  2.6566 -1.8314
 7559SOL     OW34138   0.258   1.072   6.262  0.0881  0.5140  0.5174
 7559SOL    HW134139   0.205   1.034   6.332 -1.5748  1.3335 -0.3051
 7559SOL    HW234140   0.260   1.162   6.294  1.9653  0.7518 -0.2656
 7560SOL     OW34141   4.556   3.838   3.460 -0.4805  0.0113  0.1559
 7560SOL    HW134142   4.645   3.871   3.466 -0.2329 -1.0691  2.7647
 7560SOL    HW234143   4.570   3.746   3.483  1.8703  1.0428  2.8643
 7561SOL     OW34144   2.080   3.115   5.247 -0.4217 -0.1730 -0.3954
 7561SOL    HW134145   2.082   3.083   5.157 -1.8036 -0.2370 -0.3990
 7561SOL    HW234146   2.010   3.180   5.245  2.0165  2.5207  1.6598
 7562SOL     OW34147   2.513   2.843  16.139  0.5976 -0.3282 -0.5832
 7562SOL    HW134148   2.511   2.755  16.102  2.7377 -1.1001  1.1369
 7562SOL    HW234149   2.425   2.874  16.118 -0.1871 -2.9874 -1.2471
 7563SOL     OW34150   0.475   3.792   4.021  0.3257  0.1477  0.2341
 7563SOL    HW134151   0.468   3.700   4.048 -1.5988 -0.3518 -1.9808
 7563SOL    HW234152   0.561   3.791   3.978  0.6430  0.3371  0.8641
 7564SOL     OW34153   0.712   0.961   4.806  0.4914  0.1246 -0.0808
 7564SOL    HW134154   0.770   0.888   4.827 -1.3124 -1.3287 -0.1949
 7564SOL    HW234155   0.702   0.947   4.711 -3.7840 -3.7421  0.9401
 7565SOL     OW34156   1.778   3.631   3.517  0.0529  0.1264 -0.1417
 7565SOL    HW134157   1.871   3.654   3.515  0.1035 -0.3495 -3.3389
 7565SOL    HW234158   1.736   3.687   3.583  2.5365  2.9783 -0.9561
 7566SOL     OW34159   3.658   3.150   6.651 -0.1033  0.6898  0.1678
 7566SOL    HW134160   3.717   3.081   6.682 -0.9931  0.4435  1.2866
 7566SOL    HW234161   3.727   3.217   6.643  0.7124 -0.3013 -1.1578
 7567SOL     OW34162   4.263   3.220   3.088  0.0087  0.0844  0.1458
 7567SOL    HW134163   4.343   3.196   3.136 -0.5030  1.6283  1.8064
 7567SOL    HW234164   4.305   3.224   3.002  1.4523 -1.6406  0.7728
 7568SOL     OW34165   4.159   3.458   4.879 -0.3464  0.7281  0.4038
 7568SOL    HW134166   4.252   3.440   4.884 -0.0735  1.7616 -0.9558
 7568SOL    HW234167   4.151   3.493   4.968 -1.2899  2.7870 -0.4708
 7569SOL     OW34168   1.162   3.181   8.081  0.1897 -0.7395 -0.0499
 7569SOL    HW134169   1.246   3.137   8.074  0.6739  0.7200 -3.5651
 7569SOL    HW234170   1.158   3.255   8.020  0.1686 -1.3930 -0.8375
 7570SOL     OW34171   1.885   0.521   5.437  0.6090  0.2571 -0.1592
 7570SOL    HW134172   1.861   0.601   5.484 -0.2454  1.2700 -2.3087
 7570SOL    HW234173   1.977   0.535   5.418  0.6027  2.3371  1.3850
 7571SOL     OW34174   4.056   3.456   7.058  0.2149 -0.3087  0.5142
 7571SOL    HW134175   4.043   3.537   7.009  0.0583  0.1159  1.2567
 7571SOL    HW234176   4.149   3.461   7.081  0.2557  1.7513 -0.0791
 7572SOL     OW34177   2.663   2.693   7.455 -0.1128 -0.4506 -0.1508
 7572SOL    HW134178   2.569   2.710   7.445 -0.3874 -1.2094  1.2289
 7572SOL    HW234179   2.698   2.782   7.466  0.5729 -0.6522 -0.6693
 7573SOL     OW34180   2.972   2.647  11.898 -0.1783  0.6227 -0.3657
 7573SOL    HW134181   2.927   2.721  11.858 -0.6940  1.9337  2.6306
 7573SOL    HW234182   3.063   2.674  11.886  0.4489 -1.2829  0.0381
 7574SOL     OW34183   1.210   2.986   3.765 -0.2500 -0.2364 -0.3348
 7574SOL    HW134184   1.280   3.048   3.742 -0.7802  0.2536 -0.6363
 7574SOL    HW234185   1.252   2.903   3.744 -1.0768 -0.6693 -0.2949
 7575SOL     OW34186   0.550   4.138   9.401 -0.5907 -0.2607  0.0977
 7575SOL    HW134187   0.642   4.114   9.409 -0.6590 -0.9870 -1.2688
 7575SOL    HW234188   0.504   4.056   9.422  0.8559 -0.1910  3.4637
 7576SOL     OW34189   1.771   1.316   8.996  0.2723  0.3459  0.4899
 7576SOL    HW134190   1.679   1.288   9.002  1.1027 -2.6541 -0.5459
 7576SOL    HW234191   1.792   1.259   8.922 -1.2895 -0.3412  0.5746
 7577SOL     OW34192   2.831   2.436   4.995  0.2917 -0.0932 -0.1620
 7577SOL    HW134193   2.912   2.420   4.947  0.1334 -1.6745  0.0988
 7577SOL    HW234194   2.858   2.425   5.086 -0.4158  1.6788  0.2760
 7578SOL     OW34195   2.314   3.458   8.877 -0.1483  0.2300  0.0305
 7578SOL    HW134196   2.388   3.415   8.919 -1.1009 -0.3518  1.1406
 7578SOL    HW234197   2.358   3.511   8.811 -1.2692  3.0969  1.5852
 7579SOL     OW34198   2.458   3.270   3.779 -0.1746 -0.0321  0.1295
 7579SOL    HW134199   2.444   3.196   3.838  0.4646  0.4910  0.9407
 7579SOL    HW234200   2.441   3.347   3.832 -0.0402 -0.9653  1.5274
 7580SOL     OW34201   2.093   3.173   9.992 -0.4277  0.2680  0.3020
 7580SOL    HW134202   2.163   3.199   9.933 -1.2794  0.7968 -0.4862
 7580SOL    HW234203   2.141   3.105  10.038  0.2558 -0.2915 -1.2576
 7581SOL     OW34204   4.043   0.785   8.336  0.5158 -0.5361  0.0646
 7581SOL    HW134205   4.025   0.721   8.405  2.9908 -0.3651  0.8454
 7581SOL    HW234206   4.125   0.825   8.364  1.3584 -0.1797 -2.8952
 7582SOL     OW34207   2.739   3.014   5.254 -0.1062 -0.1430 -0.0813
 7582SOL    HW134208   2.729   3.091   5.198 -0.9859 -0.0227  0.2453
 7582SOL    HW234209   2.759   3.059   5.336 -1.1174 -1.4680  0.8720
 7583SOL     OW34210   3.965   4.077   7.529  0.0340  0.3687 -0.2412
 7583SOL    HW134211   3.967   3.982   7.541  3.5615  0.3005 -1.2532
 7583SOL    HW234212   3.934   4.076   7.438 -0.2354  0.9231 -0.1589
 7584SOL     OW34213   1.211   1.910   1.378  0.0740  0.3748  0.8679
 7584SOL    HW134214   1.267   1.957   1.317 -0.1020 -1.1490 -0.4547
 7584SOL    HW234215   1.269   1.838   1.401  2.9619  2.6755  0.8966
 7585SOL     OW34216   1.996   3.629   7.274  0.2524 -0.6314  0.3824
 7585SOL    HW134217   1.973   3.583   7.355 -0.2056 -0.5779  0.2806
 7585SOL    HW234218   2.008   3.558   7.211 -2.2700  0.8950 -1.8102
 7586SOL     OW34219   1.121   3.271   6.838  0.1094  0.7280 -0.1065
 7586SOL    HW134220   1.043   3.224   6.809  1.0669 -0.1467 -1.2267
 7586SOL    HW234221   1.194   3.213   6.818  2.2250  3.8486 -1.4051
 7587SOL     OW34222   3.106   2.477   9.180 -0.0022 -0.1812 -0.1477
 7587SOL    HW134223   3.183   2.434   9.218 -0.3154 -1.6140 -1.1481
 7587SOL    HW234224   3.080   2.412   9.114 -1.4339  0.3651 -0.1268
 7588SOL     OW34225   0.712   1.464   0.085  0.0108 -0.1476  0.2917
 7588SOL    HW134226   0.620   1.484   0.065  0.7850 -1.6033 -4.8469
 7588SOL    HW234227   0.709   1.376   0.123  1.1157 -0.2035  0.2540
 7589SOL     OW34228   1.650   1.319   1.340  0.2081 -0.1730  0.1496
 7589SOL    HW134229   1.740   1.330   1.308 -0.0533  1.2913 -0.0593
 7589SOL    HW234230   1.635   1.230   1.308  1.5400 -0.0230 -0.9040
 7590SOL     OW34231   0.711   2.392   5.462  0.1143 -0.1838  0.1554
 7590SOL    HW134232   0.655   2.414   5.388  2.0477  2.0812 -0.6378
 7590SOL    HW234233   0.764   2.321   5.427 -1.6205 -0.7819 -1.2513
 7591SOL     OW34234   0.445   0.658   1.622 -0.4817  0.2145  0.5571
 7591SOL    HW134235   0.450   0.571   1.661 -0.6940 -0.3929 -0.7619
 7591SOL    HW234236   0.357   0.686   1.650 -1.0565 -1.6019  0.5457
 7592SOL     OW34237   2.915   3.527   6.232  0.3524  0.0744 -0.0589
 7592SOL    HW134238   2.951   3.441   6.251 -0.1182 -0.1216 -0.0606
 7592SOL    HW234239   2.992   3.556   6.183  0.0038 -0.6554 -1.0386
 7593SOL     OW34240   2.366   2.517  11.467  0.1197 -0.1009 -0.2401
 7593SOL    HW134241   2.349   2.588  11.405  1.8523 -0.1014 -0.7330
 7593SOL    HW234242   2.453   2.541  11.498 -0.5465  0.0557  1.4683
 7594SOL     OW34243   3.459   2.277   2.386 -0.1118 -0.6581  0.3297
 7594SOL    HW134244   3.367   2.304   2.392 -0.0115 -0.6015  1.5308
 7594SOL    HW234245   3.446   2.184   2.407 -1.4839 -0.2593  1.2268
 7595SOL     OW34246   4.267   4.374   2.726  0.0598  0.5414  0.2472
 7595SOL    HW134247   4.172   4.385   2.733 -0.0280  0.1984 -0.3309
 7595SOL    HW234248   4.277   4.393   2.632 -2.2166 -2.7390 -0.6836
 7596SOL     OW34249   2.758   4.109  15.699 -0.1200  0.8791  0.1566
 7596SOL    HW134250   2.799   4.114  15.786 -1.6016  1.9016  0.7853
 7596SOL    HW234251   2.719   4.022  15.703 -0.0013  0.8015 -0.4041
 7597SOL     OW34252   4.041   0.223  16.339  0.0991  1.1280 -0.4134
 7597SOL    HW134253   4.093   0.223  16.419  1.4990 -1.9264 -1.3082
 7597SOL    HW234254   3.987   0.302  16.347 -0.4254  0.9563 -2.1610
 7598SOL     OW34255   3.429   2.912  13.035  0.2928 -0.3651  0.6112
 7598SOL    HW134256   3.494   2.964  13.083  1.8531 -1.7145 -0.0596
 7598SOL    HW234257   3.492   2.853  12.994 -0.7480 -1.4411  0.5972
 7599SOL     OW34258   3.620   3.405  16.930  0.0602  0.9605 -0.3943
 7599SOL    HW134259   3.690   3.374  16.988  0.7731  1.2769 -1.0734
 7599SOL    HW234260   3.584   3.465  16.995 -1.2656  0.3815 -0.6016
 7600SOL     OW34261   0.422   3.273   0.998  0.4108 -0.6602  0.3153
 7600SOL    HW134262   0.475   3.299   1.073 -0.0209  0.9931  0.0395
 7600SOL    HW234263   0.335   3.275   1.039 -0.8875  3.1257 -2.6690
 7601SOL     OW34264   3.379   0.411  13.689  0.3536  0.2249  0.0310
 7601SOL    HW134265   3.420   0.498  13.693 -0.2889  0.4397  1.9839
 7601SOL    HW234266   3.314   0.427  13.621 -0.6031  1.5510  1.2745
 7602SOL     OW34267   1.065   1.356   2.141 -0.5528  0.0717  0.0922
 7602SOL    HW134268   1.081   1.337   2.049 -0.3855  1.3567 -0.1498
 7602SOL    HW234269   1.004   1.428   2.124 -0.1989 -0.1560 -2.1341
 7603SOL     OW34270   0.565   2.854   9.700  0.3251 -0.0950 -0.2272
 7603SOL    HW134271   0.521   2.918   9.757 -1.9862 -1.3448 -0.6226
 7603SOL    HW234272   0.649   2.856   9.744 -0.4577  1.7375  1.2022
 7604SOL     OW34273   3.028   0.011  13.617 -0.0799 -0.1752 -0.6080
 7604SOL    HW134274   3.080   4.702  13.691  2.0651 -0.0626 -2.0805
 7604SOL    HW234275   3.097   0.054  13.567 -1.3020  2.8120  0.2727
 7605SOL     OW34276   2.113   2.448   4.082 -0.0787 -0.1826 -0.3438
 7605SOL    HW134277   2.085   2.502   4.009  0.7633 -0.3154 -0.7693
 7605SOL    HW234278   2.206   2.470   4.089 -0.2982  0.2974  0.9994
 7606SOL     OW34279   1.234   0.056   3.039  0.0259 -0.2206  0.0369
 7606SOL    HW134280   1.276   0.048   2.954  0.3202 -4.8832  0.6380
 7606SOL    HW234281   1.298   0.016   3.098 -1.4290 -1.3807  0.8309
 7607SOL     OW34282   0.419   2.867   0.746 -0.7794  0.5252  0.3466
 7607SOL    HW134283   0.469   2.810   0.687  1.1028 -0.5497  2.9382
 7607SOL    HW234284   0.448   2.826   0.828  0.7282 -2.7895 -1.8015
 7608SOL     OW34285   2.055   3.532   8.676 -0.1853 -0.5171  0.4390
 7608SOL    HW134286   2.011   3.454   8.641 -2.9485  1.7356 -1.1405
 7608SOL    HW234287   2.024   3.528   8.767  0.2303  1.8650  0.6917
 7609SOL     OW34288   0.047   1.598   9.381  0.5912  0.2396 -0.0726
 7609SOL    HW134289   4.699   1.645   9.426 -1.3578  0.8096 -3.6773
 7609SOL    HW234290   0.010   1.554   9.304  0.8784 -1.4056  0.7458
 7610SOL     OW34291   3.311   1.565   2.720  0.1900 -0.0446 -0.0796
 7610SOL    HW134292   3.262   1.582   2.800 -0.6090  0.9013 -0.7633
 7610SOL    HW234293   3.353   1.480   2.728 -0.2290 -0.2038  0.4023
 7611SOL     OW34294   2.337   3.628   9.858  0.1542 -0.0958  1.0250
 7611SOL    HW134295   2.262   3.666   9.812 -0.2816 -1.3104  0.7309
 7611SOL    HW234296   2.309   3.548   9.902  0.4510  0.4145  2.1344
 7612SOL     OW34297   3.692   4.566  14.309  0.2408  0.3035  0.7315
 7612SOL    HW134298   3.683   4.609  14.394  0.8777 -0.9688  1.4418
 7612SOL    HW234299   3.599   4.544  14.306  0.3285  0.2094 -1.6939
 7613SOL     OW34300   1.111   0.314   4.776 -0.0546 -0.3779  0.0524
 7613SOL    HW134301   1.015   0.309   4.777 -0.2636  4.1984 -2.4312
 7613SOL    HW234302   1.115   0.407   4.796 -1.0705  0.3923 -3.3996
 7614SOL     OW34303   1.854   1.509   1.728  0.5766  0.1774 -0.2691
 7614SOL    HW134304   1.898   1.433   1.765  0.8334  0.2880 -0.3478
 7614SOL    HW234305   1.927   1.563   1.698  2.4397 -2.8186 -1.1156
 7615SOL     OW34306   3.218   1.809   3.521  0.3459 -0.2512 -0.0278
 7615SOL    HW134307   3.208   1.753   3.598  1.2111 -2.9758 -1.9064
 7615SOL    HW234308   3.131   1.848   3.518  0.5103 -0.0162 -1.3303
 7616SOL     OW34309   0.853   2.263  14.145  0.0974  0.3415  0.2944
 7616SOL    HW134310   0.854   2.261  14.049  1.2855 -1.0944  0.3207
 7616SOL    HW234311   0.761   2.254  14.168 -0.2013 -0.4552 -1.1898
 7617SOL     OW34312   1.908   4.464  13.688  0.6747  0.1338  0.0869
 7617SOL    HW134313   1.922   4.523  13.762  0.1295 -0.1919  0.4492
 7617SOL    HW234314   1.949   4.382  13.715  0.7066  0.4904  1.1174
 7618SOL     OW34315   4.323   2.088   9.076 -0.3132  0.1970  0.1942
 7618SOL    HW134316   4.319   2.035   9.156  0.7583 -0.3506 -0.1138
 7618SOL    HW234317   4.361   2.030   9.010 -1.0574 -0.1939  0.1052
 7619SOL     OW34318   2.164   3.730   6.102 -0.1941  0.5131  0.2065
 7619SOL    HW134319   2.129   3.661   6.046 -0.9207 -0.2146  1.5599
 7619SOL    HW234320   2.243   3.685   6.131 -0.2591  0.9256  1.0264
 7620SOL     OW34321   0.329   2.848   4.571 -0.0649  0.2891  0.4433
 7620SOL    HW134322   0.293   2.916   4.628 -2.1926 -1.1895  0.8863
 7620SOL    HW234323   0.262   2.781   4.585  0.4432  0.4960  3.8337
 7621SOL     OW34324   1.895   2.408   6.400  0.6198 -0.6749 -0.7959
 7621SOL    HW134325   1.836   2.340   6.366  0.6141 -0.1996 -1.7352
 7621SOL    HW234326   1.839   2.449   6.466 -0.5596 -2.0728 -0.9188
 7622SOL     OW34327   1.319   1.278   5.944 -0.0229  0.1738 -0.2067
 7622SOL    HW134328   1.364   1.338   5.884 -0.1036 -0.6873 -1.1321
 7622SOL    HW234329   1.388   1.279   6.010  0.6180 -1.9421 -0.8372
 7623SOL     OW34330   2.565   1.491   7.421 -0.3491  0.3492 -0.4481
 7623SOL    HW134331   2.506   1.546   7.370  0.3292  1.8005  0.3382
 7623SOL    HW234332   2.540   1.501   7.513 -1.3246  1.2969 -0.8170
 7624SOL     OW34333   2.933   2.718   5.764  0.5027  0.0320 -0.4087
 7624SOL    HW134334   3.011   2.665   5.745  1.3346  0.6219  1.3671
 7624SOL    HW234335   2.910   2.693   5.853 -2.4962  0.2475 -1.1079
 7625SOL     OW34336   3.878   3.461   5.502  0.6122 -0.4658  0.7378
 7625SOL    HW134337   3.919   3.538   5.542  0.0627  1.1112 -1.7455
 7625SOL    HW234338   3.945   3.429   5.441  0.9538  2.0445 -0.2310
 7626SOL     OW34339   0.452   1.438   3.537  0.2658 -0.4593 -0.1983
 7626SOL    HW134340   0.508   1.477   3.604  2.3371 -2.6110 -0.6927
 7626SOL    HW234341   0.380   1.419   3.597  0.2461 -1.7383 -0.6257
 7627SOL     OW34342   1.611   1.976   2.827  0.1787 -0.2869  0.3693
 7627SOL    HW134343   1.587   2.059   2.786 -1.5935 -0.3628  1.2539
 7627SOL    HW234344   1.669   1.927   2.768 -1.1552 -2.0237  0.5060
 7628SOL     OW34345   4.152   3.905   5.615  0.2020  0.7989 -0.1697
 7628SOL    HW134346   4.231   3.921   5.564  0.6303 -1.7121 -0.2764
 7628SOL    HW234347   4.186   3.893   5.704  1.5094 -2.3440 -1.0878
 7629SOL     OW34348   1.346   3.605   1.925  0.0406  0.3068 -0.2812
 7629SOL    HW134349   1.311   3.593   2.013 -1.5462  1.4018 -0.7593
 7629SOL    HW234350   1.437   3.620   1.950 -0.5002  4.3218 -0.7000
 7630SOL     OW34351   1.666   0.891   2.882  0.4089  0.4928 -0.2434
 7630SOL    HW134352   1.708   0.919   2.963 -1.7788  0.8622  0.7652
 7630SOL    HW234353   1.595   0.834   2.915  0.8921 -0.2618 -0.4961
 7631SOL     OW34354   4.090   0.315  12.418 -0.1654  0.5632  0.1361
 7631SOL    HW134355   4.066   0.406  12.434 -1.5257  0.1741  0.2894
 7631SOL    HW234356   4.045   0.267  12.488 -0.3449 -1.1948 -1.1881
 7632SOL     OW34357   2.350   2.886   9.433 -0.0654 -0.2750  0.2982
 7632SOL    HW134358   2.388   2.825   9.370 -1.0090 -0.7609  0.1931
 7632SOL    HW234359   2.401   2.965   9.416 -0.4536  0.1788  1.2478
 7633SOL     OW34360   4.560   0.171   0.849 -0.2654  0.0729 -0.0335
 7633SOL    HW134361   4.644   0.214   0.870  1.1423 -1.7189 -2.0056
 7633SOL    HW234362   4.586   0.080   0.831 -0.8759 -0.3308  1.1699
 7634SOL     OW34363   4.044   0.704   2.192 -0.9833  0.5073  0.1716
 7634SOL    HW134364   4.098   0.783   2.186  1.3353 -1.4029 -3.9185
 7634SOL    HW234365   4.087   0.641   2.135 -0.4194  0.7519  0.3219
 7635SOL     OW34366   1.794   1.438   7.523 -0.5570 -0.7385  0.4098
 7635SOL    HW134367   1.871   1.491   7.501 -1.7441 -0.0670 -2.1082
 7635SOL    HW234368   1.823   1.409   7.610 -0.3626  0.2184  0.6763
 7636SOL     OW34369   0.119   4.166   3.455  0.5266 -0.0308 -0.3890
 7636SOL    HW134370   0.070   4.123   3.385  0.4754 -1.9172  0.7926
 7636SOL    HW234371   0.122   4.101   3.526 -0.3098  0.5640  0.1952
 7637SOL     OW34372   0.337   4.654   6.231  0.4270  0.1052  0.0496
 7637SOL    HW134373   0.355   4.646   6.138 -0.7322 -2.6814  0.0734
 7637SOL    HW234374   0.263   4.594   6.234  0.8365 -0.3681  0.6907
 7638SOL     OW34375   3.518   0.607  12.858  0.1350  0.0493  0.6014
 7638SOL    HW134376   3.529   0.512  12.851  2.3901  0.3388  0.2974
 7638SOL    HW234377   3.468   0.602  12.939 -1.3696  0.8398 -0.2753
 7639SOL     OW34378   1.139   1.456   3.554  0.1511  0.4908  0.4077
 7639SOL    HW134379   1.234   1.464   3.543  0.2430 -1.7011 -0.4596
 7639SOL    HW234380   1.128   1.409   3.472 -2.3102  0.4697  0.7666
 7640SOL     OW34381   3.498   1.592   8.384  0.3093 -0.6489 -0.0703
 7640SOL    HW134382   3.478   1.607   8.292  0.1207 -1.5033 -0.1689
 7640SOL    HW234383   3.520   1.681   8.411  1.0578 -1.2726  1.3944
 7641SOL     OW34384   2.603   0.611   2.820 -0.5128 -0.1237  0.4374
 7641SOL    HW134385   2.614   0.668   2.744  1.6749 -0.4363  0.5255
 7641SOL    HW234386   2.626   0.664   2.896 -2.1209 -0.1935  0.9834
 7642SOL     OW34387   2.490   3.523   2.160 -0.4382  0.2688  0.4588
 7642SOL    HW134388   2.542   3.444   2.143 -0.4336  0.4466 -0.3432
 7642SOL    HW234389   2.514   3.536   2.252  0.9289 -1.9804  0.4322
 7643SOL     OW34390   2.218   3.557   1.717  0.0510  0.3862  0.2443
 7643SOL    HW134391   2.231   3.566   1.812  0.8756  2.1889 -0.0448
 7643SOL    HW234392   2.239   3.643   1.682 -1.2962  0.1615 -1.1141
 7644SOL     OW34393   4.402   3.304   6.989  0.4541 -0.0986  0.1532
 7644SOL    HW134394   4.471   3.370   6.993 -1.9696  2.4270  0.9135
 7644SOL    HW234395   4.353   3.348   7.058  0.3036 -0.1192  0.0596
 7645SOL     OW34396   2.606   0.016   6.342 -0.3689 -0.8426 -0.3280
 7645SOL    HW134397   2.599   0.102   6.384  0.9974  0.3616 -2.5623
 7645SOL    HW234398   2.677   4.702   6.394 -0.3839  0.4854  0.6427
 7646SOL     OW34399   3.795   2.467   8.649 -0.4664  0.3609  0.0763
 7646SOL    HW134400   3.825   2.449   8.738 -0.4239 -1.4672 -0.2967
 7646SOL    HW234401   3.828   2.556   8.635  3.1204 -0.9264  0.1159
 7647SOL     OW34402   2.900   3.544  14.705  0.3977 -0.3669  0.5473
 7647SOL    HW134403   2.878   3.635  14.684 -1.9877 -0.7898  1.3062
 7647SOL    HW234404   2.983   3.541  14.658  0.4222  1.3438  0.4698
 7648SOL     OW34405   2.327   0.642   9.280  0.2222  0.1445  0.0019
 7648SOL    HW134406   2.256   0.610   9.224  0.1954 -1.7707  1.1576
 7648SOL    HW234407   2.267   0.704   9.321  0.5343 -1.9406  3.5316
 7649SOL     OW34408   1.423   4.411   2.714 -0.0777 -0.2478  0.3899
 7649SOL    HW134409   1.470   4.376   2.790  0.2265  1.1774  0.8647
 7649SOL    HW234410   1.445   4.505   2.710  0.5904 -0.4938 -1.2972
 7650SOL     OW34411   1.271   4.569   7.869 -0.2934 -0.0843 -0.3512
 7650SOL    HW134412   1.271   4.533   7.958  1.8227 -0.6880 -0.6010
 7650SOL    HW234413   1.206   4.639   7.878  0.4860  0.3079  2.1589
 7651SOL     OW34414   4.703   0.222  10.324 -0.5002  0.1930  0.0622
 7651SOL    HW134415   0.005   0.140  10.368 -0.6445 -0.2036 -0.5979
 7651SOL    HW234416   0.022   0.288  10.380 -2.6795  0.1854  1.6927
 7652SOL     OW34417   3.889   0.679  12.846  0.5675 -0.6307 -0.0766
 7652SOL    HW134418   3.947   0.603  12.841 -0.2033 -1.1567 -1.0327
 7652SOL    HW234419   3.810   0.627  12.858 -2.0612  3.6569  1.1315
 7653SOL     OW34420   2.052   1.069  15.752 -0.1003  0.6299 -0.3984
 7653SOL    HW134421   2.097   1.142  15.794  1.2547  0.0702 -0.8714
 7653SOL    HW234422   1.975   1.106  15.708 -0.0824  1.5478  0.3538
 7654SOL     OW34423   3.655   4.713  16.544 -0.6212 -0.8643 -0.2404
 7654SOL    HW134424   3.662   0.026  16.632  0.2693  0.7244 -0.9596
 7654SOL    HW234425   3.682   0.063  16.488 -0.0531 -1.2206 -0.4333
 7655SOL     OW34426   0.083   3.461  16.893  0.0249  1.0993 -0.1183
 7655SOL    HW134427   0.015   3.509  16.940 -1.5875 -0.5682 -0.7467
 7655SOL    HW234428   0.129   3.423  16.967 -0.8189 -0.9068 -0.6287
 7656SOL     OW34429   3.730   4.531   5.408  0.3887 -0.0650 -0.1987
 7656SOL    HW134430   3.773   4.448   5.427 -0.5213 -0.5693 -0.3343
 7656SOL    HW234431   3.791   4.574   5.348  0.6528  0.3610  0.3815
 7657SOL     OW34432   0.855   4.364   9.158 -0.3851 -0.0364  0.3535
 7657SOL    HW134433   0.862   4.327   9.246  1.7679 -1.9216 -0.6095
 7657SOL    HW234434   0.939   4.344   9.116  0.9997  2.3164  2.0405
 7658SOL     OW34435   3.413   0.164   5.257 -0.7412  0.0392 -0.5747
 7658SOL    HW134436   3.327   0.139   5.222 -2.3424  1.3977  2.3979
 7658SOL    HW234437   3.471   0.159   5.181 -1.8927 -1.9720 -1.3409
 7659SOL     OW34438   1.487   4.208   8.639 -0.1305  0.3981  0.6785
 7659SOL    HW134439   1.480   4.270   8.566  1.4006  0.0590  0.2472
 7659SOL    HW234440   1.514   4.271   8.705  1.7587  0.4856 -0.1908
 7660SOL     OW34441   0.093   0.971   9.099 -0.2009 -0.4553  0.4210
 7660SOL    HW134442   0.082   0.876   9.093  0.7528 -0.5502  0.2021
 7660SOL    HW234443   0.183   0.976   9.130 -0.6495  2.5075  1.2563
 7661SOL     OW34444   1.005   0.481   6.195  0.0746 -0.4398 -0.0832
 7661SOL    HW134445   1.063   0.550   6.227  1.2587 -0.3354 -2.4769
 7661SOL    HW234446   1.022   0.406   6.252 -1.9984 -1.5574 -0.9580
 7662SOL     OW34447   3.752   3.297   1.384  0.2922  0.0683 -0.4542
 7662SOL    HW134448   3.788   3.265   1.467  2.7850 -1.0597 -1.9664
 7662SOL    HW234449   3.712   3.383   1.400 -0.4420 -0.5030  0.7991
 7663SOL     OW34450   3.286   3.673   2.435  0.5679 -0.4798  0.5451
 7663SOL    HW134451   3.207   3.715   2.468  0.4166  0.4115 -0.9263
 7663SOL    HW234452   3.302   3.599   2.494  0.7631 -0.6538  0.2771
 7664SOL     OW34453   2.663   2.580   4.572  0.1305  0.2132 -0.1381
 7664SOL    HW134454   2.732   2.626   4.621 -1.2665  3.5497 -1.2688
 7664SOL    HW234455   2.719   2.532   4.511 -1.9333 -1.7472 -0.4773
 7665SOL     OW34456   0.728   4.209  14.686 -0.5433 -0.0962  0.1509
 7665SOL    HW134457   0.742   4.304  14.682  1.5022 -0.3893  0.4280
 7665SOL    HW234458   0.638   4.215  14.717  0.1931  2.1819  1.9332
 7666SOL     OW34459   4.544   4.427   1.683  0.8712  0.2742  0.4120
 7666SOL    HW134460   4.539   4.461   1.594 -4.6044  1.7254  1.2906
 7666SOL    HW234461   4.630   4.385   1.683  1.3875  1.3270  0.2907
 7667SOL     OW34462   3.406   2.986   4.895  1.0927 -0.0284 -0.5553
 7667SOL    HW134463   3.430   2.918   4.832  1.4743 -0.6320  0.2443
 7667SOL    HW234464   3.379   3.053   4.832  0.5519  0.2092 -0.0692
 7668SOL     OW34465   3.708   3.892   0.637  0.5480  0.1510  0.1902
 7668SOL    HW134466   3.788   3.862   0.680  0.8605  2.8463  1.4594
 7668SOL    HW234467   3.729   3.902   0.544  0.8357 -1.4069  0.0940
 7669SOL     OW34468   2.154   0.360   4.203 -0.3282  0.0092 -0.2690
 7669SOL    HW134469   2.217   0.327   4.140  0.8309 -1.6852  1.7937
 7669SOL    HW234470   2.187   0.325   4.286  2.9849 -2.1056 -2.4972
 7670SOL     OW34471   4.224   3.388  12.764  0.0781 -0.1029  0.1804
 7670SOL    HW134472   4.166   3.458  12.737 -1.5486 -1.1053  1.0770
 7670SOL    HW234473   4.192   3.315  12.710  2.1343 -1.1911  0.4044
 7671SOL     OW34474   2.273   1.885   4.924 -0.1642 -0.3846  0.5895
 7671SOL    HW134475   2.253   1.854   4.836  1.0604  1.0525 -0.1956
 7671SOL    HW234476   2.336   1.955   4.910  0.9608 -1.5233 -0.0756
 7672SOL     OW34477   4.194   1.672   2.691 -0.2893  0.5401  0.1329
 7672SOL    HW134478   4.155   1.757   2.710  0.1034  0.5349  0.9661
 7672SOL    HW234479   4.188   1.620   2.771  0.5561  1.2816  0.6712
 7673SOL     OW34480   0.841   1.849  16.610  0.2190 -0.0946  0.0196
 7673SOL    HW134481   0.852   1.755  16.619 -1.3153 -0.3716 -0.9006
 7673SOL    HW234482   0.931   1.880  16.615  0.3286 -0.3542 -0.3168
 7674SOL     OW34483   1.410   0.885  15.025  0.3814 -0.7424  0.0957
 7674SOL    HW134484   1.355   0.878  15.103 -0.1277 -0.7148 -0.2602
 7674SOL    HW234485   1.414   0.792  15.003  1.5662 -1.1258  1.9400
 7675SOL     OW34486   1.487   2.478   1.083 -0.2789 -0.3587  0.4904
 7675SOL    HW134487   1.545   2.453   1.154 -0.0076 -0.4684  0.2274
 7675SOL    HW234488   1.522   2.564   1.058 -0.6211 -0.5609 -0.6915
 7676SOL     OW34489   3.888   3.143   0.427 -0.0558  0.0091 -0.8227
 7676SOL    HW134490   3.956   3.211   0.423  0.9758 -0.9525  0.6566
 7676SOL    HW234491   3.805   3.190   0.417 -2.2364 -3.7062 -0.0269
 7677SOL     OW34492   2.846   2.760   4.680 -0.3254  0.3749 -0.1829
 7677SOL    HW134493   2.907   2.697   4.642 -1.0914 -0.2369 -0.4241
 7677SOL    HW234494   2.903   2.828   4.715 -1.2481 -0.4882  3.0553
 7678SOL     OW34495   2.577   0.784   3.681 -0.3067  0.2897  0.2250
 7678SOL    HW134496   2.500   0.750   3.727 -0.2400 -0.3264 -0.1211
 7678SOL    HW234497   2.624   0.835   3.747 -0.9957  0.5606  0.5063
 7679SOL     OW34498   4.425   3.962   3.024  0.6078  0.3301 -0.4440
 7679SOL    HW134499   4.485   4.035   3.040 -0.8101  1.3598  0.1829
 7679SOL    HW234500   4.370   3.997   2.955  2.3915  1.4996 -1.2666
 7680SOL     OW34501   2.925   1.729   2.905 -0.3102  0.1722 -0.3097
 7680SOL    HW134502   2.864   1.768   2.842 -1.3406  1.7105  1.5988
 7680SOL    HW234503   2.895   1.641   2.884 -1.5006  0.2511  1.0320
 7681SOL     OW34504   4.289   1.863   3.009 -0.0995  0.0625 -0.2714
 7681SOL    HW134505   4.375   1.873   3.050 -0.5123 -1.3487  0.9263
 7681SOL    HW234506   4.249   1.832   3.089  1.0975  0.1711  0.3717
 7682SOL     OW34507   0.153   1.562   6.292  0.0069 -0.3503 -0.2894
 7682SOL    HW134508   0.058   1.554   6.301  0.2007 -3.0485 -0.5165
 7682SOL    HW234509   0.169   1.629   6.358 -1.8466 -2.2976  2.1404
 7683SOL     OW34510   3.065   3.877  12.040 -0.0810  0.5460 -0.1366
 7683SOL    HW134511   3.125   3.890  11.967  0.8217 -0.8738  0.3716
 7683SOL    HW234512   3.122   3.915  12.108 -0.1508 -1.0162  0.7781
 7684SOL     OW34513   3.103   3.742   9.845  0.0511 -0.1146 -0.2442
 7684SOL    HW134514   3.124   3.669   9.788 -3.6424 -0.8019 -0.7485
 7684SOL    HW234515   3.009   3.747   9.829 -0.1132  1.5205  1.2106
 7685SOL     OW34516   3.681   3.648   8.531 -0.5708 -0.0355 -0.0474
 7685SOL    HW134517   3.630   3.672   8.454  0.4648 -0.8485 -0.9889
 7685SOL    HW234518   3.711   3.735   8.557  0.3038 -0.1305 -0.7501
 7686SOL     OW34519   2.681   1.107   8.068 -0.0615  0.4016  0.1519
 7686SOL    HW134520   2.644   1.087   8.154 -1.9631 -1.1467 -1.0110
 7686SOL    HW234521   2.721   1.024   8.042  0.9075  1.1813 -0.8404
 7687SOL     OW34522   1.635   1.771  12.545 -0.2731  0.2236  0.6144
 7687SOL    HW134523   1.615   1.852  12.591  1.0082  0.3495  0.9594
 7687SOL    HW234524   1.610   1.702  12.606  0.0650  0.1401  0.6614
 7688SOL     OW34525   4.259   3.038  16.143 -0.1973 -0.7739  0.0296
 7688SOL    HW134526   4.287   3.111  16.088 -0.4936 -0.5875  0.1311
 7688SOL    HW234527   4.218   3.088  16.213 -4.0893  0.7786 -3.3728
 7689SOL     OW34528   3.872   0.075   2.135 -0.5712  0.3204 -0.0728
 7689SOL    HW134529   3.854   4.704   2.136  2.2789 -0.2758 -2.8219
 7689SOL    HW234530   3.863   0.090   2.041  1.3385  2.3900  0.0720
 7690SOL     OW34531   4.432   2.969   4.110 -0.6773  0.5902 -0.2356
 7690SOL    HW134532   4.408   3.060   4.092 -3.0729  0.0542  0.3112
 7690SOL    HW234533   4.447   2.937   4.021  0.5650 -0.2243  0.2556
 7691SOL     OW34534   1.100   2.165   2.974 -0.0831  0.2719 -0.0190
 7691SOL    HW134535   1.117   2.145   3.066  1.8545  0.2931 -0.3749
 7691SOL    HW234536   1.158   2.101   2.933 -0.3579 -0.4470  0.7023
 7692SOL     OW34537   2.143   2.646  16.103 -0.3768 -0.6311 -0.6273
 7692SOL    HW134538   2.174   2.700  16.175 -2.1598 -0.1523 -0.2245
 7692SOL    HW234539   2.126   2.716  16.040  0.2851 -0.0740 -0.1807
 7693SOL     OW34540   1.185   2.458   5.474  0.7068 -0.2002 -0.0216
 7693SOL    HW134541   1.110   2.502   5.514  1.3040 -0.3814  1.2918
 7693SOL    HW234542   1.152   2.434   5.387  0.1552 -1.5696  0.5718
 7694SOL     OW34543   3.478   4.590   2.729 -0.2256  0.5009 -0.0646
 7694SOL    HW134544   3.450   4.536   2.655  1.0407 -1.9125  1.2012
 7694SOL    HW234545   3.405   4.583   2.790  0.3197 -0.0199  0.5379
 7695SOL     OW34546   1.041   1.410   9.913  0.2599  0.0505  0.1342
 7695SOL    HW134547   1.043   1.318   9.885  2.2108  0.7666 -2.0686
 7695SOL    HW234548   1.129   1.424   9.946  1.7131 -1.0245 -3.3013
 7696SOL     OW34549   0.004   1.930   6.462 -0.4637  0.7671 -0.3553
 7696SOL    HW134550   4.665   1.892   6.399 -1.6152 -0.8858  1.7516
 7696SOL    HW234551   4.718   2.020   6.429  0.0889  1.5397  1.6311
 7697SOL     OW34552   3.305   3.718   8.151  0.0716  0.0397 -0.3449
 7697SOL    HW134553   3.210   3.706   8.156  0.1016  0.6175  1.6132
 7697SOL    HW234554   3.319   3.658   8.078  1.7957  0.0202  0.0155
 7698SOL     OW34555   3.346   1.728  10.509 -0.8829  0.0106 -0.0233
 7698SOL    HW134556   3.356   1.771  10.594 -3.1066 -1.0367  0.7669
 7698SOL    HW234557   3.265   1.679  10.521  0.2769 -2.1634 -1.1245
 7699SOL     OW34558   0.496   4.260   8.872 -0.0659 -0.0691  0.2691
 7699SOL    HW134559   0.438   4.186   8.887 -0.2720 -0.0267 -0.3184
 7699SOL    HW234560   0.494   4.257   8.776 -0.1787  0.9169  0.2487
 7700SOL     OW34561   2.042   3.910   4.180 -0.4771  0.4402 -0.2734
 7700SOL    HW134562   1.997   3.973   4.122 -0.4456  0.0492 -0.7241
 7700SOL    HW234563   1.962   3.879   4.222  1.1349 -3.1926  0.0453
 7701SOL     OW34564   2.271   1.832   9.794  0.3466  0.2377  0.0075
 7701SOL    HW134565   2.336   1.807   9.860 -0.9770 -1.8176  0.5350
 7701SOL    HW234566   2.316   1.906   9.754  2.4413 -0.3520  1.2486
 7702SOL     OW34567   2.694   4.061  14.376  0.3265  0.0574  0.1443
 7702SOL    HW134568   2.663   3.979  14.337 -0.1110  0.7983 -1.0531
 7702SOL    HW234569   2.766   4.040  14.436  0.6970  1.1445  0.0766
 7703SOL     OW34570   1.067   4.053   2.732  0.6473  0.2766 -0.4434
 7703SOL    HW134571   1.065   4.016   2.820 -2.4686  1.5789  0.0243
 7703SOL    HW234572   1.139   4.115   2.743 -0.8562  1.8804  0.2590
 7704SOL     OW34573   2.434   0.289  14.730  0.1364 -0.4599  0.1522
 7704SOL    HW134574   2.512   0.259  14.684  1.6257  3.1073  0.3382
 7704SOL    HW234575   2.367   0.248  14.676  1.1508 -0.0189 -1.4207
 7705SOL     OW34576   0.268   4.083  15.432  0.7440 -0.7528 -0.6851
 7705SOL    HW134577   0.358   4.114  15.425  0.4327  0.0331 -1.2901
 7705SOL    HW234578   0.288   3.991  15.416  3.9814  0.1366 -1.6698
 7706SOL     OW34579   1.146   3.054   4.469 -0.4060  0.0315 -0.0550
 7706SOL    HW134580   1.146   2.962   4.442  0.0705 -0.8650  3.0018
 7706SOL    HW234581   1.092   3.048   4.548  2.7599  2.3465  2.2671
 7707SOL     OW34582   2.666   4.443   4.803 -0.0684 -0.1068  0.0938
 7707SOL    HW134583   2.644   4.499   4.728 -0.2218 -0.9648 -0.5077
 7707SOL    HW234584   2.740   4.492   4.840  0.0638 -0.4742  0.3208
 7708SOL     OW34585   2.600   2.229  15.238  0.2895 -1.1313  0.0016
 7708SOL    HW134586   2.588   2.199  15.328  0.1605 -0.1018  0.3275
 7708SOL    HW234587   2.694   2.245  15.236 -0.4166  2.6165 -3.2477
 7709SOL     OW34588   2.869   1.452   9.153  0.3064  0.6223 -0.0726
 7709SOL    HW134589   2.874   1.359   9.176  3.0853  1.2968  2.0380
 7709SOL    HW234590   2.938   1.460   9.088  0.2813 -0.8320 -0.2793
 7710SOL     OW34591   1.330   3.390  17.207 -0.0549  0.5677 -0.6954
 7710SOL    HW134592   1.258   3.375  17.267  2.0954  0.3842  1.8277
 7710SOL    HW234593   1.351   3.483  17.220  0.4215  0.4897 -0.8934
 7711SOL     OW34594   1.841   0.323   4.890 -0.1207 -0.1476 -0.1759
 7711SOL    HW134595   1.807   0.361   4.971 -1.0374 -0.6754 -0.3195
 7711SOL    HW234596   1.920   0.375   4.875  0.1148 -0.1835  0.9333
 7712SOL     OW34597   3.297   2.896   9.447 -0.0544 -0.2166  1.0996
 7712SOL    HW134598   3.250   2.976   9.470  0.1981  0.3000 -0.1399
 7712SOL    HW234599   3.384   2.916   9.480 -0.7419 -0.0426  2.7595
 7713SOL     OW34600   1.126   0.731   3.039  0.3947  0.2356  0.0955
 7713SOL    HW134601   1.033   0.728   3.058  0.4090 -0.2231  0.0891
 7713SOL    HW234602   1.128   0.679   2.959  2.6151 -0.7241  0.7467
 7714SOL     OW34603   2.343   2.990   6.325  0.8776 -1.0814 -0.2501
 7714SOL    HW134604   2.386   2.985   6.239  0.0719  0.2904 -0.7405
 7714SOL    HW234605   2.320   2.899   6.343  0.6265 -0.9516  0.0689
 7715SOL     OW34606   2.807   4.685   3.970 -0.3932 -0.4980  0.1010
 7715SOL    HW134607   2.802   4.615   3.905  1.4728 -0.6415  0.1152
 7715SOL    HW234608   2.881   0.011   3.934  0.3715 -1.1229  0.8303
 7716SOL     OW34609   4.140   4.660   1.902 -0.1768  0.2061  0.2544
 7716SOL    HW134610   4.233   4.673   1.883 -0.0152 -1.2127  0.0878
 7716SOL    HW234611   4.117   4.606   1.827  0.5912  1.9461 -1.2335
 7717SOL     OW34612   2.584   3.616   1.030  0.4506  0.6884 -0.3871
 7717SOL    HW134613   2.654   3.681   1.038  1.1190 -0.2037  1.1610
 7717SOL    HW234614   2.626   3.556   0.968  2.2378 -2.0394  3.3958
 7718SOL     OW34615   1.528   0.210   6.667 -0.5577 -0.4031  0.3955
 7718SOL    HW134616   1.600   0.150   6.649 -0.2290 -0.0794  0.6239
 7718SOL    HW234617   1.487   0.173   6.745 -1.8561  0.7883  0.2666
 7719SOL     OW34618   4.717   1.968  17.489  0.9483 -0.7990 -0.5435
 7719SOL    HW134619   4.639   1.999  17.442 -0.7109 -1.2059  1.9323
 7719SOL    HW234620   4.670   1.931  17.563  0.0849  0.5263 -0.4248
 7720SOL     OW34621   0.984   3.589   7.443  0.1391 -0.1445 -0.0486
 7720SOL    HW134622   0.943   3.675   7.446 -2.6590 -1.5143  1.0518
 7720SOL    HW234623   0.947   3.555   7.361 -0.0345 -0.4858  0.1691
 7721SOL     OW34624   1.237   2.011  16.764 -0.0903  0.1138  0.6546
 7721SOL    HW134625   1.158   2.064  16.776  0.6139  1.3130 -0.1107
 7721SOL    HW234626   1.262   2.046  16.679 -0.6422  2.4353  1.4460
 7722SOL     OW34627   2.179   2.069   3.607  0.1950  0.4807  0.1065
 7722SOL    HW134628   2.213   2.020   3.682  1.1117  0.1598 -0.5151
 7722SOL    HW234629   2.090   2.090   3.634  0.0252  0.6772 -0.5909
 7723SOL     OW34630   3.850   0.457   8.683 -1.0223 -0.3283 -0.0014
 7723SOL    HW134631   3.850   0.363   8.703  0.1182 -0.2284  0.4998
 7723SOL    HW234632   3.764   0.475   8.647 -2.5029 -0.7581  3.3905
 7724SOL     OW34633   2.755   0.197   6.812  0.1181  0.0554 -0.6828
 7724SOL    HW134634   2.806   0.188   6.893  0.0104  0.4001 -0.5784
 7724SOL    HW234635   2.738   0.103   6.800  0.0904 -0.0638  0.2959
 7725SOL     OW34636   2.792   0.651  10.487 -0.4507  0.2778 -0.2268
 7725SOL    HW134637   2.862   0.605  10.442 -1.7571  0.1400 -2.1246
 7725SOL    HW234638   2.843   0.704  10.548  1.1310 -0.8303 -0.5921
 7726SOL     OW34639   2.480   2.404   6.208 -0.0926 -0.4487 -0.0316
 7726SOL    HW134640   2.471   2.362   6.122  2.4123  1.1716 -1.0618
 7726SOL    HW234641   2.489   2.496   6.185 -4.4074 -0.5783 -2.2249
 7727SOL     OW34642   1.463   2.309  14.595 -0.2123  0.3206 -0.2963
 7727SOL    HW134643   1.375   2.345  14.592  0.4074  1.8025 -0.7636
 7727SOL    HW234644   1.491   2.300  14.686  1.9133  0.6181 -0.9183
 7728SOL     OW34645   3.704   4.032   6.901  0.1525 -0.0777  0.3380
 7728SOL    HW134646   3.753   3.956   6.934 -1.8961 -1.9501 -0.9371
 7728SOL    HW234647   3.619   3.989   6.895 -0.2019  0.6877 -0.1689
 7729SOL     OW34648   3.777   1.818  15.815  0.1505 -0.7130 -0.5345
 7729SOL    HW134649   3.716   1.753  15.779  1.0557 -1.2811 -1.0532
 7729SOL    HW234650   3.826   1.758  15.871  3.2480  0.3151 -2.1475
 7730SOL     OW34651   4.555   3.514  15.032  0.5739  0.4709 -0.2413
 7730SOL    HW134652   4.478   3.567  15.013 -0.0489 -0.1605  0.5117
 7730SOL    HW234653   4.604   3.543  14.956 -1.3149  0.2906 -1.5402
 7731SOL     OW34654   2.311   3.007   6.832 -0.5040  0.0595 -0.2837
 7731SOL    HW134655   2.297   2.918   6.864  1.6219 -0.7596 -1.5799
 7731SOL    HW234656   2.281   3.003   6.741  0.3917 -2.2139 -0.4868
 7732SOL     OW34657   4.228   1.477   8.936  0.6736  0.1832  0.1298
 7732SOL    HW134658   4.153   1.438   8.980  0.1564 -0.0345 -0.9453
 7732SOL    HW234659   4.285   1.494   9.011  1.9905 -3.5395 -0.0255
 7733SOL     OW34660   2.414   2.540   4.687 -0.5183  0.2533  0.3960
 7733SOL    HW134661   2.463   2.495   4.755  0.8171 -1.7425 -1.9067
 7733SOL    HW234662   2.483   2.591   4.644  1.1666 -1.5309  1.0141
 7734SOL     OW34663   3.683   2.364  15.559 -0.4238  0.0708 -0.3644
 7734SOL    HW134664   3.607   2.372  15.501 -0.4514  1.6289 -0.1153
 7734SOL    HW234665   3.737   2.294  15.522 -0.3248 -0.2709  0.4307
 7735SOL     OW34666   1.733   3.186   4.217  0.5921 -0.3491  0.3976
 7735SOL    HW134667   1.786   3.197   4.296 -1.5562  0.8584  1.6613
 7735SOL    HW234668   1.660   3.142   4.260 -1.4373  1.8535 -0.7932
 7736SOL     OW34669   0.336   3.947   7.591 -0.1321 -0.0429  0.1710
 7736SOL    HW134670   0.404   3.880   7.578  0.2950  0.7865 -1.9648
 7736SOL    HW234671   0.361   4.010   7.523 -0.3090  0.3365  0.4612
 7737SOL     OW34672   0.549   1.452   3.186 -0.9387 -0.1156 -0.5070
 7737SOL    HW134673   0.489   1.506   3.237 -0.1008  1.8318 -1.5510
 7737SOL    HW234674   0.530   1.364   3.218  1.6001 -0.9737 -1.3225
 7738SOL     OW34675   0.827   3.211   6.687  0.7820  0.8428 -0.0989
 7738SOL    HW134676   0.757   3.276   6.691  1.3933  1.3872  1.9997
 7738SOL    HW234677   0.843   3.192   6.595  0.5782  2.7196 -0.5282
 7739SOL     OW34678   1.563   3.978   5.494  0.5112 -0.2741 -0.3153
 7739SOL    HW134679   1.627   3.981   5.565 -0.6670  1.0168  0.7009
 7739SOL    HW234680   1.616   4.009   5.421 -1.5339  2.6142 -0.5915
 7740SOL     OW34681   2.288   0.121  15.699  0.3893  0.2320  0.1704
 7740SOL    HW134682   2.281   0.216  15.711  0.0425  0.4248 -1.5366
 7740SOL    HW234683   2.380   0.100  15.683 -0.2055 -0.6907 -1.9687
 7741SOL     OW34684   1.985   1.535   8.860 -0.0861 -0.4660  0.2807
 7741SOL    HW134685   1.907   1.555   8.809 -0.1522 -0.4884  0.3727
 7741SOL    HW234686   1.965   1.451   8.901  1.3062 -0.7491  0.3787
 7742SOL     OW34687   3.451   3.960  13.674  0.7223 -0.7942 -0.1045
 7742SOL    HW134688   3.362   3.995  13.682  0.4912 -1.9918  2.6447
 7742SOL    HW234689   3.457   3.924  13.586  2.1511 -0.4708 -0.1358
 7743SOL     OW34690   1.357   0.253   3.969 -0.4945 -0.1247  0.3540
 7743SOL    HW134691   1.433   0.260   3.911 -1.1770  2.5045 -0.2344
 7743SOL    HW234692   1.332   0.346   3.973 -0.2097 -0.1487  2.4328
 7744SOL     OW34693   1.380   1.410  14.837 -0.8452 -0.2785 -0.2233
 7744SOL    HW134694   1.380   1.338  14.900 -2.2004  1.3072  1.5853
 7744SOL    HW234695   1.334   1.378  14.759 -0.9448 -1.5928  0.3735
 7745SOL     OW34696   3.911   3.366  15.010 -0.4341  0.5721  0.1519
 7745SOL    HW134697   4.005   3.348  15.011 -0.9214 -1.9086  0.8975
 7745SOL    HW234698   3.879   3.318  14.934  1.5999  1.4487 -1.2487
 7746SOL     OW34699   0.219   4.143   1.393 -0.5809  0.2170  0.2628
 7746SOL    HW134700   0.194   4.137   1.300  2.2570  0.1157 -0.5173
 7746SOL    HW234701   0.300   4.191   1.376  0.2974 -1.3911 -0.0937
 7747SOL     OW34702   3.177   0.805   9.454 -0.2786  0.2156  0.3832
 7747SOL    HW134703   3.098   0.856   9.474 -0.7076 -0.9488  1.6984
 7747SOL    HW234704   3.242   0.874   9.442  0.1744 -0.4346 -0.8239
 7748SOL     OW34705   2.225   1.818   3.386 -0.3934 -0.7018  0.6264
 7748SOL    HW134706   2.150   1.820   3.326  0.7031  0.5977 -0.6952
 7748SOL    HW234707   2.202   1.767   3.464 -0.4662  0.6726  1.5134
 7749SOL     OW34708   4.637   2.985   5.942 -0.1704 -0.1483 -0.1333
 7749SOL    HW134709   4.567   3.049   5.933 -0.7750 -0.8389 -0.3804
 7749SOL    HW234710   4.641   2.963   6.035  0.0726  0.6220  0.0340
 7750SOL     OW34711   4.619   3.344   7.842 -0.7684  0.7056 -0.2253
 7750SOL    HW134712   4.534   3.323   7.881 -0.6979  0.8096 -0.0149
 7750SOL    HW234713   4.602   3.386   7.758  0.3266 -1.5350 -1.5752
 7751SOL     OW34714   2.935   4.177  13.564  0.6055 -0.0575 -0.0105
 7751SOL    HW134715   2.856   4.143  13.607  1.7548 -0.0414  2.1155
 7751SOL    HW234716   2.964   4.112  13.500  0.3197 -1.1846  1.0051
 7752SOL     OW34717   4.340   3.309   7.929  0.0651 -0.7018 -0.6329
 7752SOL    HW134718   4.286   3.373   7.976 -3.1200 -3.0956 -1.0201
 7752SOL    HW234719   4.267   3.262   7.888 -1.0970  1.8786 -1.5105
 7753SOL     OW34720   3.501   0.441   5.208  0.6816  0.2273 -0.2127
 7753SOL    HW134721   3.527   0.498   5.281 -1.6306  0.5504  0.3571
 7753SOL    HW234722   3.463   0.362   5.246  2.1958 -0.3170  0.1990
 7754SOL     OW34723   4.699   3.633   2.346 -0.5616 -0.4716 -0.3201
 7754SOL    HW134724   4.682   3.709   2.401 -1.8336 -1.6190  0.8606
 7754SOL    HW234725   4.620   3.634   2.291 -2.1012  0.6191  1.9383
 7755SOL     OW34726   3.093   3.111   6.456 -0.3327  0.0919 -0.3261
 7755SOL    HW134727   3.142   3.114   6.538  0.6866 -1.6304 -0.8665
 7755SOL    HW234728   3.109   3.027   6.412  0.2136 -0.1323  0.2917
 7756SOL     OW34729   1.959   3.018   6.856 -0.1275 -0.2392  0.0809
 7756SOL    HW134730   2.000   3.097   6.820  0.3840 -0.4607  0.1811
 7756SOL    HW234731   1.880   3.059   6.890  0.6137  1.0456  0.2497
 7757SOL     OW34732   4.440   2.509   3.106 -0.2420  0.4048 -0.2603
 7757SOL    HW134733   4.500   2.455   3.055  1.2798  2.2293 -0.4129
 7757SOL    HW234734   4.459   2.588   3.055 -0.6219  0.2547 -0.6377
 7758SOL     OW34735   3.378   4.243  11.195 -0.1017 -0.1255  0.4467
 7758SOL    HW134736   3.397   4.170  11.255  1.6517  0.1406  0.2174
 7758SOL    HW234737   3.300   4.218  11.145  2.0601 -0.4488 -2.7055
 7759SOL     OW34738   3.217   2.923   3.062 -0.2211  0.4983 -0.4573
 7759SOL    HW134739   3.295   2.977   3.073  0.9432 -1.5591  1.2536
 7759SOL    HW234740   3.163   2.975   3.121  1.9063  1.5509  0.5591
 7760SOL     OW34741   3.922   4.639   9.617  0.3637 -0.1873 -0.0791
 7760SOL    HW134742   3.952   4.719   9.573 -1.7894  0.0818 -1.0261
 7760SOL    HW234743   3.837   4.675   9.641  0.6053 -0.4314  1.1326
 7761SOL     OW34744   4.066   2.462   3.017 -0.2254  0.3452 -0.1618
 7761SOL    HW134745   4.012   2.495   3.089  1.1495  1.7383  0.2528
 7761SOL    HW234746   4.067   2.544   2.967  1.4649 -0.5119 -1.5286
 7762SOL     OW34747   4.531   0.362   5.781 -0.5021 -0.3349 -0.3733
 7762SOL    HW134748   4.606   0.332   5.833 -1.1482  1.4385  1.5689
 7762SOL    HW234749   4.466   0.375   5.850  0.5626 -1.0093  0.7519
 7763SOL     OW34750   4.641   2.966   2.807  0.2684 -0.2981  0.2009
 7763SOL    HW134751   4.656   3.001   2.719 -0.3163  2.0187  1.0251
 7763SOL    HW234752   4.564   3.017   2.831 -0.5838 -1.7277  0.4907
 7764SOL     OW34753   1.267   3.857   8.482 -0.1841  0.0077 -0.2210
 7764SOL    HW134754   1.196   3.887   8.538  1.4452 -0.0807  1.8717
 7764SOL    HW234755   1.225   3.778   8.446  0.5924 -0.9539  0.9965
 7765SOL     OW34756   2.907   2.797   2.026 -0.2271 -0.0903 -0.3042
 7765SOL    HW134757   2.919   2.885   1.991  3.0106 -0.6387 -0.5234
 7765SOL    HW234758   2.824   2.780   1.981 -0.1066 -2.1996  0.2466
 7766SOL     OW34759   3.651   0.756  17.615  0.4741  0.2669  0.1474
 7766SOL    HW134760   3.679   0.679  17.565 -1.1131  0.5912 -1.2272
 7766SOL    HW234761   3.731   0.810  17.612  0.0767  0.7728 -1.1182
 7767SOL     OW34762   0.828   1.952   7.593 -0.2988 -0.4066  0.3600
 7767SOL    HW134763   0.905   1.896   7.578  0.3586  0.4909  0.3999
 7767SOL    HW234764   0.847   1.979   7.682 -0.8478 -1.4518  0.7930
 7768SOL     OW34765   2.099   0.720  10.855 -0.5314  0.3635  0.1230
 7768SOL    HW134766   2.166   0.750  10.794 -0.0646 -0.9708 -0.0195
 7768SOL    HW234767   2.020   0.731  10.802  0.0019  2.5549 -0.2239
 7769SOL     OW34768   0.510   0.893   5.610 -0.0722 -0.2752  1.2097
 7769SOL    HW134769   0.515   0.865   5.702 -1.2652 -0.5457  1.1851
 7769SOL    HW234770   0.549   0.981   5.611  0.9657 -0.7274 -1.1322
 7770SOL     OW34771   0.564   0.322   7.697  0.0004  0.3843 -0.2079
 7770SOL    HW134772   0.613   0.400   7.673  2.3389 -0.4965  1.6820
 7770SOL    HW234773   0.489   0.358   7.745 -0.4934 -0.1647 -0.5683
 7771SOL     OW34774   0.136   1.308   9.697  0.3385  0.1926 -0.5052
 7771SOL    HW134775   0.144   1.371   9.625  3.4631  2.3440  1.7053
 7771SOL    HW234776   0.227   1.313   9.727 -0.5880  3.7483  1.7091
 7772SOL     OW34777   3.960   4.670   6.522  0.4193  0.0011  0.1174
 7772SOL    HW134778   3.994   4.639   6.606  0.0862  1.2032  0.6979
 7772SOL    HW234779   4.035   4.690   6.465  0.8370 -0.1181  0.6311
 7773SOL     OW34780   1.862   3.476   4.207  0.2440  0.6959 -0.0535
 7773SOL    HW134781   1.932   3.416   4.180 -0.1198  1.4328 -2.6223
 7773SOL    HW234782   1.792   3.411   4.201  0.4711  0.6161 -1.9578
 7774SOL     OW34783   3.669   0.746   4.474  0.7963 -0.1366  0.3837
 7774SOL    HW134784   3.578   0.751   4.443  1.2150 -0.0849 -0.7991
 7774SOL    HW234785   3.700   0.836   4.470  1.6968 -0.5897 -2.4667
 7775SOL     OW34786   3.990   3.131  13.529 -0.0195 -0.1384 -0.2635
 7775SOL    HW134787   3.913   3.170  13.572  1.0390  1.5721  0.0977
 7775SOL    HW234788   4.008   3.194  13.459 -0.4394  0.9088  0.5723
 7776SOL     OW34789   0.831   4.596   7.165  0.3611  0.3748 -0.1376
 7776SOL    HW134790   0.887   4.605   7.241 -0.9497 -2.6876  1.2173
 7776SOL    HW234791   0.841   4.503   7.143 -1.0092  0.0351  0.6415
 7777SOL     OW34792   3.044   0.378   3.290  0.0735 -0.0706  0.1331
 7777SOL    HW134793   3.121   0.326   3.266 -0.9242 -1.3804 -0.2370
 7777SOL    HW234794   3.077   0.453   3.339 -0.4816  0.7882 -0.8121
 7778SOL     OW34795   0.684   4.468  14.743 -0.5337  0.0784  0.3284
 7778SOL    HW134796   0.627   4.545  14.740  1.1390  1.2772 -1.3835
 7778SOL    HW234797   0.683   4.447  14.836 -0.7014 -0.2152  0.2610
 7779SOL     OW34798   4.276   0.896  13.743 -0.0356 -0.1138 -0.4493
 7779SOL    HW134799   4.234   0.937  13.667 -0.7295  0.5094  0.2669
 7779SOL    HW234800   4.360   0.942  13.733  0.4177 -0.8713 -0.0859
 7780SOL     OW34801   3.740   0.286   8.973 -0.5304 -0.3989  0.5816
 7780SOL    HW134802   3.657   0.239   8.962 -1.1008  1.4884 -3.0545
 7780SOL    HW234803   3.791   0.240   8.907 -0.6905 -1.4354  1.1810
 7781SOL     OW34804   0.694   1.013   7.816 -0.3252 -0.3902  0.0871
 7781SOL    HW134805   0.618   0.963   7.786 -0.2064 -1.1037  0.9537
 7781SOL    HW234806   0.662   1.101   7.797 -0.9620 -0.9535 -1.4346
 7782SOL     OW34807   2.543   1.290   7.707 -0.5562  0.4389  0.2379
 7782SOL    HW134808   2.542   1.384   7.727 -0.6369  0.9836 -2.3464
 7782SOL    HW234809   2.458   1.270   7.745 -0.9170  3.1908  0.8965
 7783SOL     OW34810   1.123   2.529   8.164 -0.3071 -0.3227 -0.3618
 7783SOL    HW134811   1.091   2.500   8.078  1.5615  0.7613 -1.4171
 7783SOL    HW234812   1.188   2.463   8.189  0.4216  1.9989  3.9108
 7784SOL     OW34813   1.263   2.034   7.653 -0.6494  1.1874 -0.3616
 7784SOL    HW134814   1.221   1.964   7.702 -0.0289  0.7486 -0.4624
 7784SOL    HW234815   1.308   1.992   7.580  2.6010  0.3650  2.1099
 7785SOL     OW34816   2.542   1.895   1.394  0.8748 -0.5213  0.5177
 7785SOL    HW134817   2.468   1.842   1.363  0.2534  1.0024 -0.5664
 7785SOL    HW234818   2.575   1.931   1.312 -1.1328  0.8734  0.3217
 7786SOL     OW34819   2.161   2.481   9.003 -0.1969 -0.0946 -0.0725
 7786SOL    HW134820   2.118   2.565   8.983  2.4814  0.5251 -3.2963
 7786SOL    HW234821   2.150   2.480   9.098  1.4914  1.8897  0.1378
 7787SOL     OW34822   2.963   2.733   6.870  0.4218  0.5810  0.2142
 7787SOL    HW134823   3.056   2.752   6.877  0.6919  0.5983 -3.6738
 7787SOL    HW234824   2.937   2.796   6.803 -1.4070 -0.2076  0.1993
 7788SOL     OW34825   0.547   3.960   9.156 -0.4734  0.0536 -0.1426
 7788SOL    HW134826   0.594   4.012   9.091 -2.3032  2.6839  0.6189
 7788SOL    HW234827   0.595   3.985   9.234  1.6849 -2.2837 -0.7395
 7789SOL     OW34828   1.352   1.598   9.151 -0.0484  0.1391 -0.2634
 7789SOL    HW134829   1.320   1.549   9.075 -1.7230 -1.5724  1.5310
 7789SOL    HW234830   1.408   1.536   9.197 -0.6362 -0.5742 -0.4909
 7790SOL     OW34831   3.931   2.984  10.834  0.1220 -0.1708 -0.1545
 7790SOL    HW134832   3.942   2.904  10.782 -1.0750  0.0926 -0.8155
 7790SOL    HW234833   3.872   2.960  10.905 -0.7764  2.3405 -0.0580
 7791SOL     OW34834   0.285   0.153   8.578 -0.4188 -0.4003  0.4045
 7791SOL    HW134835   0.269   0.247   8.576 -1.3137 -0.5564  0.0134
 7791SOL    HW234836   0.273   0.150   8.673 -0.1203  1.1156  0.4827
 7792SOL     OW34837   3.173   1.689   3.765 -0.1710  0.5139  0.3031
 7792SOL    HW134838   3.255   1.677   3.811  0.2916 -2.7095 -1.3608
 7792SOL    HW234839   3.127   1.765   3.802 -0.3217  0.3918  0.3674
 7793SOL     OW34840   3.465   0.180   1.734  0.0377  0.3719 -0.3041
 7793SOL    HW134841   3.553   0.190   1.770 -0.0111  1.8809 -0.5824
 7793SOL    HW234842   3.492   0.225   1.654 -2.7900 -0.3302 -1.6494
 7794SOL     OW34843   4.202   0.712   3.618 -0.3192  0.3001 -0.1450
 7794SOL    HW134844   4.259   0.688   3.691 -0.6262 -0.3274 -0.1089
 7794SOL    HW234845   4.269   0.721   3.551 -1.5294 -2.1783 -1.7085
 7795SOL     OW34846   4.008   2.326   7.314  0.1423 -0.2373  0.2254
 7795SOL    HW134847   4.096   2.302   7.287  0.6198  1.7503  0.0035
 7795SOL    HW234848   3.968   2.239   7.310  0.4478 -0.4078  0.8070
 7796SOL     OW34849   3.688   2.839  12.885  0.2103  0.0898  0.2890
 7796SOL    HW134850   3.783   2.848  12.881  0.4251 -1.6206  1.4698
 7796SOL    HW234851   3.665   2.908  12.823  0.2174 -0.0242  0.1582
 7797SOL     OW34852   0.731   4.179   7.501  0.2151  0.0838  0.1822
 7797SOL    HW134853   0.794   4.252   7.501 -1.8203  1.8195 -0.7889
 7797SOL    HW234854   0.678   4.199   7.579  0.7417  1.1484  0.2687
 7798SOL     OW34855   1.190   2.968  15.282 -0.5085 -0.1780 -0.2962
 7798SOL    HW134856   1.243   3.025  15.227  0.1812 -2.1464 -1.6322
 7798SOL    HW234857   1.235   2.974  15.367  1.4608 -1.6282 -1.2327
 7799SOL     OW34858   1.855   2.857  16.683  0.2207  0.4215 -0.4055
 7799SOL    HW134859   1.858   2.909  16.602  1.0934  1.0563  0.0337
 7799SOL    HW234860   1.770   2.813  16.678  0.7117 -0.4202 -1.2777
 7800SOL     OW34861   1.639   1.374   2.882  0.0183  0.0084 -0.3452
 7800SOL    HW134862   1.569   1.348   2.822  0.9445 -1.4779 -0.7922
 7800SOL    HW234863   1.600   1.358   2.968  0.1087  1.8452  0.0355
 7801SOL     OW34864   2.210   2.180  17.425 -0.3264 -0.0468 -0.0212
 7801SOL    HW134865   2.215   2.130  17.344 -1.2190  1.5706 -1.0807
 7801SOL    HW234866   2.299   2.177  17.462 -0.3219 -0.1266 -0.0395
 7802SOL     OW34867   2.820   2.525   8.090 -0.6077 -0.0696 -0.5416
 7802SOL    HW134868   2.862   2.548   8.173  2.3231 -3.8790 -0.9385
 7802SOL    HW234869   2.749   2.589   8.096  0.5052  1.3590 -2.7113
 7803SOL     OW34870   1.235   4.565   8.480  0.0609  0.0115  0.4913
 7803SOL    HW134871   1.155   4.575   8.428  1.3440  1.8175 -1.1221
 7803SOL    HW234872   1.216   4.485   8.530  1.1136 -1.0418 -0.7956
 7804SOL     OW34873   0.002   3.806  12.047  0.3420  0.1998  0.0517
 7804SOL    HW134874   0.045   3.815  11.962  1.8452  0.2227  0.8015
 7804SOL    HW234875   0.037   3.885  12.087  1.0546 -0.1525  0.1343
 7805SOL     OW34876   1.332   4.415   9.784  0.0032  0.7135  0.0053
 7805SOL    HW134877   1.341   4.364   9.864 -2.6034  0.1017 -0.1057
 7805SOL    HW234878   1.241   4.399   9.759  0.2222 -1.1583  0.3767
 7806SOL     OW34879   0.113   4.676  12.539 -0.3640  0.1327  0.0126
 7806SOL    HW134880   0.066   0.027  12.577 -3.5476 -1.8681  0.0216
 7806SOL    HW234881   0.198   4.697  12.577  0.0024  0.4868 -1.0039
 7807SOL     OW34882   1.210   2.071   0.426  0.6935  0.3662  0.2306
 7807SOL    HW134883   1.269   2.056   0.500  0.5809 -0.1251  0.2140
 7807SOL    HW234884   1.242   2.006   0.363 -2.1880 -1.7678  1.0132
 7808SOL     OW34885   0.159   4.585   9.440  0.0124  0.0840 -0.0926
 7808SOL    HW134886   0.178   4.621   9.527 -1.4644 -1.0905  0.7095
 7808SOL    HW234887   0.156   4.667   9.390 -3.1004  0.0431  0.0312
 7809SOL     OW34888   4.711   0.855   2.590  0.0760 -0.6188  0.0968
 7809SOL    HW134889   0.081   0.876   2.602 -0.7401  3.0421  0.0129
 7809SOL    HW234890   4.674   0.915   2.654  2.0525 -0.3002  0.9457
 7810SOL     OW34891   3.566   0.800   6.136 -0.3724  0.4515  0.3071
 7810SOL    HW134892   3.630   0.747   6.183  0.8098  2.1542  0.6088
 7810SOL    HW234893   3.531   0.735   6.075  2.7221 -0.7806 -0.1609
 7811SOL     OW34894   1.322   0.165   5.828  0.3366 -0.1520  0.2879
 7811SOL    HW134895   1.291   0.191   5.915 -3.1423  0.7889 -1.2409
 7811SOL    HW234896   1.237   0.163   5.783  0.8498  0.8013 -0.7161
 7812SOL     OW34897   1.200   0.499   0.188  0.3578  0.5361 -0.3081
 7812SOL    HW134898   1.252   0.435   0.238 -1.7842 -0.7457  0.2811
 7812SOL    HW234899   1.249   0.581   0.194  1.1183  0.0180  0.4699
 7813SOL     OW34900   0.745   1.619   3.072 -1.2550 -0.0306  0.1970
 7813SOL    HW134901   0.821   1.561   3.086 -1.6698  0.1919  3.4045
 7813SOL    HW234902   0.685   1.560   3.118 -2.0413  0.9028  0.3444
 7814SOL     OW34903   0.635   0.567   2.550 -0.5847 -0.1045 -0.5363
 7814SOL    HW134904   0.541   0.579   2.534 -0.2868  2.0272 -0.6690
 7814SOL    HW234905   0.681   0.598   2.472 -0.4483 -1.0175 -0.8144
 7815SOL     OW34906   2.070   1.526   3.899 -0.1596  0.1714  0.0645
 7815SOL    HW134907   2.013   1.450   3.888  0.6730 -0.0990 -2.3042
 7815SOL    HW234908   2.155   1.485   3.878 -0.5820 -0.6262 -0.0971
 7816SOL     OW34909   3.359   4.419   7.122 -0.1796 -0.6763  0.1289
 7816SOL    HW134910   3.341   4.447   7.211 -0.0939  2.6901 -0.9225
 7816SOL    HW234911   3.393   4.330   7.136 -2.2098 -1.6651 -1.1806
 7817SOL     OW34912   1.444   3.708   4.345  0.1282  0.3925 -0.3806
 7817SOL    HW134913   1.449   3.616   4.368  1.2800  1.5284  3.8456
 7817SOL    HW234914   1.487   3.695   4.260  1.2293 -0.5308  0.3239
 7818SOL     OW34915   2.219   3.154   7.475  0.0249 -0.2162 -0.2768
 7818SOL    HW134916   2.138   3.192   7.511 -0.2132 -0.1481 -0.8985
 7818SOL    HW234917   2.255   3.230   7.431 -2.3456  0.2254 -1.4144
 7819SOL     OW34918   3.338   1.168   6.848  0.1593  0.6643 -0.2537
 7819SOL    HW134919   3.359   1.090   6.796  2.8688  2.1997 -1.4575
 7819SOL    HW234920   3.339   1.234   6.779 -3.7345  2.0646  1.0614
 7820SOL     OW34921   1.454   4.603  15.687 -0.0198  0.2555 -0.4369
 7820SOL    HW134922   1.473   4.658  15.611 -0.1831  0.0727 -0.6103
 7820SOL    HW234923   1.499   4.649  15.757  0.6363  1.2315 -1.4936
 7821SOL     OW34924   3.818   1.803   3.739 -0.4433 -0.1083 -0.7758
 7821SOL    HW134925   3.756   1.842   3.678  0.6851  2.6411 -0.1557
 7821SOL    HW234926   3.895   1.854   3.713  0.8232 -0.9888  1.2383
 7822SOL     OW34927   4.033   2.027  15.239  0.1932 -0.0569  0.1925
 7822SOL    HW134928   4.006   1.962  15.174  0.2116 -1.0586  1.2104
 7822SOL    HW234929   4.100   1.975  15.281  0.4072  0.3959  0.4107
 7823SOL     OW34930   3.464   1.047  16.564  0.4472 -0.0784 -0.1309
 7823SOL    HW134931   3.444   0.971  16.509  0.0582  1.2872 -1.8688
 7823SOL    HW234932   3.381   1.087  16.588  1.2758  2.1377 -0.9864
 7824SOL     OW34933   4.599   1.694   8.508  0.7874 -0.0147  0.2020
 7824SOL    HW134934   4.617   1.777   8.554 -0.0961  0.8119 -0.9586
 7824SOL    HW234935   4.555   1.647   8.578  0.3002  0.6948  0.3709
 7825SOL     OW34936   0.514   3.882  15.633 -0.1837 -0.3522 -0.0681
 7825SOL    HW134937   0.447   3.862  15.567  1.1746 -0.8103 -1.3117
 7825SOL    HW234938   0.518   3.806  15.691  0.9146 -0.8208 -0.7521
 7826SOL     OW34939   2.006   3.577   2.103 -0.0463 -0.1426 -0.4325
 7826SOL    HW134940   1.927   3.604   2.148  0.5543  0.3204  0.3351
 7826SOL    HW234941   2.059   3.617   2.172 -0.0187 -1.7590  0.4834
 7827SOL     OW34942   0.503   2.964   8.053 -0.0502  0.2628  0.3370
 7827SOL    HW134943   0.576   2.976   7.993 -1.7472 -2.1693 -2.2408
 7827SOL    HW234944   0.528   2.874   8.075 -1.6008 -0.6813 -1.7871
 7828SOL     OW34945   0.221   1.022   4.911 -0.3941 -0.0543 -0.6725
 7828SOL    HW134946   0.193   1.009   5.001 -2.6784 -1.3291 -1.5759
 7828SOL    HW234947   0.261   1.108   4.925 -0.5019  0.1612 -1.6372
 7829SOL     OW34948   2.893   2.222   8.151 -0.1892 -0.4855 -0.4564
 7829SOL    HW134949   2.802   2.195   8.140 -0.4696  0.3623 -0.1518
 7829SOL    HW234950   2.898   2.314   8.126 -2.3110 -0.1460  0.4617
 7830SOL     OW34951   0.467   3.659  16.236 -0.0838 -0.4774  0.2729
 7830SOL    HW134952   0.423   3.714  16.301 -0.2631 -1.2272  0.7934
 7830SOL    HW234953   0.535   3.614  16.287  0.5565  0.5575  0.3344
 7831SOL     OW34954   3.746   0.355   6.301 -0.0004 -0.0041  0.1338
 7831SOL    HW134955   3.701   0.271   6.298 -0.8738  0.4974 -0.7472
 7831SOL    HW234956   3.783   0.348   6.213 -0.9566  0.3546 -0.2992
 7832SOL     OW34957   3.737   4.070  14.788  0.1105  0.3322 -0.6507
 7832SOL    HW134958   3.643   4.072  14.804  0.0183  1.9006 -1.3702
 7832SOL    HW234959   3.771   4.095  14.874  2.2681  1.8517 -1.9068
 7833SOL     OW34960   4.039   0.427   8.310 -0.0382  0.2430 -0.3519
 7833SOL    HW134961   4.038   0.480   8.231  2.5639  0.2774 -0.3880
 7833SOL    HW234962   4.034   0.490   8.382 -0.1559 -0.7494  0.5149
 7834SOL     OW34963   4.617   0.876  10.987 -0.0112 -0.3032  0.7217
 7834SOL    HW134964   4.631   0.924  11.068  2.2116  0.7670 -0.2935
 7834SOL    HW234965   4.700   0.835  10.963  0.4818  2.8381 -2.8916
 7835SOL     OW34966   0.526   1.640   4.213  0.6940  0.1042  0.6621
 7835SOL    HW134967   0.609   1.629   4.261  0.3413  0.5426  1.3816
 7835SOL    HW234968   0.510   1.734   4.209  2.6401  0.4519  0.7988
 7836SOL     OW34969   2.465   2.363   3.842  0.2469  0.1035 -0.4710
 7836SOL    HW134970   2.521   2.441   3.841  1.1379 -0.5771 -2.2217
 7836SOL    HW234971   2.525   2.292   3.818  1.2164  0.3894  1.1220
 7837SOL     OW34972   1.154   0.932   2.325  0.1963  0.3215  0.0460
 7837SOL    HW134973   1.232   0.877   2.332  0.7934  1.3754  1.5324
 7837SOL    HW234974   1.077   0.877   2.309 -0.2704  1.5942 -2.1898
 7838SOL     OW34975   4.325   2.139   1.534 -0.2770  0.0671 -0.2995
 7838SOL    HW134976   4.328   2.150   1.439 -0.6117  0.4871 -0.2596
 7838SOL    HW234977   4.363   2.051   1.537 -0.9314 -0.2203 -0.3043
 7839SOL     OW34978   3.487   3.331   9.558 -0.2291 -0.0172 -0.3502
 7839SOL    HW134979   3.486   3.370   9.471  1.1600  0.1242 -0.2965
 7839SOL    HW234980   3.553   3.263   9.551  0.0290  0.3088 -1.0513
 7840SOL     OW34981   4.387   0.550   4.453  0.2922  0.0528 -0.2781
 7840SOL    HW134982   4.426   0.617   4.507 -2.5676  2.3157 -0.9951
 7840SOL    HW234983   4.464   0.514   4.410  1.0601  0.8911  0.4128
 7841SOL     OW34984   3.101   2.922  13.734  0.3324  0.4884 -0.1582
 7841SOL    HW134985   3.027   2.930  13.794 -0.8661 -1.5115 -1.3759
 7841SOL    HW234986   3.089   3.006  13.690 -0.2930  0.4875  0.0108
 7842SOL     OW34987   4.406   0.566  11.653  0.0126 -0.3119  0.7595
 7842SOL    HW134988   4.419   0.496  11.590  1.3834  0.4190  0.2234
 7842SOL    HW234989   4.378   0.523  11.733 -1.0466 -2.6296 -0.8731
 7843SOL     OW34990   0.720   1.260   6.611  0.1665 -0.3994 -0.0845
 7843SOL    HW134991   0.653   1.324   6.633  0.9332  0.1184  0.7472
 7843SOL    HW234992   0.754   1.232   6.696  1.1808  0.7799 -0.0856
 7844SOL     OW34993   0.249   1.917   5.862 -0.2268 -0.3744 -0.3153
 7844SOL    HW134994   0.324   1.879   5.816  0.2681  1.2967 -0.9013
 7844SOL    HW234995   0.272   2.009   5.850 -6.1244  1.0844 -0.1223
 7845SOL     OW34996   2.032   3.694   3.562  0.2521  0.1941 -0.2472
 7845SOL    HW134997   2.067   3.771   3.517 -0.9243  0.2704 -1.0267
 7845SOL    HW234998   2.076   3.687   3.647 -0.7995 -0.0279  0.2782
 7846SOL     OW34999   2.142   2.052  11.977  0.3362 -0.6006 -0.0169
 7846SOL    HW135000   2.047   2.048  11.985  0.4307  0.5659  1.6228
 7846SOL    HW235001   2.167   2.131  12.025 -0.1449  1.0677 -2.5019
 7847SOL     OW35002   2.150   1.005   8.697 -0.1172  0.1346  0.1822
 7847SOL    HW135003   2.235   0.965   8.678 -0.2860 -0.9221  1.6587
 7847SOL    HW235004   2.117   0.984   8.610  1.1923 -2.8358  0.4094
 7848SOL     OW35005   3.322   3.421   6.470  0.0784 -0.2131  0.5552
 7848SOL    HW135006   3.245   3.388   6.425  0.2282 -1.3521  1.1262
 7848SOL    HW235007   3.390   3.355   6.453  0.0195  0.1129 -0.8566
 7849SOL     OW35008   2.650   3.694   5.033  0.5600  0.1742  0.5719
 7849SOL    HW135009   2.558   3.671   5.045  0.3051 -0.5461 -2.7791
 7849SOL    HW235010   2.683   3.690   5.122  0.4712 -0.1789  0.5903
 7850SOL     OW35011   2.112   1.406   6.089  0.1047  0.3258  0.2582
 7850SOL    HW135012   2.174   1.416   6.161  0.0120  0.4496  0.3206
 7850SOL    HW235013   2.083   1.316   6.097  2.4977 -0.4561  0.2011
 7851SOL     OW35014   2.351   4.345   6.414 -0.3236  0.5143 -0.0540
 7851SOL    HW135015   2.308   4.425   6.384 -1.9435  0.2864  1.5939
 7851SOL    HW235016   2.431   4.378   6.454 -0.6188 -0.5516  1.4231
 7852SOL     OW35017   1.188   0.898   7.867  0.6393  0.4041  0.5082
 7852SOL    HW135018   1.233   0.913   7.784 -0.1079 -2.2823 -0.3561
 7852SOL    HW235019   1.095   0.886   7.847  1.2262  1.8404 -2.9381
 7853SOL     OW35020   0.099   1.491   6.934 -0.2632  0.4517  0.1556
 7853SOL    HW135021   0.140   1.558   6.988 -0.4689 -0.3652  1.3267
 7853SOL    HW235022   0.152   1.412   6.944  1.0295  1.6620  2.8685
 7854SOL     OW35023   2.143   1.362   3.147  0.8926 -0.3524  0.0161
 7854SOL    HW135024   2.084   1.427   3.111 -1.4335 -3.0991 -1.0718
 7854SOL    HW235025   2.117   1.360   3.239 -1.8656 -0.2325 -0.7690
 7855SOL     OW35026   1.779   2.540   7.400  0.4967  0.3990  0.9458
 7855SOL    HW135027   1.775   2.530   7.495  0.0436  2.1622  1.1202
 7855SOL    HW235028   1.823   2.625   7.390  0.0839  0.5939  0.7826
 7856SOL     OW35029   4.671   0.953  15.275 -0.3278 -0.1620 -0.3951
 7856SOL    HW135030   4.641   0.871  15.316 -0.1844 -1.1326 -2.2191
 7856SOL    HW235031   4.670   1.016  15.347  0.1760 -1.2799  0.6007
 7857SOL     OW35032   0.605   4.194   5.162  0.3925  0.1128  0.1426
 7857SOL    HW135033   0.564   4.119   5.204  1.8586 -0.1987  1.0086
 7857SOL    HW235034   0.576   4.273   5.206  0.9297  1.2714 -1.5569
 7858SOL     OW35035   3.943   2.722  14.470  0.1800 -0.3452  1.0230
 7858SOL    HW135036   3.964   2.766  14.388 -1.4147 -0.7717  0.3774
 7858SOL    HW235037   3.916   2.795  14.526 -0.5393 -0.2311  0.5282
 7859SOL     OW35038   1.841   2.388  12.014 -0.1567 -0.2995  0.1780
 7859SOL    HW135039   1.757   2.419  11.980  0.1171 -1.0715 -1.1970
 7859SOL    HW235040   1.903   2.401  11.943  0.2947  0.1651  0.6585
 7860SOL     OW35041   1.701   2.707   2.738  0.3809 -0.1777 -0.8431
 7860SOL    HW135042   1.643   2.637   2.769  0.9452  0.2857  1.2725
 7860SOL    HW235043   1.730   2.674   2.653  0.6821 -0.1570 -0.7467
 7861SOL     OW35044   2.387   3.981   2.329  0.0916  0.0955 -0.4332
 7861SOL    HW135045   2.381   3.891   2.360  1.1922  0.3636  0.5710
 7861SOL    HW235046   2.448   3.966   2.257  1.3362 -2.0391  1.0654
 7862SOL     OW35047   1.261   2.637   5.056  0.1063  0.8031 -0.7091
 7862SOL    HW135048   1.294   2.547   5.053 -2.6099 -0.1671 -1.1860
 7862SOL    HW235049   1.312   2.673   4.984 -0.8119  0.5215 -1.5051
 7863SOL     OW35050   4.593   0.734  15.407 -0.4556 -0.1082  0.5548
 7863SOL    HW135051   4.515   0.682  15.389 -0.9587  0.5510  0.8357
 7863SOL    HW235052   4.646   0.693  15.476  0.1134 -0.0419  0.1647
 7864SOL     OW35053   3.587   1.883  12.931 -0.0882  0.0270 -0.0603
 7864SOL    HW135054   3.604   1.842  12.846 -2.7779  2.7057 -1.8864
 7864SOL    HW235055   3.638   1.826  12.989 -0.0639  0.5124  0.3982
 7865SOL     OW35056   0.703   3.919  16.794  0.5797  0.6930  0.0726
 7865SOL    HW135057   0.668   3.959  16.873 -1.7697  0.4789 -0.8575
 7865SOL    HW235058   0.677   3.984  16.728  2.5118 -0.5352 -1.9298
 7866SOL     OW35059   0.030   4.000   9.303  0.2914 -0.7456  0.5878
 7866SOL    HW135060   0.030   4.096   9.304  0.8657 -0.6879 -3.3601
 7866SOL    HW235061   0.085   3.983   9.227  0.7009  1.6721  0.3440
 7867SOL     OW35062   2.210   4.378   9.188  0.1889 -0.7479 -0.2209
 7867SOL    HW135063   2.297   4.362   9.225  1.2055  3.6633 -0.7911
 7867SOL    HW235064   2.172   4.433   9.257  2.1103  1.6824 -1.1148
 7868SOL     OW35065   1.601   4.222  10.297 -0.1012 -0.8137 -0.8003
 7868SOL    HW135066   1.587   4.134  10.332  0.6666 -0.3558  0.7018
 7868SOL    HW235067   1.697   4.230  10.303 -0.2973  0.9559  0.0709
 7869SOL     OW35068   3.305   2.896   4.066 -0.1293  0.1075 -0.3850
 7869SOL    HW135069   3.400   2.897   4.079 -0.4359  0.6590  1.7513
 7869SOL    HW235070   3.300   2.942   3.982  0.7192  2.4893  0.8712
 7870SOL     OW35071   4.592   3.788   0.461  0.0133  0.0987  0.1903
 7870SOL    HW135072   4.526   3.854   0.484 -0.8269 -1.7008  2.8888
 7870SOL    HW235073   4.664   3.831   0.507  0.1585  0.1867 -0.1184
 7871SOL     OW35074   2.929   1.095  11.957 -0.2749 -0.4726 -0.2153
 7871SOL    HW135075   2.971   1.033  11.897  0.1100 -0.1164 -0.3117
 7871SOL    HW235076   2.838   1.071  11.939 -0.1203 -0.5315 -0.9294
 7872SOL     OW35077   4.044   1.948   5.553  0.1609 -0.1343  0.6919
 7872SOL    HW135078   4.076   1.914   5.637 -0.5399 -0.1218  0.9682
 7872SOL    HW235079   3.950   1.959   5.566  0.2928  0.7324  0.8544
 7873SOL     OW35080   2.053   2.367   8.325  0.6451  0.2736  0.4098
 7873SOL    HW135081   2.036   2.370   8.419 -0.9088  0.5056  0.1355
 7873SOL    HW235082   2.072   2.274   8.311  0.9776  0.6337 -1.6398
 7874SOL     OW35083   1.787   2.026  12.514 -0.1211 -0.3500  0.3371
 7874SOL    HW135084   1.773   2.046  12.607 -3.1308 -1.0811  0.0385
 7874SOL    HW235085   1.734   2.094  12.474 -2.8478 -2.7664 -0.2215
 7875SOL     OW35086   2.092   4.203   0.100 -0.3700 -0.0938  0.6005
 7875SOL    HW135087   2.148   4.127   0.081  0.2876  0.2541  1.1864
 7875SOL    HW235088   2.080   4.183   0.193  1.9635 -0.0066  0.9131
 7876SOL     OW35089   2.237   1.954   6.800  0.2862  0.4031  0.4283
 7876SOL    HW135090   2.275   1.958   6.713  1.9027 -0.6085  1.0821
 7876SOL    HW235091   2.257   2.041   6.835 -1.7830  0.4188  1.5332
 7877SOL     OW35092   4.293   0.763   7.447  0.2839  0.5077  0.5476
 7877SOL    HW135093   4.363   0.828   7.457  1.8031 -1.2029  1.1064
 7877SOL    HW235094   4.264   0.799   7.363  0.3777  1.7841  1.0664
 7878SOL     OW35095   0.992   1.829   5.835  0.4955 -0.5215  0.1301
 7878SOL    HW135096   0.967   1.777   5.912 -0.9978 -1.8443 -1.2444
 7878SOL    HW235097   1.010   1.913   5.878 -0.9216  1.2949 -2.8730
 7879SOL     OW35098   4.221   2.235   6.348 -0.0038  0.4323 -0.2570
 7879SOL    HW135099   4.264   2.247   6.263 -0.7655  0.1708 -0.6752
 7879SOL    HW235100   4.266   2.155   6.377 -0.6526  0.1378 -0.0719
 7880SOL     OW35101   4.386   3.869   0.954 -0.0629 -0.3276 -1.0234
 7880SOL    HW135102   4.311   3.810   0.955  0.1159 -0.5155  0.5805
 7880SOL    HW235103   4.350   3.951   0.920 -0.5018  0.3253  0.9989
 7881SOL     OW35104   3.744   2.309  13.576 -0.0422 -0.4471  0.0410
 7881SOL    HW135105   3.661   2.350  13.550  0.3192  1.1577  1.3394
 7881SOL    HW235106   3.804   2.357  13.520 -0.4873 -0.3522 -0.3571
 7882SOL     OW35107   0.751   4.430   4.703 -0.5219 -0.2670 -0.4599
 7882SOL    HW135108   0.689   4.499   4.682 -0.0210  0.5392  0.7460
 7882SOL    HW235109   0.696   4.351   4.697  1.0589 -1.3774 -0.5262
 7883SOL     OW35110   4.443   3.788   8.294  0.0430 -0.1172  0.1081
 7883SOL    HW135111   4.410   3.744   8.373  0.1183  0.8399  0.6791
 7883SOL    HW235112   4.453   3.715   8.234 -2.8280  0.5800 -1.2395
 7884SOL     OW35113   1.321   4.569   9.496 -0.8287 -0.5883  0.0467
 7884SOL    HW135114   1.339   4.502   9.562 -0.5262  0.1933  0.7504
 7884SOL    HW235115   1.341   4.650   9.542  2.4374 -1.6080  0.3887
 7885SOL     OW35116   3.479   3.404   0.798 -0.5072  0.1441 -0.1594
 7885SOL    HW135117   3.447   3.483   0.842 -1.7795 -0.8645  0.7437
 7885SOL    HW235118   3.450   3.344   0.867  0.3087 -1.0882 -0.8907
 7886SOL     OW35119   1.014   1.412   4.108  0.2513 -0.6479  0.6498
 7886SOL    HW135120   1.105   1.424   4.135  0.9280 -0.6553 -1.5826
 7886SOL    HW235121   1.031   1.372   4.022 -0.8306 -0.3227  0.2935
 7887SOL     OW35122   0.311   0.904   2.415 -0.4886  0.0854 -0.6927
 7887SOL    HW135123   0.350   0.967   2.354  0.8444 -1.3157 -1.2508
 7887SOL    HW235124   0.249   0.851   2.364 -1.6445 -0.3042  1.1425
 7888SOL     OW35125   2.303   3.979   7.936 -0.2304 -0.3145  0.1254
 7888SOL    HW135126   2.398   3.992   7.936 -0.3182  0.1545 -4.0841
 7888SOL    HW235127   2.289   3.922   7.861 -1.0371  0.9548 -0.6796
 7889SOL     OW35128   4.312   1.168  14.425 -0.6830  0.1365  0.2257
 7889SOL    HW135129   4.287   1.260  14.434  0.3172  0.6037 -1.7809
 7889SOL    HW235130   4.313   1.133  14.514  0.7096 -1.5206 -0.4359
 7890SOL     OW35131   2.928   0.992   4.215  0.2864  0.2042 -0.2508
 7890SOL    HW135132   2.843   1.033   4.205  0.4553  0.9768  1.5902
 7890SOL    HW235133   2.915   0.916   4.158 -0.7611  0.8034 -0.8155
 7891SOL     OW35134   1.164   3.264   0.750 -0.2747 -0.6547  0.1851
 7891SOL    HW135135   1.255   3.253   0.780 -0.1406 -2.2751 -0.8545
 7891SOL    HW235136   1.166   3.355   0.721 -0.7040 -0.7988 -0.2896
 7892SOL     OW35137   1.396   2.831  16.796 -0.3572  0.3870 -0.4287
 7892SOL    HW135138   1.333   2.902  16.809  0.0766  0.6430  0.2562
 7892SOL    HW235139   1.395   2.812  16.702  2.5406 -1.1819 -0.1546
 7893SOL     OW35140   3.549   4.271  12.422  0.3523  0.0986 -0.2871
 7893SOL    HW135141   3.528   4.324  12.345  1.1604 -0.9975 -1.2664
 7893SOL    HW235142   3.469   4.281  12.473  0.3084 -4.3043  0.5027
 7894SOL     OW35143   1.791   1.570  10.456  0.2507 -0.0023 -0.4748
 7894SOL    HW135144   1.884   1.587  10.474  0.6160  0.3402 -2.6521
 7894SOL    HW235145   1.784   1.600  10.366 -1.1700  1.8108  0.2408
 7895SOL     OW35146   2.158   0.452   6.113  0.2751  0.2886  1.0415
 7895SOL    HW135147   2.197   0.381   6.164  0.7345 -0.1203  0.1257
 7895SOL    HW235148   2.212   0.521   6.152 -0.0309  1.7488 -1.1447
 7896SOL     OW35149   0.684   4.185   6.282  0.0268  0.1255  1.1276
 7896SOL    HW135150   0.669   4.154   6.193  0.7229  1.1736  0.6415
 7896SOL    HW235151   0.681   4.279   6.266  0.3267 -0.0872 -0.1810
 7897SOL     OW35152   4.403   2.118   2.814  0.0815 -0.8138  0.0027
 7897SOL    HW135153   4.321   2.133   2.862 -1.2721  0.0278 -2.5100
 7897SOL    HW235154   4.399   2.023   2.819 -1.4463 -0.9104 -2.8349
 7898SOL     OW35155   3.116   3.813  17.266 -0.9044 -0.0765 -0.1528
 7898SOL    HW135156   3.094   3.729  17.224 -0.2591  0.3442 -1.3338
 7898SOL    HW235157   3.173   3.790  17.339  0.2444  1.3212 -0.6005
 7899SOL     OW35158   0.352   0.308   7.532 -0.2650  0.1626 -0.0010
 7899SOL    HW135159   0.435   0.299   7.579  0.7837  2.7007 -1.3592
 7899SOL    HW235160   0.381   0.297   7.441 -0.6313  0.8513 -0.2004
 7900SOL     OW35161   0.996   0.189   6.052 -0.1449 -0.0414  0.4146
 7900SOL    HW135162   0.999   0.271   6.003  5.0351 -0.6398 -0.2624
 7900SOL    HW235163   1.043   0.211   6.132 -0.9031 -0.2820  0.9191
 7901SOL     OW35164   0.060   3.981   6.010 -0.5431 -0.8243  0.7388
 7901SOL    HW135165   4.711   3.933   5.970 -0.6849 -1.4920  1.7963
 7901SOL    HW235166   0.016   4.006   6.091  2.7452 -1.4180  2.6960
 7902SOL     OW35167   1.731   3.862   6.361 -0.3030 -0.1501 -0.6233
 7902SOL    HW135168   1.812   3.817   6.335 -0.1044  0.1091 -0.4486
 7902SOL    HW235169   1.667   3.791   6.361 -0.5937  0.1127 -1.1072
 7903SOL     OW35170   1.934   0.706   1.957  0.5311 -0.4507  0.5027
 7903SOL    HW135171   1.902   0.616   1.965 -1.7757  0.3518  0.3164
 7903SOL    HW235172   1.856   0.745   1.998  0.5531 -0.3336  0.4331
 7904SOL     OW35173   1.674   0.726   7.096 -0.2226  0.0335  0.5843
 7904SOL    HW135174   1.622   0.703   7.020 -0.7827  1.5504  0.5004
 7904SOL    HW235175   1.630   0.809   7.115  1.2548  0.7715  0.8028
 7905SOL     OW35176   4.467   1.433   9.916 -0.2203  0.5031 -0.5485
 7905SOL    HW135177   4.546   1.485   9.924  0.9257 -1.5195  1.2559
 7905SOL    HW235178   4.500   1.343   9.913  0.0019  0.4961  3.0378
 7906SOL     OW35179   2.114   4.091   2.353  0.3570 -0.9151  0.0599
 7906SOL    HW135180   2.084   4.180   2.373  0.4218 -0.9106  0.1409
 7906SOL    HW235181   2.209   4.106   2.346  0.2987  1.1947  3.3237
 7907SOL     OW35182   1.270   2.950   0.088  0.2907  0.2246 -0.2590
 7907SOL    HW135183   1.256   2.896   0.166  3.6858 -0.2650  0.0113
 7907SOL    HW235184   1.199   2.922   0.031 -0.9685  0.9808  0.9548
 7908SOL     OW35185   0.641   1.285   4.382  0.4775  0.0664 -0.4915
 7908SOL    HW135186   0.729   1.322   4.385 -0.9647  3.4084  0.9631
 7908SOL    HW235187   0.665   1.193   4.376 -0.0936  0.0167 -1.8665
 7909SOL     OW35188   1.865   4.639   1.028  0.1257  0.6070  0.3109
 7909SOL    HW135189   1.788   4.626   1.084 -0.3554 -0.5938 -0.6062
 7909SOL    HW235190   1.910   4.716   1.062 -0.9971  0.8505  1.2550
 7910SOL     OW35191   3.866   1.395   4.969  0.0036 -0.1194  0.4505
 7910SOL    HW135192   3.924   1.338   4.918  0.5523  0.6912  0.1647
 7910SOL    HW235193   3.895   1.486   4.955  1.8911 -0.5786  1.5083
 7911SOL     OW35194   2.770   2.902  10.654 -0.2504 -0.8432  1.0955
 7911SOL    HW135195   2.858   2.863  10.648 -0.0441 -0.1239 -0.3459
 7911SOL    HW235196   2.778   2.962  10.729 -1.0241 -0.2534  0.7027
 7912SOL     OW35197   0.367   3.607  17.161 -0.3383 -0.1182  0.0488
 7912SOL    HW135198   0.289   3.553  17.152 -0.9154  0.7589 -0.1686
 7912SOL    HW235199   0.340   3.658  17.238 -0.5541  1.7062 -1.2597
 7913SOL     OW35200   1.201   2.328   4.113 -0.2067 -0.0032 -0.1519
 7913SOL    HW135201   1.288   2.367   4.125 -0.8774  0.8716  1.8198
 7913SOL    HW235202   1.217   2.236   4.131 -0.0899  0.5852  2.7761
 7914SOL     OW35203   1.844   3.523   1.917 -0.1100  0.0676  0.8042
 7914SOL    HW135204   1.914   3.531   1.982 -0.2265  1.8958  0.6948
 7914SOL    HW235205   1.883   3.446   1.876 -0.0291 -0.2793  1.5258
 7915SOL     OW35206   1.995   1.878   7.920 -0.1976 -0.3818  0.1885
 7915SOL    HW135207   2.003   1.840   7.833  1.1483  0.6386 -0.1263
 7915SOL    HW235208   2.064   1.942   7.906 -0.0193 -0.3633  1.0956
 7916SOL     OW35209   4.619   4.029   1.505 -0.4134 -0.0264  0.4900
 7916SOL    HW135210   4.685   3.960   1.499 -1.0263 -0.5697 -0.0536
 7916SOL    HW235211   4.540   3.976   1.490 -1.1623  1.3106 -0.2241
 7917SOL     OW35212   4.149   1.704   3.588 -0.1592 -0.1729 -0.0440
 7917SOL    HW135213   4.111   1.625   3.549 -0.6384  1.1011 -2.1846
 7917SOL    HW235214   4.095   1.770   3.543  0.0801 -0.9122 -1.4353
 7918SOL     OW35215   4.122   0.895   9.500 -0.0278  0.1077  0.8870
 7918SOL    HW135216   4.203   0.934   9.533  0.7463 -0.1587 -0.7004
 7918SOL    HW235217   4.146   0.898   9.407  0.0708  1.6589  0.9636
 7919SOL     OW35218   0.766   3.528   6.736 -0.5494  0.0437  0.3360
 7919SOL    HW135219   0.737   3.619   6.741  0.3399  0.2952  0.7497
 7919SOL    HW235220   0.858   3.537   6.758 -0.8204  1.0292  1.0826
 7920SOL     OW35221   1.054   3.584   9.964  0.5866  0.5682  0.2072
 7920SOL    HW135222   1.079   3.583   9.872  0.0658  1.4500  0.0573
 7920SOL    HW235223   0.984   3.519   9.974  0.9603  0.4404  1.9873
 7921SOL     OW35224   0.926   3.038   3.186 -0.1250 -0.4883 -0.4451
 7921SOL    HW135225   0.889   3.047   3.274  0.8952 -2.7184  0.2238
 7921SOL    HW235226   0.905   2.948   3.160 -2.0747  0.0888 -0.8756
 7922SOL     OW35227   3.604   1.747   6.192  0.2893  0.5348 -0.1344
 7922SOL    HW135228   3.606   1.672   6.132 -1.7339  0.7839 -0.5279
 7922SOL    HW235229   3.568   1.702   6.269 -0.7740  1.1540 -0.2727
 7923SOL     OW35230   1.537   1.937  15.510 -0.1266 -0.1403 -0.0231
 7923SOL    HW135231   1.572   1.869  15.453 -0.9983  0.3725 -1.1577
 7923SOL    HW235232   1.521   1.895  15.595  1.0269  1.3174  0.9282
 7924SOL     OW35233   2.248   3.602   0.305  0.1267 -0.5302  0.6323
 7924SOL    HW135234   2.208   3.516   0.289 -0.6882 -0.2525  1.1543
 7924SOL    HW235235   2.219   3.648   0.227  1.1422 -0.0174  0.5548
 7925SOL     OW35236   0.576   4.635   2.405 -0.5963 -0.2891  0.4832
 7925SOL    HW135237   0.517   4.667   2.473 -1.3567 -0.6596 -0.0025
 7925SOL    HW235238   0.610   4.719   2.374  1.3510 -0.1027  3.1748
 7926SOL     OW35239   1.245   2.182   0.023  0.3831 -0.0905 -0.2311
 7926SOL    HW135240   1.253   2.108  17.656 -1.7359 -0.1998 -0.4012
 7926SOL    HW235241   1.215   2.257  17.665  0.7595 -0.1073 -0.4678
 7927SOL     OW35242   2.182   3.288   6.536  0.0757 -0.2973 -0.1011
 7927SOL    HW135243   2.232   3.340   6.599 -1.3420  2.7709 -1.5180
 7927SOL    HW235244   2.234   3.308   6.458  1.1372 -0.1309  0.6576
 7928SOL     OW35245   1.898   1.718  10.729  0.4780 -0.5320 -0.0421
 7928SOL    HW135246   1.981   1.723  10.683  0.5248 -3.4896 -0.2943
 7928SOL    HW235247   1.840   1.745  10.657 -1.9476 -2.3810  1.2013
 7929SOL     OW35248   4.256   1.143  16.378  0.3401  0.4604 -0.3762
 7929SOL    HW135249   4.285   1.226  16.417  0.9926  0.2912 -0.4941
 7929SOL    HW235250   4.319   1.134  16.306 -0.0539  1.5819 -0.8583
 7930SOL     OW35251   2.029   3.272   6.778  0.3378 -0.0042 -0.0057
 7930SOL    HW135252   2.121   3.257   6.800 -0.5034 -1.0913  2.6767
 7930SOL    HW235253   2.014   3.366   6.792  0.2644 -0.1402  0.8024
 7931SOL     OW35254   1.542   4.270   2.911 -0.7114  0.3490  0.1999
 7931SOL    HW135255   1.529   4.177   2.891  1.3420  0.3063 -0.9734
 7931SOL    HW235256   1.638   4.267   2.914 -0.7213  0.0454  0.2197
 7932SOL     OW35257   4.038   2.670   2.835  0.4706  0.1329  0.1838
 7932SOL    HW135258   4.061   2.722   2.911 -2.7748  0.8079  0.7280
 7932SOL    HW235259   3.953   2.712   2.820  1.4516  1.7576 -0.8054
 7933SOL     OW35260   0.051   1.383   0.179 -0.6476 -0.6926  0.2660
 7933SOL    HW135261   0.137   1.388   0.221  0.0443 -0.4039 -1.1868
 7933SOL    HW235262   0.005   1.445   0.236  1.3384  1.1334 -0.1068
 7934SOL     OW35263   1.645   4.510   0.791  0.0655 -0.4919  0.4381
 7934SOL    HW135264   1.680   4.424   0.813  0.4239 -0.7233 -1.0081
 7934SOL    HW235265   1.629   4.544   0.879  1.2977  0.5284  0.2632
 7935SOL     OW35266   0.937   0.341  12.337 -0.2247 -0.7472  0.2460
 7935SOL    HW135267   0.946   0.246  12.327  1.7008 -0.6289  0.8534
 7935SOL    HW235268   0.859   0.349  12.282  0.5952  1.3116 -0.6027
 7936SOL     OW35269   4.275   2.350   0.050  0.1222 -0.3940  0.0563
 7936SOL    HW135270   4.363   2.328   0.079  1.5144  2.5902 -1.8302
 7936SOL    HW235271   4.287   2.350  17.648  0.0007 -4.2667  0.0627
 7937SOL     OW35272   1.046   2.601  12.406 -0.4684 -0.0052  0.5269
 7937SOL    HW135273   1.117   2.556  12.453  0.3745  2.2550  1.4321
 7937SOL    HW235274   1.055   2.692  12.435 -1.0272  0.9345 -2.3062
 7938SOL     OW35275   1.125   2.144   8.132 -0.5295  0.8495  0.3644
 7938SOL    HW135276   1.175   2.208   8.083 -0.1989 -0.2666 -0.7620
 7938SOL    HW235277   1.158   2.067   8.084 -1.0633  1.3583 -0.8269
 7939SOL     OW35278   2.585   3.912   6.198  0.3450 -0.1785  0.0561
 7939SOL    HW135279   2.631   3.869   6.271 -1.4299 -2.0500  0.0870
 7939SOL    HW235280   2.495   3.881   6.200  0.4184 -0.1800  3.5235
 7940SOL     OW35281   3.104   0.240   9.204 -0.8030 -0.0755 -0.3519
 7940SOL    HW135282   3.019   0.198   9.205 -0.5746 -0.5407 -0.6331
 7940SOL    HW235283   3.137   0.220   9.292 -0.0753 -2.1413 -1.1080
 7941SOL     OW35284   2.651   2.124  14.105 -0.8562 -0.3313 -0.1473
 7941SOL    HW135285   2.563   2.160  14.099 -1.8028 -2.3463  1.4635
 7941SOL    HW235286   2.623   2.043  14.149 -3.4865  0.6237 -0.0607
 7942SOL     OW35287   0.016   0.118   4.851 -0.3498 -0.2461  0.2718
 7942SOL    HW135288   0.034   0.132   4.758  0.1229  1.5650  0.6476
 7942SOL    HW235289   4.674   0.186   4.867 -1.2863 -0.5494 -2.1429
 7943SOL     OW35290   4.698   2.685   3.717  0.7028 -0.6847 -0.4821
 7943SOL    HW135291   4.665   2.721   3.635 -0.4254  0.8690  0.6385
 7943SOL    HW235292   0.054   2.649   3.677  0.1453 -0.7406 -1.5205
 7944SOL     OW35293   1.129   2.388  11.923  0.4321  0.2242  0.1499
 7944SOL    HW135294   1.047   2.425  11.891 -0.3884  1.5651  3.7461
 7944SOL    HW235295   1.100   2.390  12.014 -0.0798 -2.0269  0.0270
 7945SOL     OW35296   1.087   2.692   2.797  0.5590 -0.3299  0.2023
 7945SOL    HW135297   1.025   2.705   2.869 -0.5822  0.8966 -1.0051
 7945SOL    HW235298   1.114   2.600   2.796 -3.0249 -1.3863  2.3517
 7946SOL     OW35299   2.548   3.223   1.883 -0.2327 -0.2557  0.2871
 7946SOL    HW135300   2.510   3.287   1.823 -0.0053 -2.7842 -2.5210
 7946SOL    HW235301   2.537   3.141   1.836 -2.5208  0.2632 -0.0371
 7947SOL     OW35302   0.681   4.636  15.819 -0.2976  0.2329  0.0394
 7947SOL    HW135303   0.634   4.560  15.852  0.4060  0.3646  1.3364
 7947SOL    HW235304   0.624   4.662  15.746  3.6198  2.2097 -2.3331
 7948SOL     OW35305   3.274   3.252   7.370  0.8363 -0.4284  0.0169
 7948SOL    HW135306   3.340   3.320   7.383 -0.1909 -0.0346  3.2321
 7948SOL    HW235307   3.216   3.288   7.302 -2.5172 -1.5174  2.2919
 7949SOL     OW35308   1.150   4.023   5.781 -0.1978  0.6300 -0.1071
 7949SOL    HW135309   1.205   4.051   5.709  2.7109  0.9740  2.2365
 7949SOL    HW235310   1.148   4.113   5.816  0.9544  0.2376  0.9979
 7950SOL     OW35311   3.508   3.135   3.720  0.2211  0.0877 -0.2256
 7950SOL    HW135312   3.535   3.098   3.636  0.0407  0.0117 -0.2504
 7950SOL    HW235313   3.477   3.222   3.696  1.3617  0.5873  0.1368
 7951SOL     OW35314   2.381   3.749   6.443  0.2886  0.3173 -0.2669
 7951SOL    HW135315   2.322   3.815   6.408 -0.4045 -0.9952 -1.5737
 7951SOL    HW235316   2.345   3.722   6.528  1.1550 -1.5479 -0.4950
 7952SOL     OW35317   2.510   0.956   4.492  0.0235 -0.1828 -0.3430
 7952SOL    HW135318   2.555   0.966   4.576  0.6912  0.2371 -0.7468
 7952SOL    HW235319   2.438   0.900   4.519 -0.6433  1.1974  0.7186
 7953SOL     OW35320   3.771   1.140  12.349 -0.1632  0.8546  0.5937
 7953SOL    HW135321   3.748   1.048  12.333  0.9940  0.3108  2.0383
 7953SOL    HW235322   3.866   1.129  12.344 -0.1095  1.2626  0.7267
 7954SOL     OW35323   1.328   2.573   5.732  0.3384  0.3370 -0.5201
 7954SOL    HW135324   1.239   2.569   5.698 -0.8154 -1.6353  2.8428
 7954SOL    HW235325   1.360   2.657   5.697 -0.4750 -0.2112 -2.5866
 7955SOL     OW35326   1.056   0.966   1.857 -0.2039 -0.0338  0.0538
 7955SOL    HW135327   1.017   0.919   1.931 -1.0842  1.6352  0.6579
 7955SOL    HW235328   1.132   1.008   1.898  0.4111 -0.3814 -0.7482
 7956SOL     OW35329   0.180   3.278  13.426  0.0613  0.3994  0.1508
 7956SOL    HW135330   0.141   3.341  13.486  1.7222  0.9572  0.6614
 7956SOL    HW235331   0.141   3.193  13.447  3.0211 -0.7200  1.1956
 7957SOL     OW35332   3.855   3.464  13.980 -0.3453  0.3475  0.1539
 7957SOL    HW135333   3.822   3.376  13.996  0.1532 -0.3041 -2.4520
 7957SOL    HW235334   3.911   3.470  14.058 -2.0856 -1.7241  1.5583
 7958SOL     OW35335   0.035   2.052   9.874 -0.0576 -0.0531  0.1107
 7958SOL    HW135336   0.022   1.983   9.939 -2.3718 -0.2030 -0.4954
 7958SOL    HW235337   0.070   2.001   9.800 -1.4570 -0.3722 -0.3379
 7959SOL     OW35338   1.289   1.788   8.632  0.6602  0.4635  0.5214
 7959SOL    HW135339   1.378   1.784   8.667  0.7656 -0.8404  0.1151
 7959SOL    HW235340   1.242   1.817   8.710  0.0842  0.9067  0.0103
 7960SOL     OW35341   4.272   0.937   0.405  0.0254  0.1271  0.2489
 7960SOL    HW135342   4.183   0.971   0.406 -0.2161 -0.5068  0.4235
 7960SOL    HW235343   4.305   0.964   0.491  1.0694 -1.3972  0.3267
 7961SOL     OW35344   1.457   4.403   5.626 -0.2906  0.1562  0.9753
 7961SOL    HW135345   1.532   4.366   5.672  0.4644  1.2639  0.6441
 7961SOL    HW235346   1.466   4.496   5.650  1.1772 -0.0430  1.2002
 7962SOL     OW35347   2.256   1.635   8.385  0.4065  0.0134 -0.2621
 7962SOL    HW135348   2.301   1.552   8.401 -0.5555 -0.6190 -0.9065
 7962SOL    HW235349   2.222   1.658   8.471  0.2641 -0.6002 -0.1556
 7963SOL     OW35350   0.922   1.461   2.382 -0.2324  0.3296  0.3391
 7963SOL    HW135351   0.845   1.455   2.327 -0.1210 -0.6562  0.2849
 7963SOL    HW235352   0.973   1.395   2.335 -0.8292  1.6616 -2.1215
 7964SOL     OW35353   1.744   1.804  16.344  0.2558  0.0517  0.0094
 7964SOL    HW135354   1.699   1.813  16.428 -2.1748  0.0558 -1.2810
 7964SOL    HW235355   1.746   1.708  16.342  1.5000  0.0907 -0.3681
 7965SOL     OW35356   4.243   0.194   2.676 -0.3566  0.2057 -0.1258
 7965SOL    HW135357   4.289   0.220   2.756 -2.9894  3.7151  0.2294
 7965SOL    HW235358   4.152   0.214   2.695 -0.1028 -0.6826  2.0421
 7966SOL     OW35359   0.094   0.798   3.511  0.2427 -0.4841 -0.2349
 7966SOL    HW135360   0.186   0.827   3.510  0.3586 -0.8811 -0.7691
 7966SOL    HW235361   0.038   0.875   3.499 -0.9507 -1.3832 -0.3953
 7967SOL     OW35362   1.164   2.229  10.336  0.5658 -0.0485 -0.0048
 7967SOL    HW135363   1.115   2.298  10.380 -0.2336  0.5530 -1.8346
 7967SOL    HW235364   1.244   2.241  10.387  0.3413 -0.5859  0.4688
 7968SOL     OW35365   0.698   1.599   5.055  0.3934 -0.2929 -0.0253
 7968SOL    HW135366   0.626   1.650   5.094 -0.7294 -1.9598  0.0767
 7968SOL    HW235367   0.685   1.612   4.961  0.6767  1.7545  0.1977
 7969SOL     OW35368   4.518   2.125   7.549  0.0360  0.5055  0.4839
 7969SOL    HW135369   4.449   2.071   7.587 -3.1246  3.2466 -1.4224
 7969SOL    HW235370   4.589   2.061   7.558  0.3974  0.7511 -0.6375
 7970SOL     OW35371   4.298   2.293   7.564  0.0335 -0.1726 -0.2931
 7970SOL    HW135372   4.371   2.269   7.508  1.6645  0.2326  1.6860
 7970SOL    HW235373   4.346   2.308   7.646 -0.7182  0.8633 -0.0370
 7971SOL     OW35374   3.343   1.230   7.401  0.2612  0.2424  0.0370
 7971SOL    HW135375   3.290   1.161   7.360  0.6307  0.6520 -1.1204
 7971SOL    HW235376   3.401   1.257   7.330  0.6143  0.3742  0.3738
 7972SOL     OW35377   2.583   4.293  14.294  0.2808 -0.3125 -0.1135
 7972SOL    HW135378   2.549   4.285  14.205 -1.1420 -0.2680  0.4257
 7972SOL    HW235379   2.639   4.215  14.294  0.7416  0.0184 -0.0976
 7973SOL     OW35380   3.550   1.812   9.273 -0.2024  0.2018  0.1560
 7973SOL    HW135381   3.593   1.843   9.353  0.9074 -1.2267  0.1131
 7973SOL    HW235382   3.463   1.850   9.277  0.6403  2.0796  0.7210
 7974SOL     OW35383   4.372   1.212   9.025 -0.3508  0.0559  0.1004
 7974SOL    HW135384   4.355   1.304   9.004 -1.3500 -0.5120 -1.6243
 7974SOL    HW235385   4.457   1.199   8.984 -0.6387  0.4768 -0.6492
 7975SOL     OW35386   1.741   2.428  16.265 -0.0470  0.4595 -0.6174
 7975SOL    HW135387   1.737   2.438  16.360 -0.2235 -1.1503 -0.4435
 7975SOL    HW235388   1.653   2.393  16.249 -1.1481  3.0053 -0.1580
 7976SOL     OW35389   1.984   3.345   4.633  0.2916  0.0365  0.0000
 7976SOL    HW135390   2.050   3.322   4.699 -0.4605 -0.5819  0.5371
 7976SOL    HW235391   2.030   3.348   4.549  0.8531  2.3277  0.3867
 7977SOL     OW35392   2.067   1.382  11.673 -0.3210 -0.4333 -0.2696
 7977SOL    HW135393   2.138   1.378  11.609 -0.1867 -1.3772 -0.0644
 7977SOL    HW235394   2.053   1.288  11.688  0.1635 -0.5717 -0.6655
 7978SOL     OW35395   2.884   2.460  10.420 -0.3087 -0.2402  0.9549
 7978SOL    HW135396   2.927   2.472  10.335 -0.6243 -0.6785  0.7302
 7978SOL    HW235397   2.940   2.489  10.491 -0.6208  0.7364  0.7908
 7979SOL     OW35398   3.576   0.536   2.283 -0.0365 -0.1677 -0.3655
 7979SOL    HW135399   3.661   0.494   2.273  0.4810  0.8029 -0.0586
 7979SOL    HW235400   3.594   0.616   2.332 -0.5580  0.3308 -0.9760
 7980SOL     OW35401   1.231   2.828  11.019 -0.0806 -0.2747  0.2309
 7980SOL    HW135402   1.216   2.829  11.113 -2.4514 -0.4731 -0.1402
 7980SOL    HW235403   1.245   2.920  10.998  0.3091 -0.3251  0.2631
 7981SOL     OW35404   4.722   1.966  12.801 -0.1487  0.3167 -0.4806
 7981SOL    HW135405   0.020   2.058  12.782 -2.5007  1.0431  0.4694
 7981SOL    HW235406   0.050   1.924  12.732 -0.9293  0.0620 -0.8907
 7982SOL     OW35407   4.548   3.458   0.478  0.4989 -0.0537 -0.5070
 7982SOL    HW135408   4.594   3.478   0.396  0.7760  1.4086 -0.0031
 7982SOL    HW235409   4.570   3.533   0.533  0.9356 -0.5987  0.0609
 7983SOL     OW35410   0.285   2.426   4.063 -0.7804 -0.2372 -0.0836
 7983SOL    HW135411   0.355   2.466   4.115 -1.6273  1.1449  0.0056
 7983SOL    HW235412   0.247   2.360   4.120 -0.2663 -1.8509 -1.6066
 7984SOL     OW35413   2.196   0.004   8.571  0.4677 -0.2048 -0.2086
 7984SOL    HW135414   2.143   4.655   8.605  1.7558 -0.8724  0.4017
 7984SOL    HW235415   2.181   0.000   8.477  4.0293  1.1975 -0.8374
 7985SOL     OW35416   0.576   3.851  10.971  0.1951  0.2034  0.2581
 7985SOL    HW135417   0.580   3.756  10.959 -1.2419  0.3119 -1.0226
 7985SOL    HW235418   0.639   3.865  11.042 -0.2158  1.2068  0.4115
 7986SOL     OW35419   2.939   4.214   5.701  0.5896  0.2833  0.8223
 7986SOL    HW135420   3.010   4.270   5.731 -0.0819  2.1297 -1.0902
 7986SOL    HW235421   2.860   4.253   5.737 -0.4461  0.1710 -1.3069
 7987SOL     OW35422   2.271   0.053   5.316 -0.1404  0.2647 -0.4864
 7987SOL    HW135423   2.309   4.689   5.302  1.1727  1.1251 -2.2038
 7987SOL    HW235424   2.299   0.088   5.232 -1.3681 -0.5520 -1.2402
 7988SOL     OW35425   1.557   2.583   9.055 -0.5372  0.3660 -0.0946
 7988SOL    HW135426   1.559   2.593   9.150 -2.7666 -1.9818  0.1807
 7988SOL    HW235427   1.551   2.488   9.046  1.0738  0.2117  0.4179
 7989SOL     OW35428   3.449   3.987   9.574 -0.7613  0.2610 -0.8821
 7989SOL    HW135429   3.376   3.956   9.522 -0.6002 -0.0911 -0.8996
 7989SOL    HW235430   3.507   3.911   9.585  0.7542  1.2838 -1.8599
 7990SOL     OW35431   0.687   4.572   5.330 -0.1547 -0.4044 -0.6890
 7990SOL    HW135432   0.740   4.492   5.330 -0.1833 -0.4232 -0.5366
 7990SOL    HW235433   0.611   4.537   5.284 -0.0432  0.0140 -1.1907
 7991SOL     OW35434   1.752   0.586   3.997 -0.0842 -0.1710 -0.2519
 7991SOL    HW135435   1.781   0.517   3.938 -1.1312  0.4311 -1.4652
 7991SOL    HW235436   1.676   0.623   3.953 -1.3625 -2.2042  0.2355
 7992SOL     OW35437   2.339   4.544  10.232  0.1645  0.1199  0.8560
 7992SOL    HW135438   2.423   4.580  10.202  0.4561 -0.8780  0.4804
 7992SOL    HW235439   2.285   4.571  10.158  2.4139  0.9152 -0.4916
 7993SOL     OW35440   0.208   2.501  15.136 -0.1992 -0.2553  0.1751
 7993SOL    HW135441   0.197   2.524  15.044  2.1116  0.7353  0.1388
 7993SOL    HW235442   0.120   2.516  15.170  0.5465 -0.2365  2.1017
 7994SOL     OW35443   3.634   0.588   8.560  0.0476 -0.6770  0.1571
 7994SOL    HW135444   3.583   0.627   8.489  1.2031  0.8982  0.1945
 7994SOL    HW235445   3.619   0.662   8.619  0.9245  0.4104 -0.9756
 7995SOL     OW35446   3.211   2.684  13.682 -0.1215  0.1732  0.1499
 7995SOL    HW135447   3.239   2.683  13.591  0.8412 -1.5204  0.4698
 7995SOL    HW235448   3.188   2.776  13.695 -1.8907 -0.2261 -0.0931
 7996SOL     OW35449   0.045   0.129   4.599 -0.5697  0.6790 -0.4785
 7996SOL    HW135450   0.082   0.082   4.525  0.2028  1.0577 -0.3382
 7996SOL    HW235451   0.093   0.212   4.594 -0.0357  0.3473 -0.8041
 7997SOL     OW35452   4.630   3.996  14.683 -0.0710  0.8737  0.0108
 7997SOL    HW135453   0.000   3.987  14.660 -0.9017 -0.6149 -2.7692
 7997SOL    HW235454   4.610   4.058  14.613  1.4694 -0.8250 -1.9461
 7998SOL     OW35455   3.983   2.064   6.214 -0.4900 -0.1983  0.2658
 7998SOL    HW135456   3.994   2.159   6.215  0.1976 -0.2696 -0.3356
 7998SOL    HW235457   4.042   2.037   6.285  0.9118  2.6423  0.1885
 7999SOL     OW35458   0.755   0.928   5.250  0.1818  0.4787 -0.0927
 7999SOL    HW135459   0.793   0.992   5.190  1.2483  0.1922  0.2928
 7999SOL    HW235460   0.660   0.942   5.240  0.1584  0.3977  0.0227
 8000SOL     OW35461   3.468   3.356   9.296 -0.2468 -0.0034 -0.6424
 8000SOL    HW135462   3.531   3.350   9.224 -0.7427  2.2865 -1.2761
 8000SOL    HW235463   3.391   3.321   9.252  0.0098  1.2723 -2.1016
 8001SOL     OW35464   4.362   4.571  16.362 -0.2824  0.1014  0.0082
 8001SOL    HW135465   4.373   4.511  16.289 -1.2901 -1.7267  1.3743
 8001SOL    HW235466   4.339   4.656  16.323  3.3269  0.6918 -0.8499
 8002SOL     OW35467   2.143   2.983   8.281  0.4271  0.3649 -0.0079
 8002SOL    HW135468   2.081   2.932   8.333  1.6182 -1.1807 -0.1419
 8002SOL    HW235469   2.210   2.917   8.268 -0.8029 -1.0537  0.8994
 8003SOL     OW35470   0.062   1.605   9.799  0.2582  0.2984 -0.0102
 8003SOL    HW135471   0.072   1.533   9.861  0.0712 -0.1053 -0.4433
 8003SOL    HW235472   0.103   1.565   9.722 -1.8377 -1.2921 -0.2956
 8004SOL     OW35473   2.655   3.892   0.460  0.1180  0.5007  0.2889
 8004SOL    HW135474   2.676   3.825   0.525  0.5878 -0.1104 -0.4898
 8004SOL    HW235475   2.560   3.900   0.472  0.2063 -0.0835  1.3960
 8005SOL     OW35476   2.017   3.583   5.890 -0.0805  0.0534 -0.4294
 8005SOL    HW135477   1.960   3.511   5.919  1.1957 -0.6735  0.2906
 8005SOL    HW235478   1.949   3.637   5.850  0.6163  0.0704 -1.5782
 8006SOL     OW35479   1.160   3.676   4.346 -0.1238  0.1283 -0.2317
 8006SOL    HW135480   1.252   3.697   4.362 -0.2860  0.5499  0.1437
 8006SOL    HW235481   1.158   3.664   4.251 -0.0762 -0.4253 -0.1606
 8007SOL     OW35482   1.288   0.546   7.789  0.2689  0.3186 -0.0827
 8007SOL    HW135483   1.216   0.490   7.820  0.6160 -0.4025 -0.5797
 8007SOL    HW235484   1.264   0.570   7.700 -1.9736  0.5037  0.5744
 8008SOL     OW35485   3.258   3.076  13.196  0.0401  0.2227 -0.2444
 8008SOL    HW135486   3.285   3.157  13.153  1.8754 -1.3838 -2.1197
 8008SOL    HW235487   3.267   3.021  13.119  1.1466  0.3291 -0.1924
 8009SOL     OW35488   1.823   0.352   3.823  0.0023 -0.0159  0.7943
 8009SOL    HW135489   1.893   0.412   3.794  0.8226 -0.9072  0.9395
 8009SOL    HW235490   1.864   0.284   3.876 -0.3942 -0.1356  0.9411
 8010SOL     OW35491   1.676   0.343   6.264 -0.2103  0.5646  0.0867
 8010SOL    HW135492   1.636   0.259   6.241  1.4698 -0.4850  0.9378
 8010SOL    HW235493   1.767   0.330   6.235  0.0983 -0.4447  1.4803
 8011SOL     OW35494   2.715   4.578   8.214  0.1871 -0.3699 -0.1348
 8011SOL    HW135495   2.793   4.525   8.196 -0.8322 -1.0463 -2.4710
 8011SOL    HW235496   2.734   4.667   8.185  2.1125 -0.2258  1.5546
 8012SOL     OW35497   4.364   2.011   3.675  0.0683  0.3512 -0.1669
 8012SOL    HW135498   4.300   2.069   3.635 -1.8777 -0.6691  1.5001
 8012SOL    HW235499   4.347   1.928   3.631 -0.4878 -1.0341  2.6917
 8013SOL     OW35500   0.409   2.685   3.454 -0.5217  0.3813  0.2720
 8013SOL    HW135501   0.451   2.733   3.384  0.0975  0.9421  1.0321
 8013SOL    HW235502   0.318   2.713   3.438 -0.8989 -1.6421 -1.1890
 8014SOL     OW35503   4.095   0.113  11.703 -0.3241 -0.0995  0.0565
 8014SOL    HW135504   4.081   0.197  11.659 -0.0998  1.0878  2.2595
 8014SOL    HW235505   4.121   0.137  11.792 -1.0063  0.8796 -0.0133
 8015SOL     OW35506   2.947   1.614   7.000 -0.1932 -0.5212 -0.0523
 8015SOL    HW135507   2.935   1.683   7.065 -1.4367 -0.5422 -0.2684
 8015SOL    HW235508   2.884   1.644   6.934 -0.4991  0.6312  0.7647
 8016SOL     OW35509   4.505   3.187  13.439 -0.2972 -0.5243  0.3624
 8016SOL    HW135510   4.521   3.281  13.450 -0.7942 -0.4073  0.1057
 8016SOL    HW235511   4.428   3.190  13.381  1.7434 -1.1083 -2.3702
 8017SOL     OW35512   1.437   1.609  11.174 -0.4895 -0.5517 -0.3184
 8017SOL    HW135513   1.479   1.685  11.132 -0.0426 -1.3483 -1.3175
 8017SOL    HW235514   1.399   1.664  11.242 -1.0990 -0.6455 -0.5867
 8018SOL     OW35515   4.416   0.697   3.426 -0.5913 -0.1208  0.0727
 8018SOL    HW135516   4.479   0.628   3.448  0.0853  0.9949  1.6154
 8018SOL    HW235517   4.383   0.661   3.344 -0.8007 -0.9896  0.5303
 8019SOL     OW35518   0.996   2.250  12.424  0.4353 -0.5449  0.4019
 8019SOL    HW135519   1.025   2.164  12.455 -0.9253 -1.3358 -0.5083
 8019SOL    HW235520   0.990   2.295  12.508 -1.3763 -1.9102  1.0160
 8020SOL     OW35521   3.767   4.211   3.337  0.5866  0.8627  0.5549
 8020SOL    HW135522   3.711   4.219   3.260 -0.9146 -0.1300  1.5285
 8020SOL    HW235523   3.780   4.117   3.347  0.5765  0.6835 -1.2709
 8021SOL     OW35524   0.480   2.408   6.402 -0.2541  0.2711 -0.1368
 8021SOL    HW135525   0.569   2.375   6.394 -0.5780 -0.3331 -1.1980
 8021SOL    HW235526   0.494   2.496   6.364 -0.2032  0.0606 -0.6112
 8022SOL     OW35527   3.903   4.200  13.994  0.0473  0.3141 -0.3610
 8022SOL    HW135528   3.972   4.205  13.928 -0.9053 -0.5349 -1.4228
 8022SOL    HW235529   3.929   4.128  14.051 -1.2132  1.1608  1.2837
 8023SOL     OW35530   2.477   0.769   1.847  0.3345 -0.0295  0.1849
 8023SOL    HW135531   2.397   0.740   1.892  0.8143 -2.3812 -0.4738
 8023SOL    HW235532   2.496   0.849   1.896 -0.9490 -0.5649  1.5611
 8024SOL     OW35533   0.353   2.346   3.772 -0.1365 -0.2812 -0.5152
 8024SOL    HW135534   0.397   2.266   3.801 -0.9535  0.4771  2.8145
 8024SOL    HW235535   0.294   2.365   3.845  2.1392 -1.3586  1.5785
 8025SOL     OW35536   1.859   3.555   0.842  0.3696  0.4160 -0.3555
 8025SOL    HW135537   1.930   3.605   0.881  1.7297 -1.0541 -0.9615
 8025SOL    HW235538   1.910   3.484   0.804  0.8232  0.2959  0.4871
 8026SOL     OW35539   0.048   4.424   3.057 -0.0688  0.1857  0.0918
 8026SOL    HW135540   0.067   4.430   2.964  0.1740  3.7610  0.3889
 8026SOL    HW235541   0.099   4.501   3.080 -0.1056 -0.5205  2.5334
 8027SOL     OW35542   2.932   2.205   2.310 -0.0756 -0.5907 -0.2506
 8027SOL    HW135543   2.852   2.258   2.309 -1.6426 -2.9194  0.7714
 8027SOL    HW235544   2.973   2.228   2.227  0.7508  0.0829  0.3477
 8028SOL     OW35545   4.040   0.511   9.318  0.2209  0.3596  0.1625
 8028SOL    HW135546   4.036   0.416   9.329 -1.2174  0.4150  0.1551
 8028SOL    HW235547   4.118   0.520   9.264  1.3671 -2.0341  1.4175
 8029SOL     OW35548   2.598   4.691  11.709 -0.3970  0.5086 -0.2220
 8029SOL    HW135549   2.539   4.617  11.699 -0.8507  0.6694  1.2324
 8029SOL    HW235550   2.671   4.665  11.653  1.2445  1.3455  1.5211
 8030SOL     OW35551   3.503   0.346  12.484 -0.2278 -0.1116 -0.7690
 8030SOL    HW135552   3.417   0.385  12.497  0.8430  2.5885 -1.7153
 8030SOL    HW235553   3.480   0.326  12.394  1.8959 -2.8158 -0.7127
 8031SOL     OW35554   4.388   3.108  14.965  0.3342  0.0054 -0.5421
 8031SOL    HW135555   4.484   3.111  14.966  0.4324 -2.6184  0.2232
 8031SOL    HW235556   4.377   3.071  15.053  0.1065 -1.0840 -1.0310
 8032SOL     OW35557   1.379   1.760   1.522  0.4639  0.1085 -0.0787
 8032SOL    HW135558   1.392   1.677   1.477  0.4336 -0.0982  0.2958
 8032SOL    HW235559   1.292   1.752   1.560  0.9143 -0.2221  0.8707
 8033SOL     OW35560   1.505   3.711   3.626  0.1032  0.3444 -0.2120
 8033SOL    HW135561   1.473   3.705   3.715  0.4774 -0.5465 -0.1313
 8033SOL    HW235562   1.516   3.805   3.613  0.3669  0.3526  0.0825
 8034SOL     OW35563   0.884   4.321   5.833  0.3604  0.5053  0.5809
 8034SOL    HW135564   0.967   4.350   5.871 -0.6982 -0.6792  3.7592
 8034SOL    HW235565   0.904   4.331   5.740  1.0230 -1.7348  0.4657
 8035SOL     OW35566   0.692   3.047   8.512  0.0087  0.1878 -1.0853
 8035SOL    HW135567   0.690   3.140   8.536 -1.9668 -0.3671  0.8933
 8035SOL    HW235568   0.775   3.055   8.464 -0.2717  0.2527 -1.5552
 8036SOL     OW35569   3.773   4.217   4.879  0.0992  0.1661 -0.0081
 8036SOL    HW135570   3.819   4.250   4.802 -0.5329 -0.7264 -0.7697
 8036SOL    HW235571   3.743   4.287   4.938  1.1613 -0.7718  1.6397
 8037SOL     OW35572   1.629   2.739   4.858  0.5969 -0.4123 -0.0312
 8037SOL    HW135573   1.612   2.833   4.850  0.1443 -0.6194 -1.5363
 8037SOL    HW235574   1.683   2.721   4.781  2.7881  0.4386  1.2950
 8038SOL     OW35575   0.881   0.733  13.198  0.6742 -0.0923 -0.3703
 8038SOL    HW135576   0.926   0.661  13.242  0.5929 -0.7995 -1.4621
 8038SOL    HW235577   0.914   0.709  13.111  0.5321  0.4776 -0.5823
 8039SOL     OW35578   1.108   0.789   4.176  0.7043  0.5256  0.2779
 8039SOL    HW135579   1.131   0.711   4.227 -0.9750  0.5177  1.0288
 8039SOL    HW235580   1.125   0.757   4.087  3.9422  1.0576  0.7094
 8040SOL     OW35581   2.289   2.810   5.902  0.5574 -0.5364 -0.0754
 8040SOL    HW135582   2.259   2.805   5.812  1.3715 -1.1468 -0.3161
 8040SOL    HW235583   2.231   2.880   5.933  0.6041 -0.4973 -0.0765
 8041SOL     OW35584   1.034   3.427   6.333 -0.8363  0.6716  0.2412
 8041SOL    HW135585   1.083   3.463   6.259  1.7628 -0.7079  1.2952
 8041SOL    HW235586   1.092   3.352   6.346  0.3764  1.5499 -0.1809
 8042SOL     OW35587   4.290   2.642  10.237 -0.2128  0.4121 -0.4913
 8042SOL    HW135588   4.253   2.561  10.203  1.6162 -0.5389 -0.1887
 8042SOL    HW235589   4.373   2.635  10.191 -0.5622 -0.4274 -0.9838
 8043SOL     OW35590   1.692   3.455  10.750  0.0215  0.0402 -0.2385
 8043SOL    HW135591   1.693   3.455  10.845 -1.2502  0.5216 -0.2238
 8043SOL    HW235592   1.782   3.480  10.729  0.1593 -0.4914 -0.2702
 8044SOL     OW35593   4.241   1.987   2.341 -0.5697  0.2329  0.2403
 8044SOL    HW135594   4.242   2.048   2.267  1.1640 -0.0043  0.0681
 8044SOL    HW235595   4.239   2.055   2.408 -0.0455 -0.3913  0.8932
 8045SOL     OW35596   0.192   1.571   4.420  0.2736  0.3791  0.0999
 8045SOL    HW135597   0.190   1.663   4.394  2.7826 -0.2736 -2.3585
 8045SOL    HW235598   0.100   1.544   4.417  0.2192  0.4648  0.8046
 8046SOL     OW35599   2.738   0.105  17.416 -0.0251 -0.0868 -0.5157
 8046SOL    HW135600   2.789   0.181  17.445  0.6573 -0.0415 -1.8506
 8046SOL    HW235601   2.658   0.158  17.418 -0.0324 -0.1346  0.3324
 8047SOL     OW35602   0.703   0.072  16.050 -0.6666  0.4181 -0.0897
 8047SOL    HW135603   0.617   0.113  16.064 -1.2613 -0.6827 -0.5015
 8047SOL    HW235604   0.694   0.022  15.969  0.9961  0.6604 -0.4147
 8048SOL     OW35605   1.590   2.452   2.657 -0.3273  0.5209 -0.0214
 8048SOL    HW135606   1.592   2.378   2.717 -0.1224  2.5920  2.5253
 8048SOL    HW235607   1.497   2.463   2.636  0.0642 -0.1550 -2.1606
 8049SOL     OW35608   4.241   3.727  13.960 -0.3159  0.4083 -0.3783
 8049SOL    HW135609   4.216   3.681  14.041  2.2382  0.4506  0.4313
 8049SOL    HW235610   4.220   3.659  13.896  0.9918  0.1587 -0.5386
 8050SOL     OW35611   2.630   1.829   8.010 -0.1682  0.1650  0.2096
 8050SOL    HW135612   2.667   1.755   7.962 -0.0581  0.0730  0.4327
 8050SOL    HW235613   2.607   1.787   8.094 -0.1657 -0.0386  0.1072
 8051SOL     OW35614   1.276   0.319   8.305  0.1569 -0.0902  0.1481
 8051SOL    HW135615   1.347   0.380   8.284 -1.4916  1.6949 -0.2297
 8051SOL    HW235616   1.243   0.340   8.392  0.0940  0.0476  0.0911
 8052SOL     OW35617   0.723   1.317   2.804 -0.3177  0.0762 -0.8539
 8052SOL    HW135618   0.765   1.347   2.885  1.2065  0.0314 -1.6275
 8052SOL    HW235619   0.780   1.357   2.739 -0.3485 -1.8944 -2.0771
 8053SOL     OW35620   4.592   0.222   2.468  0.0433 -0.4174 -0.9453
 8053SOL    HW135621   4.604   0.280   2.543 -0.5801  1.5835 -2.3899
 8053SOL    HW235622   4.668   0.230   2.411 -0.2607  0.5900 -1.2158
 8054SOL     OW35623   2.331   3.301  14.709 -0.1089  0.0096  0.4742
 8054SOL    HW135624   2.255   3.262  14.666  0.2554 -1.5070  1.2024
 8054SOL    HW235625   2.380   3.331  14.632 -1.7427 -0.7794 -0.8730
 8055SOL     OW35626   1.833   3.070   3.419  0.2426 -0.5597  0.1681
 8055SOL    HW135627   1.859   2.978   3.418 -2.7005 -1.3991  1.4261
 8055SOL    HW235628   1.853   3.098   3.330 -0.6164  1.1870  0.5363
 8056SOL     OW35629   3.609   0.075   3.654 -0.3803  0.5748  0.1449
 8056SOL    HW135630   3.577   4.711   3.629  2.0338  0.2097 -1.6585
 8056SOL    HW235631   3.566   0.077   3.739 -3.0816 -1.8792 -1.1704
 8057SOL     OW35632   0.757   2.097   1.642  0.6747  0.2754  0.3831
 8057SOL    HW135633   0.764   2.069   1.551 -0.4374 -0.9238  0.6745
 8057SOL    HW235634   0.839   2.063   1.678  0.9898 -1.0697 -1.6525
 8058SOL     OW35635   1.711   4.273   0.898 -0.0173  0.2414 -0.2726
 8058SOL    HW135636   1.760   4.198   0.928 -3.3988 -0.8264  2.5263
 8058SOL    HW235637   1.621   4.241   0.899 -0.3417  1.2116  1.2507
 8059SOL     OW35638   4.297   4.587   3.676 -0.2160 -0.3773 -0.0608
 8059SOL    HW135639   4.284   4.528   3.750  0.5760 -2.1556 -1.3626
 8059SOL    HW235640   4.333   4.537   3.603  0.6329 -0.3716  0.3534
 8060SOL     OW35641   1.195   3.353   2.403 -0.2887 -0.4341  0.1555
 8060SOL    HW135642   1.152   3.438   2.413  0.5773  0.3214 -2.4405
 8060SOL    HW235643   1.159   3.335   2.316  1.7014  0.3835 -0.8490
 8061SOL     OW35644   1.633   2.916   1.331 -0.7425 -0.2236  0.2531
 8061SOL    HW135645   1.539   2.900   1.333 -0.9927  1.1998 -0.0603
 8061SOL    HW235646   1.633   2.982   1.400  0.4951  0.3751 -0.3110
 8062SOL     OW35647   0.399   4.644   5.605  0.2380 -0.0720 -0.0471
 8062SOL    HW135648   0.424   4.682   5.521 -1.1634 -1.1470 -0.9703
 8062SOL    HW235649   0.354   4.565   5.575 -1.7970  1.9157 -2.2025
 8063SOL     OW35650   0.747   0.300   8.725 -0.0686  0.1273  0.2129
 8063SOL    HW135651   0.698   0.225   8.691  0.0071  0.4550 -0.6226
 8063SOL    HW235652   0.836   0.265   8.731 -0.2203 -0.1541  0.7864
 8064SOL     OW35653   1.286   2.217  11.615 -0.2681 -0.2224  0.2757
 8064SOL    HW135654   1.202   2.237  11.576  0.4770 -2.7669 -2.6040
 8064SOL    HW235655   1.258   2.218  11.707  0.0865 -0.2838  0.3853
 8065SOL     OW35656   2.235   3.248   8.727 -0.1109  0.1843 -0.0632
 8065SOL    HW135657   2.266   3.278   8.641  1.8009 -1.9473 -0.1118
 8065SOL    HW235658   2.237   3.322   8.788  0.3452  0.5456 -0.5104
 8066SOL     OW35659   1.005   3.207  15.867 -0.0419 -0.0217 -0.8436
 8066SOL    HW135660   1.091   3.182  15.831  1.1874  2.2770  0.5274
 8066SOL    HW235661   1.005   3.300  15.844  0.1099  0.0037 -0.7424
 8067SOL     OW35662   1.761   0.945   7.920  0.3093  0.7626 -0.4954
 8067SOL    HW135663   1.799   1.032   7.910 -3.6615  2.4430 -1.1501
 8067SOL    HW235664   1.693   0.959   7.987  0.7001 -0.6785  0.1980
 8068SOL     OW35665   3.103   2.098  13.591 -0.0648 -0.0739 -0.6296
 8068SOL    HW135666   3.035   2.101  13.658  0.8964  0.4222  0.3255
 8068SOL    HW235667   3.118   2.191  13.579  1.0691 -0.0852  0.7996
 8069SOL     OW35668   4.150   4.270   5.422 -0.1924 -0.6569  0.2834
 8069SOL    HW135669   4.162   4.176   5.426 -0.3310 -0.7429 -1.2323
 8069SOL    HW235670   4.241   4.297   5.413 -0.4738  0.2141  0.0110
 8070SOL     OW35671   0.247   0.035  15.152  0.1404 -0.2091 -0.1858
 8070SOL    HW135672   0.329   4.710  15.145  0.1119 -0.2442 -0.2742
 8070SOL    HW235673   0.251   0.103  15.085  0.4977  0.2641  0.3141
 8071SOL     OW35674   2.387   4.109   3.723 -0.4410  0.1334  0.5740
 8071SOL    HW135675   2.340   4.114   3.640  0.7950 -0.9942 -0.2079
 8071SOL    HW235676   2.429   4.026   3.700  0.7025  1.2538 -1.4286
 8072SOL     OW35677   0.280   3.559   9.742 -0.1735  0.0923 -1.0219
 8072SOL    HW135678   0.339   3.570   9.667 -0.4946  1.3385 -1.0862
 8072SOL    HW235679   0.318   3.616   9.809  1.4555 -0.5379 -1.4100
 8073SOL     OW35680   2.406   1.317   6.028  0.1925  0.0970  0.2729
 8073SOL    HW135681   2.455   1.376   6.086  0.7042  1.3297 -1.4126
 8073SOL    HW235682   2.477   1.292   5.969  0.2423  1.1435 -0.1215
 8074SOL     OW35683   0.121   0.955  17.224  0.1664  0.1485  0.1341
 8074SOL    HW135684   0.068   0.918  17.153  0.9495 -0.8322  0.0501
 8074SOL    HW235685   0.182   1.011  17.176 -0.3411  1.1166  0.6305
 8075SOL     OW35686   3.420   0.793   1.848  0.4171  0.5189 -0.5330
 8075SOL    HW135687   3.386   0.748   1.771 -3.3735 -0.1463  1.5265
 8075SOL    HW235688   3.442   0.722   1.908  0.1174  0.5826 -0.3508
 8076SOL     OW35689   2.912   4.163   4.078  0.1566  0.4313  0.0892
 8076SOL    HW135690   2.944   4.098   4.016  1.1288  0.1055  0.9249
 8076SOL    HW235691   2.819   4.175   4.058 -0.1697  0.3751  1.5209
 8077SOL     OW35692   3.499   1.516  16.511 -0.1576  0.3791 -0.1514
 8077SOL    HW135693   3.443   1.481  16.580  0.9709 -0.6981  0.1918
 8077SOL    HW235694   3.547   1.437  16.487  0.1241 -0.2482  2.5306
 8078SOL     OW35695   2.356   0.418   2.301 -0.1046  0.0688  0.2442
 8078SOL    HW135696   2.261   0.409   2.305 -0.2208  1.3047  0.2787
 8078SOL    HW235697   2.361   0.393   2.209 -2.6216 -2.2691  0.6993
 8079SOL     OW35698   1.119   0.549   4.323  0.4664 -0.7538 -0.6826
 8079SOL    HW135699   1.159   0.464   4.306  2.0538 -0.0811 -0.3116
 8079SOL    HW235700   1.032   0.513   4.344 -0.1275  1.2487  0.2518
 8080SOL     OW35701   2.125   3.634   8.008  0.0738 -0.5484  0.2657
 8080SOL    HW135702   2.193   3.568   8.015  0.5447  0.2200  3.3552
 8080SOL    HW235703   2.076   3.605   7.931  0.1425  0.8975 -0.3229
 8081SOL     OW35704   4.416   1.768  17.339  0.0662  0.1604 -0.1530
 8081SOL    HW135705   4.383   1.749  17.427  0.3810  0.4548  0.0310
 8081SOL    HW235706   4.446   1.680  17.315  0.4430 -0.3271  2.0582
 8082SOL     OW35707   2.892   0.210  16.359 -0.0781  0.4597  0.2414
 8082SOL    HW135708   2.885   0.279  16.425  1.1425  0.0725  0.7617
 8082SOL    HW235709   2.911   0.129  16.405 -2.9677  0.7595  1.9602
 8083SOL     OW35710   1.944   3.274   1.881  0.0137 -0.2308 -0.3874
 8083SOL    HW135711   1.868   3.219   1.899  0.3424 -0.4211  0.4582
 8083SOL    HW235712   2.001   3.208   1.841  0.3939 -1.5254  2.2369
 8084SOL     OW35713   1.378   1.863   4.461  0.1197  0.0618 -0.2677
 8084SOL    HW135714   1.410   1.935   4.515 -0.7901 -0.6674  1.2560
 8084SOL    HW235715   1.458   1.843   4.412  1.2389 -0.5355  1.8183
 8085SOL     OW35716   3.284   3.916   0.697 -0.2054  1.0279 -0.2928
 8085SOL    HW135717   3.328   3.845   0.650 -0.2119  0.9924 -0.2465
 8085SOL    HW235718   3.345   3.918   0.770 -0.6506  0.3918  0.1061
 8086SOL     OW35719   4.156   3.807   4.863  0.0914 -0.3056  0.2185
 8086SOL    HW135720   4.153   3.903   4.862  1.1967 -0.2754  0.3240
 8086SOL    HW235721   4.064   3.787   4.878 -0.4073  0.9914 -1.0885
 8087SOL     OW35722   2.764   1.298   6.525  0.5314  0.3496  0.1662
 8087SOL    HW135723   2.685   1.352   6.519 -0.1973 -0.6607  0.6210
 8087SOL    HW235724   2.743   1.249   6.605  0.0329  0.2657 -0.0146
 8088SOL     OW35725   3.236   1.316  11.860 -0.3469 -0.5714 -0.6299
 8088SOL    HW135726   3.202   1.243  11.809  2.4967 -0.1892 -3.0995
 8088SOL    HW235727   3.191   1.397  11.837 -2.0576 -1.6543 -1.1047
 8089SOL     OW35728   3.861   2.322   8.406  0.4134 -0.7645  0.3181
 8089SOL    HW135729   3.836   2.390   8.469  0.9817  0.2680 -0.5808
 8089SOL    HW235730   3.869   2.363   8.320  0.4177 -0.1642  0.6097
 8090SOL     OW35731   1.064   0.291  15.413 -0.2297 -0.4832 -0.4245
 8090SOL    HW135732   1.127   0.318  15.480 -0.3914 -2.2562  0.4503
 8090SOL    HW235733   1.036   0.380  15.395  1.4499  0.1862  0.2336
 8091SOL     OW35734   3.449   1.656   8.116 -0.0028 -0.0632  0.2104
 8091SOL    HW135735   3.520   1.670   8.053 -2.0710 -0.2507 -2.1374
 8091SOL    HW235736   3.381   1.621   8.059  0.0982 -2.3591  1.5124
 8092SOL     OW35737   3.638   0.122   3.350 -0.3403  0.1723 -0.1607
 8092SOL    HW135738   3.726   0.097   3.377  0.0071  1.5969  0.0431
 8092SOL    HW235739   3.597   0.036   3.350 -1.5339  0.7497  2.2619
 8093SOL     OW35740   3.126   2.062   2.945 -0.3671  0.0690  0.1715
 8093SOL    HW135741   3.043   2.039   2.903 -0.5286  1.7294 -0.4008
 8093SOL    HW235742   3.116   1.993   3.011 -2.8690  1.1811  0.9840
 8094SOL     OW35743   0.028   0.426   0.411  0.3175  0.3247 -0.1412
 8094SOL    HW135744   4.693   0.398   0.482  0.3875 -1.2789 -0.7044
 8094SOL    HW235745   0.074   0.495   0.458  2.2180 -1.6764  0.9097
 8095SOL     OW35746   2.389   4.701   5.852  0.2272  0.0229  0.3036
 8095SOL    HW135747   2.408   4.709   5.945  1.8551 -2.4734  0.1912
 8095SOL    HW235748   2.467   0.017   5.811 -0.5998  1.0567 -0.2918
 8096SOL     OW35749   3.437   1.727  12.467 -0.5867  1.0291  0.0212
 8096SOL    HW135750   3.444   1.782  12.388  1.2670  2.0234  0.8636
 8096SOL    HW235751   3.408   1.642  12.434 -0.0454  1.0349 -0.4834
 8097SOL     OW35752   2.569   0.768   5.169 -0.4748 -0.1479 -0.2103
 8097SOL    HW135753   2.534   0.800   5.252 -1.1422 -0.6917 -0.2814
 8097SOL    HW235754   2.537   0.831   5.104 -1.3364  2.3976  2.6789
 8098SOL     OW35755   0.292   1.686   4.039  0.2499 -0.7418 -0.2891
 8098SOL    HW135756   0.366   1.645   4.084  1.6769  1.0540 -0.9663
 8098SOL    HW235757   0.241   1.610   4.012 -0.1364 -0.3031 -0.8192
 8099SOL     OW35758   1.043   1.721   1.933  0.5012  0.2755  0.4994
 8099SOL    HW135759   1.112   1.658   1.913  1.8223  1.5249  1.1430
 8099SOL    HW235760   1.002   1.674   2.006 -1.6945 -0.3108 -1.1123
 8100SOL     OW35761   1.796   1.600  16.770 -0.1815 -0.2799 -0.4346
 8100SOL    HW135762   1.768   1.574  16.683  0.4876 -0.5247 -0.5745
 8100SOL    HW235763   1.714   1.642  16.796  0.6104  2.1567 -1.8432
 8101SOL     OW35764   4.475   4.702   2.539 -0.4326 -0.4067  0.0982
 8101SOL    HW135765   4.521   0.060   2.518 -1.9221  0.3625 -0.1978
 8101SOL    HW235766   4.423   0.010   2.614  0.6557  0.3476  0.5344
 8102SOL     OW35767   4.366   3.558   3.515  0.2925  0.2528 -0.4177
 8102SOL    HW135768   4.341   3.488   3.454  0.3549  0.9446 -1.2510
 8102SOL    HW235769   4.407   3.497   3.576 -0.2239  1.8277  1.4893
 8103SOL     OW35770   1.885   4.072  17.615 -0.0952  0.3396 -0.5006
 8103SOL    HW135771   1.963   4.103  17.661  1.1176  0.3177 -2.5394
 8103SOL    HW235772   1.887   4.126  17.536  1.4782  1.4282  0.2779
 8104SOL     OW35773   3.221   0.927   2.956  0.2472  0.5575 -0.1239
 8104SOL    HW135774   3.290   0.915   2.891  1.0967  3.1773  0.2667
 8104SOL    HW235775   3.144   0.941   2.901  1.2434 -1.9146 -2.1441
 8105SOL     OW35776   3.346   2.472   1.314  0.3561 -0.2977 -0.2376
 8105SOL    HW135777   3.357   2.459   1.408  0.2556  2.5008  0.1816
 8105SOL    HW235778   3.263   2.432   1.286 -0.0965 -1.5499  2.8371
 8106SOL     OW35779   0.263   3.325  17.134 -0.3863 -0.4277 -0.3043
 8106SOL    HW135780   0.208   3.339  17.212  0.2339  2.0055 -0.3154
 8106SOL    HW235781   0.348   3.325  17.177 -1.3809 -0.0566  1.6983
 8107SOL     OW35782   0.515   3.934   7.984  0.0458 -0.0778  0.4134
 8107SOL    HW135783   0.578   3.867   7.959 -0.3969 -0.2198 -0.2918
 8107SOL    HW235784   0.565   4.013   7.962 -0.8966 -0.0292 -1.5328
 8108SOL     OW35785   1.093   0.299  17.150  0.4841  0.5877 -0.0376
 8108SOL    HW135786   1.132   0.298  17.237 -0.6085  1.0086  0.4539
 8108SOL    HW235787   1.001   0.278  17.168  1.1831 -1.8637  0.6825
 8109SOL     OW35788   4.594   0.265   7.044 -0.4918  0.3242  0.2570
 8109SOL    HW135789   4.668   0.205   7.036 -0.5619 -0.0460  2.4748
 8109SOL    HW235790   4.540   0.247   6.968 -0.2055 -2.8655  0.8421
 8110SOL     OW35791   1.612   0.151   1.794  0.7090 -0.0829  0.1275
 8110SOL    HW135792   1.605   0.108   1.879 -2.0808 -2.7268 -1.4595
 8110SOL    HW235793   1.530   0.198   1.807  0.7559  0.3925 -1.2573
 8111SOL     OW35794   3.233   1.989   8.687  0.2140 -0.6597  0.1086
 8111SOL    HW135795   3.153   2.003   8.736  0.7418 -0.9425  1.0453
 8111SOL    HW235796   3.302   1.957   8.746 -1.5777 -0.8851  2.0723
 8112SOL     OW35797   3.792   2.425   3.962 -0.0849  0.6942  0.2801
 8112SOL    HW135798   3.746   2.482   4.024  0.6741  2.2598 -0.5787
 8112SOL    HW235799   3.824   2.480   3.890  1.3892 -1.6872 -0.8823
 8113SOL     OW35800   0.204   0.559   8.307 -0.0877 -0.0788 -0.4640
 8113SOL    HW135801   0.136   0.520   8.363  0.7095 -1.5196 -0.4954
 8113SOL    HW235802   0.142   0.598   8.246  1.2554  0.5521 -1.4415
 8114SOL     OW35803   0.411   1.818   4.596 -0.2711  0.5010 -0.0226
 8114SOL    HW135804   0.374   1.806   4.508  0.5471  1.2029 -0.4637
 8114SOL    HW235805   0.399   1.727   4.624 -1.6561  1.4859  2.5067
 8115SOL     OW35806   1.545   3.992   4.192  0.0127  0.0642 -0.3614
 8115SOL    HW135807   1.582   3.909   4.163  3.4949  0.9283  1.5823
 8115SOL    HW235808   1.453   3.972   4.211 -0.0768  0.2261 -0.6247
 8116SOL     OW35809   0.221   0.761   7.023 -0.0575 -0.3904 -0.6021
 8116SOL    HW135810   0.196   0.669   7.033 -2.5383  0.2761 -0.7735
 8116SOL    HW235811   0.212   0.810   7.104  0.1061 -0.1503 -0.7281
 8117SOL     OW35812   3.330   2.353  10.801 -0.3483  0.0858 -0.5984
 8117SOL    HW135813   3.244   2.365  10.761  0.3111 -0.1061 -2.0876
 8117SOL    HW235814   3.307   2.302  10.878  0.3738  0.7192  0.0376
 8118SOL     OW35815   1.301   1.993   1.675 -0.3129  0.1427  0.2668
 8118SOL    HW135816   1.219   1.982   1.627 -0.8250  1.1746  0.8948
 8118SOL    HW235817   1.261   1.994   1.762  0.6179 -0.2584  0.6933
 8119SOL     OW35818   3.901   1.255   1.171 -0.4223  0.1167  0.3860
 8119SOL    HW135819   3.827   1.264   1.231 -0.3407 -3.9753  1.1364
 8119SOL    HW235820   3.932   1.345   1.176 -0.0520 -0.0767  1.5142
 8120SOL     OW35821   3.653   3.353   4.476 -0.2161  0.5626 -0.2508
 8120SOL    HW135822   3.683   3.265   4.501 -1.6078  0.4787  1.1538
 8120SOL    HW235823   3.599   3.377   4.551  1.6671 -0.3492  1.3926
 8121SOL     OW35824   0.202   0.577   0.552 -0.3811  0.0179  0.2358
 8121SOL    HW135825   0.255   0.603   0.477  0.2499  0.2759  0.7716
 8121SOL    HW235826   0.215   0.650   0.613  1.9886  0.5319 -0.8793
 8122SOL     OW35827   3.753   1.676   3.209  0.0833 -0.7500 -0.5153
 8122SOL    HW135828   3.810   1.602   3.233  2.6608  1.6237  0.6380
 8122SOL    HW235829   3.737   1.649   3.119  1.4399 -0.9324 -0.7081
 8123SOL     OW35830   0.243   0.207  11.318  0.0044  0.1188  0.3572
 8123SOL    HW135831   0.208   0.152  11.388 -0.0988 -0.3734 -0.0757
 8123SOL    HW235832   0.267   0.140  11.254 -1.3488 -0.9597  0.9876
 8124SOL     OW35833   1.336   3.386   2.696 -0.0547  0.4038  0.0444
 8124SOL    HW135834   1.326   3.396   2.602 -1.1871 -0.5143  0.0693
 8124SOL    HW235835   1.360   3.475   2.721 -0.0313  0.7000 -1.0497
 8125SOL     OW35836   2.162   0.581   9.075 -0.4646 -0.3956 -0.3016
 8125SOL    HW135837   2.185   0.606   8.986 -1.6417 -2.6585 -1.2273
 8125SOL    HW235838   2.073   0.615   9.085 -0.9342 -1.8445  0.5770
 8126SOL     OW35839   2.988   4.125   3.629  0.3718  0.2624  0.0681
 8126SOL    HW135840   2.939   4.059   3.580 -1.9134  1.9446  0.1122
 8126SOL    HW235841   2.947   4.205   3.597 -1.8784 -0.9616 -0.1360
 8127SOL     OW35842   0.466   3.417   4.668  0.5606  0.8834  0.2170
 8127SOL    HW135843   0.501   3.452   4.585  1.2295  1.4037  0.7177
 8127SOL    HW235844   0.393   3.475   4.687 -0.0109 -0.0047  0.7087
 8128SOL     OW35845   0.507   1.083   1.335 -0.2101  0.2305 -0.5252
 8128SOL    HW135846   0.588   1.078   1.385  1.0052  1.6484 -2.3420
 8128SOL    HW235847   0.526   1.158   1.280  0.0350  0.6819  0.1728
 8129SOL     OW35848   2.562   1.565   3.147  0.1389  0.3511 -0.2001
 8129SOL    HW135849   2.514   1.563   3.230 -2.1875  0.7846 -1.5437
 8129SOL    HW235850   2.652   1.587   3.172 -0.2334  0.9239  0.6519
 8130SOL     OW35851   4.025   2.457  14.980  0.0073 -0.0280 -0.1742
 8130SOL    HW135852   4.081   2.380  14.991 -0.4852 -0.5029 -1.0223
 8130SOL    HW235853   4.077   2.529  15.018 -3.3051  1.1494  2.1082
 8131SOL     OW35854   4.676   2.481   2.273  0.4017 -0.1209 -0.2100
 8131SOL    HW135855   4.716   2.404   2.315  0.4032 -0.4253 -0.7782
 8131SOL    HW235856   4.598   2.509   2.320  0.5187  0.2121 -0.2147
 8132SOL     OW35857   4.629   3.376  11.342 -0.4566 -0.0622  0.7199
 8132SOL    HW135858   4.709   3.323  11.338  0.0566  0.5947  2.6244
 8132SOL    HW235859   4.581   3.323  11.406  1.9696 -1.2256  1.5761
 8133SOL     OW35860   3.425   3.366   7.828  0.3044  0.5269  0.0626
 8133SOL    HW135861   3.499   3.394   7.774  0.5989  0.0765  0.2266
 8133SOL    HW235862   3.397   3.295   7.771 -0.0514  0.2262  0.6148
 8134SOL     OW35863   3.669   4.616   0.641 -0.0518 -0.7729 -0.3246
 8134SOL    HW135864   3.663   4.529   0.680  0.4040 -0.2776  0.8380
 8134SOL    HW235865   3.749   4.599   0.592  0.2877 -2.7828  0.9313
 8135SOL     OW35866   4.094   0.191   7.907 -0.0181 -0.1601 -0.0307
 8135SOL    HW135867   4.182   0.204   7.944  0.0073 -0.0085 -0.1473
 8135SOL    HW235868   4.056   0.120   7.959 -0.8024  1.5448  1.7233
 8136SOL     OW35869   0.200   2.701   6.769 -0.1429 -0.0735 -0.0593
 8136SOL    HW135870   0.293   2.713   6.752  0.0581 -1.8134 -0.1661
 8136SOL    HW235871   0.171   2.649   6.694  2.2723 -0.2609 -0.8453
 8137SOL     OW35872   1.650   2.116  16.339  0.6681  0.2640  0.2087
 8137SOL    HW135873   1.692   2.068  16.411  1.2379  0.5086  0.0416
 8137SOL    HW235874   1.726   2.123  16.281  0.8771  2.8270  0.7699
 8138SOL     OW35875   2.689   1.541   8.785  0.1303  0.0870  0.2982
 8138SOL    HW135876   2.617   1.569   8.728  1.2308  0.5401 -0.8566
 8138SOL    HW235877   2.653   1.507   8.867  1.5117  0.0494  0.8826
 8139SOL     OW35878   0.901   2.616  15.664 -0.6048  0.0627  0.0655
 8139SOL    HW135879   0.874   2.631  15.755  2.9245  2.3258  0.7489
 8139SOL    HW235880   0.909   2.521  15.675  0.2233 -0.1594 -2.4152
 8140SOL     OW35881   4.099   1.347  12.236  0.7399 -0.2702 -0.2925
 8140SOL    HW135882   4.171   1.320  12.293  1.6941  1.2811 -0.7590
 8140SOL    HW235883   4.031   1.383  12.293  1.7003 -1.5627  1.6579
 8141SOL     OW35884   4.259   3.152  13.246  0.0804  0.1382  0.2170
 8141SOL    HW135885   4.237   3.180  13.157 -0.1104  0.4962  0.3723
 8141SOL    HW235886   4.185   3.193  13.291  0.7415 -0.6514  2.0006
 8142SOL     OW35887   2.866   0.379   7.676  0.3396  0.2477  0.1334
 8142SOL    HW135888   2.954   0.368   7.712  0.9198 -1.5268 -1.7897
 8142SOL    HW235889   2.812   0.360   7.753  3.1391  0.8115  2.2197
 8143SOL     OW35890   3.885   0.450  16.344 -0.3720 -0.3401 -0.2358
 8143SOL    HW135891   3.889   0.531  16.394  0.1791 -0.0185 -0.7965
 8143SOL    HW235892   3.868   0.487  16.258  4.6836  1.0324 -0.6906
 8144SOL     OW35893   0.774   2.653  14.102  0.5118  0.7293  0.1973
 8144SOL    HW135894   0.683   2.648  14.073 -0.0569 -2.4682  2.4609
 8144SOL    HW235895   0.769   2.615  14.190 -1.3714  2.5163  0.8664
 8145SOL     OW35896   4.703   2.357   8.605  0.4863  0.3729 -0.6205
 8145SOL    HW135897   4.711   2.407   8.686  2.6864 -3.1207  1.3171
 8145SOL    HW235898   4.609   2.347   8.592  0.0722  1.8420  1.2444
 8146SOL     OW35899   1.588   4.689   8.691 -0.8624  0.4163 -0.1088
 8146SOL    HW135900   1.607   4.701   8.598  0.4391 -0.1724  0.0847
 8146SOL    HW235901   1.671   4.648   8.713 -1.3671  0.5524  2.0166
 8147SOL     OW35902   1.052   4.265   4.609 -0.2746  0.2905 -0.0570
 8147SOL    HW135903   1.052   4.315   4.691 -1.7545 -3.1415  1.9818
 8147SOL    HW235904   1.051   4.341   4.549  0.3624 -0.9067 -1.5978
 8148SOL     OW35905   3.184   1.168  13.160  0.7603  0.0523  0.6656
 8148SOL    HW135906   3.242   1.156  13.085 -2.9645  0.6461 -2.2855
 8148SOL    HW235907   3.154   1.078  13.165 -1.2535  0.6969  0.0392
 8149SOL     OW35908   2.260   4.394   7.488  0.1557 -0.8166 -0.5684
 8149SOL    HW135909   2.347   4.398   7.527 -1.0392 -0.9875  2.0505
 8149SOL    HW235910   2.209   4.348   7.554 -2.2436  1.3668 -0.8899
 8150SOL     OW35911   3.345   0.258   2.664 -0.1759 -0.2598 -0.0168
 8150SOL    HW135912   3.390   0.226   2.586  1.6482 -1.6490  1.6053
 8150SOL    HW235913   3.254   0.238   2.643 -0.7279 -0.1488  2.2386
 8151SOL     OW35914   3.050   2.799   5.083 -0.2571  0.2639 -0.0824
 8151SOL    HW135915   3.107   2.862   5.128  0.7470  0.3266 -1.4332
 8151SOL    HW235916   2.981   2.784   5.148 -0.7703  1.1272 -0.4249
 8152SOL     OW35917   4.116   0.180  11.975  0.7209 -0.6372 -0.2120
 8152SOL    HW135918   4.060   0.158  12.050  2.0020  1.6109  1.3928
 8152SOL    HW235919   4.184   0.111  11.974 -0.1147 -1.4729  1.1289
 8153SOL     OW35920   3.182   2.168  10.953  0.1208 -0.1945 -0.5129
 8153SOL    HW135921   3.181   2.076  10.926  0.1244  0.6635 -3.4411
 8153SOL    HW235922   3.182   2.163  11.048 -1.3041  0.9606 -0.4506
 8154SOL     OW35923   1.208   1.173  14.147  0.2283  0.0014  0.0012
 8154SOL    HW135924   1.178   1.252  14.101 -0.9222  0.6933  1.9646
 8154SOL    HW235925   1.272   1.220  14.201  2.4590 -0.9735 -1.7799
 8155SOL     OW35926   4.154   4.700   6.336 -0.5856  0.0417 -0.7255
 8155SOL    HW135927   4.197   4.721   6.419 -0.8245  2.4490 -1.2152
 8155SOL    HW235928   4.198   0.044   6.283 -0.3113 -0.6270 -1.3508
 8156SOL     OW35929   0.112   1.811   3.117 -0.1046  0.7705  0.2458
 8156SOL    HW135930   0.148   1.899   3.132 -1.8962  1.5063  0.1718
 8156SOL    HW235931   0.120   1.781   3.208  3.0130  1.5417  0.2396
 8157SOL     OW35932   1.684   0.139   3.216 -0.4916  0.2263  0.1989
 8157SOL    HW135933   1.747   0.189   3.164  0.4539 -0.4830  0.6503
 8157SOL    HW235934   1.619   0.207   3.235 -3.5213 -2.6528  0.0980
 8158SOL     OW35935   1.897   1.235  12.050  0.4312 -0.7386  0.4972
 8158SOL    HW135936   1.842   1.307  12.082 -0.8799 -0.2526 -2.8844
 8158SOL    HW235937   1.964   1.283  12.001 -1.2444  1.0976 -0.0110
 8159SOL     OW35938   2.985   4.589   2.567  0.0021  0.0206  0.2940
 8159SOL    HW135939   2.995   4.672   2.521  0.3405  0.4442  1.1421
 8159SOL    HW235940   2.939   4.537   2.501  1.3535 -2.7425  1.5514
 8160SOL     OW35941   1.307   0.719   5.239  0.6568 -0.1332  0.9180
 8160SOL    HW135942   1.362   0.758   5.307  0.4535  0.0528  0.9728
 8160SOL    HW235943   1.226   0.710   5.288 -0.4024  1.5044 -0.5524
 8161SOL     OW35944   3.252   1.167   4.944 -0.2852  0.1565 -0.4895
 8161SOL    HW135945   3.270   1.187   4.852  0.5191  1.4935 -0.0462
 8161SOL    HW235946   3.212   1.253   4.958 -0.0965  0.1699 -0.0553
 8162SOL     OW35947   3.257   3.919   5.358 -0.5070  0.1039  0.3691
 8162SOL    HW135948   3.308   3.929   5.437 -1.9071 -0.1245  1.3077
 8162SOL    HW235949   3.174   3.952   5.393 -1.4602 -3.3308  1.3132
 8163SOL     OW35950   3.290   0.616   1.682  0.0126  0.4074 -0.4745
 8163SOL    HW135951   3.221   0.632   1.618  0.3578  1.3822 -0.6074
 8163SOL    HW235952   3.255   0.541   1.729 -1.3705  0.5855 -1.2300
 8164SOL     OW35953   4.466   4.128  16.779 -0.2425  0.1870  1.0995
 8164SOL    HW135954   4.442   4.157  16.867 -0.2982 -0.6105  1.3513
 8164SOL    HW235955   4.405   4.175  16.723  1.8221  2.0119  0.3654
 8165SOL     OW35956   4.655   1.444   9.178 -0.1273  0.3699  0.1368
 8165SOL    HW135957   4.655   1.349   9.192  0.3677  0.0425 -2.0954
 8165SOL    HW235958   4.705   1.455   9.097  0.5124  1.9502  0.7413
 8166SOL     OW35959   2.994   3.979   3.889 -0.3894  0.6939 -0.1300
 8166SOL    HW135960   2.985   4.031   3.809 -1.6020  0.9004  0.1485
 8166SOL    HW235961   3.005   3.898   3.839  0.0520  1.2443 -0.9349
 8167SOL     OW35962   4.265   2.450   3.952  0.3098 -0.1879  0.2043
 8167SOL    HW135963   4.223   2.427   4.035  2.3907 -3.4069  0.3666
 8167SOL    HW235964   4.346   2.489   3.987  0.6415 -1.4546  0.8390
 8168SOL     OW35965   0.957   1.030   5.484 -0.4484 -0.1992  0.1869
 8168SOL    HW135966   0.877   1.030   5.431  0.5857  3.4134 -1.3298
 8168SOL    HW235967   1.003   0.953   5.451  0.9568  0.2498  1.1114
 8169SOL     OW35968   0.316   2.950   1.937  0.1467  0.5688  0.2118
 8169SOL    HW135969   0.294   3.042   1.922  1.9800  0.9339 -0.2195
 8169SOL    HW235970   0.247   2.901   1.893  0.7041 -0.6805  0.7098
 8170SOL     OW35971   2.771   2.263   6.766 -0.4056 -0.1869 -0.0241
 8170SOL    HW135972   2.692   2.311   6.742 -0.7124 -0.6648  0.0144
 8170SOL    HW235973   2.841   2.328   6.771  0.2575 -0.9513  0.6601
 8171SOL     OW35974   3.374   2.932  17.288 -0.1282 -0.2571  0.1251
 8171SOL    HW135975   3.458   2.903  17.253 -1.2325 -2.5256 -0.6318
 8171SOL    HW235976   3.358   3.014  17.243 -1.5317 -0.7310 -0.2279
 8172SOL     OW35977   1.313   3.944   1.319 -0.0788  0.1994  0.1028
 8172SOL    HW135978   1.240   4.005   1.329 -1.2576 -1.2999  0.6571
 8172SOL    HW235979   1.291   3.887   1.393  1.8560  0.5313  0.9140
 8173SOL     OW35980   2.772   3.789   6.657 -0.1860  0.2231  0.9882
 8173SOL    HW135981   2.808   3.822   6.740 -0.4688  0.6849  0.9248
 8173SOL    HW235982   2.844   3.732   6.632 -0.8131 -1.3555  2.7140
 8174SOL     OW35983   1.706   0.057  13.079  0.7197  0.1450 -0.1784
 8174SOL    HW135984   1.678   0.038  13.168  0.0583 -0.2149 -0.4614
 8174SOL    HW235985   1.750   4.696  13.068  0.1816 -0.3298  1.2822
 8175SOL     OW35986   2.297   4.139   3.463 -0.0626  0.7751  0.4907
 8175SOL    HW135987   2.341   4.223   3.474 -0.0775  0.7664  0.6193
 8175SOL    HW235988   2.259   4.141   3.375  1.6337 -1.7064 -0.3055
 8176SOL     OW35989   2.706   2.846   8.156  0.0703  0.1357  0.1816
 8176SOL    HW135990   2.786   2.866   8.106  0.2318 -1.2416 -0.1083
 8176SOL    HW235991   2.641   2.841   8.086 -0.3599 -0.9228  0.6604
 8177SOL     OW35992   4.302   1.203   1.767  0.0390 -0.1370 -0.5032
 8177SOL    HW135993   4.244   1.219   1.841  3.1621 -0.2560  1.9450
 8177SOL    HW235994   4.238   1.185   1.697 -0.2619  1.6880 -0.7047
 8178SOL     OW35995   2.774   0.002   0.865  0.1443  0.0768 -0.3428
 8178SOL    HW135996   2.705   4.668   0.831 -1.3524 -0.0657  2.9643
 8178SOL    HW235997   2.748   0.092   0.845 -0.2940 -0.1161 -0.6195
 8179SOL     OW35998   3.555   4.539   3.613 -0.2100  0.2002  0.5460
 8179SOL    HW135999   3.531   4.515   3.703 -3.6233 -1.1928 -0.7338
 8179SOL    HW236000   3.465   4.550   3.583  0.0539  0.5721 -0.0937
 8180SOL     OW36001   0.965   3.512  16.397 -0.0341 -0.1329  0.4319
 8180SOL    HW136002   1.002   3.547  16.478 -0.6441 -1.4851  1.2949
 8180SOL    HW236003   0.872   3.516  16.417 -0.0951  2.3265 -0.4010
 8181SOL     OW36004   0.944   3.333   8.189  0.3317  0.0562 -0.0979
 8181SOL    HW136005   1.029   3.292   8.178  0.7697  1.3657 -1.6489
 8181SOL    HW236006   0.967   3.423   8.164 -0.1009  0.1824 -0.0508
 8182SOL     OW36007   3.251   2.333   3.696 -0.5838  0.0538 -0.2463
 8182SOL    HW136008   3.242   2.286   3.779  0.6473  2.3444  1.1857
 8182SOL    HW236009   3.224   2.265   3.635 -0.5639 -0.6160  0.4889
 8183SOL     OW36010   3.846   0.178   8.743  0.4410  0.1406 -0.6248
 8183SOL    HW136011   3.929   0.132   8.751  1.2277  1.0796 -3.1603
 8183SOL    HW236012   3.798   0.121   8.683  0.5521 -1.1962  0.5761
 8184SOL     OW36013   0.299   4.218   9.337  0.2412 -0.0661  0.3337
 8184SOL    HW136014   0.254   4.195   9.418 -0.0561  2.1758  0.7872
 8184SOL    HW236015   0.391   4.212   9.364  1.3182  3.6552 -2.5276
 8185SOL     OW36016   1.466   2.373   3.602 -0.2318 -0.4898  0.0855
 8185SOL    HW136017   1.381   2.329   3.611 -1.4107  1.9107  0.6993
 8185SOL    HW236018   1.450   2.448   3.660  0.9615 -0.2713  0.1207
 8186SOL     OW36019   1.690   4.363   6.477 -0.2302  0.2820  0.0977
 8186SOL    HW136020   1.757   4.407   6.425 -1.6880  2.0242 -0.2965
 8186SOL    HW236021   1.735   4.345   6.559 -0.3605  1.8466  0.5055
 8187SOL     OW36022   4.027   2.300  13.672  0.3133  0.5610 -0.4268
 8187SOL    HW136023   4.018   2.382  13.722 -1.3410 -0.9907  1.7958
 8187SOL    HW236024   3.942   2.261  13.691 -0.2718  1.7160 -0.6358
 8188SOL     OW36025   1.149   3.546   2.152  0.0463 -0.0854  0.1004
 8188SOL    HW136026   1.086   3.480   2.125  1.8091 -1.2513 -1.1461
 8188SOL    HW236027   1.103   3.597   2.219 -0.5166 -1.4422  0.7518
 8189SOL     OW36028   0.952   2.006   3.704  0.1293 -0.1334 -0.4862
 8189SOL    HW136029   0.928   1.951   3.630 -2.7115 -0.7155  0.8531
 8189SOL    HW236030   0.874   2.061   3.709 -0.3967 -0.9438  0.2443
 8190SOL     OW36031   4.412   2.267   5.941  0.4313 -0.6492  0.2030
 8190SOL    HW136032   4.329   2.310   5.917 -0.2848 -0.2602  3.4272
 8190SOL    HW236033   4.457   2.276   5.856 -2.8435 -0.9272 -1.5769
 8191SOL     OW36034   2.092   3.509  16.405  0.6162  0.4723  0.5868
 8191SOL    HW136035   2.058   3.523  16.493 -0.9272 -2.4673  0.4629
 8191SOL    HW236036   2.023   3.462  16.359 -0.0475  0.2855  1.7694
 8192SOL     OW36037   0.854   2.867  17.328  0.1961  0.1394 -0.2479
 8192SOL    HW136038   0.840   2.939  17.389  0.5176 -1.5018  1.7857
 8192SOL    HW236039   0.788   2.808  17.366  1.7195 -2.3093 -1.4047
 8193SOL     OW36040   4.670   3.895   7.843 -0.6363  0.6913  0.1959
 8193SOL    HW136041   4.693   3.932   7.758  1.7134 -1.9258 -0.3012
 8193SOL    HW236042   0.033   3.857   7.862  0.0434  0.6358 -3.0220
 8194SOL     OW36043   1.044   4.487   4.438  0.4395  0.0078  0.9390
 8194SOL    HW136044   1.000   4.565   4.473 -0.4995  0.8145 -2.0348
 8194SOL    HW236045   1.019   4.487   4.345 -1.6603  1.6060  1.4812
 8195SOL     OW36046   2.823   0.445   6.735 -0.0764  0.2326 -0.7000
 8195SOL    HW136047   2.772   0.366   6.751 -0.9447  0.6943 -1.2114
 8195SOL    HW236048   2.851   0.466   6.825 -0.0604 -3.1016  0.0667
 8196SOL     OW36049   4.640   0.457  17.207 -0.0489  0.4921 -0.3726
 8196SOL    HW136050   4.593   0.535  17.236  0.0741  1.0014 -1.5549
 8196SOL    HW236051   4.561   0.404  17.194  0.8613 -1.0302  0.3061
 8197SOL     OW36052   3.702   3.950  11.965 -0.0323  0.1033  0.2366
 8197SOL    HW136053   3.628   3.920  11.912  0.2188  2.1838 -1.2901
 8197SOL    HW236054   3.766   3.879  11.969 -0.2024 -0.0275  0.6718
 8198SOL     OW36055   2.639   0.699   7.326  0.1672  0.3024 -0.0097
 8198SOL    HW136056   2.545   0.683   7.328 -0.1665  2.1874 -0.7317
 8198SOL    HW236057   2.659   0.683   7.234 -2.4535  1.0923 -0.7179
 8199SOL     OW36058   1.465   0.777   7.787  0.4195 -0.3491 -0.2386
 8199SOL    HW136059   1.436   0.687   7.771  0.3624 -0.7392  1.9366
 8199SOL    HW236060   1.432   0.790   7.876 -0.1220  2.3795 -0.8440
 8200SOL     OW36061   2.720   3.137  12.926 -0.6810 -0.8120  0.5797
 8200SOL    HW136062   2.689   3.143  12.836 -1.8763 -2.7007  0.8545
 8200SOL    HW236063   2.813   3.158  12.921 -0.2611 -2.5435  0.9588
 8201SOL     OW36064   0.156   3.922   8.611  0.2222 -0.4030 -0.2089
 8201SOL    HW136065   0.239   3.876   8.600  0.6215  0.3181 -0.1958
 8201SOL    HW236066   0.125   3.901   8.523  1.0318  1.6402 -0.9806
 8202SOL     OW36067   1.355   3.164   6.013  0.5473 -0.2766  0.0036
 8202SOL    HW136068   1.369   3.236   5.951  0.4894 -1.9423 -1.9467
 8202SOL    HW236069   1.300   3.116   5.951  0.0835 -0.1864  0.3397
 8203SOL     OW36070   2.764   4.280   3.488  0.4056 -0.2391 -0.3027
 8203SOL    HW136071   2.806   4.226   3.422 -1.2206 -0.7175 -0.9568
 8203SOL    HW236072   2.680   4.233   3.491  0.5943 -0.6496 -1.2965
 8204SOL     OW36073   4.090   1.795  12.732  0.1895  0.6339 -0.2581
 8204SOL    HW136074   4.016   1.735  12.744 -0.1446  1.4735  1.9327
 8204SOL    HW236075   4.083   1.819  12.825  0.5265 -1.3213  0.2756
 8205SOL     OW36076   2.149   1.758   4.031 -0.6691  0.3881 -0.2701
 8205SOL    HW136077   2.181   1.744   4.120 -0.1890  2.8539 -0.0426
 8205SOL    HW236078   2.131   1.667   4.007 -0.1597 -0.3198  1.9850
 8206SOL     OW36079   1.463   4.065   1.598 -0.1889  0.1970 -0.2228
 8206SOL    HW136080   1.516   4.100   1.670 -1.2656 -0.5270  0.9246
 8206SOL    HW236081   1.536   4.038   1.542 -1.4692 -4.3936  0.3430
 8207SOL     OW36082   4.052   2.069   9.796 -0.0094 -0.2946 -0.1859
 8207SOL    HW136083   4.051   2.021   9.879 -1.2924  2.5050  1.3908
 8207SOL    HW236084   4.135   2.042   9.755  0.4370 -0.3127  0.7270
 8208SOL     OW36085   3.165   3.660   6.198 -0.3545  0.3341  0.4467
 8208SOL    HW136086   3.259   3.646   6.198 -0.6498 -1.7219  1.5344
 8208SOL    HW236087   3.159   3.756   6.193 -2.1500  0.2358  0.7337
 8209SOL     OW36088   1.419   1.186   4.639 -0.0061 -0.2175 -0.5256
 8209SOL    HW136089   1.498   1.225   4.602 -0.4691  1.9530  0.7053
 8209SOL    HW236090   1.420   1.222   4.728 -1.0192  1.3207 -1.1335
 8210SOL     OW36091   0.172   1.834  12.628 -0.2088 -0.0496  0.4507
 8210SOL    HW136092   0.201   1.888  12.554 -3.1695  2.2430  0.9638
 8210SOL    HW236093   0.118   1.776  12.575 -3.0601  1.0187  2.2005
 8211SOL     OW36094   1.614   1.529  14.926  0.0358  0.0167 -0.0838
 8211SOL    HW136095   1.557   1.583  14.981  1.2010 -0.7083  1.8351
 8211SOL    HW236096   1.556   1.459  14.899 -0.3241  0.1720  0.2785
 8212SOL     OW36097   4.069   1.323  16.198  0.3154 -0.1440 -0.1234
 8212SOL    HW136098   4.138   1.344  16.261 -0.6610  0.2867  0.8062
 8212SOL    HW236099   4.000   1.286  16.253 -0.8821  2.3411  0.0585
 8213SOL     OW36100   0.924   1.601   2.620 -0.2649 -0.0161 -0.5217
 8213SOL    HW136101   0.941   1.558   2.536 -1.9817 -0.7395 -0.5051
 8213SOL    HW236102   0.922   1.519   2.671 -0.6491  1.4109  1.7731
 8214SOL     OW36103   2.273   3.993   1.300 -0.1545  0.1567  0.6866
 8214SOL    HW136104   2.268   3.974   1.393 -1.5712 -2.5154  0.0455
 8214SOL    HW236105   2.331   3.921   1.274 -1.2511  0.6824 -3.3259
 8215SOL     OW36106   2.235   1.642  15.604 -0.3869  0.4500 -0.0359
 8215SOL    HW136107   2.241   1.728  15.563 -0.2779  0.6427  0.3896
 8215SOL    HW236108   2.306   1.600  15.556 -0.1702 -0.3435  0.9852
 8216SOL     OW36109   1.717   4.553   5.130  0.3513  0.2551 -0.4769
 8216SOL    HW136110   1.769   4.553   5.049  0.7461 -0.9390 -0.2228
 8216SOL    HW236111   1.796   4.548   5.184 -1.2011 -2.5767  1.4934
 8217SOL     OW36112   1.294   3.848   4.541 -0.2753 -0.6309 -0.5453
 8217SOL    HW136113   1.362   3.817   4.482 -0.7391 -0.1147 -1.3506
 8217SOL    HW236114   1.334   3.931   4.569 -1.8690  0.5037 -1.6329
 8218SOL     OW36115   3.913   2.906  13.664  0.1694 -0.8042  0.9372
 8218SOL    HW136116   3.935   2.940  13.751  1.0384  1.8451 -0.3166
 8218SOL    HW236117   3.946   2.982  13.615 -1.5304 -0.5992  0.0991
 8219SOL     OW36118   1.515   4.125  11.929  0.0572  0.2197 -0.0269
 8219SOL    HW136119   1.560   4.041  11.943 -0.8956 -0.4677 -1.1201
 8219SOL    HW236120   1.442   4.116  11.990  0.2963 -3.2300 -0.2193
 8220SOL     OW36121   2.727   1.876   6.916 -0.2489  0.2659  0.1096
 8220SOL    HW136122   2.682   1.792   6.928 -1.6070  1.0274  0.2871
 8220SOL    HW236123   2.769   1.891   7.000  1.1421  1.8787 -0.8796
 8221SOL     OW36124   3.611   0.694  10.411 -0.1064  0.1486  0.0927
 8221SOL    HW136125   3.654   0.768  10.454  0.1697  0.5793 -0.9283
 8221SOL    HW236126   3.588   0.733  10.326  0.3782 -0.0654 -0.1380
 8222SOL     OW36127   0.827   2.922  15.351  0.1873  0.3898  0.7320
 8222SOL    HW136128   0.782   2.946  15.432 -2.1235 -0.6332 -0.2575
 8222SOL    HW236129   0.754   2.938  15.290  0.7918 -0.7744 -0.2960
 8223SOL     OW36130   3.582   3.298   1.710 -0.5012 -0.4018 -0.2141
 8223SOL    HW136131   3.530   3.301   1.630  0.5870 -0.2107 -0.9109
 8223SOL    HW236132   3.672   3.283   1.683  0.0156 -2.5479  2.7465
 8224SOL     OW36133   1.813   2.603   3.897 -0.0100  0.3751  0.7452
 8224SOL    HW136134   1.784   2.674   3.840  1.0027 -0.7061 -1.0940
 8224SOL    HW236135   1.904   2.606   3.871 -0.3922 -1.1199 -0.7699
 8225SOL     OW36136   2.082   2.784   1.411 -0.6332  0.2753  0.4437
 8225SOL    HW136137   2.052   2.800   1.322  0.1257  1.9208  0.4792
 8225SOL    HW236138   2.041   2.857   1.457  1.1994  1.4600  0.2113
 8226SOL     OW36139   2.671   2.436   8.624 -0.2420  0.3009  0.4414
 8226SOL    HW136140   2.612   2.508   8.646  0.3330  0.2619  2.1409
 8226SOL    HW236141   2.732   2.479   8.565  0.6458  2.7512  3.1285
 8227SOL     OW36142   1.347   2.102   4.970 -0.2911 -1.0362  0.5049
 8227SOL    HW136143   1.307   2.024   5.009  1.1327 -1.0273  2.0008
 8227SOL    HW236144   1.267   2.149   4.949 -0.5360 -2.1497 -1.0255
 8228SOL     OW36145   2.590   2.226   7.352 -0.4689  0.5188  0.2713
 8228SOL    HW136146   2.550   2.240   7.438 -4.1822 -2.1172 -1.0552
 8228SOL    HW236147   2.505   2.221   7.308  0.5965  0.1768 -1.7715
 8229SOL     OW36148   3.349   4.035   7.766  0.2772  0.0844 -0.3367
 8229SOL    HW136149   3.258   4.004   7.768  1.0585 -2.1479  0.7690
 8229SOL    HW236150   3.339   4.095   7.692 -1.3033  0.0129 -0.1857
 8230SOL     OW36151   3.296   3.477   4.880 -0.3833 -0.1512 -0.4996
 8230SOL    HW136152   3.236   3.422   4.829  1.2377  0.0275 -2.6082
 8230SOL    HW236153   3.344   3.519   4.808 -2.0245  0.5164 -1.2051
 8231SOL     OW36154   2.087   1.292   8.753  0.1236  0.6804  0.1222
 8231SOL    HW136155   2.147   1.218   8.743  2.1388  2.2386  0.5434
 8231SOL    HW236156   2.054   1.291   8.663 -0.5841  1.5296  0.3724
 8232SOL     OW36157   2.751   0.255   0.387 -0.2923 -0.4043  0.2260
 8232SOL    HW136158   2.806   0.281   0.312 -1.9302 -1.3632 -1.2990
 8232SOL    HW236159   2.793   0.169   0.395 -0.0129 -0.3676 -0.7807
 8233SOL     OW36160   4.318   0.349   2.883 -0.1564 -0.3101 -0.6113
 8233SOL    HW136161   4.300   0.301   2.964  1.4399 -1.1101 -0.7331
 8233SOL    HW236162   4.404   0.390   2.897 -0.4659  0.6489 -1.5687
 8234SOL     OW36163   1.466   2.633   8.394  0.2800  0.0874  0.2755
 8234SOL    HW136164   1.444   2.678   8.476 -0.9978 -1.7938  0.9603
 8234SOL    HW236165   1.535   2.575   8.427 -0.6483 -0.4652  1.2307
 8235SOL     OW36166   1.728   2.598   7.668 -0.4251  0.1915 -0.4818
 8235SOL    HW136167   1.672   2.674   7.651 -0.4802 -0.0005 -1.1619
 8235SOL    HW236168   1.780   2.636   7.739 -2.5542 -0.3268  1.3618
 8236SOL     OW36169   1.938   0.463  16.890 -0.0942 -0.7062 -0.4893
 8236SOL    HW136170   1.856   0.437  16.848  0.3122 -1.1399 -1.0175
 8236SOL    HW236171   1.902   0.511  16.964  2.1178 -2.0518  1.4770
 8237SOL     OW36172   4.077   0.341   7.137  0.8146  0.0833  0.4368
 8237SOL    HW136173   4.133   0.416   7.117  0.7225  0.3289  1.0881
 8237SOL    HW236174   4.030   0.367   7.217  0.9608 -0.2627  0.6326
 8238SOL     OW36175   3.219   1.253   2.530 -0.3394  0.0322 -0.4000
 8238SOL    HW136176   3.164   1.234   2.606 -1.9108 -2.2178 -2.1164
 8238SOL    HW236177   3.206   1.347   2.520  0.8449  0.3389  0.9277
 8239SOL     OW36178   2.495   4.455   8.514 -0.4500 -0.7845  0.2955
 8239SOL    HW136179   2.564   4.407   8.468  1.8764 -0.5937  3.5809
 8239SOL    HW236180   2.440   4.381   8.542  0.0997  0.1464  3.7494
 8240SOL     OW36181   1.381   1.330   6.456 -0.0468  0.3329 -0.2660
 8240SOL    HW136182   1.318   1.323   6.384 -0.5559  1.7556  0.0446
 8240SOL    HW236183   1.402   1.239   6.478 -0.1859  0.0625 -1.2410
 8241SOL     OW36184   2.029   3.251   4.171  0.0607 -0.5370  0.4668
 8241SOL    HW136185   2.041   3.156   4.160 -0.9008 -0.4742 -0.9983
 8241SOL    HW236186   2.105   3.270   4.227 -0.3139  0.5618  0.5943
 8242SOL     OW36187   0.544   3.630   6.367  0.3891  0.1495 -0.3838
 8242SOL    HW136188   0.624   3.670   6.334 -0.3082  0.9618 -1.0895
 8242SOL    HW236189   0.511   3.585   6.289 -0.6311 -0.2243  0.2639
 8243SOL     OW36190   3.051   0.387   2.953 -0.1218  0.1025 -0.1403
 8243SOL    HW136191   3.030   0.480   2.947  0.3252  0.1083 -1.7013
 8243SOL    HW236192   3.005   0.356   3.031 -0.2786 -1.4481 -0.8560
 8244SOL     OW36193   1.053   0.396   7.804 -0.2302 -0.1232 -0.3201
 8244SOL    HW136194   0.966   0.361   7.825 -1.0445  0.5494 -2.5741
 8244SOL    HW236195   1.078   0.353   7.723 -0.1544 -0.0269 -0.3483
 8245SOL     OW36196   2.206   3.455  10.604  0.3938  0.4432 -0.9143
 8245SOL    HW136197   2.252   3.464  10.521  0.7322  1.1906 -0.6425
 8245SOL    HW236198   2.247   3.533  10.641 -0.8168  0.8429 -0.4161
 8246SOL     OW36199   3.147   3.994  17.535 -0.0242 -0.5281 -0.2984
 8246SOL    HW136200   3.187   3.917  17.494  0.1499 -0.2823 -0.5938
 8246SOL    HW236201   3.215   4.061  17.527  1.5773 -1.6428  3.6883
 8247SOL     OW36202   3.461   0.316   0.994  0.0191 -0.1933 -0.5226
 8247SOL    HW136203   3.465   0.347   0.903 -2.1662  1.7037  0.0336
 8247SOL    HW236204   3.420   0.231   0.980 -0.4369  0.0421 -0.6135
 8248SOL     OW36205   2.689   3.231   5.457 -0.0735  0.0201  0.0260
 8248SOL    HW136206   2.762   3.259   5.512  1.7371 -0.9265 -1.9013
 8248SOL    HW236207   2.677   3.318   5.419  0.9733  1.7570  3.7239
 8249SOL     OW36208   1.687   1.984   6.446  0.0033 -0.3295 -0.6520
 8249SOL    HW136209   1.768   1.934   6.435  0.5642  0.0121  1.9709
 8249SOL    HW236210   1.712   2.058   6.392  1.1421  1.4515  2.3463
 8250SOL     OW36211   3.569   0.934   2.319 -0.6670 -0.4070  0.4070
 8250SOL    HW136212   3.527   0.895   2.396  1.2567 -0.3638  1.4627
 8250SOL    HW236213   3.506   0.901   2.255  2.2195 -2.0676 -1.5666
 8251SOL     OW36214   1.709   2.456   3.159  0.2422  0.1772  0.3815
 8251SOL    HW136215   1.758   2.536   3.179 -2.2113  1.6850  0.3672
 8251SOL    HW236216   1.668   2.434   3.243 -2.1104 -0.5252 -0.9533
 8252SOL     OW36217   2.840   4.202   5.092  0.5859  0.5465  0.2796
 8252SOL    HW136218   2.913   4.229   5.037  0.1956 -0.4100 -0.6925
 8252SOL    HW236219   2.766   4.207   5.031 -0.9999  1.4540  2.2585
 8253SOL     OW36220   3.832   2.162  16.913 -0.1561  0.5146  0.4005
 8253SOL    HW136221   3.799   2.085  16.866  1.5828  0.5564 -0.8979
 8253SOL    HW236222   3.745   2.190  16.941 -0.8473 -0.1110 -1.1220
 8254SOL     OW36223   4.340   0.128   7.535 -0.1522  0.4873  0.0758
 8254SOL    HW136224   4.380   0.187   7.599  3.9481 -1.3977 -0.7105
 8254SOL    HW236225   4.249   0.146   7.554 -0.7904  0.2055 -2.6160
 8255SOL     OW36226   0.166   2.768  10.028  0.0767 -0.0662  0.0090
 8255SOL    HW136227   0.172   2.768  10.123  0.6193  1.2479 -0.0185
 8255SOL    HW236228   0.140   2.677  10.016 -2.2684  0.9470 -2.6146
 8256SOL     OW36229   1.397   3.658  14.134 -0.1857  0.6194 -0.3440
 8256SOL    HW136230   1.325   3.703  14.091  0.4163  3.1791  1.2978
 8256SOL    HW236231   1.468   3.640  14.072 -0.7996 -2.2860 -0.1932
 8257SOL     OW36232   3.046   0.466   1.732  0.0145  0.1950 -0.2798
 8257SOL    HW136233   3.057   0.488   1.825 -1.9168 -0.8976  0.2092
 8257SOL    HW236234   2.957   0.432   1.736  1.1460 -2.7273 -0.1626
 8258SOL     OW36235   3.531   4.381   5.702 -0.2295  0.4135 -0.0878
 8258SOL    HW136236   3.594   4.413   5.637 -1.7371  2.5681 -0.4976
 8258SOL    HW236237   3.456   4.432   5.671  1.4880  1.7929 -1.9484
 8259SOL     OW36238   4.228   1.062   3.064 -0.0098  0.3102  0.0200
 8259SOL    HW136239   4.184   0.981   3.088  0.9207 -0.2563 -0.1660
 8259SOL    HW236240   4.263   1.047   2.976  2.6985  1.5155  0.8971
 8260SOL     OW36241   0.472   3.673  12.521  0.4120 -0.4610 -0.1059
 8260SOL    HW136242   0.450   3.653  12.612 -0.9696  3.2501  0.3914
 8260SOL    HW236243   0.568   3.674  12.524  0.4088 -0.2646 -0.0725
 8261SOL     OW36244   1.934   1.300   9.217 -0.1984  0.2933  0.0879
 8261SOL    HW136245   1.926   1.390   9.249 -0.7045 -0.1589  1.2311
 8261SOL    HW236246   1.877   1.313   9.141  0.5191 -2.9398 -1.0107
 8262SOL     OW36247   1.372   4.556   8.978 -0.2321  0.4659  0.0765
 8262SOL    HW136248   1.380   4.537   9.072  1.6481 -1.6128 -0.4965
 8262SOL    HW236249   1.411   4.643   8.976 -2.0710  1.3164  1.4283
 8263SOL     OW36250   2.130   0.046   0.631  0.2751 -0.6625 -0.0832
 8263SOL    HW136251   2.097   0.091   0.553  2.7632  2.0290  0.4195
 8263SOL    HW236252   2.049   0.007   0.663  0.1167 -0.0744  0.2150
 8264SOL     OW36253   2.045   4.346  16.681  0.1468 -0.3693 -0.0840
 8264SOL    HW136254   1.985   4.279  16.649  0.2726 -0.5275  0.0110
 8264SOL    HW236255   2.049   4.398  16.601 -1.4948  0.3268  0.2871
 8265SOL     OW36256   0.718   0.392   3.013 -0.1910 -0.1445 -0.5481
 8265SOL    HW136257   0.741   0.299   3.008  1.4848  0.2781 -0.6578
 8265SOL    HW236258   0.785   0.425   3.073  0.0028 -0.2471 -0.7096
 8266SOL     OW36259   1.871   1.676   1.417  0.1687 -0.4573 -0.0558
 8266SOL    HW136260   1.842   1.585   1.419  1.1069 -0.7514  0.4633
 8266SOL    HW236261   1.794   1.710   1.372 -0.6729 -1.2468  0.8138
 8267SOL     OW36262   1.471   0.905   4.786  0.0489  0.4545  0.4884
 8267SOL    HW136263   1.385   0.864   4.779  0.1649  0.0765  1.1965
 8267SOL    HW236264   1.453   0.994   4.755 -2.5652 -0.0494  0.5767
 8268SOL     OW36265   3.489   4.244   2.880  0.3634 -0.2992  0.0895
 8268SOL    HW136266   3.401   4.271   2.905  1.2245  2.4458  0.1116
 8268SOL    HW236267   3.474   4.162   2.833  2.2001 -0.6877  0.1872
 8269SOL     OW36268   1.573   4.018  10.611 -0.2088  0.0582 -0.2259
 8269SOL    HW136269   1.542   3.963  10.683  0.2440  0.8682  0.5868
 8269SOL    HW236270   1.505   4.084  10.601  0.6032  0.5082 -2.7482
 8270SOL     OW36271   4.456   4.084   6.731  0.7123  0.2248 -0.3961
 8270SOL    HW136272   4.484   4.169   6.697 -0.0564  0.9219  0.6893
 8270SOL    HW236273   4.516   4.019   6.695 -1.3120 -1.7420 -0.2204
 8271SOL     OW36274   2.356   4.245   8.654  0.6063 -0.5956  0.0213
 8271SOL    HW136275   2.421   4.180   8.680 -1.0225 -1.1330  2.8342
 8271SOL    HW236276   2.294   4.215   8.720  0.6976  1.4711  1.0493
 8272SOL     OW36277   3.502   2.426   6.969  0.1493 -0.2158 -0.2623
 8272SOL    HW136278   3.500   2.417   6.874 -3.8556 -0.5877 -0.1579
 8272SOL    HW236279   3.573   2.487   6.987 -1.4412  1.6023 -0.1687
 8273SOL     OW36280   3.235   2.298  12.299  0.4024  0.2927 -0.2314
 8273SOL    HW136281   3.320   2.329  12.331  0.4386 -0.9399  0.8780
 8273SOL    HW236282   3.251   2.279  12.207  3.4599 -2.2977  0.8207
 8274SOL     OW36283   0.641   1.493   7.426  0.5460  0.5766 -0.2061
 8274SOL    HW136284   0.598   1.564   7.379 -1.7636  0.2465  1.4331
 8274SOL    HW236285   0.731   1.521   7.408  0.1405  3.1967  1.8961
 8275SOL     OW36286   4.335   4.410   7.957  0.0725  0.4364  0.0975
 8275SOL    HW136287   4.293   4.351   7.893 -0.3777  1.7651 -0.8192
 8275SOL    HW236288   4.420   4.366   7.961  0.3213  1.1596  2.7398
 8276SOL     OW36289   4.414   1.377   7.837  1.2260  0.0201 -0.2164
 8276SOL    HW136290   4.446   1.366   7.926  0.4760 -2.9725 -0.3227
 8276SOL    HW236291   4.469   1.306   7.805 -1.7690 -2.0699 -0.6980
 8277SOL     OW36292   0.177   1.105   0.159  0.1577 -0.2074 -0.2772
 8277SOL    HW136293   0.173   1.193   0.121  0.7400  0.0812  0.3399
 8277SOL    HW236294   0.214   1.112   0.247 -1.5440 -0.2151  0.4350
 8278SOL     OW36295   2.407   1.720   2.977 -0.2665 -0.1600 -0.0533
 8278SOL    HW136296   2.442   1.809   2.967  0.3389 -0.1630  1.9754
 8278SOL    HW236297   2.461   1.686   3.049  0.5212  0.3489 -0.3945
 8279SOL     OW36298   4.148   0.971   9.225 -0.0078  0.2595 -0.1668
 8279SOL    HW136299   4.176   1.062   9.230  3.0819 -0.8457  2.3222
 8279SOL    HW236300   4.206   0.935   9.158  0.0805 -0.2310  0.1750
 8280SOL     OW36301   0.841   4.179  12.850  0.2671  0.0871  0.0669
 8280SOL    HW136302   0.909   4.112  12.857  0.3565  0.1002 -0.6826
 8280SOL    HW236303   0.899   4.255  12.849 -0.6317  0.7613 -0.8865
 8281SOL     OW36304   3.019   3.584  10.594 -0.3644 -0.1844  0.2817
 8281SOL    HW136305   3.006   3.673  10.561 -2.4487 -0.1654  1.1025
 8281SOL    HW236306   3.077   3.600  10.668  0.0203 -2.5335  0.4947
 8282SOL     OW36307   3.826   1.360  13.532 -0.2151 -0.5976  0.1645
 8282SOL    HW136308   3.793   1.445  13.561  0.5571 -0.2701  0.0826
 8282SOL    HW236309   3.757   1.341  13.468  0.1525 -0.7209 -0.1932
 8283SOL     OW36310   4.376   0.756   2.188  0.3384 -0.5938  0.0291
 8283SOL    HW136311   4.465   0.756   2.222  0.9924 -1.6832 -1.7006
 8283SOL    HW236312   4.335   0.695   2.249  0.1623  0.8605  1.3770
 8284SOL     OW36313   2.824   3.212   9.733  0.1035 -0.0263  0.2314
 8284SOL    HW136314   2.766   3.248   9.666  0.7902  0.9322  0.1440
 8284SOL    HW236315   2.758   3.182   9.795  1.4745 -2.3070  0.5843
 8285SOL     OW36316   1.394   2.124   3.397  0.0696 -0.5231 -0.5240
 8285SOL    HW136317   1.444   2.085   3.468 -1.6103 -0.1045  0.8817
 8285SOL    HW236318   1.427   2.085   3.316 -0.7579  1.8929 -2.0485
 8286SOL     OW36319   2.056   0.174   0.368  0.2515  0.6227  0.3082
 8286SOL    HW136320   2.068   0.147   0.277  0.4410 -0.7887  0.7584
 8286SOL    HW236321   1.989   0.243   0.366 -0.8210 -0.4393 -0.0361
 8287SOL     OW36322   3.387   3.004   8.707 -0.5534  0.2313  0.6218
 8287SOL    HW136323   3.399   3.003   8.802 -0.6517 -1.5275  0.6174
 8287SOL    HW236324   3.348   3.092   8.706  0.1339  0.5310 -0.7408
 8288SOL     OW36325   1.710   3.039   5.086  0.4462  0.0419  0.2171
 8288SOL    HW136326   1.785   3.088   5.052 -0.9674  1.2979 -1.0834
 8288SOL    HW236327   1.704   3.062   5.179 -0.6402 -1.1645  0.4526
 8289SOL     OW36328   0.972   2.702   1.502 -0.4977 -0.2595 -0.3472
 8289SOL    HW136329   0.976   2.608   1.518 -0.0382 -0.0815  0.6088
 8289SOL    HW236330   0.971   2.707   1.406  0.2727  0.2566 -0.3250
 8290SOL     OW36331   2.536   2.403   6.682  0.2097 -0.1690 -0.0600
 8290SOL    HW136332   2.554   2.488   6.643  0.2346  0.4649  1.3163
 8290SOL    HW236333   2.529   2.355   6.600 -0.6939 -0.7971  0.3859
 8291SOL     OW36334   0.528   1.036   6.802 -0.4291  0.3688 -0.0966
 8291SOL    HW136335   0.621   1.017   6.804 -0.2486  1.2239 -0.6104
 8291SOL    HW236336   0.501   0.950   6.771 -0.6077  0.2151  0.4780
 8292SOL     OW36337   2.432   4.486  11.762 -0.0236  0.4035  0.4357
 8292SOL    HW136338   2.438   4.399  11.721 -1.3313 -0.2967  1.7255
 8292SOL    HW236339   2.341   4.486  11.791 -0.7914 -0.8139 -1.9216
 8293SOL     OW36340   0.211   2.230   5.586  0.1137  0.4382 -0.1428
 8293SOL    HW136341   0.242   2.197   5.671 -2.7994 -2.8463 -0.3748
 8293SOL    HW236342   0.285   2.207   5.530 -0.9387  1.3078 -1.8905
 8294SOL     OW36343   2.862   1.972  15.374  0.3844  0.2332  0.1816
 8294SOL    HW136344   2.767   1.975  15.384  0.2819  1.5964 -1.3116
 8294SOL    HW236345   2.867   1.987  15.280 -0.3944  2.3843  0.4905
 8295SOL     OW36346   2.506   0.104   2.527 -0.8847  0.1294  0.0266
 8295SOL    HW136347   2.541   0.118   2.615  0.0026  2.2444 -0.6747
 8295SOL    HW236348   2.520   0.010   2.524  1.4837  0.4717  0.7862
 8296SOL     OW36349   3.633   0.301   8.167 -0.0969 -0.0202  0.1844
 8296SOL    HW136350   3.586   0.220   8.186 -0.2581 -0.3304 -1.5242
 8296SOL    HW236351   3.720   0.275   8.197  0.7108  2.3030 -0.1540
 8297SOL     OW36352   3.416   1.031   8.947 -0.1092  0.3703  0.5715
 8297SOL    HW136353   3.371   1.032   8.863 -0.1885  0.2539  0.6119
 8297SOL    HW236354   3.367   1.098   8.996 -0.2329  0.3289  0.5054
 8298SOL     OW36355   3.501   2.141   6.918  0.4204 -0.0810  0.3129
 8298SOL    HW136356   3.494   2.233   6.941 -0.4119  0.6985 -3.0428
 8298SOL    HW236357   3.472   2.109   7.004  0.2125  0.9810  0.6419
 8299SOL     OW36358   0.967   3.079   5.875  0.2281 -0.0015 -0.5672
 8299SOL    HW136359   0.874   3.102   5.864  0.0508 -0.5346 -0.2264
 8299SOL    HW236360   0.997   3.169   5.870  0.1166  0.1077  0.6448
 8300SOL     OW36361   0.292   1.150   4.320 -0.2006  0.4676  0.3872
 8300SOL    HW136362   0.334   1.235   4.309 -2.9266  1.8437  0.6003
 8300SOL    HW236363   0.301   1.099   4.239  0.4977  1.6294 -0.2626
 8301SOL     OW36364   3.738   2.306   3.677  0.4500 -0.0831  0.1839
 8301SOL    HW136365   3.743   2.401   3.671 -0.7882 -0.0018  0.3118
 8301SOL    HW236366   3.724   2.293   3.583  0.7666  0.1430  0.1072
 8302SOL     OW36367   0.583   2.333   8.298 -0.9671  0.2249  0.1986
 8302SOL    HW136368   0.599   2.425   8.318  1.3431 -0.2421  0.3965
 8302SOL    HW236369   0.635   2.312   8.221  0.8950  1.0509  1.2284
 8303SOL     OW36370   4.105   2.914   4.214  0.2413 -0.0463 -0.3173
 8303SOL    HW136371   4.107   2.986   4.151  0.8043  1.2293  1.1396
 8303SOL    HW236372   4.182   2.861   4.191 -0.7945 -2.1827  1.1004
 8304SOL     OW36373   1.654   4.695   8.433  0.0779  0.2626  0.3200
 8304SOL    HW136374   1.678   4.602   8.427  0.0223  0.1370  2.0018
 8304SOL    HW236375   1.685   0.020   8.357  0.3497 -0.4696 -0.0361
 8305SOL     OW36376   3.114   0.314   2.273  0.3089 -0.0454  0.8063
 8305SOL    HW136377   3.167   0.294   2.195  2.1766  0.9301  1.8383
 8305SOL    HW236378   3.168   0.384   2.309  1.4321  0.3374 -1.6133
 8306SOL     OW36379   1.877   3.233   3.162  0.1297  0.2575 -0.4520
 8306SOL    HW136380   1.875   3.265   3.072 -0.0485 -2.6541 -1.4922
 8306SOL    HW236381   1.848   3.313   3.206  3.1750  1.3619 -0.5051
 8307SOL     OW36382   1.151   1.259   4.595  0.2358 -0.2299 -0.1059
 8307SOL    HW136383   1.090   1.200   4.551 -0.3512 -1.3004  2.1355
 8307SOL    HW236384   1.230   1.204   4.593  0.2630 -0.2153  0.5360
 8308SOL     OW36385   3.747   2.559  14.616 -0.0375  0.1165  0.1806
 8308SOL    HW136386   3.708   2.472  14.608 -2.5183  1.2156  0.5748
 8308SOL    HW236387   3.685   2.617  14.573 -0.5195  0.3178  1.1441
 8309SOL     OW36388   3.176   0.700  13.244 -0.1809  0.0055  0.1385
 8309SOL    HW136389   3.141   0.636  13.306  1.9325 -0.6368  0.6983
 8309SOL    HW236390   3.108   0.766  13.234 -0.9238 -0.7933 -0.1172
 8310SOL     OW36391   1.836   4.417   1.384 -0.2681 -0.4048 -0.0516
 8310SOL    HW136392   1.914   4.410   1.439  0.2155 -2.1853 -0.9650
 8310SOL    HW236393   1.871   4.397   1.297 -2.1841  1.5012 -1.2569
 8311SOL     OW36394   1.103   0.959   2.604  0.5507 -0.1406 -0.5128
 8311SOL    HW136395   1.134   0.966   2.514  1.8532 -1.7415 -0.1821
 8311SOL    HW236396   1.009   0.975   2.589  0.4327 -0.2988  0.0841
 8312SOL     OW36397   4.495   2.844   3.854  0.1321 -0.0095  0.6241
 8312SOL    HW136398   4.582   2.816   3.825 -0.8032 -1.0689 -1.1644
 8312SOL    HW236399   4.446   2.771   3.814 -0.7254  1.1608 -0.4735
 8313SOL     OW36400   3.654   1.503   7.032  0.8048 -0.5408 -0.0526
 8313SOL    HW136401   3.562   1.480   7.019  0.6715 -0.7905  1.3007
 8313SOL    HW236402   3.668   1.555   6.953  2.3054 -0.4837  0.2603
 8314SOL     OW36403   1.626   3.211  15.584 -0.2061 -0.2215 -0.1192
 8314SOL    HW136404   1.582   3.220  15.500  0.5476 -1.8812 -0.6902
 8314SOL    HW236405   1.562   3.250  15.644 -0.5759  0.8506 -1.2082
 8315SOL     OW36406   4.399   4.346  15.659 -0.4551  0.4807  0.6787
 8315SOL    HW136407   4.373   4.403  15.587  1.3611  0.3234 -0.1151
 8315SOL    HW236408   4.325   4.290  15.682  1.3331 -2.4399 -0.5448
 8316SOL     OW36409   1.261   2.720   2.558 -0.1036  0.0705  0.6743
 8316SOL    HW136410   1.221   2.741   2.643 -0.2178  0.5388  0.5088
 8316SOL    HW236411   1.286   2.629   2.569 -1.5444 -0.3506  0.4803
 8317SOL     OW36412   4.404   2.479   9.627 -0.0475  0.4545 -0.4297
 8317SOL    HW136413   4.494   2.447   9.625 -1.0763 -2.3796 -0.6790
 8317SOL    HW236414   4.405   2.521   9.713  0.1886 -2.4952  0.9898
 8318SOL     OW36415   3.344   3.146   8.345  0.7807 -1.1332 -0.5806
 8318SOL    HW136416   3.404   3.095   8.398  3.0760  0.4587 -1.6531
 8318SOL    HW236417   3.388   3.230   8.359 -1.4300 -0.0807  0.0206
 8319SOL     OW36418   3.815   2.043  15.966  0.4622  0.3967  0.0397
 8319SOL    HW136419   3.887   2.099  15.935 -0.0506  0.1882 -1.4763
 8319SOL    HW236420   3.802   1.978  15.897 -0.9956  0.4968  0.2271
 8320SOL     OW36421   0.666   2.472   5.819  0.0867 -0.1596 -0.5573
 8320SOL    HW136422   0.652   2.394   5.765 -1.9665 -1.6107  2.0718
 8320SOL    HW236423   0.756   2.450   5.842  0.0451  1.5614  1.2096
 8321SOL     OW36424   3.211   0.935   1.899 -0.3526 -0.3170 -0.4281
 8321SOL    HW136425   3.188   0.952   1.807 -0.0313  0.0948 -0.4305
 8321SOL    HW236426   3.260   0.853   1.890 -1.0227 -0.6302 -1.3656
 8322SOL     OW36427   4.340   2.575   6.368  0.2128  0.2196  0.1831
 8322SOL    HW136428   4.399   2.649   6.351  1.0423 -0.5781 -0.3673
 8322SOL    HW236429   4.398   2.513   6.324 -1.6914  0.3062 -2.4712
 8323SOL     OW36430   1.487   3.081   8.661  0.1346 -0.1676 -0.0486
 8323SOL    HW136431   1.569   3.131   8.662 -0.5526  1.0275 -2.2712
 8323SOL    HW236432   1.481   3.057   8.753  0.8658 -1.4441 -0.3311
 8324SOL     OW36433   0.403   3.934   9.559  0.0419  0.0682  0.4221
 8324SOL    HW136434   0.319   3.889   9.549  0.2587 -0.5680  1.4825
 8324SOL    HW236435   0.386   4.014   9.610  0.3781  1.1522 -1.1456
 8325SOL     OW36436   4.490   1.554  16.293 -0.7495  0.4924 -0.5253
 8325SOL    HW136437   4.508   1.465  16.322 -0.7965  0.0890 -1.7227
 8325SOL    HW236438   4.575   1.569  16.252  0.1555  0.4730  1.3702
 8326SOL     OW36439   2.029   0.629  12.204 -0.1876  0.0792 -0.7141
 8326SOL    HW136440   2.084   0.698  12.240  0.4627 -1.2510  0.8505
 8326SOL    HW236441   1.947   0.657  12.244  0.1051  0.3701 -0.3217
 8327SOL     OW36442   2.414   3.918   0.591 -0.4556  0.3292 -0.2364
 8327SOL    HW136443   2.407   4.013   0.601 -1.5630  0.3705 -1.4823
 8327SOL    HW236444   2.451   3.907   0.679  1.1191 -1.5389 -1.1515
 8328SOL     OW36445   2.131   4.079  11.044 -0.1336  0.2143  0.6664
 8328SOL    HW136446   2.197   4.141  11.075  0.9028 -0.9033  0.7032
 8328SOL    HW236447   2.163   4.001  11.090  0.3755 -0.7023 -1.2515
 8329SOL     OW36448   3.685   1.042   2.742 -0.1267 -0.3087  0.2990
 8329SOL    HW136449   3.709   1.125   2.701 -0.4531  0.1230  0.9909
 8329SOL    HW236450   3.752   0.986   2.703 -2.3536 -2.7059 -0.1318
 8330SOL     OW36451   2.215   1.135   5.985  0.2269 -0.1342 -0.3993
 8330SOL    HW136452   2.224   1.055   6.036  2.5408 -1.6494 -3.1949
 8330SOL    HW236453   2.284   1.185   6.028  0.4388  1.2617 -2.3752
 8331SOL     OW36454   4.338   2.216  12.023 -0.7456 -0.1013 -0.2197
 8331SOL    HW136455   4.394   2.208  12.100  1.2958  2.7251 -1.3950
 8331SOL    HW236456   4.399   2.241  11.953  0.2700 -2.2041 -0.0849
 8332SOL     OW36457   1.940   0.914  12.469 -0.7864 -0.1557  0.3866
 8332SOL    HW136458   1.940   0.835  12.523 -1.6951 -0.3084  0.1599
 8332SOL    HW236459   1.883   0.880  12.400 -2.0666  1.7810  0.4845
 8333SOL     OW36460   4.110   4.009   0.481 -0.1589  0.2428  0.4398
 8333SOL    HW136461   4.017   4.003   0.458 -0.8026  1.4490  2.7528
 8333SOL    HW236462   4.097   4.053   0.565 -2.1273  1.9459 -0.7638
 8334SOL     OW36463   1.122   2.090   0.926 -0.3873  0.1971  0.3338
 8334SOL    HW136464   1.155   2.025   0.863 -0.4719  1.3899 -0.9400
 8334SOL    HW236465   1.062   2.143   0.874 -2.7657 -1.5987  1.2444
 8335SOL     OW36466   3.055   4.494   5.239  0.0791  0.3692  0.3825
 8335SOL    HW136467   3.075   4.537   5.156 -1.7089  0.2391 -0.1298
 8335SOL    HW236468   3.141   4.476   5.275  0.1801  0.4580  0.1837
 8336SOL     OW36469   4.209   1.528   6.849 -0.1110 -0.2851 -0.0567
 8336SOL    HW136470   4.281   1.540   6.787  0.2431  2.2118  0.8063
 8336SOL    HW236471   4.250   1.456   6.898  0.2574 -2.0111 -2.8981
 8337SOL     OW36472   1.528   2.247   9.644 -0.5517 -0.1328 -1.0031
 8337SOL    HW136473   1.563   2.184   9.707  3.6992  0.1844 -2.9957
 8337SOL    HW236474   1.503   2.320   9.701  0.2036 -1.6261  1.2503
 8338SOL     OW36475   2.811   4.653   8.458  0.6732  0.0767  0.5220
 8338SOL    HW136476   2.769   4.620   8.378  0.4657 -0.6869  0.9483
 8338SOL    HW236477   2.761   4.602   8.522  0.7974 -0.5642  0.1060
 8339SOL     OW36478   3.835   3.506  17.103 -0.6146 -0.0143  0.3367
 8339SOL    HW136479   3.853   3.506  17.009  0.9055  0.3958  0.6193
 8339SOL    HW236480   3.810   3.598  17.111 -3.2355 -0.5389 -1.7683
 8340SOL     OW36481   4.302   4.110   3.681 -0.2562 -0.0228 -0.6677
 8340SOL    HW136482   4.357   4.094   3.605 -0.7227 -1.6950 -0.6497
 8340SOL    HW236483   4.316   4.033   3.737  1.9137 -0.5498 -1.9502
 8341SOL     OW36484   1.669   0.638  11.436  0.1157  0.0194 -0.2671
 8341SOL    HW136485   1.592   0.690  11.456  1.9995  3.2725 -1.4625
 8341SOL    HW236486   1.685   0.578  11.509 -1.6951  1.1834  1.0891
 8342SOL     OW36487   3.599   2.775  14.154  0.0022  0.2770  0.4847
 8342SOL    HW136488   3.579   2.696  14.205  1.2062 -0.8398 -0.7942
 8342SOL    HW236489   3.543   2.761  14.078 -1.9015  0.3555  1.8476
 8343SOL     OW36490   1.067   1.681   9.642  0.0647  0.1058  0.2750
 8343SOL    HW136491   1.124   1.624   9.591  0.6397  1.5835 -0.7260
 8343SOL    HW236492   1.106   1.768   9.636  1.5471 -0.5668  0.2080
 8344SOL     OW36493   0.522   2.602   2.027  0.6427  0.0926 -0.2120
 8344SOL    HW136494   0.533   2.685   2.073 -0.4564  0.7263 -1.1204
 8344SOL    HW236495   0.449   2.564   2.075  0.6742  0.5488  0.1991
 8345SOL     OW36496   4.613   2.171  11.320 -0.7106 -0.2221 -0.1006
 8345SOL    HW136497   4.596   2.094  11.373  0.0302 -2.1384 -2.6197
 8345SOL    HW236498   4.703   2.150  11.296 -0.4660  1.2381 -0.4842
 8346SOL     OW36499   3.802   2.920   4.201  0.5451 -0.4599 -0.0817
 8346SOL    HW136500   3.854   2.840   4.187  0.5297 -0.0069 -2.7982
 8346SOL    HW236501   3.831   2.963   4.281 -2.5364  1.0738  0.1693
 8347SOL     OW36502   3.840   3.179   2.114  0.4197 -0.2319  0.2044
 8347SOL    HW136503   3.820   3.160   2.022  1.3231 -0.6329  0.0935
 8347SOL    HW236504   3.932   3.155   2.123  0.6463 -0.2669 -2.1161
 8348SOL     OW36505   2.246   1.429   4.633 -0.0185  0.3580 -0.1717
 8348SOL    HW136506   2.181   1.370   4.596  0.8723  0.3919 -1.7701
 8348SOL    HW236507   2.190   1.506   4.626  0.0593  0.4151 -0.1675
 8349SOL     OW36508   2.709   0.295   0.014 -0.3973  0.5303 -0.1980
 8349SOL    HW136509   2.616   0.288   0.035 -0.1145 -1.0569  0.4788
 8349SOL    HW236510   2.747   0.341   0.089 -2.1964 -0.2101  1.1625
 8350SOL     OW36511   4.487   0.182   6.806 -0.0650  0.2537  0.2792
 8350SOL    HW136512   4.497   0.205   6.713 -0.3542 -2.7418 -0.4668
 8350SOL    HW236513   4.393   0.183   6.821 -0.0828  0.6381  0.1595
 8351SOL     OW36514   3.449   2.518  12.792 -0.3321  0.2192  0.2687
 8351SOL    HW136515   3.463   2.564  12.710  1.2989  1.9824  1.5101
 8351SOL    HW236516   3.488   2.433  12.770 -0.4495  0.4335 -0.7389
 8352SOL     OW36517   2.674   1.364   8.291  0.1555  0.1033  0.3723
 8352SOL    HW136518   2.698   1.433   8.353  0.6391  1.8077 -1.7110
 8352SOL    HW236519   2.660   1.293   8.354 -2.8074 -0.9832 -1.5066
 8353SOL     OW36520   0.696   2.680  17.445 -0.0461 -0.1411 -0.7245
 8353SOL    HW136521   0.614   2.637  17.419 -0.0851  0.0281 -0.8809
 8353SOL    HW236522   0.672   2.708  17.534  2.2011  2.9840 -1.0805
 8354SOL     OW36523   0.982   0.539   7.468 -0.2129  0.4669  0.1031
 8354SOL    HW136524   0.920   0.490   7.521  1.7824 -1.1150  0.9601
 8354SOL    HW236525   0.967   0.625   7.507  1.5413  1.5735 -1.6569
 8355SOL     OW36526   0.286   1.869   3.842  0.1045 -0.4853  0.5841
 8355SOL    HW136527   0.192   1.855   3.837  0.1070 -1.1930  2.3434
 8355SOL    HW236528   0.302   1.819   3.922 -2.3651 -0.5058  1.0363
 8356SOL     OW36529   3.384   4.636  10.223 -0.2670  0.7100  0.2711
 8356SOL    HW136530   3.442   4.560  10.223 -1.8474 -0.4935  1.6912
 8356SOL    HW236531   3.394   4.677  10.309 -0.8630 -0.9258  1.1260
 8357SOL     OW36532   0.680   4.124   9.004  0.6766  0.5246 -0.5117
 8357SOL    HW136533   0.769   4.107   8.972  0.3437 -0.3251 -0.9731
 8357SOL    HW236534   0.655   4.195   8.945  1.3228  2.8261  1.9562
 8358SOL     OW36535   2.491   1.369   4.762  0.6074  0.3041 -0.2360
 8358SOL    HW136536   2.407   1.389   4.722  0.1132  0.0310  0.6511
 8358SOL    HW236537   2.484   1.273   4.764  1.4288  0.2147 -1.5024
 8359SOL     OW36538   0.936   0.717   0.711 -0.1503 -0.0942  0.2873
 8359SOL    HW136539   0.930   0.622   0.697  2.8570 -0.3074  0.4343
 8359SOL    HW236540   1.014   0.722   0.766  0.2670  0.6780 -0.3710
 8360SOL     OW36541   1.856   1.438  15.791 -0.0692  0.2598 -0.1512
 8360SOL    HW136542   1.820   1.409  15.708 -1.0342  0.4028  0.2104
 8360SOL    HW236543   1.944   1.455  15.758  0.8604 -1.3397  1.4900
 8361SOL     OW36544   4.388   2.895   2.489  0.2887  0.0359  0.2138
 8361SOL    HW136545   4.338   2.865   2.565 -2.0926 -0.1026 -1.4154
 8361SOL    HW236546   4.479   2.888   2.518  0.8275 -1.2388 -1.7889
 8362SOL     OW36547   4.524   4.448   6.281 -0.0237  0.4409  0.5516
 8362SOL    HW136548   4.542   4.508   6.354  0.7614  0.4382  0.3652
 8362SOL    HW236549   4.430   4.461   6.272  0.2760  2.3039 -0.0418
 8363SOL     OW36550   1.758   0.910   5.815  0.6950  0.1111 -0.6730
 8363SOL    HW136551   1.694   0.948   5.876  1.0807  0.2664 -0.3703
 8363SOL    HW236552   1.759   0.984   5.754  1.3669  0.4689 -0.2206
 8364SOL     OW36553   3.097   3.917  13.559  0.1140  0.6537  0.2191
 8364SOL    HW136554   3.073   3.829  13.585 -1.7553  1.3857  0.9620
 8364SOL    HW236555   3.110   3.964  13.642  0.2233  0.4063  0.3408
 8365SOL     OW36556   4.647   4.431   9.059 -0.0998  0.6376 -0.4647
 8365SOL    HW136557   4.623   4.415   9.150  1.9044  1.0778  0.1532
 8365SOL    HW236558   0.018   4.429   9.078 -0.3532 -0.4666  0.7063
 8366SOL     OW36559   3.890   1.444  12.415 -0.1169 -0.2431 -0.2502
 8366SOL    HW136560   3.890   1.388  12.493 -2.7423  0.8178  0.5299
 8366SOL    HW236561   3.932   1.526  12.443  0.0127 -0.6154  0.6572
 8367SOL     OW36562   0.202   2.511   4.829 -0.2090  0.5495  0.0981
 8367SOL    HW136563   0.180   2.565   4.753 -0.3317  0.8058  0.3146
 8367SOL    HW236564   0.283   2.470   4.800 -0.1701  1.6046 -1.2577
 8368SOL     OW36565   2.742   2.536   5.953 -0.0807 -0.5525  0.0504
 8368SOL    HW136566   2.776   2.555   6.041  0.1016  1.9197 -0.5671
 8368SOL    HW236567   2.650   2.548   5.974  0.0705  1.4098 -0.4539
 8369SOL     OW36568   1.277   2.042  12.650 -0.2960  0.2509  0.6788
 8369SOL    HW136569   1.252   1.954  12.679 -1.0428  0.4591  0.6787
 8369SOL    HW236570   1.226   2.099  12.708  1.1413  3.2194 -0.9682
 8370SOL     OW36571   3.679   4.460  17.278 -0.2911 -0.0988  0.1109
 8370SOL    HW136572   3.671   4.555  17.280  1.7901  0.0782 -0.3671
 8370SOL    HW236573   3.766   4.458  17.238 -0.9312  0.0819 -1.3297
 8371SOL     OW36574   2.937   2.975   1.811 -0.3382 -0.6732 -0.8746
 8371SOL    HW136575   2.935   3.040   1.741  3.1915 -0.1182 -0.4911
 8371SOL    HW236576   2.887   2.907   1.766 -2.9355  1.8035 -1.6585
 8372SOL     OW36577   1.760   0.494   4.596 -0.1115  0.5438  0.1620
 8372SOL    HW136578   1.696   0.425   4.577 -0.8500  1.3369 -0.2101
 8372SOL    HW236579   1.748   0.505   4.690 -3.9897 -0.3413 -0.2307
 8373SOL     OW36580   2.176   0.465  11.740 -0.3661  0.0085 -0.8326
 8373SOL    HW136581   2.098   0.417  11.712  0.3881 -0.1518 -2.6866
 8373SOL    HW236582   2.148   0.555  11.723  0.5723  0.4626  0.0516
 8374SOL     OW36583   3.819   3.705  11.921 -0.3182 -0.2018  0.2134
 8374SOL    HW136584   3.880   3.678  11.990  1.2880  2.5168 -0.1358
 8374SOL    HW236585   3.763   3.628  11.927 -1.3925  0.4460 -1.4777
 8375SOL     OW36586   3.934   1.191   2.962  0.1089 -0.2363 -0.0698
 8375SOL    HW136587   3.977   1.205   2.878 -1.2954  0.5850 -0.6640
 8375SOL    HW236588   3.913   1.098   2.953  0.2898 -0.5867  3.0553
 8376SOL     OW36589   4.507   2.406   5.152 -0.4030  0.2419  0.0503
 8376SOL    HW136590   4.564   2.422   5.076 -1.0945  2.6809  0.0315
 8376SOL    HW236591   4.477   2.493   5.179 -0.9570 -0.3286  1.2411
 8377SOL     OW36592   1.989   0.874   8.888  0.0465  0.7570  0.1393
 8377SOL    HW136593   2.056   0.907   8.828  0.4318 -1.0082 -0.4038
 8377SOL    HW236594   1.923   0.940   8.869  0.4245  1.1313  0.1092
 8378SOL     OW36595   2.338   3.209   5.080 -0.2442  0.3027 -0.5616
 8378SOL    HW136596   2.332   3.134   5.021  4.9418  2.9820 -4.4957
 8378SOL    HW236597   2.398   3.163   5.139  0.4826  3.1091  0.8542
 8379SOL     OW36598   2.724   4.106   8.851  0.3817  0.5935 -0.2488
 8379SOL    HW136599   2.748   4.187   8.806 -0.4781  0.7205 -0.4909
 8379SOL    HW236600   2.798   4.100   8.912 -1.0741  1.4102  1.6161
 8380SOL     OW36601   4.016   2.103  16.338  0.7878 -0.0303  0.0912
 8380SOL    HW136602   4.053   2.081  16.424  2.3819 -0.3621 -0.6723
 8380SOL    HW236603   3.986   2.194  16.344 -0.4445 -0.3874 -0.8542
 8381SOL     OW36604   2.781   2.095  14.855 -0.2117  0.2202  0.2835
 8381SOL    HW136605   2.769   2.138  14.771  2.6951  2.4438  1.0127
 8381SOL    HW236606   2.842   2.025  14.829 -0.7402 -0.4018  0.7116
 8382SOL     OW36607   4.049   3.210  14.701 -0.1880  0.1870 -0.5707
 8382SOL    HW136608   4.073   3.261  14.778 -1.1228 -2.4403  1.4509
 8382SOL    HW236609   3.955   3.212  14.720  0.1260  2.0433  0.7540
 8383SOL     OW36610   3.706   3.148   7.833  0.1563 -0.2951  0.7713
 8383SOL    HW136611   3.785   3.166   7.883  2.5526 -0.2005 -3.0879
 8383SOL    HW236612   3.652   3.125   7.909  1.1672  0.1324  1.6165
 8384SOL     OW36613   0.788   4.312  16.717 -0.0998 -0.2929  0.1479
 8384SOL    HW136614   0.740   4.240  16.675 -1.6100 -0.1573  1.6219
 8384SOL    HW236615   0.838   4.341  16.641 -0.3402  0.8168  0.4144
 8385SOL     OW36616   3.005   0.451   3.792 -0.0737  0.5892 -0.3605
 8385SOL    HW136617   2.932   0.509   3.772 -0.7722 -0.2924 -0.3483
 8385SOL    HW236618   3.011   0.469   3.886 -0.7891 -2.7207  0.3068
 8386SOL     OW36619   3.212   0.615   8.964  0.8081  0.1247  0.6005
 8386SOL    HW136620   3.213   0.700   9.007  1.7503  0.8051 -0.7348
 8386SOL    HW236621   3.129   0.578   8.994  1.7289 -1.4913  1.1804
 8387SOL     OW36622   1.124   4.360   0.000  0.4340  0.3810 -0.2165
 8387SOL    HW136623   1.093   4.371   0.090  0.8250  1.3801 -0.1973
 8387SOL    HW236624   1.166   4.445  17.676 -0.4371  1.1308  1.3071
 8388SOL     OW36625   2.334   0.201  17.213  0.4807  0.2550 -0.1609
 8388SOL    HW136626   2.339   0.283  17.165 -0.2356  0.1794 -0.3737
 8388SOL    HW236627   2.385   0.229  17.289 -0.5365 -0.4723  0.8018
 8389SOL     OW36628   1.449   2.916   5.048  0.8486  0.2741  0.0462
 8389SOL    HW136629   1.487   2.830   5.065  0.2557 -0.1214 -0.6297
 8389SOL    HW236630   1.533   2.954   5.020  0.8129 -0.9542 -1.7005
 8390SOL     OW36631   1.418   3.408  10.954 -0.9340  0.3790 -0.2051
 8390SOL    HW136632   1.344   3.467  10.968  0.8083  1.6153  3.6484
 8390SOL    HW236633   1.489   3.453  11.000 -0.9948 -0.3295  0.5815
 8391SOL     OW36634   2.237   2.034  17.204 -0.1768  0.1538 -0.3252
 8391SOL    HW136635   2.177   2.036  17.130 -1.2295  1.9283  0.5511
 8391SOL    HW236636   2.326   2.025  17.170  0.1217 -1.1703  0.8365
 8392SOL     OW36637   4.022   2.966   8.061  0.1364 -0.5356 -0.0342
 8392SOL    HW136638   4.018   2.975   7.966 -2.4770  0.0466  0.1406
 8392SOL    HW236639   4.095   3.027   8.074 -0.1813 -0.1493 -0.0836
 8393SOL     OW36640   2.356   4.435  10.486 -0.0978  0.2872  0.1627
 8393SOL    HW136641   2.434   4.480  10.521 -1.4796  1.8745  1.1884
 8393SOL    HW236642   2.357   4.469  10.396 -0.5917  0.7071  0.3140
 8394SOL     OW36643   3.753   3.786   2.526 -0.3439  0.5098  0.1580
 8394SOL    HW136644   3.692   3.782   2.453  0.3279  2.1262 -0.4886
 8394SOL    HW236645   3.809   3.709   2.512 -2.4778 -1.1674  0.8721
 8395SOL     OW36646   3.697   3.548   6.171  0.2534  0.3748  0.8615
 8395SOL    HW136647   3.746   3.598   6.236  1.6250 -2.0144  1.6901
 8395SOL    HW236648   3.776   3.504   6.139 -0.8868  0.0652 -1.5171
 8396SOL     OW36649   2.988   3.237   0.528  0.7477  0.0606 -0.2349
 8396SOL    HW136650   2.960   3.211   0.616 -0.7468  0.1849 -0.6908
 8396SOL    HW236651   2.904   3.247   0.485 -0.4040 -2.9379  1.3447
 8397SOL     OW36652   2.827   1.159   8.783 -0.3146  0.2980 -0.5436
 8397SOL    HW136653   2.755   1.180   8.843 -0.1234 -0.1086 -0.1754
 8397SOL    HW236654   2.772   1.129   8.709  0.2873  1.0213 -1.2838
 8398SOL     OW36655   3.503   3.910   3.518 -0.2060  0.1200 -0.3571
 8398SOL    HW136656   3.599   3.907   3.528 -0.2120 -1.2043 -0.7616
 8398SOL    HW236657   3.474   3.979   3.577  1.8526  0.2357  0.5510
 8399SOL     OW36658   3.217   0.841   6.322  0.1707 -0.0333  0.7127
 8399SOL    HW136659   3.245   0.755   6.290  0.5221 -0.3780  1.9424
 8399SOL    HW236660   3.141   0.866   6.270 -0.0371 -0.8000  0.6486
 8400SOL     OW36661   4.278   4.247   6.412 -0.3096 -0.4569 -0.5589
 8400SOL    HW136662   4.250   4.322   6.360  0.4476  1.0487  1.1942
 8400SOL    HW236663   4.296   4.284   6.498 -2.0865 -2.2930  0.5896
 8401SOL     OW36664   0.185   1.551   5.644 -0.1242 -0.1542  0.3552
 8401SOL    HW136665   0.202   1.582   5.555 -0.0172 -0.1174  0.3880
 8401SOL    HW236666   0.108   1.602   5.668 -0.3949 -0.4212  0.0420
 8402SOL     OW36667   4.237   0.095   6.550  0.7273 -0.4751  0.7915
 8402SOL    HW136668   4.329   0.115   6.530 -0.0134  1.7889 -0.2875
 8402SOL    HW236669   4.245   0.112   6.644  1.4032  1.6121  0.3660
 8403SOL     OW36670   2.959   2.576  13.768 -0.4263  0.0578  0.1330
 8403SOL    HW136671   2.945   2.556  13.860  3.0088  0.2263  0.7036
 8403SOL    HW236672   2.987   2.668  13.764  0.0733 -0.0699  0.7057
 8404SOL     OW36673   1.530   3.429   6.910  0.1694  0.3350  0.2822
 8404SOL    HW136674   1.481   3.446   6.830 -1.2989 -1.4636  0.7976
 8404SOL    HW236675   1.476   3.365   6.956 -1.7201  0.7772 -1.3518
 8405SOL     OW36676   3.667   2.899   7.738 -1.0529 -0.1142  0.2967
 8405SOL    HW136677   3.646   2.856   7.821 -0.3776  0.3933  0.7282
 8405SOL    HW236678   3.664   2.991   7.766 -0.3612 -0.4358  1.4098
 8406SOL     OW36679   1.602   0.703  12.784  0.2785 -0.2744 -0.0757
 8406SOL    HW136680   1.637   0.679  12.698 -0.1171 -1.5060  0.1079
 8406SOL    HW236681   1.660   0.663  12.848 -0.0304  0.6347  0.7745
 8407SOL     OW36682   4.471   2.449   3.614 -0.2771  0.5614 -0.1424
 8407SOL    HW136683   4.504   2.423   3.528 -1.8768 -0.4021 -0.4698
 8407SOL    HW236684   4.498   2.371   3.662  1.5904  0.8808 -0.7102
 8408SOL     OW36685   4.257   3.445   6.340 -0.5114  0.6742 -0.1195
 8408SOL    HW136686   4.266   3.370   6.398  2.0051 -0.5200 -2.0724
 8408SOL    HW236687   4.190   3.414   6.279 -2.1252  1.2708  1.3404
 8409SOL     OW36688   3.863   1.367  10.790 -0.0145  0.1173  0.2057
 8409SOL    HW136689   3.935   1.328  10.740  0.3364  3.1150 -1.6023
 8409SOL    HW236690   3.786   1.319  10.761 -0.2902 -0.4954  1.8992
 8410SOL     OW36691   2.885   3.105   7.318  0.9063 -0.1404 -0.4778
 8410SOL    HW136692   2.924   3.018   7.308  0.0285 -0.6341  0.4941
 8410SOL    HW236693   2.896   3.148   7.233  0.0924  0.2608 -0.3833
 8411SOL     OW36694   0.279   0.537   3.422 -0.1341  0.5057 -0.4256
 8411SOL    HW136695   0.308   0.560   3.510 -0.6022  1.8318 -0.6186
 8411SOL    HW236696   0.359   0.489   3.400 -0.5731 -0.1355 -0.6433
 8412SOL     OW36697   4.587   1.854   5.965  0.3889 -0.1248 -0.0995
 8412SOL    HW136698   4.623   1.920   5.905  1.7989  0.0783  0.9977
 8412SOL    HW236699   4.500   1.893   5.975  0.4361  0.5532 -2.3361
 8413SOL     OW36700   0.251   4.701   9.681  0.3090  0.7099  0.3952
 8413SOL    HW136701   0.212   4.685   9.767 -0.8420  0.7172 -0.1223
 8413SOL    HW236702   0.199   0.051   9.647  0.7394  0.2760 -1.2152
 8414SOL     OW36703   3.111   1.549   7.246 -0.0251 -0.0095  0.0364
 8414SOL    HW136704   3.094   1.567   7.154  2.2673  1.7587 -0.0085
 8414SOL    HW236705   3.098   1.454   7.252 -0.4994  0.0513 -0.0143
 8415SOL     OW36706   3.577   2.916   6.170  0.1356 -0.1621  0.5412
 8415SOL    HW136707   3.663   2.954   6.187 -0.4571  0.9221  1.1127
 8415SOL    HW236708   3.532   2.915   6.254  2.8855 -0.4381  1.9950
 8416SOL     OW36709   1.454   1.240   4.184 -0.2135 -0.4623 -0.1294
 8416SOL    HW136710   1.437   1.188   4.263 -1.3760  0.7443  0.3951
 8416SOL    HW236711   1.369   1.226   4.143 -1.3901  1.1745  1.7477
 8417SOL     OW36712   3.797   0.252  11.574  0.1364  0.3480 -0.3694
 8417SOL    HW136713   3.849   0.217  11.502  1.4779  1.1531  0.2117
 8417SOL    HW236714   3.834   0.340  11.582  1.0635 -0.1197  0.5258
 8418SOL     OW36715   0.021   4.195   7.497  0.0841  0.2321  0.4780
 8418SOL    HW136716   4.718   4.286   7.513  0.1975  0.5530 -1.1713
 8418SOL    HW236717   4.684   4.158   7.561  0.9763  0.4095  1.4064
 8419SOL     OW36718   0.531   1.899   4.939 -0.1174 -0.0145 -0.5985
 8419SOL    HW136719   0.616   1.901   4.895  0.0873  0.6196 -0.1858
 8419SOL    HW236720   0.474   1.963   4.898 -1.2601  0.1400  1.2068
 8420SOL     OW36721   3.046   2.799   4.389  0.3393 -0.3637  0.4565
 8420SOL    HW136722   3.085   2.852   4.458 -2.4264  1.8519  0.3241
 8420SOL    HW236723   3.035   2.711   4.426 -0.6008 -0.6519 -0.4950
 8421SOL     OW36724   1.930   3.545  10.650  0.2237  0.1391 -0.1144
 8421SOL    HW136725   1.955   3.633  10.677 -0.2949  1.0494 -2.5839
 8421SOL    HW236726   2.012   3.498  10.638  0.2251  0.3672 -1.0328
 8422SOL     OW36727   1.891   0.423   2.195  0.2632 -0.1562 -0.6192
 8422SOL    HW136728   1.808   0.389   2.161  0.9407 -0.5387 -1.9033
 8422SOL    HW236729   1.867   0.472   2.274 -0.9817  1.1736 -1.8066
 8423SOL     OW36730   3.030   1.120   5.269  0.3257  0.7286  0.4047
 8423SOL    HW136731   2.965   1.074   5.217 -0.1395  1.5107  0.2986
 8423SOL    HW236732   3.035   1.052   5.336 -0.6741 -0.7551 -1.0449
 8424SOL     OW36733   1.816   1.611  12.333 -0.9028 -0.2143 -0.1409
 8424SOL    HW136734   1.820   1.520  12.364 -1.1615  0.0016  0.5302
 8424SOL    HW236735   1.800   1.595  12.240 -0.7657  2.5328 -0.6305
 8425SOL     OW36736   4.360   1.083   0.629  0.5376  0.0566 -0.2555
 8425SOL    HW136737   4.315   1.002   0.652  2.3606 -0.2148  2.3773
 8425SOL    HW236738   4.306   1.143   0.680  0.9456 -0.8044  1.1882
 8426SOL     OW36739   3.652   4.449   9.468  0.1331  0.6368 -0.0735
 8426SOL    HW136740   3.571   4.405   9.495 -0.9773  0.7054 -3.3542
 8426SOL    HW236741   3.624   4.541   9.476 -1.0231  0.3650 -1.0233
 8427SOL     OW36742   1.960   2.770   7.390  0.1935  0.4740 -0.5173
 8427SOL    HW136743   1.924   2.854   7.417 -0.2575 -0.2261  1.1090
 8427SOL    HW236744   2.046   2.801   7.361  0.0174  0.9580 -0.5115
 8428SOL     OW36745   2.711   2.062   8.378  0.3852  0.2155  0.0380
 8428SOL    HW136746   2.687   2.061   8.286 -1.1946 -2.1087  0.4708
 8428SOL    HW236747   2.669   2.141   8.411 -0.4003 -0.9574  1.9090
 8429SOL     OW36748   1.153   1.297   3.806 -0.5384  0.0027  0.5421
 8429SOL    HW136749   1.135   1.225   3.746  2.9351  0.4610 -1.0533
 8429SOL    HW236750   1.180   1.361   3.739 -1.4450  0.0103  0.1839
 8430SOL     OW36751   4.659   1.554   0.378 -0.0454  0.1779  0.0866
 8430SOL    HW136752   0.019   1.536   0.423 -1.0768  0.5920  2.1128
 8430SOL    HW236753   4.611   1.609   0.439  0.2759 -0.0987  0.5837
 8431SOL     OW36754   0.110   0.864   8.114  0.0394  0.2173  0.5677
 8431SOL    HW136755   0.054   0.898   8.045 -1.3124  0.1642  1.6296
 8431SOL    HW236756   0.093   0.936   8.175 -0.7550  0.1924  0.3683
 8432SOL     OW36757   2.972   4.038  10.248 -0.1661  0.4436  0.3000
 8432SOL    HW136758   2.973   4.032  10.343 -1.0096 -0.5793  0.2467
 8432SOL    HW236759   2.968   3.944  10.231 -1.6958  0.3373  1.2324
 8433SOL     OW36760   4.110   0.808   6.970 -0.2162 -0.1252 -0.0502
 8433SOL    HW136761   4.143   0.895   6.990  2.0159 -1.3309  1.4934
 8433SOL    HW236762   4.017   0.831   6.968  0.0605  0.9340 -0.7744
 8434SOL     OW36763   4.388   0.935  11.612 -0.1714 -0.1074  0.0995
 8434SOL    HW136764   4.331   0.963  11.683 -0.6532 -0.0379 -0.3175
 8434SOL    HW236765   4.475   0.938  11.652 -1.1011 -0.9978  2.1878
 8435SOL     OW36766   4.440   0.334   8.254 -0.8498 -0.2393 -0.1665
 8435SOL    HW136767   4.435   0.244   8.286 -2.0720 -0.4007 -0.7923
 8435SOL    HW236768   4.390   0.380   8.321 -0.9174  0.2270 -0.5372
 8436SOL     OW36769   0.258   0.433   8.588  0.7398 -1.0248 -0.4248
 8436SOL    HW136770   0.322   0.412   8.655 -0.1045  0.0281  0.7138
 8436SOL    HW236771   0.299   0.513   8.553 -2.2298 -0.7432 -3.2637
 8437SOL     OW36772   2.824   3.525   4.526 -0.4735  0.0811 -0.7335
 8437SOL    HW136773   2.884   3.544   4.454 -0.2270 -0.8750 -0.7901
 8437SOL    HW236774   2.838   3.604   4.578 -0.3728 -0.4873  0.0982
 8438SOL     OW36775   3.193   2.658   8.912  0.5101 -0.1042 -0.5191
 8438SOL    HW136776   3.187   2.608   8.994  2.2260  0.0868 -0.2745
 8438SOL    HW236777   3.100   2.667   8.893  0.3132 -1.2425 -0.0712
 8439SOL     OW36778   1.813   0.384   7.481 -0.1753 -0.3595  0.0120
 8439SOL    HW136779   1.750   0.427   7.424 -1.5755  0.3555  2.0812
 8439SOL    HW236780   1.768   0.371   7.565 -0.1276 -0.3613  0.0379
 8440SOL     OW36781   3.645   2.274   0.215  0.0974 -0.4727  0.4651
 8440SOL    HW136782   3.638   2.211   0.143  0.6520  0.3471 -0.3072
 8440SOL    HW236783   3.719   2.329   0.191 -0.3904  0.7147  1.6497
 8441SOL     OW36784   1.321   4.304  10.852 -0.1204 -0.0196  0.3550
 8441SOL    HW136785   1.375   4.321  10.775 -1.5951  3.5896  0.1025
 8441SOL    HW236786   1.232   4.330  10.828 -0.7483  0.1368  2.8472
 8442SOL     OW36787   4.453   3.119   6.325  0.1905 -0.0705  0.2712
 8442SOL    HW136788   4.363   3.127   6.293 -1.0499 -3.9297  2.8426
 8442SOL    HW236789   4.455   3.201   6.375 -2.0075  1.0882 -1.5593
 8443SOL     OW36790   1.435   0.517   0.607  0.1033  0.4516  0.1123
 8443SOL    HW136791   1.446   0.558   0.693  1.5952 -2.3951  1.2787
 8443SOL    HW236792   1.351   0.544   0.570  0.4188 -0.8581 -1.5457
 8444SOL     OW36793   4.201   1.942  17.251 -0.5181 -0.0661  0.3976
 8444SOL    HW136794   4.259   1.872  17.280  0.6682  1.1246  0.8691
 8444SOL    HW236795   4.256   2.016  17.228 -1.1478  1.0183  2.3414
 8445SOL     OW36796   1.561   3.176  16.724 -0.1639 -0.8526  0.1167
 8445SOL    HW136797   1.543   3.207  16.812 -1.3610  0.2914 -0.5270
 8445SOL    HW236798   1.562   3.080  16.723  1.4680 -0.8354 -0.7255
 8446SOL     OW36799   1.725   2.884  14.062 -0.2889 -0.1847 -0.2416
 8446SOL    HW136800   1.635   2.878  14.030 -0.7781  0.3917  1.0305
 8446SOL    HW236801   1.759   2.956  14.008 -0.0505  1.0850  1.6173
 8447SOL     OW36802   3.177   4.659  13.833  0.0281 -0.2290  0.2067
 8447SOL    HW136803   3.110   4.644  13.899 -2.4146  1.6172 -1.8782
 8447SOL    HW236804   3.260   4.671  13.881 -0.3409 -1.6401  1.2061
 8448SOL     OW36805   1.897   2.017   6.127  0.0765 -0.3733  0.5620
 8448SOL    HW136806   1.978   2.024   6.177  0.1364 -0.4539  0.4777
 8448SOL    HW236807   1.902   1.925   6.102  1.6306  0.1591 -1.0468
 8449SOL     OW36808   3.443   0.022  16.166  0.0067 -0.1974  0.0841
 8449SOL    HW136809   3.495   0.089  16.121  3.4738 -1.4693  2.1596
 8449SOL    HW236810   3.504   4.671  16.165  0.7071  0.3830 -0.0535
 8450SOL     OW36811   1.387   4.238   7.758  0.4085 -0.2997  0.2837
 8450SOL    HW136812   1.360   4.282   7.839  1.9190 -0.6311  0.9622
 8450SOL    HW236813   1.472   4.280   7.741  0.3835 -0.1383  0.5512
 8451SOL     OW36814   1.374   3.422   9.129  0.0271 -0.3814  0.0310
 8451SOL    HW136815   1.356   3.330   9.109 -1.2886 -0.4851  1.6593
 8451SOL    HW236816   1.331   3.461   9.053  1.9933 -1.0300 -1.4029
 8452SOL     OW36817   2.612   2.907  13.025  0.5369 -0.7219 -0.0897
 8452SOL    HW136818   2.616   2.875  12.935 -1.0315 -3.0388  0.6541
 8452SOL    HW236819   2.651   2.994  13.022 -1.3486  0.0555 -1.7040
 8453SOL     OW36820   4.402   3.028  10.386 -0.3176  0.0710  0.0731
 8453SOL    HW136821   4.442   3.027  10.473 -1.2498 -0.6276  0.4990
 8453SOL    HW236822   4.471   3.067  10.333 -0.7443 -0.5965 -0.9945
 8454SOL     OW36823   3.251   0.147   0.945 -0.6502 -0.0114 -0.2368
 8454SOL    HW136824   3.230   0.065   0.990  0.8662 -1.2204 -1.7380
 8454SOL    HW236825   3.227   0.125   0.856 -0.1077  2.0715 -0.9026
 8455SOL     OW36826   1.030   0.403   3.763  0.1514 -0.4386  0.3877
 8455SOL    HW136827   0.984   0.365   3.837  1.3012 -0.7751  0.9223
 8455SOL    HW236828   1.088   0.331   3.736 -1.2046 -2.1993  2.1560
 8456SOL     OW36829   3.005   3.309  10.513  0.1196 -0.4521 -0.4335
 8456SOL    HW136830   2.991   3.402  10.529 -0.7051 -0.7054  0.3423
 8456SOL    HW236831   3.082   3.309  10.456  0.9643  1.9929  0.6895
 8457SOL     OW36832   4.254   3.694   7.106 -0.5025  0.5943  0.4320
 8457SOL    HW136833   4.212   3.778   7.124 -3.6011 -1.1797  1.4967
 8457SOL    HW236834   4.348   3.711   7.097 -0.5439  1.4127  1.6172
 8458SOL     OW36835   4.131   2.922  14.900  0.6695  0.0479 -0.5040
 8458SOL    HW136836   4.039   2.943  14.918  0.1975 -1.3174 -1.2837
 8458SOL    HW236837   4.183   3.002  14.898 -0.9163  1.1597  3.4745
 8459SOL     OW36838   1.350   2.987  15.498  0.3577  0.2018  0.1121
 8459SOL    HW136839   1.356   3.080  15.518  3.2497  0.3195 -1.2197
 8459SOL    HW236840   1.336   2.949  15.585  1.1391  0.7062  0.4619
 8460SOL     OW36841   3.488   4.181   3.581 -0.1792 -0.4261  0.2870
 8460SOL    HW136842   3.532   4.225   3.654  3.3394 -0.7003 -1.6595
 8460SOL    HW236843   3.404   4.157   3.618 -1.0697 -0.5710 -1.8101
 8461SOL     OW36844   1.796   4.176   5.151  0.3389  0.2523 -0.0442
 8461SOL    HW136845   1.738   4.106   5.121 -0.8312  0.6694  1.2099
 8461SOL    HW236846   1.845   4.180   5.069 -0.2718 -2.2488 -0.5282
 8462SOL     OW36847   3.966   1.888   6.628 -0.2040 -0.2767  0.1144
 8462SOL    HW136848   4.001   1.843   6.705  0.8643 -0.1840 -0.3224
 8462SOL    HW236849   3.874   1.889   6.655 -0.9085 -0.2294 -2.3005
 8463SOL     OW36850   2.641   1.249   2.860 -0.0146 -0.6922  0.0616
 8463SOL    HW136851   2.558   1.238   2.907 -0.9059  1.3622 -1.0520
 8463SOL    HW236852   2.609   1.243   2.770  0.7358  0.4424 -0.2750
 8464SOL     OW36853   2.834   3.500   2.213 -0.1370  0.3053  0.0244
 8464SOL    HW136854   2.758   3.444   2.201  0.4746 -0.8995  1.8534
 8464SOL    HW236855   2.837   3.510   2.308  2.7211  1.2725 -0.1512
 8465SOL     OW36856   0.466   1.763   6.052 -0.3148  0.1448  0.1519
 8465SOL    HW136857   0.387   1.710   6.054 -0.2757  0.1376  1.7349
 8465SOL    HW236858   0.481   1.757   5.958 -2.0512 -1.2713 -0.0338
 8466SOL     OW36859   3.475   1.450   2.409 -0.6118 -0.1752 -0.0199
 8466SOL    HW136860   3.416   1.390   2.364 -1.3599 -0.1196  0.8827
 8466SOL    HW236861   3.520   1.480   2.330 -2.0864  0.2648 -0.6826
 8467SOL     OW36862   3.283   3.698   2.852 -0.6770  0.4171  0.1490
 8467SOL    HW136863   3.247   3.751   2.781  0.6987  0.4761 -0.5250
 8467SOL    HW236864   3.373   3.684   2.821 -1.5800 -1.7107 -1.4963
 8468SOL     OW36865   0.390   1.572   1.002  0.2035  0.1932  0.3564
 8468SOL    HW136866   0.409   1.598   0.912 -0.2348  0.4382  0.3373
 8468SOL    HW236867   0.419   1.481   0.988 -0.4619  0.2682 -1.5144
 8469SOL     OW36868   1.178   1.096   3.614  0.2299  0.2546  0.5492
 8469SOL    HW136869   1.103   1.062   3.566  0.8189  0.5885 -0.6099
 8469SOL    HW236870   1.248   1.102   3.549 -0.4712 -0.0110 -0.2199
 8470SOL     OW36871   1.713   1.328  12.393 -0.2392 -0.0329 -0.4454
 8470SOL    HW136872   1.665   1.375  12.461  1.2808 -1.2710  1.4582
 8470SOL    HW236873   1.757   1.259  12.442  1.0507 -0.1196 -1.7329
 8471SOL     OW36874   3.496   1.805   7.244  0.0044 -0.8643  0.2303
 8471SOL    HW136875   3.513   1.715   7.272  0.4799 -1.4889 -2.0711
 8471SOL    HW236876   3.450   1.849   7.315  1.1435  0.0661  0.3908
 8472SOL     OW36877   3.396   3.580   7.154 -0.0992 -0.4818  0.1324
 8472SOL    HW136878   3.463   3.604   7.091 -2.0463  0.0027 -1.7780
 8472SOL    HW236879   3.327   3.550   7.094 -0.7077 -2.7539  1.9851
 8473SOL     OW36880   2.625   0.345   4.540  0.4871  0.1167  0.1305
 8473SOL    HW136881   2.643   0.301   4.456 -1.7093 -0.4286 -0.0543
 8473SOL    HW236882   2.697   0.408   4.547  1.6586 -1.1963 -0.0196
 8474SOL     OW36883   4.620   1.590   6.356  0.7395 -0.4874  0.1182
 8474SOL    HW136884   4.555   1.546   6.301 -0.0501 -0.2512  0.8742
 8474SOL    HW236885   4.570   1.602   6.436 -1.6646  0.0425 -1.4517
 8475SOL     OW36886   1.994   0.481  13.206  0.0164 -0.1614 -0.9857
 8475SOL    HW136887   1.929   0.444  13.266  2.7193 -1.7454  1.0069
 8475SOL    HW236888   2.036   0.403  13.171  2.6942  0.9180 -0.1630
 8476SOL     OW36889   0.919   0.454   3.200 -0.6779 -0.2024 -0.0202
 8476SOL    HW136890   0.999   0.417   3.163 -0.9903 -1.0229  0.1249
 8476SOL    HW236891   0.923   0.426   3.292 -1.1240  0.5799  0.2349
 8477SOL     OW36892   2.947   1.766   0.784  0.4721  0.1043  0.0773
 8477SOL    HW136893   2.898   1.837   0.743  1.1532 -0.5246 -1.8205
 8477SOL    HW236894   2.883   1.697   0.797  1.6720 -1.1681 -0.8044
 8478SOL     OW36895   2.308   2.705   5.342 -0.4421  1.0051  0.0179
 8478SOL    HW136896   2.226   2.744   5.312 -0.5779 -0.9930 -2.1096
 8478SOL    HW236897   2.374   2.770   5.317 -0.1639  0.4104 -0.7486
 8479SOL     OW36898   0.128   0.652   6.548 -0.4306 -0.1571  0.2594
 8479SOL    HW136899   0.121   0.612   6.462 -0.1279  1.4934 -0.5319
 8479SOL    HW236900   0.125   0.570   6.599 -0.4684 -0.5151 -0.3235
 8480SOL     OW36901   3.730   0.616  11.879 -0.4126 -0.0807  0.3157
 8480SOL    HW136902   3.789   0.658  11.942  0.2238  0.3782 -0.5871
 8480SOL    HW236903   3.679   0.686  11.838 -0.2769  0.0568  0.3826
 8481SOL     OW36904   1.623   0.192   4.201  0.0318  0.5604 -0.1789
 8481SOL    HW136905   1.654   0.283   4.203 -0.5047  0.7294  0.3288
 8481SOL    HW236906   1.557   0.187   4.132 -0.0266  0.7600 -0.1359
 8482SOL     OW36907   3.959   3.679  15.422  0.2303  1.0818 -0.4403
 8482SOL    HW136908   3.934   3.627  15.346  0.7397  0.0122  0.1322
 8482SOL    HW236909   3.875   3.721  15.440 -1.1507 -1.4871 -0.9847
 8483SOL     OW36910   0.205   0.782   0.739  0.5017 -0.0974  0.0276
 8483SOL    HW136911   0.123   0.816   0.704  0.9081  0.2379 -0.6018
 8483SOL    HW236912   0.164   0.765   0.824 -0.0647  0.2735 -0.1776
 8484SOL     OW36913   3.716   2.857   9.158  0.0113 -0.7923 -0.0014
 8484SOL    HW136914   3.812   2.850   9.161  0.2501  2.5615 -0.2186
 8484SOL    HW236915   3.694   2.928   9.097 -0.1381 -0.4086  0.5050
 8485SOL     OW36916   3.943   1.780   5.933 -0.3930 -0.4352  0.2746
 8485SOL    HW136917   3.921   1.729   6.011 -0.7250 -0.3824  0.2167
 8485SOL    HW236918   3.919   1.870   5.958 -1.2325  0.1766 -2.7514
 8486SOL     OW36919   4.503   0.222   0.365  0.3081 -0.1475 -0.2936
 8486SOL    HW136920   4.468   0.308   0.344 -0.2547 -0.7158 -1.6725
 8486SOL    HW236921   4.522   0.192   0.276 -0.8918  1.6032 -1.1350
 8487SOL     OW36922   1.363   2.231   5.505 -0.0536 -0.1263 -0.0893
 8487SOL    HW136923   1.354   2.179   5.426  0.2852  0.6650 -0.6442
 8487SOL    HW236924   1.325   2.315   5.479  1.6696  1.3844  2.1828
 8488SOL     OW36925   4.628   1.420   5.911  0.0772 -0.2830  0.2524
 8488SOL    HW136926   4.640   1.405   5.817 -1.1347 -2.6014  0.4601
 8488SOL    HW236927   4.636   1.515   5.902 -1.1512 -0.3079 -1.0735
 8489SOL     OW36928   0.697   3.764   5.383 -0.1125 -0.3338 -0.0599
 8489SOL    HW136929   0.720   3.691   5.326  0.6088 -0.8816  0.9349
 8489SOL    HW236930   0.609   3.736   5.410  0.2059 -0.8944  0.4078
 8490SOL     OW36931   0.257   1.070  12.235 -0.2045 -0.1613  0.0512
 8490SOL    HW136932   0.210   1.134  12.183 -0.6402 -0.6759 -0.1914
 8490SOL    HW236933   0.216   1.088  12.320 -0.9616 -0.1400 -0.3230
 8491SOL     OW36934   1.384   1.409   8.180  0.3567  0.0123 -0.4031
 8491SOL    HW136935   1.421   1.416   8.269 -1.0017  0.8388  0.1007
 8491SOL    HW236936   1.302   1.362   8.196  1.4368 -1.8683 -0.4034
 8492SOL     OW36937   0.638   3.560  16.667 -0.1006 -0.1486 -0.2967
 8492SOL    HW136938   0.591   3.639  16.638 -0.5081 -1.1612 -2.3594
 8492SOL    HW236939   0.601   3.547  16.755 -1.2164 -0.2805 -0.7759
 8493SOL     OW36940   1.513   3.232   4.906 -0.0963  0.1135  0.2822
 8493SOL    HW136941   1.598   3.206   4.941 -0.5456  0.3024  1.5167
 8493SOL    HW236942   1.533   3.303   4.845  1.4055 -2.1422 -1.8505
 8494SOL     OW36943   2.944   2.082  13.058  0.0036  0.0614 -0.2564
 8494SOL    HW136944   3.013   2.084  12.991 -1.0728 -1.5157 -1.3879
 8494SOL    HW236945   2.987   2.099  13.142  1.0933 -0.0976 -0.7838
 8495SOL     OW36946   4.137   4.565   5.248  0.4483 -0.2986 -0.1425
 8495SOL    HW136947   4.113   4.652   5.216  0.5839 -0.1610  0.1214
 8495SOL    HW236948   4.057   4.515   5.232 -0.1776  0.2786  1.1358
 8496SOL     OW36949   1.540   4.469   3.458  0.2464 -0.1033  0.1704
 8496SOL    HW136950   1.537   4.395   3.519 -1.8340  0.3326  0.6035
 8496SOL    HW236951   1.591   4.528   3.514  1.7208 -2.3488  1.1846
 8497SOL     OW36952   2.543   1.074  13.868  0.2616 -0.4682  0.0698
 8497SOL    HW136953   2.595   1.112  13.798  1.0312  2.0669  1.9943
 8497SOL    HW236954   2.465   1.049  13.818 -0.8806  1.3945  0.9270
 8498SOL     OW36955   3.425   3.639   0.368 -0.3898 -0.2819 -0.0062
 8498SOL    HW136956   3.477   3.599   0.298  0.4102  1.4593 -0.4008
 8498SOL    HW236957   3.425   3.733   0.351  0.8062 -0.5515 -1.5064
 8499SOL     OW36958   1.253   2.546   6.015 -0.2811  0.3289 -0.0849
 8499SOL    HW136959   1.282   2.574   5.929 -1.5838  0.1883 -0.5694
 8499SOL    HW236960   1.305   2.596   6.077 -2.3978  3.8857 -1.2176
 8500SOL     OW36961   1.212   3.375  14.657  0.0732  0.3016 -0.1932
 8500SOL    HW136962   1.297   3.345  14.689 -0.4953 -1.6030 -0.5027
 8500SOL    HW236963   1.160   3.320  14.716 -1.3854  0.0239 -1.7458
 8501SOL     OW36964   0.212   0.063   7.675  0.0799 -0.0291  0.4913
 8501SOL    HW136965   0.221   0.155   7.651 -1.6480 -0.0412 -0.1990
 8501SOL    HW236966   0.256   0.067   7.760  1.4050 -1.6535 -0.1283
 8502SOL     OW36967   3.941   3.937   6.362 -0.0109 -0.1020  0.0862
 8502SOL    HW136968   3.985   4.014   6.326 -3.5963  1.0515 -1.7861
 8502SOL    HW236969   4.006   3.878   6.401  0.1864 -0.3070 -0.5612
 8503SOL     OW36970   0.350   0.679   0.340 -0.1319 -0.1473 -0.2820
 8503SOL    HW136971   0.442   0.685   0.317  0.4866  0.4466  2.3438
 8503SOL    HW236972   0.321   0.745   0.277 -0.5676  1.5025  1.6181
 8504SOL     OW36973   4.046   1.732   4.436 -0.2704  1.0890 -0.4158
 8504SOL    HW136974   3.954   1.712   4.455 -0.5991  0.7729 -2.3534
 8504SOL    HW236975   4.064   1.808   4.492  0.2843 -0.1915  1.1441
 8505SOL     OW36976   4.132   3.975   1.391 -0.6452 -0.3246 -0.0833
 8505SOL    HW136977   4.085   3.897   1.362 -1.7609  0.5667 -0.6540
 8505SOL    HW236978   4.218   3.957   1.353  0.4147  1.3435  1.5368
 8506SOL     OW36979   0.216   2.114   9.497  0.5462 -0.2926 -0.3070
 8506SOL    HW136980   0.205   2.083   9.587  0.8058 -1.5414 -0.7013
 8506SOL    HW236981   0.136   2.166   9.489  0.5703 -0.0342  1.2280
 8507SOL     OW36982   1.424   2.270   7.702 -0.2105 -0.4826  0.3562
 8507SOL    HW136983   1.392   2.200   7.645 -0.8374  0.2961 -0.2228
 8507SOL    HW236984   1.429   2.346   7.645 -0.0807 -0.9728 -0.2874
 8508SOL     OW36985   1.272   2.540  15.502 -0.3683 -0.4047  1.0048
 8508SOL    HW136986   1.354   2.580  15.531 -0.8648  0.0297  1.7994
 8508SOL    HW236987   1.292   2.465  15.557  2.8849  2.4111  3.6234
 8509SOL     OW36988   0.943   4.327   7.546  0.2350 -0.3759 -0.5986
 8509SOL    HW136989   1.012   4.274   7.585  0.3287 -0.9066 -1.4859
 8509SOL    HW236990   0.953   4.402   7.605 -2.4387 -1.4278  1.1584
 8510SOL     OW36991   1.544   1.196   9.005 -0.0284 -0.9236  0.3074
 8510SOL    HW136992   1.507   1.189   9.093  0.1966  2.4348  0.6556
 8510SOL    HW236993   1.488   1.130   8.965 -0.5420 -1.1553  1.4019
 8511SOL     OW36994   2.207   0.094   1.287  0.2348  0.1066 -0.0572
 8511SOL    HW136995   2.208   4.722   1.299 -0.2086  0.6612  4.1455
 8511SOL    HW236996   2.189   0.127   1.375 -1.0793  0.9753 -0.6485
 8512SOL     OW36997   2.595   1.935  15.390 -0.4514 -0.3847  0.2492
 8512SOL    HW136998   2.513   1.973  15.422 -0.5969 -1.7020  1.4284
 8512SOL    HW236999   2.571   1.888  15.309  1.5572 -0.5268 -0.2496
 8513SOL     OW37000   0.985   2.247   6.490 -0.4614 -0.2521  0.6191
 8513SOL    HW137001   1.013   2.176   6.548 -0.9512 -1.2415 -0.3738
 8513SOL    HW237002   1.061   2.305   6.496  0.5331 -1.4847 -0.1036
 8514SOL     OW37003   4.390   2.990   5.044 -0.0735  0.1496  0.4004
 8514SOL    HW137004   4.295   2.990   5.037  0.1220 -1.6487 -2.5586
 8514SOL    HW237005   4.408   3.070   5.093  0.4082  0.9007 -0.9808
 8515SOL     OW37006   2.255   0.166   4.676  0.4675  0.0395  0.4072
 8515SOL    HW137007   2.330   0.210   4.716  0.8260  0.6731 -1.0027
 8515SOL    HW237008   2.250   0.088   4.731  3.7478  0.0640  0.7463
 8516SOL     OW37009   1.570   1.697  16.883  0.3182 -0.0469  0.2278
 8516SOL    HW137010   1.496   1.706  16.823  0.3072 -0.5182  0.1709
 8516SOL    HW237011   1.591   1.790  16.890  2.7489 -0.5235 -0.6665
 8517SOL     OW37012   1.291   0.946   5.890 -0.1209 -0.0102  0.4219
 8517SOL    HW137013   1.206   0.970   5.855  0.7881  0.1592 -1.6962
 8517SOL    HW237014   1.271   0.898   5.970  1.1851 -0.4892  0.4715
 8518SOL     OW37015   3.505   1.239   6.084 -0.7832  0.0725 -0.4700
 8518SOL    HW137016   3.591   1.199   6.070  0.2634  1.7440  1.1901
 8518SOL    HW237017   3.458   1.156   6.088  0.1582 -0.3328  1.9716
 8519SOL     OW37018   1.648   0.991  11.919  0.0257 -0.5762  0.5619
 8519SOL    HW137019   1.617   0.974  11.831 -2.9980 -0.7637  1.6543
 8519SOL    HW237020   1.621   1.083  11.926  1.2374 -0.1030 -1.0101
 8520SOL     OW37021   2.260   0.628  16.054 -0.5530  0.3056 -0.6384
 8520SOL    HW137022   2.247   0.684  16.130  1.2804 -1.0650  0.7031
 8520SOL    HW237023   2.292   0.691  15.990 -0.2113  0.7225 -0.0540
 8521SOL     OW37024   0.845   1.084   8.499  0.0851  0.0032  0.0919
 8521SOL    HW137025   0.941   1.085   8.505  0.1895 -1.3593 -1.4377
 8521SOL    HW237026   0.823   1.026   8.572  1.6164 -0.3007  0.3292
 8522SOL     OW37027   3.045   0.217   6.364  0.2957  0.0812 -0.1105
 8522SOL    HW137028   3.020   0.163   6.440  1.3878  1.4853  1.2320
 8522SOL    HW237029   2.984   0.284   6.395 -0.4016 -1.5016  1.9286
 8523SOL     OW37030   1.527   4.437   8.762 -0.7750  0.9681  0.4700
 8523SOL    HW137031   1.488   4.444   8.849 -2.9348 -0.4638 -0.4018
 8523SOL    HW237032   1.510   4.529   8.742  2.1560  1.2074 -0.8801
 8524SOL     OW37033   1.892   3.275   5.198 -0.3677  0.2861  0.0336
 8524SOL    HW137034   1.915   3.338   5.267 -0.4104  0.3173  0.0192
 8524SOL    HW237035   1.833   3.330   5.146 -1.3530 -2.2712 -1.5647
 8525SOL     OW37036   1.395   0.443   4.755  0.0067  0.1024 -0.0370
 8525SOL    HW137037   1.437   0.364   4.723 -0.2516 -0.0680  0.0485
 8525SOL    HW237038   1.352   0.488   4.682  1.9640  3.1174  0.6605
 8526SOL     OW37039   2.975   3.913   6.112  0.0953 -0.2749  0.9046
 8526SOL    HW137040   2.890   3.870   6.124  0.9317 -2.1959 -0.0379
 8526SOL    HW237041   2.938   3.993   6.075  1.1812  0.3165  1.1238
 8527SOL     OW37042   0.802   3.552  13.333  0.1476  0.0598  0.4214
 8527SOL    HW137043   0.832   3.480  13.390  2.2742  1.1232  0.6439
 8527SOL    HW237044   0.815   3.512  13.247 -1.0103 -1.2226  0.8355
 8528SOL     OW37045   1.358   1.871   3.564  0.3457 -0.3212 -0.0623
 8528SOL    HW137046   1.309   1.829   3.494  2.5090 -1.6836 -0.7466
 8528SOL    HW237047   1.304   1.843   3.638 -1.3548  0.7331 -0.9131
 8529SOL     OW37048   3.061   2.083   7.076 -0.2841  0.8867  0.0103
 8529SOL    HW137049   3.061   2.123   7.163 -1.9403  0.0562  0.3930
 8529SOL    HW237050   3.029   2.157   7.025  0.1498  0.0151 -1.5300
 8530SOL     OW37051   0.373   4.503   3.500  0.2481  0.0884  0.2372
 8530SOL    HW137052   0.292   4.553   3.491  0.1685 -0.7562 -3.9769
 8530SOL    HW237053   0.333   4.416   3.503 -1.8219  1.0265 -0.6435
 8531SOL     OW37054   0.271   1.804  10.744 -0.1042 -0.4077  0.1242
 8531SOL    HW137055   0.305   1.833  10.660  0.9522  0.2874  0.7903
 8531SOL    HW237056   0.298   1.714  10.732 -1.2514 -0.6053 -1.0387
 8532SOL     OW37057   3.088   0.130   0.359 -0.2526 -0.4070 -0.1105
 8532SOL    HW137058   3.168   0.117   0.409  1.1455 -1.0449 -2.4881
 8532SOL    HW237059   3.054   0.215   0.389  1.4166  0.5447 -0.8839
 8533SOL     OW37060   0.540   3.964   8.349  0.5307  0.3399 -0.1644
 8533SOL    HW137061   0.451   3.947   8.318  1.1742  1.5749 -2.6866
 8533SOL    HW237062   0.593   3.902   8.297 -2.0116 -0.5699 -1.6557
 8534SOL     OW37063   1.548   1.857  15.762  0.5519  0.4256  0.8616
 8534SOL    HW137064   1.501   1.920  15.816 -0.1218  1.6241 -1.1130
 8534SOL    HW237065   1.635   1.862  15.802  1.1880  0.8540 -0.5585
 8535SOL     OW37066   4.469   2.130   6.555  0.2777  0.0658 -0.6778
 8535SOL    HW137067   4.422   2.210   6.530 -1.6543 -0.6312  0.6579
 8535SOL    HW237068   4.539   2.166   6.609  0.4192  1.5583 -1.8703
 8536SOL     OW37069   1.027   2.885   6.782 -0.8475  0.1717 -0.1152
 8536SOL    HW137070   0.961   2.900   6.714 -0.7252  0.8706 -0.0825
 8536SOL    HW237071   1.026   2.790   6.776 -0.7889  0.0201  2.4891
 8537SOL     OW37072   3.295   1.661   8.943  0.2325  0.1908 -0.1504
 8537SOL    HW137073   3.374   1.618   8.976  1.2192 -0.7842 -3.8427
 8537SOL    HW237074   3.227   1.607   8.983 -0.9386  1.0164 -1.0408
 8538SOL     OW37075   1.304   1.223   9.710 -0.2897  0.1795 -0.8917
 8538SOL    HW137076   1.395   1.245   9.730  0.4395 -0.2921 -3.6964
 8538SOL    HW237077   1.282   1.173   9.789 -1.8557  1.3026 -0.6232
 8539SOL     OW37078   0.794   2.844   4.708 -0.2580 -0.7964  0.0876
 8539SOL    HW137079   0.804   2.800   4.624 -2.8533  1.4618 -1.4402
 8539SOL    HW237080   0.710   2.889   4.697 -0.3972 -0.5698  2.0559
 8540SOL     OW37081   1.899   4.533   8.383  0.3402  0.0992  0.4640
 8540SOL    HW137082   1.953   4.536   8.462  0.9608  4.9034 -0.1516
 8540SOL    HW237083   1.827   4.475   8.408 -1.7671  1.4424 -2.5187
 8541SOL     OW37084   1.029   1.837   6.922 -0.2330 -0.0918  0.7578
 8541SOL    HW137085   1.116   1.807   6.948  0.0926  1.2140  1.1580
 8541SOL    HW237086   1.008   1.899   6.992 -1.3997  0.0901  0.2638
 8542SOL     OW37087   0.887   4.587   6.900 -0.0407 -0.0162 -0.1352
 8542SOL    HW137088   0.878   4.603   6.994  0.9586 -0.0633 -0.0397
 8542SOL    HW237089   0.884   4.674   6.861  3.1408  0.5592  0.9213
 8543SOL     OW37090   3.594   3.030  10.140  0.2011 -0.5626  0.0575
 8543SOL    HW137091   3.507   3.042  10.100  0.6906  1.7718 -0.3161
 8543SOL    HW237092   3.602   3.104  10.199  0.8190 -1.3247  0.9322
 8544SOL     OW37093   0.566   1.143   5.758 -0.2906  0.1384 -0.4249
 8544SOL    HW137094   0.565   1.166   5.851  0.0507  2.6562 -1.0201
 8544SOL    HW237095   0.639   1.200   5.732  0.2037  0.4438  1.6345
 8545SOL     OW37096   1.859   3.135   2.413  0.3514 -0.5006  0.0341
 8545SOL    HW137097   1.815   3.071   2.358  2.1029 -1.5293 -0.1798
 8545SOL    HW237098   1.851   3.215   2.361 -3.1851  0.3355  1.8502
 8546SOL     OW37099   1.504   4.709   3.976 -0.1715 -0.4968 -0.7922
 8546SOL    HW137100   1.507   0.012   3.884  1.9116  0.4862 -0.4396
 8546SOL    HW237101   1.506   4.615   3.961  1.9298 -0.6582  0.4695
 8547SOL     OW37102   3.056   0.456  13.174  0.1881 -0.5377 -0.3171
 8547SOL    HW137103   3.067   0.494  13.261 -2.0328 -2.1505  0.6661
 8547SOL    HW237104   3.053   0.361  13.190 -1.4237 -0.6719 -1.5043
 8548SOL     OW37105   2.501   1.620   8.613  0.3263  0.5114 -0.4860
 8548SOL    HW137106   2.483   1.714   8.607  0.5251  0.6715  1.6103
 8548SOL    HW237107   2.408   1.606   8.634  0.7344  1.2701  1.7769
 8549SOL     OW37108   3.087   0.880   2.485  0.1905 -0.4037  0.0556
 8549SOL    HW137109   3.084   0.951   2.421 -0.0758  0.4158  0.9632
 8549SOL    HW237110   3.034   0.813   2.443  0.7847 -0.4364 -0.6252
 8550SOL     OW37111   1.527   1.549  12.703  0.2637 -0.1195  0.1370
 8550SOL    HW137112   1.522   1.455  12.722 -0.3019 -0.3342 -1.0636
 8550SOL    HW237113   1.479   1.562  12.622  1.0606  2.0516  0.0215
 8551SOL     OW37114   1.772   3.399   7.001  0.1703 -0.2480 -0.4329
 8551SOL    HW137115   1.771   3.489   7.034  0.7456 -0.9240  1.4527
 8551SOL    HW237116   1.689   3.411   6.955 -0.0586 -0.6065 -0.1151
 8552SOL     OW37117   3.774   0.910   4.115 -0.1940 -0.0057  0.3773
 8552SOL    HW137118   3.742   0.889   4.028 -0.8409 -2.2258  1.1559
 8552SOL    HW237119   3.695   0.925   4.167 -0.2317  1.1249  0.0022
 8553SOL     OW37120   3.736   4.208  10.244  0.2408  0.3992 -0.0300
 8553SOL    HW137121   3.829   4.184  10.250  0.4389  1.0130 -0.6504
 8553SOL    HW237122   3.706   4.128  10.200  0.9692  0.3026 -0.3579
 8554SOL     OW37123   0.379   0.105   3.133 -0.9503  1.0773  0.5543
 8554SOL    HW137124   0.396   0.199   3.141 -0.3408  0.9020  1.4179
 8554SOL    HW237125   0.326   0.099   3.054 -1.5218  1.8166  0.8884
 8555SOL     OW37126   2.939   2.373  11.897  0.5188  0.0579 -0.0795
 8555SOL    HW137127   2.937   2.468  11.885  1.0569  0.3126  1.9499
 8555SOL    HW237128   2.847   2.349  11.890 -0.1237  1.8346  2.5980
 8556SOL     OW37129   3.138   0.899   3.264  0.4205 -0.1584 -0.6192
 8556SOL    HW137130   3.115   0.856   3.181  0.0957  0.4019 -0.8173
 8556SOL    HW237131   3.234   0.900   3.266  0.4350  2.1246 -2.6197
 8557SOL     OW37132   3.240   2.621   9.454  0.5451 -0.2476  0.0703
 8557SOL    HW137133   3.282   2.582   9.377  1.2486 -1.6413  1.1493
 8557SOL    HW237134   3.259   2.712   9.432 -0.6305  0.0090  0.1063
 8558SOL     OW37135   3.636   3.665  11.399  0.5356 -0.2280 -0.2636
 8558SOL    HW137136   3.729   3.667  11.421 -0.1451 -0.3073  2.6911
 8558SOL    HW237137   3.633   3.591  11.338  1.3437 -0.9145  0.5181
 8559SOL     OW37138   1.430   3.497  16.865 -0.9828 -0.0661  0.0144
 8559SOL    HW137139   1.355   3.552  16.888 -0.5335  0.5744 -0.0550
 8559SOL    HW237140   1.410   3.419  16.917 -1.2895 -0.3723 -0.5739
 8560SOL     OW37141   0.892   2.728   8.284 -0.3011  0.3613 -0.0616
 8560SOL    HW137142   0.859   2.657   8.338 -0.3005  0.3950 -0.0175
 8560SOL    HW237143   0.985   2.721   8.306  0.2966  3.4980 -1.6202
 8561SOL     OW37144   3.473   4.379   8.544 -0.0841 -0.6157 -0.2438
 8561SOL    HW137145   3.416   4.442   8.501  0.4411 -1.0339 -1.5745
 8561SOL    HW237146   3.413   4.303   8.543 -0.3017 -0.4420 -0.3745
 8562SOL     OW37147   0.141   0.034   5.446 -0.1250 -0.0195 -0.0954
 8562SOL    HW137148   0.106   0.121   5.466  1.7364  0.8627 -0.6369
 8562SOL    HW237149   0.211   0.049   5.383  1.1690 -0.2399  1.2770
 8563SOL     OW37150   0.199   3.181   1.840  0.2767  0.0858 -0.0705
 8563SOL    HW137151   0.106   3.162   1.853  1.2115 -3.5598  1.4462
 8563SOL    HW237152   0.185   3.262   1.791  1.9679  0.7285  0.5186
 8564SOL     OW37153   2.021   3.780   8.221  0.3314 -0.5550  0.1287
 8564SOL    HW137154   2.059   3.729   8.149  1.0415  1.1206 -0.6639
 8564SOL    HW237155   1.954   3.718   8.250 -0.5890 -1.1309 -3.1862
 8565SOL     OW37156   1.532   3.692  13.873 -0.4416  0.0757 -0.2292
 8565SOL    HW137157   1.445   3.724  13.847 -0.6982 -0.3867  0.0728
 8565SOL    HW237158   1.591   3.742  13.817  1.4791  0.4718  2.1302
 8566SOL     OW37159   0.641   4.237   3.593 -0.0971  0.0558  0.1566
 8566SOL    HW137160   0.568   4.204   3.540 -0.8854 -0.9706  1.8921
 8566SOL    HW237161   0.601   4.301   3.652 -0.0096  1.2620 -1.0694
 8567SOL     OW37162   0.600   4.436  13.140  0.4089  0.5871  0.0732
 8567SOL    HW137163   0.577   4.402  13.053 -0.0070  0.9335  0.0463
 8567SOL    HW237164   0.647   4.363  13.179  0.7880  1.1034  0.5695
 8568SOL     OW37165   2.230   0.043  15.327  0.2257  0.1619  0.3351
 8568SOL    HW137166   2.254   0.133  15.346  1.6109 -0.4790  1.6523
 8568SOL    HW237167   2.157   0.055  15.267  1.2299 -2.0230 -1.3123
 8569SOL     OW37168   0.692   4.426   8.527 -0.2828 -0.1084  0.1445
 8569SOL    HW137169   0.652   4.513   8.520 -2.0212 -1.0706 -1.8150
 8569SOL    HW237170   0.621   4.370   8.559  0.5517 -2.3442 -1.9715
 8570SOL     OW37171   0.589   4.422   9.096 -0.2334 -0.4549 -0.2080
 8570SOL    HW137172   0.672   4.390   9.132 -0.5020  0.1351  0.9166
 8570SOL    HW237173   0.568   4.342   9.047 -1.6469 -1.9437  2.8267
 8571SOL     OW37174   1.899   3.581   4.976  0.0389 -0.7443  0.3320
 8571SOL    HW137175   1.956   3.649   5.012 -0.0306  0.4263 -1.7888
 8571SOL    HW237176   1.918   3.603   4.885 -0.5421  1.9950  0.8899
 8572SOL     OW37177   1.396   0.784   8.565  0.3289  0.1232  0.3033
 8572SOL    HW137178   1.409   0.718   8.634 -0.2662  0.3419  0.6246
 8572SOL    HW237179   1.302   0.778   8.550  0.2813  2.2873 -0.2214
 8573SOL     OW37180   0.753   2.179   3.422  0.1391 -0.0880  0.0878
 8573SOL    HW137181   0.665   2.213   3.402 -0.9990 -2.9020  0.2945
 8573SOL    HW237182   0.739   2.091   3.386  0.5768 -0.1368  0.0405
 8574SOL     OW37183   0.699   4.251   7.223  0.2233 -0.3721 -0.3101
 8574SOL    HW137184   0.707   4.160   7.252  2.1047  0.0167  0.3853
 8574SOL    HW237185   0.790   4.271   7.203  0.5865  0.1479  1.8153
 8575SOL     OW37186   3.798   2.072  12.701  0.2798  0.4492  0.3522
 8575SOL    HW137187   3.865   2.051  12.636 -0.5076 -0.0592 -0.2900
 8575SOL    HW237188   3.728   2.022  12.658  1.3830 -2.1995  1.5984
 8576SOL     OW37189   3.607   0.233   9.367 -0.5087 -0.1587 -0.1113
 8576SOL    HW137190   3.674   0.302   9.371  2.2880 -2.8678 -0.1820
 8576SOL    HW237191   3.549   0.281   9.427 -1.9620 -1.4371 -0.5240
 8577SOL     OW37192   1.764   0.268  12.676 -0.4755 -0.2853  0.1495
 8577SOL    HW137193   1.830   0.267  12.745 -1.6534  0.9998  1.2962
 8577SOL    HW237194   1.739   0.360  12.667 -1.5755 -0.6899 -0.9828
 8578SOL     OW37195   0.101   4.270  14.459  0.6863  0.2941 -0.2216
 8578SOL    HW137196   0.183   4.304  14.494 -0.5136 -0.2241  3.0632
 8578SOL    HW237197   0.097   4.188  14.509  1.3465  0.8547  0.7477
 8579SOL     OW37198   0.696   2.931  11.424  0.2118  0.1784 -0.7514
 8579SOL    HW137199   0.687   3.023  11.447  0.4038 -0.2817  1.1448
 8579SOL    HW237200   0.612   2.896  11.453  1.5511 -1.5410  1.0658
 8580SOL     OW37201   1.113   2.415   5.217  0.1997  0.4931  0.5053
 8580SOL    HW137202   1.202   2.399   5.187  0.1177 -2.0887  1.6073
 8580SOL    HW237203   1.061   2.427   5.137  1.2636  0.1890 -0.2363
 8581SOL     OW37204   3.497   0.470   8.003 -0.1842  0.5029 -0.4691
 8581SOL    HW137205   3.510   0.555   8.045  1.8833  0.0807 -0.2719
 8581SOL    HW237206   3.560   0.413   8.046 -1.8758 -2.5266 -2.0344
 8582SOL     OW37207   0.500   3.780   7.401  0.6266  0.1117 -0.1703
 8582SOL    HW137208   0.536   3.837   7.333 -1.3948  1.6290  0.0360
 8582SOL    HW237209   0.409   3.784   7.370  0.2667  1.2066  1.0141
 8583SOL     OW37210   1.989   4.194   1.721  0.3586 -0.0857 -0.1758
 8583SOL    HW137211   1.939   4.166   1.798 -1.4837  3.0956 -0.1984
 8583SOL    HW237212   2.065   4.240   1.758 -1.8850  2.7113  0.9717
 8584SOL     OW37213   0.742   2.162   6.671 -0.1783 -0.1805  0.5040
 8584SOL    HW137214   0.715   2.215   6.597 -0.8444 -1.9219 -0.4863
 8584SOL    HW237215   0.718   2.075   6.639 -0.3717 -0.5376  1.5865
 8585SOL     OW37216   1.671   0.718   2.398  0.6610  0.4121 -0.0550
 8585SOL    HW137217   1.677   0.716   2.494  2.0231  0.4611 -0.1361
 8585SOL    HW237218   1.631   0.632   2.385 -0.8473  0.9178  1.1611
 8586SOL     OW37219   2.035   1.581   6.971  0.3148 -0.4898 -0.0692
 8586SOL    HW137220   2.105   1.602   6.909 -1.2496 -0.2469 -1.7341
 8586SOL    HW237221   2.086   1.559   7.049  1.8607  0.1159 -0.9081
 8587SOL     OW37222   3.649   3.770   9.577  0.2030 -0.1001 -0.3810
 8587SOL    HW137223   3.584   3.700   9.575  2.5112 -2.2936 -0.1201
 8587SOL    HW237224   3.731   3.724   9.595 -0.3313 -1.3084 -1.0175
 8588SOL     OW37225   3.932   2.039   0.188 -0.0786 -0.3490  0.3682
 8588SOL    HW137226   3.958   2.130   0.199  3.0970 -1.0853 -0.9729
 8588SOL    HW237227   3.861   2.046   0.125  1.5207 -0.8978 -1.5172
 8589SOL     OW37228   0.790   0.945   6.793  0.0293 -0.5229 -0.0862
 8589SOL    HW137229   0.809   0.852   6.804 -2.1425 -0.6177  2.8770
 8589SOL    HW237230   0.868   0.987   6.829 -3.4472  2.0865  4.4130
 8590SOL     OW37231   0.330   2.450   7.987  0.0830 -0.0440 -0.3258
 8590SOL    HW137232   0.335   2.455   8.083  0.6833 -3.3029 -0.1964
 8590SOL    HW237233   0.270   2.523   7.971 -0.3326 -0.1671  0.6291
 8591SOL     OW37234   0.109   3.791  16.225 -0.1157 -0.0549  1.0203
 8591SOL    HW137235   0.076   3.737  16.297  0.2819  0.0628  1.2928
 8591SOL    HW237236   0.197   3.810  16.258  0.3827 -1.5288  0.5492
 8592SOL     OW37237   1.726   1.449   4.810 -0.4157  0.3734  0.5711
 8592SOL    HW137238   1.647   1.443   4.863 -0.6654 -0.6020  0.0752
 8592SOL    HW237239   1.740   1.357   4.791 -0.3040  0.7318 -1.1003
 8593SOL     OW37240   2.120   1.596   5.061 -0.6757  0.0879  0.4739
 8593SOL    HW137241   2.131   1.691   5.069 -0.2063  0.0157  0.7031
 8593SOL    HW237242   2.048   1.589   5.124 -0.2563  0.1253  0.9548
 8594SOL     OW37243   2.117   0.481  12.599  0.0494  0.2049  0.3268
 8594SOL    HW137244   2.085   0.397  12.567 -3.1164  0.9768  1.4578
 8594SOL    HW237245   2.188   0.454  12.657  0.2429  0.8832  0.4031
 8595SOL     OW37246   4.302   1.143   5.805 -0.1102 -0.2430 -0.0559
 8595SOL    HW137247   4.291   1.215   5.743  0.8579 -0.3059 -0.2977
 8595SOL    HW237248   4.209   1.121   5.817 -0.0255 -1.6103 -1.8919
 8596SOL     OW37249   3.662   0.871   6.535 -0.0671 -0.4907  0.1461
 8596SOL    HW137250   3.598   0.842   6.470 -0.1859  0.5188 -0.1849
 8596SOL    HW237251   3.746   0.841   6.501 -0.2673 -2.2007  1.1626
 8597SOL     OW37252   3.762   3.689   7.654  0.1176  0.6787  0.2651
 8597SOL    HW137253   3.693   3.753   7.668  0.3571  1.2282 -1.0453
 8597SOL    HW237254   3.717   3.605   7.660  1.4081 -0.0780 -0.6565
 8598SOL     OW37255   4.084   3.818   2.489  0.0474  1.2561 -0.8051
 8598SOL    HW137256   4.125   3.797   2.405 -1.3949  0.1030 -1.1960
 8598SOL    HW237257   4.024   3.745   2.495 -2.6898  3.6389  0.8260
 8599SOL     OW37258   3.557   2.206  16.784  0.0554 -0.1977  0.2718
 8599SOL    HW137259   3.495   2.276  16.767 -0.2118 -0.0607  1.7717
 8599SOL    HW237260   3.607   2.224  16.705  0.7030 -0.6726  0.5707
 8600SOL     OW37261   4.227   0.657   1.562  0.1241  0.7299 -0.1962
 8600SOL    HW137262   4.296   0.632   1.500 -0.3352 -0.6404 -0.1735
 8600SOL    HW237263   4.237   0.751   1.552  0.3820  0.6173 -1.0793
 8601SOL     OW37264   2.601   3.221   4.853  0.5723 -0.1481 -0.0995
 8601SOL    HW137265   2.668   3.252   4.791  1.1264  2.2377  1.6883
 8601SOL    HW237266   2.578   3.136   4.815  1.6728 -0.8180  0.7499
 8602SOL     OW37267   3.452   1.525   6.043 -0.0083  0.4353 -0.4751
 8602SOL    HW137268   3.451   1.430   6.054  0.7134  0.3529 -1.1430
 8602SOL    HW237269   3.365   1.544   6.079  0.0287  0.5958 -0.4671
 8603SOL     OW37270   0.666   1.409   8.130  0.1725 -0.3253 -0.1529
 8603SOL    HW137271   0.686   1.316   8.142 -2.0234 -0.7057  0.6477
 8603SOL    HW237272   0.699   1.423   8.041  0.5897  1.1624  0.2350
 8604SOL     OW37273   2.330   4.644   3.188  0.2859  0.1088  0.1844
 8604SOL    HW137274   2.292   4.701   3.254  1.4868  0.1295  0.8602
 8604SOL    HW237275   2.251   4.601   3.154 -0.1695  2.2315 -1.4521
 8605SOL     OW37276   0.902   4.633  12.505 -0.0197 -0.3498 -0.1505
 8605SOL    HW137277   0.899   4.681  12.423 -0.3522 -1.6093 -0.8740
 8605SOL    HW237278   0.969   4.682  12.553 -0.5193  1.4111 -1.2537
 8606SOL     OW37279   2.041   1.404   4.873  0.1734  0.3008  0.4466
 8606SOL    HW137280   2.084   1.457   4.940  0.8162 -0.0311  0.2956
 8606SOL    HW237281   2.024   1.481   4.819 -2.5345  0.9630  2.2371
 8607SOL     OW37282   0.539   0.214   8.053 -0.2754  0.2125  0.7435
 8607SOL    HW137283   0.500   0.282   8.106 -2.0374 -0.6850  0.5857
 8607SOL    HW237284   0.470   0.181   7.995 -0.2228  1.2974  0.0588
 8608SOL     OW37285   0.235   1.676   1.210 -0.3836 -0.4922 -0.3374
 8608SOL    HW137286   0.162   1.645   1.265  0.2717  1.3839  1.5695
 8608SOL    HW237287   0.233   1.626   1.128  1.4120 -2.8132  1.0335
 8609SOL     OW37288   4.025   0.898   3.665  0.3535  0.2506  0.0999
 8609SOL    HW137289   4.086   0.827   3.644  0.3335 -0.0830  1.1503
 8609SOL    HW237290   4.085   0.973   3.672  1.1876 -0.4873  0.9465
 8610SOL     OW37291   1.814   3.465   9.961 -0.0146 -0.3285  0.0024
 8610SOL    HW137292   1.787   3.374   9.949  1.1066 -1.0321  2.8151
 8610SOL    HW237293   1.798   3.506   9.876  1.1794  0.8042  0.3289
 8611SOL     OW37294   1.806   0.087   4.770 -0.1906 -0.0118 -0.4654
 8611SOL    HW137295   1.848   0.164   4.809  1.2521 -0.1849 -1.6822
 8611SOL    HW237296   1.843   0.012   4.817 -3.0155 -0.6325  0.8176
 8612SOL     OW37297   0.786   3.054   3.425  0.1636  0.4094 -0.1325
 8612SOL    HW137298   0.725   3.091   3.489 -1.6966 -0.7934 -1.2038
 8612SOL    HW237299   0.859   3.044   3.486 -0.1962  4.5501  0.9497
 8613SOL     OW37300   3.803   2.992   4.730 -0.1876 -0.0398  0.2460
 8613SOL    HW137301   3.814   3.043   4.811  3.6606  0.6696 -0.7158
 8613SOL    HW237302   3.732   2.934   4.760 -1.1593  0.2510 -1.5302
 8614SOL     OW37303   1.098   0.691   5.933  0.3626 -0.5531 -0.3163
 8614SOL    HW137304   1.147   0.683   6.015  0.1932 -2.0241 -0.3595
 8614SOL    HW237305   1.170   0.682   5.870  0.3394  0.8157 -0.5479
 8615SOL     OW37306   3.906   2.592  10.018 -0.1911  0.0252 -0.0659
 8615SOL    HW137307   3.917   2.522  10.083 -2.0327  0.3958  0.6571
 8615SOL    HW237308   3.837   2.643  10.061 -0.0702  1.8882 -2.0595
 8616SOL     OW37309   4.083   4.206   4.022  0.2665  0.2963  0.1266
 8616SOL    HW137310   4.008   4.155   4.052  1.3395 -1.6816 -0.5353
 8616SOL    HW237311   4.130   4.195   4.105 -0.4148  1.0822  0.6102
 8617SOL     OW37312   0.756   0.553   4.654  0.4674  0.0290  0.4068
 8617SOL    HW137313   0.806   0.603   4.718 -0.1047  1.5946 -0.3696
 8617SOL    HW237314   0.717   0.620   4.597  0.6008 -0.0047  0.2764
 8618SOL     OW37315   4.490   0.732   4.714  0.0984 -0.3018  0.5238
 8618SOL    HW137316   4.539   0.804   4.752  0.5311 -0.3528  0.0611
 8618SOL    HW237317   4.405   0.773   4.696  0.6727  1.6616  2.4245
 8619SOL     OW37318   2.488   4.175   2.819 -0.3409  0.1892  0.4976
 8619SOL    HW137319   2.536   4.223   2.886  0.1693  2.2767 -1.3772
 8619SOL    HW237320   2.567   4.147   2.773 -0.3815  0.9546 -0.0279
 8620SOL     OW37321   2.498   1.063   7.542 -0.2074  0.0566  0.1305
 8620SOL    HW137322   2.492   0.998   7.611 -1.1623 -0.5498 -0.5223
 8620SOL    HW237323   2.518   1.146   7.585  1.4073 -0.2126 -0.1111
 8621SOL     OW37324   3.274   3.610   7.678  0.3178  0.8640 -0.4592
 8621SOL    HW137325   3.337   3.680   7.660 -1.4413  2.0909 -1.7884
 8621SOL    HW237326   3.297   3.558   7.600 -0.4661 -1.1253  0.6300
 8622SOL     OW37327   2.767   0.417  17.490  0.0167 -0.4294  0.4484
 8622SOL    HW137328   2.774   0.501  17.535 -0.6112  1.4118 -2.8733
 8622SOL    HW237329   2.755   0.362  17.567 -1.4620  0.7515  1.0608
 8623SOL     OW37330   4.094   3.618   9.349  0.4341  0.4300  0.0939
 8623SOL    HW137331   4.103   3.553   9.419 -0.4404  0.6602  0.4097
 8623SOL    HW237332   4.069   3.549   9.288 -1.2279  1.7318 -0.7049
 8624SOL     OW37333   4.178   2.594   5.664  0.3654  0.4794  0.2609
 8624SOL    HW137334   4.213   2.634   5.584 -1.1062  2.0854  0.4126
 8624SOL    HW237335   4.130   2.523   5.620 -1.9192  3.0280 -1.4277
 8625SOL     OW37336   1.999   1.817  10.224  0.0556 -0.0232  0.2200
 8625SOL    HW137337   2.062   1.751  10.196 -0.8444 -0.5931 -0.4717
 8625SOL    HW237338   1.919   1.764  10.220  0.4762 -0.7147  1.0639
 8626SOL     OW37339   2.368   1.852  10.836  0.1439  0.2808  0.0124
 8626SOL    HW137340   2.344   1.772  10.882 -1.6535 -0.0307 -1.4842
 8626SOL    HW237341   2.428   1.813  10.774 -0.5784  0.3761 -0.7479
 8627SOL     OW37342   0.760   4.716   5.039 -0.5179 -0.4072 -0.2889
 8627SOL    HW137343   0.852   0.008   5.059 -1.0931  2.6334  0.1035
 8627SOL    HW237344   0.713   0.050   5.099 -0.2100  0.2236 -0.6479
 8628SOL     OW37345   0.614   3.641   2.845 -0.5184 -0.4174  0.0107
 8628SOL    HW137346   0.602   3.637   2.750  0.7745 -0.4963 -0.1518
 8628SOL    HW237347   0.640   3.553   2.873 -2.5095 -0.6925  0.9532
 8629SOL     OW37348   4.612   2.115   8.837 -0.1282  0.0290 -0.4243
 8629SOL    HW137349   4.702   2.138   8.812 -0.3709  1.6077  0.1718
 8629SOL    HW237350   4.621   2.032   8.883 -0.4865 -1.5179 -3.1070
 8630SOL     OW37351   1.433   4.311  15.836  0.3722  0.6897 -0.2016
 8630SOL    HW137352   1.444   4.297  15.930 -1.6533  0.1770 -0.0424
 8630SOL    HW237353   1.392   4.226  15.820  0.4209  0.9130 -1.4735
 8631SOL     OW37354   0.455   4.655  15.642 -0.9220  0.6542  0.4959
 8631SOL    HW137355   0.419   4.702  15.717  0.2794  1.4758  0.5547
 8631SOL    HW237356   0.435   4.566  15.669  1.0479 -0.3496 -1.3301
 8632SOL     OW37357   2.315   3.434   6.722 -0.0856 -0.3514  0.5224
 8632SOL    HW137358   2.403   3.414   6.690  1.1820  0.9422  3.1281
 8632SOL    HW237359   2.320   3.530   6.729 -1.5433 -0.3099  1.0171
 8633SOL     OW37360   1.869   4.199   7.610 -0.4167  0.0671  0.0613
 8633SOL    HW137361   1.807   4.127   7.615 -1.2560  0.9218  2.1723
 8633SOL    HW237362   1.946   4.144   7.596 -0.5397 -0.3294  0.9430
 8634SOL     OW37363   2.338   0.135   2.234 -0.2985 -0.2584 -0.6221
 8634SOL    HW137364   2.252   0.169   2.261  0.6713 -0.5472  2.7815
 8634SOL    HW237365   2.348   0.194   2.159 -1.8517 -2.1614 -2.3435
 8635SOL     OW37366   2.807   4.296   0.117 -0.2331  0.0741 -0.3640
 8635SOL    HW137367   2.717   4.324   0.130 -0.8787 -2.0080 -0.2533
 8635SOL    HW237368   2.796   4.280   0.023 -1.8904 -0.9904  0.0054
 8636SOL     OW37369   3.620   1.707   0.747 -0.1514 -0.1655 -0.2360
 8636SOL    HW137370   3.596   1.616   0.764  2.0523 -0.5736  0.5871
 8636SOL    HW237371   3.622   1.753   0.831  0.8354  0.4565 -0.6028
 8637SOL     OW37372   1.350   2.484  11.484  0.3389  0.1251 -0.0161
 8637SOL    HW137373   1.348   2.574  11.453  1.6686  0.0439 -0.3548
 8637SOL    HW237374   1.327   2.498  11.576  1.8188 -1.8119  0.6612
 8638SOL     OW37375   2.137   2.338   2.208 -0.0256 -0.4960 -0.4658
 8638SOL    HW137376   2.046   2.315   2.186 -0.7195  1.5670  0.2025
 8638SOL    HW237377   2.181   2.253   2.211  1.0225  0.1056  1.2994
 8639SOL     OW37378   3.320   0.600   3.511 -0.1720 -0.0607 -0.0605
 8639SOL    HW137379   3.406   0.581   3.549  0.1902  1.1648 -0.2731
 8639SOL    HW237380   3.346   0.607   3.419  0.5049 -0.5164  0.0962
 8640SOL     OW37381   3.134   1.880   3.182 -0.6626  0.1133 -0.2849
 8640SOL    HW137382   3.096   1.844   3.262  3.2996 -3.1194  0.1382
 8640SOL    HW237383   3.195   1.944   3.220 -1.5330  1.7323 -1.6455
 8641SOL     OW37384   2.269   1.548  13.384 -0.7049 -0.3294  0.3068
 8641SOL    HW137385   2.193   1.540  13.327 -1.6739 -0.6624  1.6395
 8641SOL    HW237386   2.313   1.624  13.345 -1.7776 -0.9264 -2.0761
 8642SOL     OW37387   3.400   0.242   5.517  0.4623 -0.6655  0.7311
 8642SOL    HW137388   3.360   0.328   5.502  3.0383  0.4306  0.0374
 8642SOL    HW237389   3.408   0.203   5.430 -1.8533  0.9432 -0.1917
 8643SOL     OW37390   2.235   0.298   8.863  0.3136 -0.1127 -0.0273
 8643SOL    HW137391   2.214   0.368   8.925 -1.5960  0.4032 -1.2435
 8643SOL    HW237392   2.279   0.232   8.916 -1.1267 -0.7137  0.4112
 8644SOL     OW37393   0.321   1.565   3.333 -0.7815  0.0641 -0.3598
 8644SOL    HW137394   0.368   1.499   3.384  1.2913  1.9921  0.2056
 8644SOL    HW237395   0.229   1.540   3.342 -0.2058 -2.1218 -0.6412
 8645SOL     OW37396   3.321   0.709   0.931 -0.3962  0.5789  0.1345
 8645SOL    HW137397   3.243   0.663   0.961 -0.1520 -0.8893 -1.5248
 8645SOL    HW237398   3.369   0.714   1.014 -0.4056 -0.3817  0.1917
 8646SOL     OW37399   2.299   1.117  12.393 -0.0179 -0.1538 -0.0919
 8646SOL    HW137400   2.299   1.028  12.360 -0.3442 -0.0259 -0.4362
 8646SOL    HW237401   2.298   1.168  12.312 -0.1428 -0.7219 -0.4505
 8647SOL     OW37402   0.251   0.599   4.925  0.7199  0.1330 -0.3751
 8647SOL    HW137403   0.265   0.604   4.830 -1.0644  0.0611 -0.6452
 8647SOL    HW237404   0.336   0.572   4.959  1.1123 -0.5697 -1.9283
 8648SOL     OW37405   3.373   4.121  17.543 -0.1392 -0.1124  0.2529
 8648SOL    HW137406   3.420   4.093  17.622 -1.6153 -1.4592  0.6534
 8648SOL    HW237407   3.422   4.198  17.514 -0.2800 -0.2932 -0.4677
 8649SOL     OW37408   1.473   2.041   4.710  0.2979 -0.3821  0.1253
 8649SOL    HW137409   1.447   2.102   4.779  1.2599 -3.4177  3.1395
 8649SOL    HW237410   1.568   2.054   4.713  0.0782  1.9582 -2.2929
 8650SOL     OW37411   0.885   3.214   1.463 -0.2249 -0.1311 -0.1799
 8650SOL    HW137412   0.790   3.200   1.466 -0.3214  0.8377  1.0588
 8650SOL    HW237413   0.877   3.265   1.382 -0.0378 -0.4496 -0.3986
 8651SOL     OW37414   0.244   3.890  10.834  0.1914 -0.0336  0.0144
 8651SOL    HW137415   0.169   3.938  10.798 -0.0047 -0.4069 -0.0642
 8651SOL    HW237416   0.208   3.802  10.843  2.0126 -0.9646 -2.0878
 8652SOL     OW37417   2.816   2.420  14.312 -0.0400 -0.6010 -0.0303
 8652SOL    HW137418   2.721   2.428  14.305  0.1450  0.9614 -0.5627
 8652SOL    HW237419   2.832   2.337  14.359 -3.2937 -1.1224  0.1308
 8653SOL     OW37420   2.680   2.141  13.110 -0.1079 -0.1299 -0.5564
 8653SOL    HW137421   2.661   2.214  13.051  0.1579 -0.6032 -1.2182
 8653SOL    HW237422   2.768   2.113  13.082 -0.0457 -0.7370  0.2403
 8654SOL     OW37423   2.468   3.480   5.590  0.1803 -0.4479  0.0728
 8654SOL    HW137424   2.382   3.476   5.631  0.1060  2.4057  0.2012
 8654SOL    HW237425   2.516   3.429   5.656  1.0536 -1.3467 -1.2514
 8655SOL     OW37426   2.306   0.364   2.958  0.6726  0.0152  0.0625
 8655SOL    HW137427   2.238   0.353   2.892  1.2441  3.7244 -1.1352
 8655SOL    HW237428   2.372   0.309   2.917 -0.7240  0.4238 -2.7375
 8656SOL     OW37429   4.619   1.747   2.932 -0.0303  0.1712  0.1662
 8656SOL    HW137430   4.615   1.652   2.945  0.3105  0.2976  1.1631
 8656SOL    HW237431   4.662   1.783   3.009 -1.1138  1.8155  0.0044
 8657SOL     OW37432   3.765   2.626   4.954  0.1978 -0.4657  0.1870
 8657SOL    HW137433   3.743   2.676   4.876 -0.0168 -0.6582  0.1220
 8657SOL    HW237434   3.716   2.680   5.016  1.5236  1.8692 -0.8039
 8658SOL     OW37435   0.899   1.542  17.608  0.9016  0.6618  0.6517
 8658SOL    HW137436   0.825   1.533  17.668 -1.0917 -0.1622 -1.9502
 8658SOL    HW237437   0.858   1.529  17.522 -0.0922 -0.0723  1.2342
 8659SOL     OW37438   0.099   0.219  16.826  0.8133 -0.4572 -0.5944
 8659SOL    HW137439   0.179   0.192  16.871 -0.4510 -3.4082 -0.1060
 8659SOL    HW237440   0.088   0.307  16.863  1.0078 -0.3832 -0.7152
 8660SOL     OW37441   3.614   2.504   8.333  0.1793  0.1028 -0.3000
 8660SOL    HW137442   3.550   2.448   8.377  0.1985  0.1725 -0.1828
 8660SOL    HW237443   3.579   2.590   8.358  0.1765  0.4585 -1.5196
 8661SOL     OW37444   4.590   2.276   6.791  0.0272 -0.4370 -0.1110
 8661SOL    HW137445   4.657   2.344   6.789  2.5394 -2.8226  3.3168
 8661SOL    HW237446   4.509   2.324   6.772  1.1449  1.1786 -0.7693
 8662SOL     OW37447   4.594   0.891  15.830 -0.2602  0.3721 -0.4895
 8662SOL    HW137448   4.648   0.870  15.754 -0.8572 -2.1196 -0.2001
 8662SOL    HW237449   4.656   0.852  15.891  0.3353  1.7545 -0.1943
 8663SOL     OW37450   1.623   4.598  11.269  0.0314  0.0718 -0.2636
 8663SOL    HW137451   1.556   4.535  11.243  1.0636 -0.8475 -0.7409
 8663SOL    HW237452   1.681   4.554  11.331  1.0540  1.4134 -0.2568
 8664SOL     OW37453   0.106   2.782   1.876 -0.1804  0.0760  0.1668
 8664SOL    HW137454   0.077   2.741   1.957  2.0002 -0.2527  0.7693
 8664SOL    HW237455   0.018   2.810   1.850  0.4352  0.7489 -1.2167
 8665SOL     OW37456   2.030   3.678   5.568  0.4036 -0.6648  0.1021
 8665SOL    HW137457   2.021   3.765   5.608  1.9546 -1.0790  1.3290
 8665SOL    HW237458   1.999   3.620   5.638 -2.7806  0.3282 -0.4645
 8666SOL     OW37459   0.436   1.674   6.471  0.0825 -0.3341 -0.7166
 8666SOL    HW137460   0.496   1.726   6.417 -0.8558  2.5442  1.0327
 8666SOL    HW237461   0.355   1.700   6.426  0.6982 -1.1207 -2.2765
 8667SOL     OW37462   3.171   2.923   6.269  0.2327  0.2959 -0.4260
 8667SOL    HW137463   3.151   2.930   6.176 -2.0756  1.0865  0.1289
 8667SOL    HW237464   3.167   2.828   6.275 -0.6004  0.3794  0.3007
 8668SOL     OW37465   1.053   2.708  15.465  0.6745  0.4087  0.3729
 8668SOL    HW137466   0.997   2.670  15.532  1.5254 -0.6412  0.4878
 8668SOL    HW237467   1.108   2.630  15.453 -0.3615 -0.5831  2.0579
 8669SOL     OW37468   2.917   0.854   4.523  0.1802 -0.0907 -0.5283
 8669SOL    HW137469   2.894   0.791   4.455 -3.5932 -0.1122  0.7415
 8669SOL    HW237470   2.943   0.798   4.596  0.2977  1.7311  0.8550
 8670SOL     OW37471   3.941   2.953  16.240 -0.6583 -0.3073 -0.4691
 8670SOL    HW137472   3.849   2.936  16.258 -1.0075  1.8090 -0.2045
 8670SOL    HW237473   3.983   2.968  16.325 -0.1771  0.0461 -0.7639
 8671SOL     OW37474   2.203   3.892  11.686  0.2999  1.0277  0.4775
 8671SOL    HW137475   2.197   3.822  11.621 -0.7173  0.2580  1.4084
 8671SOL    HW237476   2.273   3.943  11.646  1.1194 -0.6468 -0.2200
 8672SOL     OW37477   1.918   1.229   7.236 -0.2359 -0.0184  0.1679
 8672SOL    HW137478   1.902   1.183   7.318  1.5768  1.6467  1.4259
 8672SOL    HW237479   2.009   1.205   7.218  0.1637  2.4542 -1.0363
 8673SOL     OW37480   0.926   2.242   9.013  0.3325  0.1466  0.1011
 8673SOL    HW137481   0.945   2.234   9.107 -0.2853  0.1155  0.2227
 8673SOL    HW237482   1.012   2.253   8.973 -0.3230 -0.4523 -1.4781
 8674SOL     OW37483   3.652   2.514   9.075 -0.3670 -0.0971 -0.1147
 8674SOL    HW137484   3.669   2.430   9.118  0.5160 -1.1736 -2.5502
 8674SOL    HW237485   3.743   2.516   9.045 -0.5595  1.2005 -0.5850
 8675SOL     OW37486   3.167   0.965   5.107 -0.2120 -0.6547 -0.6315
 8675SOL    HW137487   3.133   1.039   5.157 -0.1877  0.1270 -1.7645
 8675SOL    HW237488   3.214   1.010   5.037  0.8106 -0.0738  0.4354
 8676SOL     OW37489   2.665   4.381  11.905  0.1914  0.2491  0.1579
 8676SOL    HW137490   2.609   4.310  11.935  0.1187 -0.2420 -1.1074
 8676SOL    HW237491   2.594   4.428  11.862 -0.3017  0.4843  1.2410
 8677SOL     OW37492   4.426   1.019  12.226 -0.4814  0.2787 -0.5137
 8677SOL    HW137493   4.432   1.031  12.131 -2.4092  3.0816 -0.2676
 8677SOL    HW237494   4.416   0.925  12.235  4.6560 -0.3619 -1.5163
 8678SOL     OW37495   4.707   3.016   3.496 -0.2945  0.1268  0.4747
 8678SOL    HW137496   4.692   3.007   3.402 -0.7022  0.6151  0.4920
 8678SOL    HW237497   0.001   3.110   3.493 -0.9167  0.2765  1.7396
 8679SOL     OW37498   3.484   3.021   8.965 -0.1503  0.2797 -0.5060
 8679SOL    HW137499   3.497   3.094   9.025 -0.8293 -0.9350  1.1599
 8679SOL    HW237500   3.403   2.980   8.996 -0.4650  0.0401 -1.6603
 8680SOL     OW37501   1.599   0.086   6.232 -0.0080  0.2550 -0.1162
 8680SOL    HW137502   1.624   0.051   6.317 -1.4241 -0.2136  0.1122
 8680SOL    HW237503   1.558   0.013   6.186 -0.1623  0.7017 -0.6905
 8681SOL     OW37504   3.064   2.760   4.131 -0.4093  0.0310  0.1163
 8681SOL    HW137505   3.043   2.785   4.220 -0.1841 -0.9861  0.4504
 8681SOL    HW237506   3.142   2.815   4.115  0.1653 -0.5814  0.8283
 8682SOL     OW37507   2.738   0.286   2.473 -0.2473  0.0914 -0.2511
 8682SOL    HW137508   2.703   0.292   2.384  0.6156 -1.2761 -0.6814
 8682SOL    HW237509   2.656   0.272   2.519  0.9291 -0.6206  1.6292
 8683SOL     OW37510   1.405   3.422  11.304  0.2196 -0.2586  0.1430
 8683SOL    HW137511   1.497   3.431  11.279  0.3397  0.6764  0.9113
 8683SOL    HW237512   1.391   3.330  11.281 -1.4106 -0.6072  2.4980
 8684SOL     OW37513   3.008   0.913  13.164  0.3787 -0.0764 -0.5267
 8684SOL    HW137514   2.963   0.893  13.082 -2.1861  1.1669  0.5651
 8684SOL    HW237515   2.934   0.936  13.220 -0.3218 -0.4183 -1.3069
 8685SOL     OW37516   2.529   2.777   5.637  0.2092  0.0021 -0.2889
 8685SOL    HW137517   2.493   2.854   5.682  0.7293  0.8101 -1.2492
 8685SOL    HW237518   2.492   2.699   5.679 -0.4594  0.5931  0.2137
 8686SOL     OW37519   1.786   4.589   8.146 -0.4342  0.6410  0.3700
 8686SOL    HW137520   1.849   4.573   8.076 -1.3152 -1.2716  0.0221
 8686SOL    HW237521   1.847   4.583   8.220  0.0898 -0.3021 -0.1460
 8687SOL     OW37522   4.046   3.798   3.338  0.1717 -0.2902  0.1064
 8687SOL    HW137523   4.110   3.784   3.408 -1.0724 -1.2905  1.0367
 8687SOL    HW237524   4.096   3.848   3.273  0.8548 -1.2602 -0.1216
 8688SOL     OW37525   2.013   4.475  15.091 -0.1417 -0.7746  0.1113
 8688SOL    HW137526   2.062   4.459  15.172  2.7764 -0.5138 -1.6321
 8688SOL    HW237527   2.013   4.570  15.083 -0.5732 -0.7420  0.4555
 8689SOL     OW37528   2.216   1.659   8.109  0.2983  0.6991  0.2206
 8689SOL    HW137529   2.123   1.639   8.095  0.3094  0.4630  0.4911
 8689SOL    HW237530   2.225   1.643   8.203 -0.5888  3.5521  0.8030
 8690SOL     OW37531   4.434   0.121  14.759  0.2656 -0.5479 -0.3693
 8690SOL    HW137532   4.452   0.120  14.665  3.2808 -0.3210  0.1979
 8690SOL    HW237533   4.499   0.184  14.791  0.1083 -0.4210 -0.3049
 8691SOL     OW37534   4.183   2.117  16.139 -0.2083 -0.0144 -0.4999
 8691SOL    HW137535   4.125   2.071  16.200 -0.6829  0.2213 -0.7748
 8691SOL    HW237536   4.161   2.072  16.058  0.5982 -1.8906  0.3132
 8692SOL     OW37537   3.249   2.327  13.325 -0.1941  0.1041  0.1413
 8692SOL    HW137538   3.333   2.349  13.365 -0.2132 -2.9438  1.8955
 8692SOL    HW237539   3.271   2.333  13.232  0.4694  1.7649  0.4069
 8693SOL     OW37540   2.147   1.004   6.347 -0.0593 -0.1310 -1.1209
 8693SOL    HW137541   2.138   1.099   6.339 -2.2243 -0.1083  1.7189
 8693SOL    HW237542   2.191   1.004   6.432 -0.1726  1.1669 -1.0588
 8694SOL     OW37543   0.053   4.600   5.654 -0.0619  0.4586  0.1421
 8694SOL    HW137544   0.117   4.528   5.652  0.3112  0.7723  0.5329
 8694SOL    HW237545   0.080   4.650   5.577 -1.0379  1.3155  0.3527
 8695SOL     OW37546   4.623   3.969   8.242 -0.0453 -0.8674  0.1049
 8695SOL    HW137547   4.704   3.950   8.289 -0.9380  1.2261  2.5597
 8695SOL    HW237548   4.556   3.916   8.286  0.6029 -0.3267  1.7725
 8696SOL     OW37549   4.720   3.402   3.825 -0.1545 -0.1487  0.2202
 8696SOL    HW137550   0.055   3.470   3.860 -0.3973 -1.0586  2.3836
 8696SOL    HW237551   4.649   3.457   3.790  1.0761  0.9578 -0.5327
 8697SOL     OW37552   3.217   1.020   7.269  0.4562  0.5025  0.0424
 8697SOL    HW137553   3.170   0.957   7.322  1.4228 -0.7055 -0.5321
 8697SOL    HW237554   3.210   0.972   7.186 -1.4386 -0.5209  0.8169
 8698SOL     OW37555   0.744   2.346   7.143  0.6701  0.6802 -0.5266
 8698SOL    HW137556   0.787   2.326   7.061  1.7059  2.3901 -0.4058
 8698SOL    HW237557   0.741   2.261   7.186 -0.3206  1.0347  0.1154
 8699SOL     OW37558   4.459   3.938   8.013  0.4893 -0.9191 -0.5143
 8699SOL    HW137559   4.513   3.934   8.092  2.0344 -1.5264 -1.6034
 8699SOL    HW237560   4.529   3.924   7.949  0.1397  1.5067 -1.4140
 8700SOL     OW37561   3.453   1.741  12.032  0.3060 -0.2750 -0.2177
 8700SOL    HW137562   3.534   1.731  11.982  0.1838 -1.5389 -0.1544
 8700SOL    HW237563   3.436   1.835  12.021 -1.2655 -0.2776  2.1785
 8701SOL     OW37564   3.840   4.095   4.419 -0.2891  0.4306 -0.4709
 8701SOL    HW137565   3.790   4.047   4.485  0.4064 -0.5639 -0.6676
 8701SOL    HW237566   3.869   4.019   4.367  0.6526  0.6186 -0.2264
 8702SOL     OW37567   0.309   2.802   2.233 -0.1403 -0.6504  0.0032
 8702SOL    HW137568   0.314   2.706   2.237  1.2697 -0.6691 -2.1565
 8702SOL    HW237569   0.270   2.815   2.146 -0.2587  2.2661  0.5006
 8703SOL     OW37570   4.322   0.402   5.027  0.0304  0.0803  0.8474
 8703SOL    HW137571   4.245   0.345   5.030 -0.5092  0.6105 -2.2442
 8703SOL    HW237572   4.293   0.492   5.008 -2.7705 -1.7788 -3.8064
 8704SOL     OW37573   0.180   2.952   8.601  0.4844  0.4773 -0.1056
 8704SOL    HW137574   0.108   2.890   8.594 -0.0768  1.3018 -1.5396
 8704SOL    HW237575   0.209   2.940   8.511  1.3686  2.5212 -0.0982
 8705SOL     OW37576   3.010   3.523   7.450 -0.1177  0.1069  0.2687
 8705SOL    HW137577   3.036   3.471   7.375 -0.4471  1.1990 -0.6087
 8705SOL    HW237578   3.043   3.609   7.423  0.6235 -0.6712 -1.2816
 8706SOL     OW37579   0.562   0.119   8.603 -0.1294 -0.0559  0.1473
 8706SOL    HW137580   0.475   0.159   8.604  0.1500  0.5751 -0.2326
 8706SOL    HW237581   0.540   0.026   8.603  2.0421 -0.5783  0.2571
 8707SOL     OW37582   4.338   3.757   9.278  0.6740  0.3890 -0.4103
 8707SOL    HW137583   4.309   3.697   9.208  1.3152  1.2417 -1.4106
 8707SOL    HW237584   4.277   3.745   9.350 -0.1232  0.6133 -1.0493
 8708SOL     OW37585   3.460   3.438   4.322  0.3768  0.0679  0.0761
 8708SOL    HW137586   3.541   3.412   4.366  1.5184  0.2539 -1.9079
 8708SOL    HW237587   3.404   3.384   4.379  0.7218 -1.9417 -1.4614
 8709SOL     OW37588   4.522   4.127   8.709  0.2882  0.2374  0.4839
 8709SOL    HW137589   4.564   4.205   8.745 -0.1763  0.7483 -0.0773
 8709SOL    HW237590   4.536   4.147   8.616  1.2545 -0.7778  0.4179
 8710SOL     OW37591   3.117   3.754  11.633  0.0415  0.1068 -0.2440
 8710SOL    HW137592   3.126   3.668  11.673 -0.5881 -0.2763 -0.9392
 8710SOL    HW237593   3.131   3.811  11.709  2.8944  1.9793 -2.1714
 8711SOL     OW37594   0.578   4.254  12.905 -1.0211  0.0611 -0.4855
 8711SOL    HW137595   0.647   4.228  12.843 -1.4949  2.0914 -1.8707
 8711SOL    HW237596   0.531   4.328  12.868 -0.3469  0.5822 -0.2917
 8712SOL     OW37597   1.204   4.372  15.532 -0.3805 -0.1783 -0.2643
 8712SOL    HW137598   1.224   4.314  15.458  0.7858  2.0274 -1.6789
 8712SOL    HW237599   1.150   4.436  15.487 -0.8985  0.8164  1.7580
 8713SOL     OW37600   0.793   3.854  10.745  0.2477 -0.2963 -0.3143
 8713SOL    HW137601   0.825   3.915  10.679 -4.4194  0.6129 -1.7328
 8713SOL    HW237602   0.700   3.832  10.734 -0.1718  0.1351  2.2223
 8714SOL     OW37603   3.903   0.744   5.754 -0.4824  0.1957 -0.1692
 8714SOL    HW137604   3.997   0.726   5.754 -0.8340 -1.6043 -1.7787
 8714SOL    HW237605   3.902   0.832   5.715  0.9451  0.4704  0.4120
 8715SOL     OW37606   4.513   1.730  13.838  0.2992  0.1727 -0.1278
 8715SOL    HW137607   4.586   1.673  13.862  0.4960  0.6033  0.2974
 8715SOL    HW237608   4.489   1.762  13.925 -0.6508 -0.8020 -0.0302
 8716SOL     OW37609   4.616   0.206   8.467 -0.4881  0.1657 -0.1963
 8716SOL    HW137610   4.663   0.126   8.491  0.1611  0.3694 -0.7972
 8716SOL    HW237611   4.546   0.206   8.532  0.8139 -0.3914  1.1931
 8717SOL     OW37612   0.151   1.790  14.387 -0.6493 -0.6036 -0.4863
 8717SOL    HW137613   0.210   1.717  14.407 -1.0868 -1.1569 -1.2288
 8717SOL    HW237614   0.200   1.853  14.335 -0.0582  0.0286  0.8457
 8718SOL     OW37615   0.764   3.570  15.001  0.4095  0.8881 -0.0615
 8718SOL    HW137616   0.813   3.649  15.023  0.6411  0.7719 -0.1542
 8718SOL    HW237617   0.792   3.553  14.911  0.3138 -2.7210  0.6013
 8719SOL     OW37618   2.662   1.369  15.281  0.2862  0.1895 -0.0949
 8719SOL    HW137619   2.755   1.381  15.260 -0.3152  1.1572 -2.3104
 8719SOL    HW237620   2.639   1.462  15.271  2.0511  0.3446 -2.9252
 8720SOL     OW37621   1.566   1.250   5.357  0.2000 -0.6583 -0.1411
 8720SOL    HW137622   1.563   1.158   5.382 -1.5327  0.4988  4.0280
 8720SOL    HW237623   1.659   1.266   5.370  0.1148  0.0883 -0.4305
 8721SOL     OW37624   1.636   0.225  14.504 -0.5314  0.5630 -0.0099
 8721SOL    HW137625   1.731   0.210  14.512 -0.4597  0.9762 -0.0861
 8721SOL    HW237626   1.611   0.152  14.448 -0.6045  1.1516 -0.7408
 8722SOL     OW37627   3.428   3.601   9.587 -0.0286  0.2047  0.2256
 8722SOL    HW137628   3.340   3.595   9.624  0.5603  0.5536  1.7160
 8722SOL    HW237629   3.463   3.514   9.606  0.2869 -0.1005 -1.7823
 8723SOL     OW37630   0.033   0.491   1.132  0.3955  0.0864 -0.4621
 8723SOL    HW137631   0.021   0.411   1.081  0.5537 -0.3352  0.1604
 8723SOL    HW237632   4.662   0.508   1.144  0.3167 -1.4903  1.2528
 8724SOL     OW37633   3.789   4.129   0.887 -0.9978  0.3902 -0.0785
 8724SOL    HW137634   3.792   4.185   0.964  1.3199  0.4964 -0.2329
 8724SOL    HW237635   3.747   4.050   0.920 -0.0896  0.7704  1.9766
 8725SOL     OW37636   0.696   2.424   2.383 -0.0330 -0.2904 -0.2706
 8725SOL    HW137637   0.718   2.369   2.307  0.1990 -0.4271 -0.1056
 8725SOL    HW237638   0.780   2.433   2.428  0.2679 -1.4609 -0.5904
 8726SOL     OW37639   4.209   4.346   3.825  0.1410  0.6076 -0.0057
 8726SOL    HW137640   4.248   4.284   3.763  0.8099  1.1904 -0.1696
 8726SOL    HW237641   4.163   4.292   3.889 -0.4932 -0.3418 -1.2631
 8727SOL     OW37642   2.601   2.606   2.894 -0.2734 -0.5482  0.2872
 8727SOL    HW137643   2.671   2.666   2.866 -1.0277 -0.1073 -0.6459
 8727SOL    HW237644   2.632   2.523   2.859 -1.9772 -1.5371  1.1194
 8728SOL     OW37645   1.834   0.204   2.802 -1.0040  0.3071  0.1058
 8728SOL    HW137646   1.764   0.268   2.812  0.0877  1.2224  2.0203
 8728SOL    HW237647   1.786   0.145   2.744  1.4472 -2.5135  0.9523
 8729SOL     OW37648   4.432   2.617  11.072  0.1594 -0.2967  0.1715
 8729SOL    HW137649   4.517   2.636  11.112  0.1574 -0.3000  0.1774
 8729SOL    HW237650   4.422   2.522  11.081  2.3300 -0.3482  2.1118
 8730SOL     OW37651   1.592   0.279   4.557  0.3140  0.0990 -0.7208
 8730SOL    HW137652   1.567   0.256   4.467  0.6902  1.8618 -1.2814
 8730SOL    HW237653   1.563   0.212   4.619 -0.3902 -0.5845 -1.7653
 8731SOL     OW37654   4.129   4.510   8.132 -0.0784  0.2097 -0.2495
 8731SOL    HW137655   4.095   4.421   8.136 -0.4384  0.3735  0.3304
 8731SOL    HW237656   4.190   4.499   8.059 -1.3303  1.9526 -1.5636
 8732SOL     OW37657   0.018   3.421   7.170  0.4305  0.0968 -0.3387
 8732SOL    HW137658   4.674   3.444   7.105 -0.6405 -0.4901  0.5597
 8732SOL    HW237659   0.093   3.428   7.111  0.0655  0.0939 -0.8054
 8733SOL     OW37660   2.084   4.276   3.902 -0.7775  0.2339 -0.3099
 8733SOL    HW137661   2.028   4.308   3.831 -1.2451  0.6360  0.2452
 8733SOL    HW237662   2.067   4.333   3.976 -0.9165 -0.6632  0.3477
 8734SOL     OW37663   0.875   3.219   6.420  0.5961  0.3847  0.8802
 8734SOL    HW137664   0.943   3.161   6.386  0.2533  0.2219  0.4628
 8734SOL    HW237665   0.910   3.306   6.403 -1.0662  0.8311 -0.2908
 8735SOL     OW37666   1.805   3.340   4.890 -0.5341  0.0560  0.1036
 8735SOL    HW137667   1.875   3.296   4.842 -0.4237 -0.7239  0.9715
 8735SOL    HW237668   1.844   3.425   4.909  0.7192 -0.8751  1.7406
 8736SOL     OW37669   1.795   1.823  11.893  0.1744  0.5609 -0.8411
 8736SOL    HW137670   1.738   1.746  11.887  0.6414  0.0253  1.6394
 8736SOL    HW237671   1.877   1.791  11.931  0.3031  1.1647 -0.6171
 8737SOL     OW37672   4.502   2.415  16.412 -0.9174 -0.1595 -0.4852
 8737SOL    HW137673   4.412   2.391  16.433 -0.5383 -0.7985  0.3936
 8737SOL    HW237674   4.497   2.430  16.317  0.3095 -1.9356 -0.8393
 8738SOL     OW37675   2.296   3.840   7.691 -0.1626 -0.2662 -0.1360
 8738SOL    HW137676   2.366   3.774   7.691 -0.1456 -0.2572  1.7632
 8738SOL    HW237677   2.254   3.838   7.605 -0.9854 -0.3459  0.2786
 8739SOL     OW37678   1.264   1.501   4.171 -0.3673  0.0285 -0.0895
 8739SOL    HW137679   1.343   1.448   4.180  1.0620  2.1201 -0.2051
 8739SOL    HW237680   1.233   1.504   4.261  2.5066  0.7267  0.8870
 8740SOL     OW37681   3.177   3.383   3.677 -0.0344 -0.2200 -0.3845
 8740SOL    HW137682   3.187   3.460   3.733  1.2321 -1.1188  0.6210
 8740SOL    HW237683   3.266   3.387   3.642 -0.6823  1.6754 -1.8146
 8741SOL     OW37684   0.504   2.640  14.001  0.0973 -0.9303  0.7286
 8741SOL    HW137685   0.467   2.703  14.063  0.1680 -0.2115  0.0334
 8741SOL    HW237686   0.429   2.581  13.992  2.1519 -3.1358 -1.7321
 8742SOL     OW37687   3.716   0.876   9.987  0.1138  0.7374  0.0631
 8742SOL    HW137688   3.793   0.906   9.938 -0.1233  0.6744 -0.3517
 8742SOL    HW237689   3.703   0.940  10.057 -0.1884  0.6459  0.0909
 8743SOL     OW37690   2.447   4.648   8.298  0.6432 -0.5781 -0.4892
 8743SOL    HW137691   2.447   4.604   8.383 -0.2783 -0.7065 -0.5547
 8743SOL    HW237692   2.536   4.621   8.275  0.3686 -1.8294 -0.0880
 8744SOL     OW37693   1.167   3.561   8.998 -0.2269 -0.0133 -0.0710
 8744SOL    HW137694   1.168   3.602   9.084 -2.3927  1.0258 -0.5346
 8744SOL    HW237695   1.093   3.500   9.000 -0.4584  0.3323  1.4264
 8745SOL     OW37696   4.197   2.023  11.079  0.3354  0.1947  0.9449
 8745SOL    HW137697   4.246   2.000  11.157  0.3696 -1.9752  0.2697
 8745SOL    HW237698   4.190   2.119  11.080 -2.2485  0.0228  1.2946
 8746SOL     OW37699   0.321   2.175   5.839 -0.2265 -0.5295 -0.2831
 8746SOL    HW137700   0.285   2.262   5.857 -0.9518 -0.9137  0.1667
 8746SOL    HW237701   0.414   2.187   5.821  0.0348  1.0852  2.1511
 8747SOL     OW37702   0.964   3.587   8.025  0.8548  0.3259  0.3680
 8747SOL    HW137703   1.015   3.631   7.957  0.9697  0.4703  0.5462
 8747SOL    HW237704   1.032   3.560   8.086  0.3526 -0.2830  0.6544
 8748SOL     OW37705   0.896   3.850   8.363  0.2995 -0.8490  0.3788
 8748SOL    HW137706   0.947   3.809   8.433 -0.5726 -0.1623  1.4192
 8748SOL    HW237707   0.880   3.932   8.410 -0.5860  0.0783 -1.5510
 8749SOL     OW37708   4.643   3.143   1.854  0.4365  0.1746  0.0935
 8749SOL    HW137709   4.588   3.065   1.854 -0.4632  0.8041  0.2183
 8749SOL    HW237710   4.624   3.178   1.941  1.8250 -0.7951  0.7786
 8750SOL     OW37711   4.522   2.920   9.968  0.5026  0.1848 -0.1249
 8750SOL    HW137712   4.445   2.892   9.918 -2.1798  5.0614  1.2470
 8750SOL    HW237713   4.509   3.013   9.988  0.7998 -0.3656  2.5997
 8751SOL     OW37714   1.829   4.171   1.499 -0.0956 -0.2061  0.0788
 8751SOL    HW137715   1.790   4.258   1.505  1.5092  0.2814  3.2265
 8751SOL    HW237716   1.891   4.183   1.571  0.5045 -1.5819 -0.2098
 8752SOL     OW37717   0.598   2.522   3.057  0.8465 -0.2551 -0.6109
 8752SOL    HW137718   0.576   2.432   3.031  0.4755  0.5719 -3.1518
 8752SOL    HW237719   0.670   2.511   3.119  1.7331 -0.8356 -1.7633
 8753SOL     OW37720   3.691   2.627   9.831  0.2885  0.1177 -0.0910
 8753SOL    HW137721   3.642   2.565   9.777 -1.1034 -1.1316  2.5715
 8753SOL    HW237722   3.750   2.569   9.880  0.0990 -0.6211 -0.7491
 8754SOL     OW37723   2.520   2.477   5.396  0.2187  0.0747  0.1720
 8754SOL    HW137724   2.471   2.560   5.394 -2.4469 -1.4885  1.1933
 8754SOL    HW237725   2.447   2.417   5.381  0.6800 -0.6299  0.7626
 8755SOL     OW37726   0.388   0.378   8.202  0.4267  0.0667 -0.7840
 8755SOL    HW137727   0.319   0.313   8.196 -0.7193  1.3342 -1.2482
 8755SOL    HW237728   0.344   0.460   8.223  0.8265 -0.3025  1.4021
 8756SOL     OW37729   1.679   1.232  14.934  0.3191 -0.1271  0.0116
 8756SOL    HW137730   1.588   1.203  14.942  0.9951 -1.1799  3.7281
 8756SOL    HW237731   1.714   1.166  14.874 -0.2222 -1.7075  1.4441
 8757SOL     OW37732   0.414   3.418  12.390  0.6999 -0.0803  0.3475
 8757SOL    HW137733   0.452   3.435  12.304  1.6270  0.1090  0.7968
 8757SOL    HW237734   0.401   3.503  12.433 -2.9481 -0.2944 -0.2658
 8758SOL     OW37735   1.352   4.223  12.926 -0.5259  0.2345 -0.1723
 8758SOL    HW137736   1.394   4.178  12.852  1.7250  1.3045  0.4460
 8758SOL    HW237737   1.427   4.279  12.949  1.3768 -1.1771 -2.9244
 8759SOL     OW37738   4.160   3.310  16.866 -0.1801  0.2025  0.0585
 8759SOL    HW137739   4.068   3.287  16.856 -0.3593  0.5087  0.9787
 8759SOL    HW237740   4.198   3.256  16.935  0.8265 -0.0120 -0.6554
 8760SOL     OW37741   1.861   1.558   5.193  0.4312  0.2710 -0.2524
 8760SOL    HW137742   1.777   1.529   5.157  0.2967 -0.3125  0.5328
 8760SOL    HW237743   1.833   1.633   5.246  1.9762 -0.2620  1.3125
 8761SOL     OW37744   4.028   2.587   6.130  0.1841  0.3120 -0.2455
 8761SOL    HW137745   4.050   2.639   6.208 -1.2523  0.7906 -0.1562
 8761SOL    HW237746   4.020   2.504   6.178  2.2306  1.4907  2.1911
 8762SOL     OW37747   1.749   3.041   7.459 -0.7829  0.4308 -0.2357
 8762SOL    HW137748   1.659   3.033   7.489 -0.1894 -2.1947  0.7844
 8762SOL    HW237749   1.737   3.074   7.370  2.0861  0.9806 -0.4122
 8763SOL     OW37750   0.137   1.291   3.086 -0.7954  0.1301 -0.2978
 8763SOL    HW137751   0.204   1.336   3.035 -1.9421  1.4492 -0.6157
 8763SOL    HW237752   0.078   1.264   3.016 -0.4544  2.1091 -1.3561
 8764SOL     OW37753   4.071   0.228  14.964  0.5073  0.1355 -0.0773
 8764SOL    HW137754   4.024   0.308  14.942 -1.7862 -1.8074 -2.1572
 8764SOL    HW237755   4.072   0.229  15.060  0.2034  1.8081 -0.0853
 8765SOL     OW37756   1.691   1.567  11.874  0.2741  0.0287 -0.8101
 8765SOL    HW137757   1.620   1.525  11.824 -0.9837  2.1117 -0.7461
 8765SOL    HW237758   1.713   1.507  11.945 -2.1988  1.1951  0.9266
 8766SOL     OW37759   0.861   0.694   9.275  0.5255  0.0438 -0.4943
 8766SOL    HW137760   0.802   0.673   9.348  1.1265  1.5623  0.4242
 8766SOL    HW237761   0.845   0.788   9.275 -0.8148 -0.1646  1.0280
 8767SOL     OW37762   0.760   3.903  11.156 -0.3710 -0.1859 -0.4053
 8767SOL    HW137763   0.821   3.939  11.092  0.2688 -1.6016 -0.5799
 8767SOL    HW237764   0.823   3.863  11.216 -0.7380 -0.9410 -0.5257
 8768SOL     OW37765   0.912   4.080  15.841  0.4641  0.4584 -0.0356
 8768SOL    HW137766   0.912   4.006  15.902 -4.9539  1.1035  0.7265
 8768SOL    HW237767   0.995   4.065  15.796  0.1668 -0.8873 -0.1569
 8769SOL     OW37768   2.566   1.848  15.144 -0.3233  0.2011 -0.1777
 8769SOL    HW137769   2.548   1.919  15.083 -1.2045 -0.4084 -0.6195
 8769SOL    HW237770   2.648   1.812  15.108 -0.4986 -0.5223  0.1347
 8770SOL     OW37771   3.567   4.362   8.220  0.2652 -0.0700  0.4484
 8770SOL    HW137772   3.597   4.285   8.269 -1.0749 -1.3379 -0.7416
 8770SOL    HW237773   3.648   4.391   8.179 -0.4347 -0.1519 -0.9590
 8771SOL     OW37774   1.090   3.636  12.187  0.3139  0.2200  0.0684
 8771SOL    HW137775   1.098   3.613  12.280  2.8928 -0.5423 -0.3362
 8771SOL    HW237776   1.165   3.583  12.159 -1.4707 -1.2734 -1.8207
 8772SOL     OW37777   2.748   4.568  17.557 -0.5353  0.5852 -0.3734
 8772SOL    HW137778   2.729   4.649  17.509 -1.1848  1.1060  0.7565
 8772SOL    HW237779   2.782   4.611  17.635  0.9586  0.6369 -1.0449
 8773SOL     OW37780   1.780   3.075  10.176  0.0648  0.2701 -0.0687
 8773SOL    HW137781   1.861   3.075  10.228  0.1634  4.6255 -0.2428
 8773SOL    HW237782   1.715   3.106  10.239  1.1082  1.7758  0.2659
 8774SOL     OW37783   4.705   2.728  13.913 -0.0822 -0.4263  0.0697
 8774SOL    HW137784   4.646   2.774  13.972 -1.3024 -0.8127 -0.8403
 8774SOL    HW237785   4.696   2.642  13.955  0.6134 -0.6170 -0.1788
 8775SOL     OW37786   4.271   1.537   9.745 -0.0468 -0.5975  0.0284
 8775SOL    HW137787   4.197   1.484   9.774  1.6974 -2.0823  1.7278
 8775SOL    HW237788   4.345   1.509   9.799 -0.1100 -0.6042  0.1114
 8776SOL     OW37789   2.419   1.672   7.256 -0.5616 -0.4236 -0.4303
 8776SOL    HW137790   2.498   1.707   7.215  0.0621 -1.7191 -0.3338
 8776SOL    HW237791   2.344   1.696   7.202 -0.7580 -4.1245 -1.8010
 8777SOL     OW37792   1.073   1.378   7.195  0.0232  0.1437  0.1088
 8777SOL    HW137793   1.152   1.386   7.249  0.4758 -1.9180 -0.2394
 8777SOL    HW237794   1.099   1.426   7.115  0.7473 -2.2214 -1.0851
 8778SOL     OW37795   3.982   2.968   7.780  0.4634 -0.1148 -0.5369
 8778SOL    HW137796   3.896   2.958   7.740  0.9318 -2.0122 -1.0657
 8778SOL    HW237797   4.027   3.020   7.714 -1.6402  0.8251 -1.2297
 8779SOL     OW37798   1.437   1.280   4.896  0.1009  0.1443  0.4230
 8779SOL    HW137799   1.487   1.235   4.965 -0.3403 -2.4141 -0.9149
 8779SOL    HW237800   1.402   1.355   4.944 -1.3135  0.4549 -1.1020
 8780SOL     OW37801   2.806   2.098  13.418 -0.0962  0.2016 -0.0164
 8780SOL    HW137802   2.790   2.004  13.416  1.3392 -0.0200 -1.0024
 8780SOL    HW237803   2.889   2.102  13.371  0.4651 -2.1981  0.7580
 8781SOL     OW37804   0.440   1.073   2.244 -0.0124  0.2787  0.5499
 8781SOL    HW137805   0.419   1.162   2.214  2.0817  2.1215  4.5078
 8781SOL    HW237806   0.533   1.070   2.220  0.1012  1.1111  0.8718
 8782SOL     OW37807   2.042   0.990   1.868  0.5723  0.0149 -0.4152
 8782SOL    HW137808   1.977   0.920   1.875 -0.0514  0.5807 -0.4377
 8782SOL    HW237809   2.050   1.022   1.958 -0.2532 -0.2634 -0.2387
 8783SOL     OW37810   0.834   3.973  12.199  0.1232 -0.0942 -0.1428
 8783SOL    HW137811   0.768   3.908  12.221 -1.7751  1.1419 -2.2406
 8783SOL    HW237812   0.798   4.009  12.118  0.7565  0.5236 -0.1542
 8784SOL     OW37813   3.891   0.259   9.698  0.2207  0.6666  0.1565
 8784SOL    HW137814   3.817   0.199   9.690  0.6876  0.3008 -1.2823
 8784SOL    HW237815   3.945   0.236   9.623 -0.4275  1.2475 -0.4908
 8785SOL     OW37816   0.047   2.952   9.889 -0.5925  0.1158 -0.1772
 8785SOL    HW137817   0.090   2.877   9.931  1.6249  2.2746  1.4205
 8785SOL    HW237818   4.684   2.922   9.920 -0.5858 -0.3057 -0.5636
 8786SOL     OW37819   1.170   0.699   8.713  0.2216 -0.3437  0.0785
 8786SOL    HW137820   1.198   0.609   8.728  0.8361 -0.3740 -1.2354
 8786SOL    HW237821   1.139   0.728   8.799  0.3355  2.0033 -0.6636
 8787SOL     OW37822   2.180   3.850   7.418 -0.2890 -0.4062  0.5064
 8787SOL    HW137823   2.148   3.766   7.385 -1.0066 -1.8198  4.7963
 8787SOL    HW237824   2.227   3.877   7.339 -0.6762  1.0991  0.7991
 8788SOL     OW37825   4.390   0.452  13.565  0.1465 -0.4080 -0.1605
 8788SOL    HW137826   4.296   0.435  13.571 -0.3255  2.0846 -0.6124
 8788SOL    HW237827   4.402   0.508  13.642  0.2258 -0.7158  0.0535
 8789SOL     OW37828   2.985   3.673   6.543 -0.4366  0.2828  0.5850
 8789SOL    HW137829   3.055   3.737   6.558  0.9677 -0.7554 -1.5577
 8789SOL    HW237830   2.982   3.677   6.448 -2.4975 -0.6433  0.6015
 8790SOL     OW37831   3.492   0.833  12.403 -0.4272 -0.1955 -0.3639
 8790SOL    HW137832   3.414   0.887  12.418  0.2595  0.7030 -0.0094
 8790SOL    HW237833   3.474   0.762  12.464 -1.3606  0.2127 -0.1581
 8791SOL     OW37834   3.499   1.444  12.093  0.1133 -0.2058 -0.1349
 8791SOL    HW137835   3.574   1.434  12.151  0.3658 -0.6437 -0.5322
 8791SOL    HW237836   3.482   1.537  12.110 -0.6677  0.3099 -3.4963
 8792SOL     OW37837   3.675   2.903   5.437 -0.3268 -0.3910 -0.1752
 8792SOL    HW137838   3.760   2.880   5.400 -0.2416  0.3667 -0.4512
 8792SOL    HW237839   3.684   2.899   5.532  1.7706 -1.4566 -0.4389
 8793SOL     OW37840   1.025   4.335  13.795 -0.1892 -0.1957  0.5282
 8793SOL    HW137841   1.034   4.240  13.797 -0.6976 -0.2531  0.0723
 8793SOL    HW237842   1.031   4.351  13.890  1.3999  1.6019  0.1437
 8794SOL     OW37843   0.902   4.213   2.028  0.1984 -0.4704  0.1558
 8794SOL    HW137844   0.974   4.267   2.060  0.1567  0.2364 -0.9531
 8794SOL    HW237845   0.911   4.225   1.934  0.7471 -1.5682  0.0696
 8795SOL     OW37846   4.061   4.162  10.329  0.1855 -0.0912  0.5581
 8795SOL    HW137847   4.124   4.222  10.370  0.5990 -0.6801  0.7844
 8795SOL    HW237848   4.049   4.199  10.242  1.1655  2.1115  1.3371
 8796SOL     OW37849   0.739   1.212   7.411 -0.3858 -0.0503  0.5025
 8796SOL    HW137850   0.669   1.169   7.461 -1.3125  0.9059  0.0251
 8796SOL    HW237851   0.722   1.305   7.424 -1.6507 -0.2351  0.1858
 8797SOL     OW37852   4.221   1.503   5.827  0.1107 -0.0059  0.5863
 8797SOL    HW137853   4.264   1.450   5.894  0.1703 -1.3025 -0.4843
 8797SOL    HW237854   4.239   1.455   5.746 -0.5179  2.2349 -0.8925
 8798SOL     OW37855   2.608   3.933   2.195  0.0362  0.8076 -0.0310
 8798SOL    HW137856   2.610   4.001   2.127 -0.4989  0.5191 -0.3299
 8798SOL    HW237857   2.693   3.892   2.180 -0.0128  0.4444  0.7071
 8799SOL     OW37858   2.483   0.323  17.400 -0.1021 -0.1902 -0.3882
 8799SOL    HW137859   2.470   0.342  17.493 -0.2227 -1.8974 -0.0483
 8799SOL    HW237860   2.559   0.380  17.387 -0.6753  0.6954  0.1264
 8800SOL     OW37861   0.631   2.706   2.851 -0.1176  0.1646 -0.2946
 8800SOL    HW137862   0.566   2.776   2.862 -0.8984 -0.5207 -0.6378
 8800SOL    HW237863   0.593   2.646   2.915  2.2904  0.6582  1.5876
 8801SOL     OW37864   0.281   2.349   8.671 -0.5114  0.3116  0.1962
 8801SOL    HW137865   0.228   2.302   8.606  1.1147 -1.1584 -0.0570
 8801SOL    HW237866   0.266   2.440   8.644  0.8522 -0.1587 -2.1978
 8802SOL     OW37867   2.800   1.882  14.620 -0.0071  0.6437  0.1198
 8802SOL    HW137868   2.844   1.878  14.535  0.1463 -1.5045  0.3208
 8802SOL    HW237869   2.836   1.806  14.664  0.8850  1.8311  1.4412
 8803SOL     OW37870   3.582   2.597  17.101 -0.8837  0.5062 -0.4229
 8803SOL    HW137871   3.582   2.659  17.174 -0.7446 -1.3413  1.1473
 8803SOL    HW237872   3.637   2.646  17.039 -1.1412  1.9380  0.4938
 8804SOL     OW37873   3.105   0.550   8.427 -0.0614  0.1403 -0.5399
 8804SOL    HW137874   3.118   0.591   8.513 -1.3110 -0.3751 -0.1003
 8804SOL    HW237875   3.130   0.461   8.453 -0.0029  0.0349 -0.9687
 8805SOL     OW37876   3.980   0.460  11.842 -0.2812  0.0649  0.2179
 8805SOL    HW137877   3.940   0.473  11.756  0.1629 -2.4912 -0.3639
 8805SOL    HW237878   3.922   0.520  11.890  0.1819 -0.6162  1.6037
 8806SOL     OW37879   4.439   3.450   4.897 -0.5805  0.6451  0.1530
 8806SOL    HW137880   4.483   3.388   4.838 -1.2277 -0.0090  0.3524
 8806SOL    HW237881   4.512   3.497   4.937 -0.3994 -0.0905  0.7059
 8807SOL     OW37882   1.080   4.075   5.386 -0.2929  1.2785 -0.1138
 8807SOL    HW137883   1.148   4.137   5.358  0.9600  0.4943  1.2240
 8807SOL    HW237884   1.086   4.004   5.322 -1.3214 -0.6465  1.9354
 8808SOL     OW37885   0.431   0.340   7.280  0.2738 -0.0002  0.2329
 8808SOL    HW137886   0.457   0.313   7.192 -0.2001 -0.8831  0.3675
 8808SOL    HW237887   0.381   0.419   7.257 -0.2821 -0.3129  0.3696
 8809SOL     OW37888   0.129   2.712   8.885  0.3366 -0.3508 -0.2006
 8809SOL    HW137889   0.063   2.778   8.907  0.7583 -0.1877  0.5799
 8809SOL    HW237890   0.197   2.762   8.931  0.0795 -2.2455  2.1916
 8810SOL     OW37891   4.579   3.522   6.992  0.5435 -0.2355  0.0052
 8810SOL    HW137892   4.624   3.557   6.915  0.6090  2.0951  1.1195
 8810SOL    HW237893   4.537   3.601   7.025 -1.3282 -0.3993 -2.0090
 8811SOL     OW37894   1.919   0.183   8.143 -0.4417  0.3980 -0.6861
 8811SOL    HW137895   1.841   0.230   8.173  0.7189  1.9179  0.0021
 8811SOL    HW237896   1.908   0.189   8.048 -0.6470 -0.6902 -0.7233
 8812SOL     OW37897   3.234   2.310   3.367 -0.3386 -0.2147  0.3259
 8812SOL    HW137898   3.233   2.278   3.276  0.4210 -0.7660  0.5104
 8812SOL    HW237899   3.223   2.231   3.420 -0.3479 -0.6302 -0.2956
 8813SOL     OW37900   2.718   3.571   8.360  0.0006  0.2552 -0.3598
 8813SOL    HW137901   2.749   3.493   8.314 -0.6440  1.9882 -3.7264
 8813SOL    HW237902   2.800   3.618   8.375  0.5258 -0.7917 -0.0100
 8814SOL     OW37903   0.695   3.092   2.941 -0.4924  0.0113  0.3288
 8814SOL    HW137904   0.619   3.045   2.907 -0.8973 -0.6565  2.1526
 8814SOL    HW237905   0.659   3.099   3.030  0.3543 -1.7961  0.8181
 8815SOL     OW37906   2.650   2.130   8.084 -0.7538  0.1604 -0.1701
 8815SOL    HW137907   2.561   2.161   8.102 -0.8910  0.1467 -0.8224
 8815SOL    HW237908   2.635   2.045   8.043 -0.5582 -0.3953  0.9188
 8816SOL     OW37909   0.351   1.468  11.457  0.6271 -0.3834 -0.0092
 8816SOL    HW137910   0.380   1.557  11.478 -0.8953  0.1207 -0.0220
 8816SOL    HW237911   0.256   1.480  11.463  0.4555 -3.1643  2.5995
 8817SOL     OW37912   4.081   2.657   6.382  0.4172  0.0168 -0.5488
 8817SOL    HW137913   4.174   2.654   6.402  0.4689 -0.4422 -0.8428
 8817SOL    HW237914   4.067   2.564   6.402  1.5340 -0.2335 -0.9712
 8818SOL     OW37915   3.232   1.424   3.608 -0.4937 -0.1783 -0.4192
 8818SOL    HW137916   3.202   1.505   3.650  1.0190  0.1608  0.0182
 8818SOL    HW237917   3.206   1.432   3.517  0.2010  2.9362 -0.3630
 8819SOL     OW37918   2.897   3.954  10.761  0.2027 -0.2886  0.2872
 8819SOL    HW137919   2.938   3.882  10.809 -0.1033 -1.6322 -1.4537
 8819SOL    HW237920   2.812   3.952  10.806 -0.0671  1.9245 -0.1237
 8820SOL     OW37921   1.654   3.468   1.429 -0.1729 -0.4439 -0.0085
 8820SOL    HW137922   1.712   3.407   1.474  0.7382  1.9526  2.0506
 8820SOL    HW237923   1.673   3.554   1.465  0.5825 -1.0646  1.0723
 8821SOL     OW37924   3.537   2.010   3.735 -0.3303 -0.3167  0.0600
 8821SOL    HW137925   3.598   2.074   3.772 -0.6408 -0.8085  1.4266
 8821SOL    HW237926   3.496   1.984   3.817  0.4777 -4.0796 -0.7262
 8822SOL     OW37927   2.956   0.180  12.546  0.0442  0.3437 -0.0042
 8822SOL    HW137928   2.990   0.094  12.525  1.2926  1.2317 -1.5520
 8822SOL    HW237929   3.016   0.235  12.496  0.6979 -0.0703  0.3315
 8823SOL     OW37930   1.755   4.677   7.421 -0.0671 -0.0078  0.5574
 8823SOL    HW137931   1.789   4.587   7.420 -0.0680 -0.0132  1.5325
 8823SOL    HW237932   1.820   4.713   7.360 -1.1505 -1.9830 -1.7643
 8824SOL     OW37933   3.521   0.315   7.749  0.3579  0.1205  0.0563
 8824SOL    HW137934   3.476   0.338   7.830  1.2681 -0.3270  0.6918
 8824SOL    HW237935   3.480   0.365   7.679  0.8348  0.0971 -0.2389
 8825SOL     OW37936   2.185   2.235   2.537  0.3514 -0.5081  0.1708
 8825SOL    HW137937   2.243   2.272   2.604  0.3930  0.6885 -0.5300
 8825SOL    HW237938   2.218   2.259   2.450 -2.0871  0.0670 -0.5844
 8826SOL     OW37939   4.549   1.890   2.500 -0.0478  0.6088 -0.0469
 8826SOL    HW137940   4.533   1.982   2.520 -0.4984  0.7284 -0.9402
 8826SOL    HW237941   4.510   1.857   2.581 -2.9641  2.1831 -0.8273
 8827SOL     OW37942   3.747   3.952   4.660 -0.1377  0.1282  0.1769
 8827SOL    HW137943   3.724   3.862   4.636 -0.3691  0.6154 -1.4476
 8827SOL    HW237944   3.678   3.981   4.720 -1.3584 -3.0002  0.2960
 8828SOL     OW37945   1.915   3.036  11.686 -0.2854 -0.6288  0.0467
 8828SOL    HW137946   1.901   3.130  11.690 -0.7369 -0.7619  1.5166
 8828SOL    HW237947   1.902   3.024  11.780 -0.8383  0.7122  0.1447
 8829SOL     OW37948   4.448   2.541   8.844  0.3580 -0.4933 -0.0645
 8829SOL    HW137949   4.543   2.535   8.853  0.5340  0.0351 -1.4994
 8829SOL    HW237950   4.433   2.447   8.831 -0.3224 -0.4518  0.4351
 8830SOL     OW37951   3.827   1.609  13.666 -0.0517  0.2513 -1.0643
 8830SOL    HW137952   3.919   1.593  13.689 -0.3782 -1.1437 -0.6891
 8830SOL    HW237953   3.809   1.680  13.727  0.9538 -0.0536 -0.4140
 8831SOL     OW37954   3.073   3.551   2.757 -0.1844 -0.2125  0.4118
 8831SOL    HW137955   3.156   3.583   2.792 -0.1412  0.6342 -0.4846
 8831SOL    HW237956   3.091   3.457   2.760 -1.7271 -0.5547 -1.2499
 8832SOL     OW37957   0.544   1.260   7.768 -0.2413 -0.3273 -0.2242
 8832SOL    HW137958   0.536   1.354   7.748 -0.8097  0.2746  2.8845
 8832SOL    HW237959   0.498   1.254   7.851  0.9032 -0.6172  0.3754
 8833SOL     OW37960   1.415   0.176   9.292  0.4068  0.2164  0.0031
 8833SOL    HW137961   1.454   0.205   9.374  2.1374 -1.2748 -0.2941
 8833SOL    HW237962   1.430   0.252   9.236  1.8876  0.1572  0.3197
 8834SOL     OW37963   1.286   1.836  14.269 -0.2839  0.3613  0.5722
 8834SOL    HW137964   1.334   1.830  14.351  1.7298 -1.7206 -0.7423
 8834SOL    HW237965   1.201   1.861  14.305 -0.6274 -0.4304  0.3293
 8835SOL     OW37966   2.792   0.709   5.045  0.4504  0.0075 -0.3595
 8835SOL    HW137967   2.714   0.697   5.099 -0.0572  0.1291 -1.0711
 8835SOL    HW237968   2.846   0.636   5.076 -1.8535 -1.7501 -0.5213
 8836SOL     OW37969   1.368   2.281   0.269  0.1230 -0.5000 -0.2467
 8836SOL    HW137970   1.315   2.239   0.337 -0.5056 -0.4680 -0.7184
 8836SOL    HW237971   1.337   2.246   0.186 -0.0960  1.8584 -1.1736
 8837SOL     OW37972   3.849   1.082  12.616 -0.1432 -0.3590 -0.3107
 8837SOL    HW137973   3.831   0.989  12.625  1.2322 -0.6967 -1.0366
 8837SOL    HW237974   3.787   1.093  12.543  0.3391 -1.3906 -0.8798
 8838SOL     OW37975   3.858   2.493   2.578 -0.5916  1.2025  0.3349
 8838SOL    HW137976   3.952   2.479   2.580 -0.4857  1.4116 -3.2140
 8838SOL    HW237977   3.845   2.548   2.500 -0.1128  1.5688  0.5131
 8839SOL     OW37978   0.306   4.547   6.809 -1.0403  0.7772 -0.2402
 8839SOL    HW137979   0.211   4.537   6.804 -1.2318  1.8029  1.2692
 8839SOL    HW237980   0.309   4.626   6.862 -0.1868 -0.8882  2.1726
 8840SOL     OW37981   0.696   2.308  11.393 -0.3550 -0.2068 -0.5193
 8840SOL    HW137982   0.634   2.320  11.465 -1.1254  0.9517 -1.3766
 8840SOL    HW237983   0.631   2.282  11.327 -1.6837  2.1458 -0.1483
 8841SOL     OW37984   2.080   1.395   8.237  0.1275  0.2775 -0.5789
 8841SOL    HW137985   2.046   1.454   8.169 -0.8064  1.1736  0.6422
 8841SOL    HW237986   2.154   1.360   8.188  0.5403  0.0722  0.1932
 8842SOL     OW37987   2.391   2.932   7.815 -0.4352  0.0062  0.0704
 8842SOL    HW137988   2.307   2.967   7.843 -0.5906 -1.0708  0.9349
 8842SOL    HW237989   2.383   2.932   7.719  2.8889  1.3460 -0.2004
 8843SOL     OW37990   2.958   0.990   9.492 -0.1803  0.3376  0.1023
 8843SOL    HW137991   2.876   0.994   9.443 -0.3603 -1.7730  0.2302
 8843SOL    HW237992   2.977   1.083   9.498 -2.2447  0.7958 -0.6421
 8844SOL     OW37993   2.902   2.501   0.692  0.0764  0.2354  0.1670
 8844SOL    HW137994   2.923   2.408   0.691 -1.4113 -0.0904 -0.8563
 8844SOL    HW237995   2.992   2.529   0.673  0.6097  0.2284  2.6916
 8845SOL     OW37996   0.434   0.883   7.733 -0.5641 -0.3050 -0.4646
 8845SOL    HW137997   0.405   0.902   7.822  1.5413 -1.5642  0.4918
 8845SOL    HW237998   0.380   0.946   7.687 -0.0565  0.8963  0.5885
 8846SOL     OW37999   1.661   2.693   6.925 -0.2516 -0.5882 -0.5653
 8846SOL    HW138000   1.632   2.624   6.985  0.0679  0.4019  0.7227
 8846SOL    HW238001   1.734   2.732   6.972 -1.6897  1.2203  0.1984
 8847SOL     OW38002   0.622   3.063   6.092  0.2957 -0.8126 -0.4516
 8847SOL    HW138003   0.635   3.136   6.153 -0.8707  0.3023 -1.5249
 8847SOL    HW238004   0.643   3.093   6.004  2.7722  0.2725  0.5233
 8848SOL     OW38005   1.959   1.918  16.229 -0.0030 -0.6379  0.0178
 8848SOL    HW138006   1.939   2.009  16.253  0.2231 -1.1281  2.0356
 8848SOL    HW238007   1.884   1.875  16.270 -0.4122 -0.6361 -0.7281
 8849SOL     OW38008   2.581   3.923   3.682  0.2957  0.5817 -0.0719
 8849SOL    HW138009   2.661   3.946   3.635 -0.8291  1.9636 -1.3249
 8849SOL    HW238010   2.613   3.865   3.751 -0.5286 -1.8632 -1.7648
 8850SOL     OW38011   3.743   1.776   5.675 -0.1693  0.2816  0.2837
 8850SOL    HW138012   3.757   1.869   5.657 -0.6471  0.6574  1.9119
 8850SOL    HW238013   3.789   1.764   5.758 -0.5085 -0.7203  0.3188
 8851SOL     OW38014   0.865   3.195   7.836 -0.0031 -0.2054  0.2192
 8851SOL    HW138015   0.826   3.187   7.923 -1.3127  2.2356 -0.1076
 8851SOL    HW238016   0.825   3.277   7.805  0.7063 -0.0865 -0.3862
 8852SOL     OW38017   0.450   0.755   9.229 -0.5096  0.3845  0.1953
 8852SOL    HW138018   0.366   0.774   9.271 -0.1206  2.5287  0.0168
 8852SOL    HW238019   0.502   0.829   9.260 -0.2616 -0.0315  0.7708
 8853SOL     OW38020   2.187   0.068   3.371  0.3395  0.2188  0.2024
 8853SOL    HW138021   2.121   0.104   3.430 -1.0863  0.1225 -1.3426
 8853SOL    HW238022   2.142   0.083   3.287 -0.0995 -1.8327  0.0909
 8854SOL     OW38023   4.227   1.422   6.107  0.0629  0.5664 -0.3318
 8854SOL    HW138024   4.216   1.505   6.154  0.5521  1.0024 -0.9970
 8854SOL    HW238025   4.300   1.389   6.159  0.7491 -1.5741 -2.6634
 8855SOL     OW38026   2.089   0.047   8.310  0.0058  0.0319  0.4597
 8855SOL    HW138027   2.049   0.118   8.259 -0.8053 -0.2432  0.7106
 8855SOL    HW238028   2.008   4.720   8.322 -0.7543  0.8995 -1.0122
 8856SOL     OW38029   0.823   0.236   8.390  0.0452 -0.3596  0.5836
 8856SOL    HW138030   0.825   0.144   8.418 -0.1955 -0.0609  1.5613
 8856SOL    HW238031   0.729   0.240   8.370  0.6595  1.5014 -1.8656
 8857SOL     OW38032   2.204   4.628   4.250  0.2147  0.2507  0.7411
 8857SOL    HW138033   2.156   4.673   4.319  1.6606  2.2764  0.4276
 8857SOL    HW238034   2.270   4.695   4.235  0.9783 -0.5896  0.3590
 8858SOL     OW38035   0.772   0.051   2.217 -0.0243  0.1829 -0.8108
 8858SOL    HW138036   0.770   4.683   2.187  0.0069  0.1063 -0.5794
 8858SOL    HW238037   0.840   0.084   2.158  0.6746 -0.3948 -0.3328
 8859SOL     OW38038   4.078   2.149   3.244  0.3831  0.2333 -0.2813
 8859SOL    HW138039   4.024   2.226   3.259  0.1230  0.2813 -1.4880
 8859SOL    HW238040   4.076   2.158   3.149 -1.0789 -1.0458 -0.3742
 8860SOL     OW38041   4.448   4.333  14.070 -0.4644  0.2483  0.1247
 8860SOL    HW138042   4.354   4.317  14.061 -0.3048 -0.6271  0.0277
 8860SOL    HW238043   4.485   4.256  14.113  1.4578  2.2311  2.0759
 8861SOL     OW38044   3.335   3.515  14.166  0.0989 -0.2664  0.1441
 8861SOL    HW138045   3.318   3.490  14.076 -1.4541 -2.8905  1.1720
 8861SOL    HW238046   3.329   3.430  14.211  2.4746 -1.4322 -1.7270
 8862SOL     OW38047   0.822   4.313  16.992 -0.2077  0.4423 -0.5167
 8862SOL    HW138048   0.845   4.403  16.969  1.3482  0.2813  0.4348
 8862SOL    HW238049   0.805   4.286  16.902  0.3437  0.0884 -0.5121
 8863SOL     OW38050   0.194   0.087   8.809  0.5859  0.2270  0.1140
 8863SOL    HW138051   0.239   0.009   8.844 -0.4673  0.5598  2.2417
 8863SOL    HW238052   0.176   0.143   8.885 -1.2768 -0.9910  0.5895
 8864SOL     OW38053   3.522   4.328  17.469 -0.5541 -0.0674  0.3198
 8864SOL    HW138054   3.575   4.364  17.398 -0.7979  0.9020  0.6183
 8864SOL    HW238055   3.497   4.408  17.515 -0.0549 -0.4428  1.2387
 8865SOL     OW38056   0.291   3.222   7.179  0.4764  0.1557 -0.1480
 8865SOL    HW138057   0.296   3.285   7.107  2.5057 -1.2612 -1.2196
 8865SOL    HW238058   0.208   3.245   7.222 -0.4483  0.6637 -2.2369
 8866SOL     OW38059   1.414   1.284   2.424  0.8314  0.4294 -0.1140
 8866SOL    HW138060   1.377   1.272   2.336  0.0707  0.0236  0.2633
 8866SOL    HW238061   1.499   1.318   2.396  1.0247 -0.0829 -0.1509
 8867SOL     OW38062   0.164   0.985   6.887 -0.2002  0.1409 -0.3466
 8867SOL    HW138063   0.122   0.999   6.802 -1.3745  0.7506  0.3349
 8867SOL    HW238064   0.135   0.899   6.916 -0.5786  1.0349  1.9483
 8868SOL     OW38065   0.534   0.677   8.939 -0.2040  0.2467  0.8436
 8868SOL    HW138066   0.473   0.606   8.962 -1.1636  0.7348 -0.2305
 8868SOL    HW238067   0.468   0.717   8.882  1.9103  2.4775 -0.0280
 8869SOL     OW38068   1.707   3.892   2.392  0.1884 -0.0390 -0.5141
 8869SOL    HW138069   1.738   3.835   2.462 -0.9840  0.1569  0.1634
 8869SOL    HW238070   1.614   3.875   2.408  0.4687  0.5600  1.7031
 8870SOL     OW38071   2.665   3.309   2.167 -0.4716  0.2910 -0.3230
 8870SOL    HW138072   2.619   3.251   2.227  0.9459 -1.8828 -1.3381
 8870SOL    HW238073   2.644   3.270   2.083  2.6007 -2.0429 -0.0227
 8871SOL     OW38074   1.897   0.239   3.560  0.2615  0.0522 -0.1416
 8871SOL    HW138075   1.932   0.293   3.490  0.3334  0.4017  0.1631
 8871SOL    HW238076   1.886   0.310   3.623  0.6237 -0.6288  0.6981
 8872SOL     OW38077   3.101   0.943   1.650  0.5227  0.0838 -0.1606
 8872SOL    HW138078   3.082   0.957   1.557  0.4422  0.3518 -0.1058
 8872SOL    HW238079   3.067   0.855   1.664  0.7986 -0.2420 -1.4995
 8873SOL     OW38080   1.951   3.918   4.491 -0.0193 -0.2858 -0.3355
 8873SOL    HW138081   1.903   3.969   4.426 -0.4387 -1.2940 -0.8131
 8873SOL    HW238082   1.882   3.851   4.484 -0.8381  0.5567 -0.3263
 8874SOL     OW38083   3.493   3.409   5.909  0.2276  0.5497 -0.4235
 8874SOL    HW138084   3.577   3.364   5.898 -0.7267 -1.8883  2.2182
 8874SOL    HW238085   3.507   3.444   5.997  0.1796 -0.2286 -0.1060
 8875SOL     OW38086   3.924   1.234   3.402  0.2038 -0.0251  0.1391
 8875SOL    HW138087   4.012   1.195   3.399  0.2276  0.1038 -0.8076
 8875SOL    HW238088   3.895   1.218   3.491 -1.5270  0.0154 -0.4327
 8876SOL     OW38089   3.280   2.301  13.051 -0.1376 -0.1447 -0.4582
 8876SOL    HW138090   3.245   2.284  12.963  0.9012 -0.1783 -0.8641
 8876SOL    HW238091   3.356   2.245  13.038 -1.1469 -1.3790 -1.0198
 8877SOL     OW38092   1.479   3.116   0.477 -0.0256 -0.4038  0.8552
 8877SOL    HW138093   1.551   3.085   0.421  0.0715 -0.9985  1.3087
 8877SOL    HW238094   1.399   3.090   0.432  0.5560  0.9020 -0.9099
 8878SOL     OW38095   3.742   3.690   9.236  0.6009  0.2171  0.6900
 8878SOL    HW138096   3.775   3.684   9.326  1.4714 -1.1490  0.2790
 8878SOL    HW238097   3.792   3.764   9.201  0.2371  0.3997  0.5570
 8879SOL     OW38098   4.448   0.636   8.979 -0.3257 -0.2415 -0.2298
 8879SOL    HW138099   4.543   0.643   8.991 -0.5781  1.5120  0.8623
 8879SOL    HW238100   4.444   0.578   8.903  2.3489 -1.0599  0.2379
 8880SOL     OW38101   3.745   1.655   4.367 -0.0954  0.2055  0.0578
 8880SOL    HW138102   3.689   1.730   4.389  0.0847  0.7472 -1.3603
 8880SOL    HW238103   3.699   1.621   4.291 -0.8064  0.3773  0.4055
 8881SOL     OW38104   0.472   3.959   1.861  0.0399  0.3902 -0.4332
 8881SOL    HW138105   0.420   3.914   1.927  1.0796  1.2956  1.0105
 8881SOL    HW238106   0.561   3.945   1.892  0.3720 -0.3150 -1.7014
 8882SOL     OW38107   0.031   2.934   5.709 -1.1606 -1.0727  0.2528
 8882SOL    HW138108   4.713   2.956   5.792 -0.5713 -0.6671  0.4376
 8882SOL    HW238109   0.094   2.864   5.727  1.2792  1.0855  0.0745
 8883SOL     OW38110   4.211   1.828   6.488 -0.0134 -0.2204 -0.0184
 8883SOL    HW138111   4.274   1.779   6.541  1.8728  1.4302 -0.7344
 8883SOL    HW238112   4.147   1.864   6.550  0.7316  1.3308 -0.1469
 8884SOL     OW38113   1.509   4.554   7.198  0.6371  0.2231  0.2259
 8884SOL    HW138114   1.533   4.485   7.136 -1.3175 -0.0692 -0.2091
 8884SOL    HW238115   1.496   4.499   7.275  2.4449 -4.2120 -2.5953
 8885SOL     OW38116   0.667   1.630   5.799  0.2749  0.2816  0.4743
 8885SOL    HW138117   0.714   1.593   5.874 -0.1968  0.2427  0.7490
 8885SOL    HW238118   0.585   1.582   5.806  0.1591  0.1682 -1.8963
 8886SOL     OW38119   2.199   4.227  12.131  0.2987 -0.1439  0.2311
 8886SOL    HW138120   2.110   4.244  12.162  0.9775 -0.1445  2.1580
 8886SOL    HW238121   2.245   4.254  12.211 -0.4268  0.6823  0.3731
 8887SOL     OW38122   1.687   4.652   4.341 -0.3651  0.2620  0.1381
 8887SOL    HW138123   1.627   4.662   4.415 -1.0477 -0.0548 -0.3715
 8887SOL    HW238124   1.661   0.004   4.286  0.1343  0.1537 -0.2452
 8888SOL     OW38125   0.911   2.877  10.139  0.1188  0.0223 -0.3928
 8888SOL    HW138126   0.899   2.821  10.063 -1.8837 -0.0316 -0.0310
 8888SOL    HW238127   0.936   2.962  10.103  0.8159 -0.1728 -0.3616
 8889SOL     OW38128   2.198   2.641  10.817 -0.6964  0.4594 -0.5685
 8889SOL    HW138129   2.226   2.728  10.847 -1.2334  0.2917  0.4244
 8889SOL    HW238130   2.139   2.611  10.886 -0.4711 -0.0128 -0.5833
 8890SOL     OW38131   0.449   0.184   4.635  0.5832 -0.3590 -0.7449
 8890SOL    HW138132   0.463   0.261   4.690  0.6541 -1.7891  1.2347
 8890SOL    HW238133   0.462   0.214   4.545  0.4768 -0.2491 -0.7242
 8891SOL     OW38134   1.693   3.641   7.405  0.6603 -0.5535  0.4325
 8891SOL    HW138135   1.732   3.689   7.478  1.6196 -0.3320 -0.2273
 8891SOL    HW238136   1.618   3.610   7.456 -0.3887 -2.2780 -2.1392
 8892SOL     OW38137   4.048   4.162  10.039  0.3256 -0.6561  0.1085
 8892SOL    HW138138   4.071   4.111   9.962 -0.8593 -1.2027  0.1274
 8892SOL    HW238139   4.063   4.252  10.009  0.8832  0.4064  3.5053
 8893SOL     OW38140   2.525   2.573   8.076 -0.5517  0.3150  0.3529
 8893SOL    HW138141   2.510   2.559   7.982 -0.6500  2.8576 -0.0282
 8893SOL    HW238142   2.549   2.490   8.117 -0.8108 -0.0821 -0.2956
 8894SOL     OW38143   3.942   4.356   7.020  0.0007 -0.1749  0.3122
 8894SOL    HW138144   3.857   4.334   7.057  0.9029 -0.1117  2.4484
 8894SOL    HW238145   3.917   4.401   6.940  0.3726  0.0317  0.3124
 8895SOL     OW38146   4.546   1.982   3.137  0.3734 -0.5189 -0.2993
 8895SOL    HW138147   4.511   2.070   3.137  0.3230 -0.5409  0.1305
 8895SOL    HW238148   4.623   1.989   3.080  0.9527 -0.7217  0.4506
 8896SOL     OW38149   0.440   1.454   9.236  0.5517  0.1931  0.5249
 8896SOL    HW138150   0.452   1.517   9.306  1.5467  0.7254 -0.1124
 8896SOL    HW238151   0.439   1.378   9.294  2.1387  0.3869  0.8285
 8897SOL     OW38152   1.307   4.501   6.928 -0.4239 -0.0524  0.1739
 8897SOL    HW138153   1.388   4.469   6.968  0.3303  2.8364  0.9667
 8897SOL    HW238154   1.277   4.556   7.001 -1.9575  0.4296 -0.8276
 8898SOL     OW38155   1.939   0.156   3.956  0.2643 -0.1512 -0.1534
 8898SOL    HW138156   1.969   0.136   4.045 -2.5879 -1.5890  0.4685
 8898SOL    HW238157   1.932   0.072   3.910 -1.9713  0.3324 -0.6985
 8899SOL     OW38158   3.311   0.122  12.077 -0.2364 -0.2431 -0.0366
 8899SOL    HW138159   3.272   0.038  12.104  0.0486 -0.3057  0.1898
 8899SOL    HW238160   3.330   0.113  11.984 -0.5338 -1.6347  0.0305
 8900SOL     OW38161   1.664   3.883   2.012  0.8991  0.2972  0.0085
 8900SOL    HW138162   1.621   3.804   2.045 -0.6057  1.7964  1.6387
 8900SOL    HW238163   1.714   3.845   1.940  0.7096  0.9557 -0.4657
 8901SOL     OW38164   4.109   3.746   9.728 -0.1786 -0.1804 -0.1922
 8901SOL    HW138165   4.168   3.681   9.691  0.1679 -0.3156  0.5921
 8901SOL    HW238166   4.026   3.721   9.688 -0.5507 -1.7642  1.5614
 8902SOL     OW38167   0.099   0.051   6.989  0.6342  0.1410 -0.3543
 8902SOL    HW138168   0.190   0.042   7.020  0.4799  1.0593  0.3762
 8902SOL    HW238169   0.060   4.722   7.059  1.5094 -0.2679 -0.1624
 8903SOL     OW38170   2.916   0.360   1.049 -0.2932 -0.7341 -0.0938
 8903SOL    HW138171   2.951   0.288   1.101  1.2481  0.1600  0.1232
 8903SOL    HW238172   2.995   0.382   1.000 -0.8906 -0.4904 -0.9493
 8904SOL     OW38173   2.926   1.644   3.398 -0.2166 -0.0092  0.0687
 8904SOL    HW138174   2.872   1.654   3.319  2.5111 -1.4416 -1.9680
 8904SOL    HW238175   3.003   1.590   3.382  0.2597  0.9404 -0.7846
 8905SOL     OW38176   4.203   3.775   3.549 -0.1935 -0.4009  0.4543
 8905SOL    HW138177   4.255   3.817   3.618 -0.6661 -1.2817  1.3524
 8905SOL    HW238178   4.261   3.704   3.525 -0.1634 -0.9877  2.2410
 8906SOL     OW38179   3.759   2.059   8.390  0.1949 -0.7194  0.4836
 8906SOL    HW138180   3.854   2.045   8.396  0.4093  0.7574  0.6069
 8906SOL    HW238181   3.739   2.136   8.445 -0.2910  3.7481 -5.9652
 8907SOL     OW38182   0.721   1.649  10.825  0.1090  0.5737 -0.1328
 8907SOL    HW138183   0.723   1.579  10.890 -2.1346  0.3323 -0.3215
 8907SOL    HW238184   0.772   1.606  10.757 -0.7433  0.3447 -0.6333
 8908SOL     OW38185   4.002   0.118   4.652  0.4085 -0.0712 -0.7550
 8908SOL    HW138186   3.995   0.193   4.711  0.4621 -0.1067 -0.7025
 8908SOL    HW238187   3.973   0.162   4.573  0.9938  0.7891 -0.4887
 8909SOL     OW38188   3.974   3.224  14.428  0.2050  0.0333  0.3025
 8909SOL    HW138189   3.982   3.318  14.412 -0.7596  0.3529  1.7171
 8909SOL    HW238190   4.031   3.206  14.503 -0.4596  0.8952  1.0062
 8910SOL     OW38191   0.937   0.966   3.962  0.0855  0.0418  0.5907
 8910SOL    HW138192   1.011   0.972   4.022  1.4973 -1.1552 -1.0320
 8910SOL    HW238193   0.863   1.010   4.005  0.6165  0.1718  1.3710
 8911SOL     OW38194   1.415   2.007   6.575  0.6600 -0.0712  0.7643
 8911SOL    HW138195   1.398   2.081   6.516  1.3801  1.8783  2.9882
 8911SOL    HW238196   1.500   1.972   6.547  0.6338 -0.5264  1.2644
 8912SOL     OW38197   3.486   2.137  12.935  0.8838 -0.1651  0.3007
 8912SOL    HW138198   3.511   2.049  12.905 -0.2791 -1.0150  1.8422
 8912SOL    HW238199   3.476   2.171  12.846  3.0174 -0.3548  0.0002
 8913SOL     OW38200   0.255   2.608   3.699 -0.3803 -0.2959 -0.2877
 8913SOL    HW138201   0.272   2.634   3.608 -3.3115  0.6036 -0.5516
 8913SOL    HW238202   0.305   2.528   3.718 -0.5552 -0.7627 -1.7506
 8914SOL     OW38203   4.266   2.354   9.915 -0.2533 -0.0280  0.0990
 8914SOL    HW138204   4.314   2.275   9.893 -1.0583 -0.3455 -0.5254
 8914SOL    HW238205   4.278   2.341  10.009  1.3791 -1.5667 -0.3298
 8915SOL     OW38206   2.494   0.176   7.946 -0.3599  0.2013 -0.2195
 8915SOL    HW138207   2.579   0.168   7.903  0.2291  0.5262  0.8879
 8915SOL    HW238208   2.517   0.156   8.037  1.1056  3.5228  0.1158
 8916SOL     OW38209   1.830   2.112   0.707  0.2426  0.0509  0.6867
 8916SOL    HW138210   1.847   2.187   0.650 -0.4158  0.0128  0.4376
 8916SOL    HW238211   1.876   2.146   0.783  3.8749  0.1951 -1.5897
 8917SOL     OW38212   2.237   4.533   1.311  0.3529  0.6331  0.2272
 8917SOL    HW138213   2.285   4.486   1.379 -0.9602 -1.1629 -0.1120
 8917SOL    HW238214   2.217   4.452   1.264 -1.2252  1.4230 -0.4262
 8918SOL     OW38215   3.777   1.531   8.487 -0.4746  0.4183  0.2096
 8918SOL    HW138216   3.711   1.465   8.466  1.7554 -1.8269  0.2438
 8918SOL    HW238217   3.727   1.613   8.491  0.6710  1.1774 -0.9132
 8919SOL     OW38218   2.709   3.774  10.581 -0.0978 -0.5458 -0.4412
 8919SOL    HW138219   2.719   3.763  10.676  3.5977 -0.2620 -0.7838
 8919SOL    HW238220   2.642   3.842  10.577 -1.2263 -1.7004 -1.3122
 8920SOL     OW38221   4.425   3.722   4.200 -0.0335  0.0774  0.5113
 8920SOL    HW138222   4.342   3.683   4.170  2.2931 -1.9786 -3.3444
 8920SOL    HW238223   4.431   3.806   4.154 -0.2303 -1.3528 -2.1615
 8921SOL     OW38224   4.672   2.037   4.890  0.8606  0.4921  0.0357
 8921SOL    HW138225   4.648   2.049   4.982 -1.0812 -0.8943 -0.2690
 8921SOL    HW238226   4.714   1.951   4.894  0.6401  0.4231  0.8833
 8922SOL     OW38227   0.285   2.089  13.548 -0.4616  0.5605 -0.4625
 8922SOL    HW138228   0.244   2.099  13.634  1.4370 -2.4545  0.8184
 8922SOL    HW238229   0.301   1.994  13.543  0.1884  0.7545 -2.1992
 8923SOL     OW38230   1.276   0.695   6.646 -0.0458 -0.5561  0.6118
 8923SOL    HW138231   1.251   0.780   6.611 -0.4335 -1.4453 -1.3251
 8923SOL    HW238232   1.239   0.707   6.733  1.8485 -1.6549  1.5899
 8924SOL     OW38233   4.704   3.628   6.754  0.0484  0.2768 -0.0990
 8924SOL    HW138234   0.068   3.655   6.725 -0.5645  0.0667 -2.1591
 8924SOL    HW238235   4.686   3.566   6.683  0.9849  0.8146 -0.8057
 8925SOL     OW38236   1.390   1.721  16.693 -0.4713  0.4292 -0.3998
 8925SOL    HW138237   1.301   1.756  16.693 -0.8022 -0.3921 -0.6976
 8925SOL    HW238238   1.358   1.632  16.674 -0.6160  0.7137 -1.4682
 8926SOL     OW38239   4.458   0.235   4.309 -0.0574 -0.1893  0.1474
 8926SOL    HW138240   4.368   0.246   4.278 -0.3503 -1.6378  0.5128
 8926SOL    HW238241   4.491   0.168   4.249 -0.1798 -0.0366 -0.0944
 8927SOL     OW38242   3.531   4.530  17.671  0.0288 -0.1548  0.2618
 8927SOL    HW138243   3.481   4.608  17.651  0.0709 -0.1613  0.1309
 8927SOL    HW238244   3.532   4.533   0.073  1.2271 -1.8067  0.3055
 8928SOL     OW38245   3.823   2.091   8.981  0.6175 -0.2851 -0.3750
 8928SOL    HW138246   3.810   2.155   9.051  2.1366 -0.2685 -0.1141
 8928SOL    HW238247   3.908   2.118   8.948  0.9876  2.1370  2.4917
 8929SOL     OW38248   0.941   2.628   4.290 -0.7198 -0.0220  0.4718
 8929SOL    HW138249   0.935   2.633   4.195 -3.0925 -1.0822  0.5804
 8929SOL    HW238250   0.923   2.534   4.301  1.3623 -0.3441  1.1698
 8930SOL     OW38251   3.353   0.525   4.745 -0.6781 -0.2434  0.3466
 8930SOL    HW138252   3.408   0.595   4.711 -1.3919 -0.1439 -0.6153
 8930SOL    HW238253   3.420   0.461   4.770 -0.2564 -0.6684 -1.8572
 8931SOL     OW38254   4.634   1.106   7.256 -0.1984 -0.1316  0.2004
 8931SOL    HW138255   4.675   1.059   7.184 -2.2398 -1.3444 -0.1654
 8931SOL    HW238256   4.664   1.197   7.250  0.3165 -0.3707 -0.8430
 8932SOL     OW38257   1.894   2.928   4.403 -0.3671 -0.6140 -0.1757
 8932SOL    HW138258   1.805   2.896   4.389 -0.1444 -1.7756  1.0883
 8932SOL    HW238259   1.931   2.941   4.315  0.5558 -0.5459  0.2159
 8933SOL     OW38260   3.898   1.601   9.356  0.0175 -0.4283  0.1906
 8933SOL    HW138261   3.980   1.558   9.380 -1.2535 -2.1987  1.3387
 8933SOL    HW238262   3.938   1.688   9.356  1.3218 -1.0280  2.2781
 8934SOL     OW38263   3.285   2.619   3.961  0.0544  0.0084 -0.3799
 8934SOL    HW138264   3.223   2.601   3.890  0.1101  1.2826 -0.7598
 8934SOL    HW238265   3.266   2.712   3.977 -0.5765 -0.4662  1.6410
 8935SOL     OW38266   4.007   2.330   6.920 -0.1528 -0.1172  0.6968
 8935SOL    HW138267   3.952   2.257   6.950  0.6899  0.0118  2.5289
 8935SOL    HW238268   4.000   2.385   6.998 -0.1590  1.7104 -0.6077
 8936SOL     OW38269   2.105   4.120   6.837 -0.2885 -0.5723 -0.2816
 8936SOL    HW138270   2.145   4.148   6.755 -1.9472 -1.1607 -1.2863
 8936SOL    HW238271   2.172   4.143   6.902 -0.7714 -1.2345  0.4512
 8937SOL     OW38272   2.289   0.276   0.474  0.4568  0.2424 -0.8405
 8937SOL    HW138273   2.212   0.227   0.444  0.2028  0.1889 -0.0922
 8937SOL    HW238274   2.346   0.225   0.416 -2.2857  0.3332 -3.6655
 8938SOL     OW38275   1.225   3.015   7.547  0.2075 -0.5979  0.3567
 8938SOL    HW138276   1.318   3.032   7.537 -0.0339 -0.7900 -2.2293
 8938SOL    HW238277   1.200   3.107   7.543 -1.4954 -1.0794 -0.0700
 8939SOL     OW38278   1.176   2.929   8.980  0.9526  0.2068  0.2555
 8939SOL    HW138279   1.179   2.857   8.917 -4.2098  1.8644 -1.8708
 8939SOL    HW238280   1.208   2.894   9.064  0.5610  0.1373  0.3754
 8940SOL     OW38281   4.305   2.422   8.076  0.0079  0.0531  0.0190
 8940SOL    HW138282   4.340   2.493   8.130  0.8825 -1.0636  0.9236
 8940SOL    HW238283   4.250   2.465   8.011 -2.2500 -3.5532 -0.4656
 8941SOL     OW38284   0.060   1.435  10.278 -0.5149 -0.0409 -0.2315
 8941SOL    HW138285   4.709   1.398  10.325 -1.1039  1.9604  0.4478
 8941SOL    HW238286   0.133   1.382  10.308 -1.9217 -1.7988  0.0561
 8942SOL     OW38287   2.911   1.325   2.500 -0.3902 -0.4184 -0.0503
 8942SOL    HW138288   2.880   1.403   2.453 -1.5929 -1.0136 -0.2463
 8942SOL    HW238289   2.982   1.360   2.554 -1.1423  0.9566  0.0427
 8943SOL     OW38290   4.058   3.553   8.413 -0.1289 -0.5701 -0.1731
 8943SOL    HW138291   4.003   3.617   8.367 -1.2541 -2.4589 -1.4454
 8943SOL    HW238292   4.092   3.616   8.477 -0.2631 -0.2155 -0.4574
 8944SOL     OW38293   2.731   4.644   1.135 -0.4607 -0.0516 -0.7531
 8944SOL    HW138294   2.649   4.688   1.157  0.9025  2.2655 -0.3672
 8944SOL    HW238295   2.758   4.702   1.064 -1.4765 -0.1163 -1.1966
 8945SOL     OW38296   4.716   3.440  11.055 -0.3699 -0.4421  0.1943
 8945SOL    HW138297   0.052   3.477  11.121 -2.3478  1.5329  0.8540
 8945SOL    HW238298   4.630   3.473  11.082 -0.1898 -0.7860  1.1944
 8946SOL     OW38299   3.775   4.264   4.201  0.0693  0.2154 -0.0326
 8946SOL    HW138300   3.803   4.217   4.279  2.8763 -0.4816 -1.4505
 8946SOL    HW238301   3.815   4.350   4.216  0.6820  0.0488 -0.7178
 8947SOL     OW38302   4.635   3.830   5.825 -0.0731  0.3698 -0.0974
 8947SOL    HW138303   4.567   3.847   5.759  0.2106 -0.9489 -0.7171
 8947SOL    HW238304   4.691   3.760   5.793 -1.6144 -1.5138  1.3051
 8948SOL     OW38305   3.005   0.105   3.836  0.2044 -0.1519 -0.3213
 8948SOL    HW138306   3.052   0.160   3.899  1.0537 -1.0757 -0.1495
 8948SOL    HW238307   3.006   0.163   3.761  0.4399  2.0944  1.4290
 8949SOL     OW38308   3.017   1.758  14.822  0.2309 -0.2808 -0.6649
 8949SOL    HW138309   3.019   1.678  14.769  1.0133  0.3709 -1.6250
 8949SOL    HW238310   3.101   1.794  14.794 -0.7769  1.3467 -1.6169
 8950SOL     OW38311   3.740   1.988   7.683  0.0729  0.2479  0.0402
 8950SOL    HW138312   3.713   2.077   7.703  0.6047  0.2392  0.8041
 8950SOL    HW238313   3.771   1.964   7.770 -2.6669  2.8329  1.7230
 8951SOL     OW38314   0.747   3.382   7.233 -0.0859  0.1179  0.1696
 8951SOL    HW138315   0.685   3.411   7.301  0.9266  0.1150  1.1029
 8951SOL    HW238316   0.696   3.335   7.168 -1.5809 -0.2539  1.6104
 8952SOL     OW38317   1.894   2.738   4.729 -0.6357 -0.0268 -0.0789
 8952SOL    HW138318   1.990   2.740   4.730 -0.6760  1.8091  1.3618
 8952SOL    HW238319   1.870   2.695   4.647  1.1054  1.0459 -1.1439
 8953SOL     OW38320   1.198   0.079   7.358 -0.4748 -0.8234  0.4215
 8953SOL    HW138321   1.212   0.129   7.438  0.1655  0.0640 -0.2399
 8953SOL    HW238322   1.105   0.100   7.349  0.3477  1.8111 -2.1567
 8954SOL     OW38323   0.004   2.218   3.922  0.0696 -0.1393  0.4050
 8954SOL    HW138324   4.694   2.187   3.838  0.3341  0.9633 -0.1046
 8954SOL    HW238325   4.723   2.313   3.926  3.9902 -0.0452  2.3010
 8955SOL     OW38326   0.583   1.293  16.182 -0.0659  0.2927  0.4075
 8955SOL    HW138327   0.503   1.250  16.212 -0.1205 -1.4833 -2.2826
 8955SOL    HW238328   0.580   1.374  16.232  0.2257 -0.4295  1.5988
 8956SOL     OW38329   1.052   3.597  16.638  0.6060 -0.2813  0.2816
 8956SOL    HW138330   1.081   3.601  16.729  1.1365 -1.4604  0.1739
 8956SOL    HW238331   1.065   3.688  16.614 -3.5199  0.6153  1.5329
 8957SOL     OW38332   0.105   4.452  15.714 -0.4193  0.1888  0.3874
 8957SOL    HW138333   0.054   4.405  15.647 -0.6925  0.3545  0.4785
 8957SOL    HW238334   0.054   4.532  15.706  0.5228  0.6522 -0.9713
 8958SOL     OW38335   0.361   0.910   8.008  0.1602 -0.1031 -0.3050
 8958SOL    HW138336   0.392   0.981   8.064  2.3816 -0.0107 -1.6323
 8958SOL    HW238337   0.291   0.885   8.068 -0.1493 -1.0755 -1.0755
 8959SOL     OW38338   4.173   0.309   5.681  0.1320 -0.5928 -0.0458
 8959SOL    HW138339   4.194   0.284   5.771 -0.7793  1.3508  0.7058
 8959SOL    HW238340   4.081   0.337   5.680  0.4182  0.3602  0.0839
 8960SOL     OW38341   4.604   4.710   3.371  0.1695  0.5357 -0.0993
 8960SOL    HW138342   4.670   4.698   3.303 -0.4532 -1.1122 -0.4142
 8960SOL    HW238343   4.579   0.079   3.359  1.8556  1.2507  1.8687
 8961SOL     OW38344   3.193   1.853   5.302 -0.7109 -0.3285 -0.8749
 8961SOL    HW138345   3.177   1.873   5.394  1.1748 -0.6131 -0.4680
 8961SOL    HW238346   3.277   1.900   5.303 -1.8890  1.7419  1.8512
 8962SOL     OW38347   0.065   3.187  12.687 -0.2179  0.0958  0.1756
 8962SOL    HW138348   4.723   3.192  12.617 -0.1405  0.0849  0.1025
 8962SOL    HW238349   0.140   3.178  12.628 -0.8285  2.1879 -0.8970
 8963SOL     OW38350   0.122   1.480   8.969  0.0103  0.3269 -0.0181
 8963SOL    HW138351   0.192   1.486   8.903  0.2730 -0.2790  0.2051
 8963SOL    HW238352   0.104   1.574   8.975  0.9651  0.6679 -2.3129
 8964SOL     OW38353   3.864   4.040   7.260 -0.6464 -0.3439 -0.1198
 8964SOL    HW138354   3.787   4.023   7.206 -0.3430  1.7313 -1.2173
 8964SOL    HW238355   3.920   4.067   7.188 -0.1509 -1.3229 -0.0991
 8965SOL     OW38356   2.741   0.849  16.055 -0.0243 -0.2295  0.1390
 8965SOL    HW138357   2.766   0.757  16.040  2.0689  0.6907 -1.8514
 8965SOL    HW238358   2.790   0.863  16.136  0.5197  1.3488 -0.4802
 8966SOL     OW38359   3.117   1.342   9.738  0.6276  0.2068 -0.8613
 8966SOL    HW138360   3.180   1.274   9.759  1.4323  0.7957 -1.3833
 8966SOL    HW238361   3.087   1.329   9.647 -1.0182  0.9219 -0.4224
 8967SOL     OW38362   1.151   3.571   4.977 -0.4295  0.3330 -0.5767
 8967SOL    HW138363   1.089   3.530   4.917 -2.7416  1.6263  0.9249
 8967SOL    HW238364   1.154   3.656   4.933 -0.6521  0.1612 -0.9247
 8968SOL     OW38365   4.065   2.919  16.021 -0.4981 -0.5221  0.4311
 8968SOL    HW138366   4.015   2.940  16.100  0.9055  0.6275  1.0057
 8968SOL    HW238367   4.141   2.976  16.030 -1.3285  0.2661  2.3604
 8969SOL     OW38368   0.823   2.007   0.637 -0.1369 -0.0257  0.2925
 8969SOL    HW138369   0.759   1.945   0.604 -1.5016  1.0377  0.9334
 8969SOL    HW238370   0.900   1.950   0.648 -1.3334 -1.5992  0.4154
 8970SOL     OW38371   4.392   2.270  14.452  0.2431 -0.2168 -0.3835
 8970SOL    HW138372   4.361   2.356  14.424  0.7800  1.2192  3.5055
 8970SOL    HW238373   4.307   2.230  14.472 -0.2865 -0.7423 -3.6461
 8971SOL     OW38374   0.608   4.719   7.201 -0.3257  0.2208  0.3026
 8971SOL    HW138375   0.684   4.670   7.170  0.3258  0.2566  1.8431
 8971SOL    HW238376   0.576   4.653   7.263 -0.8221  1.6051  1.5220
 8972SOL     OW38377   2.493   2.691   3.488  0.3309 -0.1147  0.6203
 8972SOL    HW138378   2.448   2.769   3.521  1.4921  1.0044 -0.4825
 8972SOL    HW238379   2.450   2.677   3.404 -1.6625  0.4576  1.5442
 8973SOL     OW38380   0.120   2.749   8.175  0.0839 -0.4772 -0.4550
 8973SOL    HW138381   0.099   2.703   8.257  1.0405 -0.1367 -0.0185
 8973SOL    HW238382   0.184   2.815   8.201 -0.9440  0.0355  0.7781
 8974SOL     OW38383   3.219   1.967  17.141 -0.5606  0.4620 -0.5638
 8974SOL    HW138384   3.211   2.035  17.074  0.9843  1.5030  0.3139
 8974SOL    HW238385   3.159   2.001  17.207  0.3860  1.3988 -0.1855
 8975SOL     OW38386   2.967   2.846   7.305 -0.0422  0.1254 -0.4535
 8975SOL    HW138387   2.938   2.775   7.249 -0.7000  0.9280 -1.1320
 8975SOL    HW238388   3.061   2.828   7.306 -0.0437  0.1354 -0.1004
 8976SOL     OW38389   1.619   2.322   9.033  0.0960  0.5366 -0.3258
 8976SOL    HW138390   1.599   2.249   8.975 -0.1038 -0.0509  0.4772
 8976SOL    HW238391   1.582   2.283   9.112 -0.7745  2.2231  0.0937
 8977SOL     OW38392   1.499   4.307   7.105 -0.3138 -0.7134 -0.8336
 8977SOL    HW138393   1.488   4.234   7.044 -0.3623  0.5473 -2.3473
 8977SOL    HW238394   1.450   4.274   7.181 -1.3808  4.2223  0.5952
 8978SOL     OW38395   3.775   2.552   8.122  0.0006 -0.0653 -0.0034
 8978SOL    HW138396   3.870   2.556   8.132 -0.1503  0.1799  1.3459
 8978SOL    HW238397   3.731   2.563   8.206 -1.1185  1.1124 -0.7288
 8979SOL     OW38398   1.049   0.230   4.261  0.5606  0.2383  0.2804
 8979SOL    HW138399   1.053   0.213   4.355 -0.4984  0.5719  0.3884
 8979SOL    HW238400   1.142   0.237   4.240  0.7246 -0.1238  0.8682
 8980SOL     OW38401   2.893   3.494   5.196  0.3122  0.4063 -0.1665
 8980SOL    HW138402   2.938   3.442   5.262  1.1963  1.6372  0.2086
 8980SOL    HW238403   2.845   3.420   5.158  0.2301  0.0783  0.5852
 8981SOL     OW38404   0.678   3.558   6.064  0.4671 -0.1342 -0.1676
 8981SOL    HW138405   0.739   3.614   6.113 -0.4477 -1.2451  2.2832
 8981SOL    HW238406   0.634   3.632   6.022  1.3089  0.2134 -0.4412
 8982SOL     OW38407   1.450   0.517   5.120  0.0785  0.3549  0.3780
 8982SOL    HW138408   1.366   0.490   5.083 -0.4647  1.9959  0.3921
 8982SOL    HW238409   1.417   0.603   5.147  2.7935  1.2628  0.7450
 8983SOL     OW38410   0.754   1.279   9.393 -0.3781 -0.1359 -0.0938
 8983SOL    HW138411   0.795   1.249   9.312  1.5519  1.5685  0.2367
 8983SOL    HW238412   0.755   1.374   9.380 -0.4648 -0.1870 -0.4584
 8984SOL     OW38413   3.975   0.858   3.380 -0.4367 -0.6408  0.5696
 8984SOL    HW138414   3.978   0.865   3.475  0.1990  0.6837  0.4451
 8984SOL    HW238415   3.884   0.827   3.372 -0.2575 -1.4786  1.7399
 8985SOL     OW38416   0.766   2.529  16.813  0.0121  0.8179  0.3488
 8985SOL    HW138417   0.764   2.558  16.904 -2.2021  0.3582  0.4636
 8985SOL    HW238418   0.741   2.606  16.762 -0.5159 -0.2561 -1.0239
 8986SOL     OW38419   4.576   1.208  10.330 -0.2825 -0.1727 -0.0104
 8986SOL    HW138420   4.542   1.206  10.240 -0.6800 -1.6303  0.1771
 8986SOL    HW238421   4.544   1.127  10.369  3.5491 -1.3213  0.7455
 8987SOL     OW38422   2.492   3.186   2.973 -0.3955 -0.5035  0.1192
 8987SOL    HW138423   2.513   3.150   2.886 -1.7011  2.0343 -1.2374
 8987SOL    HW238424   2.547   3.137   3.035 -0.3925 -0.3923  0.2037
 8988SOL     OW38425   4.087   0.711  13.516  0.6281  0.3316  0.0320
 8988SOL    HW138426   4.022   0.719  13.586  0.7945 -0.5274  0.2799
 8988SOL    HW238427   4.127   0.797  13.528 -1.1063  1.0978  0.2926
 8989SOL     OW38428   1.278   3.388   8.510 -0.4343 -0.0203 -0.8447
 8989SOL    HW138429   1.191   3.350   8.502 -0.5838  0.2785 -0.6554
 8989SOL    HW238430   1.284   3.386   8.606 -0.0849  0.6420 -0.8556
 8990SOL     OW38431   0.168   0.736   2.255  0.0395  0.2457 -0.0944
 8990SOL    HW138432   0.081   0.775   2.264  0.4358  1.8697 -3.1991
 8990SOL    HW238433   0.155   0.644   2.275 -0.6561  0.7416  1.7205
 8991SOL     OW38434   0.692   3.610   7.089  0.1150 -0.3138 -0.4067
 8991SOL    HW138435   0.702   3.536   7.149 -2.3115 -0.3629 -0.0735
 8991SOL    HW238436   0.743   3.675   7.137  1.0502 -1.8771  0.6849
 8992SOL     OW38437   2.269   2.884   8.566  0.5777  0.2461  0.1913
 8992SOL    HW138438   2.227   2.813   8.518  0.2322 -0.3659  1.4031
 8992SOL    HW238439   2.195   2.939   8.594 -0.4218 -0.0362 -1.8513
 8993SOL     OW38440   1.707   1.415  12.122  0.4195 -0.4369 -0.0059
 8993SOL    HW138441   1.709   1.375  12.209  2.0237 -0.1294  0.0997
 8993SOL    HW238442   1.616   1.402  12.097 -0.0872  0.4549  1.3651
 8994SOL     OW38443   1.353   1.557   7.827 -0.3150 -0.0368 -0.2415
 8994SOL    HW138444   1.445   1.559   7.801 -0.3247  0.7054 -0.1975
 8994SOL    HW238445   1.327   1.466   7.810 -0.2442 -0.3336  1.2165
 8995SOL     OW38446   2.944   1.399   5.651  0.5116 -0.7688  0.3471
 8995SOL    HW138447   3.010   1.465   5.631 -1.7610  1.4605  0.1897
 8995SOL    HW238448   2.956   1.396   5.746 -1.0348  1.5083  0.6145
 8996SOL     OW38449   4.258   0.851   4.677 -0.0770  0.2317 -0.1880
 8996SOL    HW138450   4.232   0.914   4.744  0.3072  1.5262 -1.2591
 8996SOL    HW238451   4.182   0.861   4.620 -1.3708 -2.2368  1.0722
 8997SOL     OW38452   0.916   3.078  16.615 -0.3875 -0.1140 -0.3250
 8997SOL    HW138453   0.970   3.117  16.547  1.9588 -0.3754  1.3795
 8997SOL    HW238454   0.956   3.100  16.700 -0.3048  0.4865 -0.5217
 8998SOL     OW38455   4.676   3.695   3.796  0.2973  0.2527  1.1924
 8998SOL    HW138456   0.043   3.678   3.822  0.7143 -0.3056 -0.6096
 8998SOL    HW238457   4.679   3.791   3.803 -2.1243  0.2424  2.5182
 8999SOL     OW38458   3.312   4.482   6.633 -0.3679  0.4289 -0.0818
 8999SOL    HW138459   3.397   4.499   6.674  0.1908 -1.5281 -0.4178
 8999SOL    HW238460   3.326   4.501   6.540 -2.4563 -0.7279 -0.6417
 9000SOL     OW38461   0.954   0.848  10.132 -0.1117  0.3616 -0.0001
 9000SOL    HW138462   1.023   0.914  10.131 -0.4949  0.7629  0.5351
 9000SOL    HW238463   0.877   0.903  10.135  1.2456  2.2228  0.8127
 9001SOL     OW38464   3.863   2.325   7.685 -0.1976 -0.3981  0.5735
 9001SOL    HW138465   3.945   2.276   7.674 -0.0857 -0.1959  0.5022
 9001SOL    HW238466   3.804   2.298   7.615 -0.5202  0.9440  0.3350
 9002SOL     OW38467   4.242   2.697  10.798 -0.4083 -0.6260 -0.2203
 9002SOL    HW138468   4.271   2.768  10.856  3.4084 -0.2289 -2.5754
 9002SOL    HW238469   4.289   2.714  10.716  2.0175 -2.8042  0.7112
 9003SOL     OW38470   3.549   4.298  15.375 -0.3523 -0.1791  0.2369
 9003SOL    HW138471   3.458   4.271  15.387 -0.9959  0.8275 -2.4188
 9003SOL    HW238472   3.600   4.217  15.377 -0.6056 -0.3286  0.7827
 9004SOL     OW38473   2.429   2.368   9.497 -0.1878  0.4314 -0.4745
 9004SOL    HW138474   2.414   2.443   9.555  0.6967  0.8840 -0.8372
 9004SOL    HW238475   2.492   2.318   9.549 -2.2737 -0.9167  0.7585
 9005SOL     OW38476   1.603   1.583   2.712  0.6264 -0.2298 -0.4437
 9005SOL    HW138477   1.594   1.527   2.635  1.4093 -0.2494 -0.5155
 9005SOL    HW238478   1.637   1.517   2.772 -0.5841 -0.6306 -0.1842
 9006SOL     OW38479   2.338   3.014   2.156  0.0910 -0.2962 -0.0682
 9006SOL    HW138480   2.256   3.006   2.205 -0.2823 -1.1221 -0.8203
 9006SOL    HW238481   2.315   3.059   2.075 -2.7003  0.5851  1.2090
 9007SOL     OW38482   1.613   4.239  13.119  0.0622  0.0066 -0.4196
 9007SOL    HW138483   1.694   4.254  13.071 -0.9308  1.9225 -1.5382
 9007SOL    HW238484   1.622   4.149  13.150  0.9135  0.8391  1.7828
 9008SOL     OW38485   1.629   2.590  11.376 -0.3282 -0.2863 -0.2666
 9008SOL    HW138486   1.602   2.573  11.285 -0.5986 -1.8180  0.1052
 9008SOL    HW238487   1.599   2.510  11.418 -1.3181 -0.2227 -0.8239
 9009SOL     OW38488   2.694   0.882  15.194  0.1552  0.3007  0.5361
 9009SOL    HW138489   2.646   0.928  15.126  0.1834  1.4875  1.3179
 9009SOL    HW238490   2.625   0.836  15.241  1.5047 -0.9130  1.3447
 9010SOL     OW38491   3.318   3.588   0.947  0.2995  0.5232  0.0745
 9010SOL    HW138492   3.269   3.662   0.983 -1.1367 -0.9290  1.0828
 9010SOL    HW238493   3.251   3.540   0.899 -1.6031  1.6926  1.5868
 9011SOL     OW38494   1.024   4.013   3.773  0.0545 -0.1558  0.4066
 9011SOL    HW138495   0.971   3.993   3.850 -1.2644  1.2903 -0.1444
 9011SOL    HW238496   0.982   3.970   3.698  0.1440  1.7738 -0.7424
 9012SOL     OW38497   2.046   3.935   5.688  0.5452  0.3200  0.3234
 9012SOL    HW138498   1.979   3.964   5.750  0.0010 -2.0987  0.8558
 9012SOL    HW238499   2.119   3.997   5.699  0.5510  0.0266  1.9781
 9013SOL     OW38500   2.519   3.728   2.911 -0.5122  0.2983 -0.2322
 9013SOL    HW138501   2.448   3.666   2.894 -0.3108 -0.1599  0.5807
 9013SOL    HW238502   2.529   3.761   2.822 -2.9420 -1.2536 -1.0712
 9014SOL     OW38503   0.072   2.268   9.021  0.1674  0.0978  0.1663
 9014SOL    HW138504   0.137   2.302   9.083 -0.3390  1.9031 -0.3096
 9014SOL    HW238505   0.119   2.188   8.999 -2.4154 -0.8772 -1.7138
 9015SOL     OW38506   4.615   1.588  15.868 -0.1463 -0.5225  0.0416
 9015SOL    HW138507   4.533   1.541  15.878 -1.7938  2.8896  2.5206
 9015SOL    HW238508   4.660   1.571  15.951  0.5684  0.1809 -0.1952
 9016SOL     OW38509   0.490   1.940   6.619 -0.2414  0.1353  0.3684
 9016SOL    HW138510   0.446   2.007   6.568  0.1003 -1.0477 -1.4836
 9016SOL    HW238511   0.413   1.892   6.649  0.0274  0.3758  1.4571
 9017SOL     OW38512   1.496   2.650  15.583  0.3189  0.0378  0.0397
 9017SOL    HW138513   1.473   2.687  15.668  0.3397  0.4924 -0.1550
 9017SOL    HW238514   1.585   2.625  15.607  0.1828  1.3175  1.8343
 9018SOL     OW38515   2.784   1.664  11.104  0.3373  0.2770 -0.3337
 9018SOL    HW138516   2.791   1.760  11.101  2.7234  0.0930 -0.1745
 9018SOL    HW238517   2.825   1.649  11.188  2.1948  1.5893 -1.0051
 9019SOL     OW38518   4.630   0.659   3.730  0.3025 -0.0057  0.4094
 9019SOL    HW138519   4.714   0.669   3.686 -0.2373  0.8642 -0.4325
 9019SOL    HW238520   4.634   0.733   3.790 -1.6914  0.2806  0.1868
 9020SOL     OW38521   0.178   1.834  17.118 -1.1504  0.0421 -0.0332
 9020SOL    HW138522   0.185   1.870  17.029 -0.1653 -0.2094 -0.0633
 9020SOL    HW238523   0.096   1.870  17.150 -1.9589 -1.3836 -0.5174
 9021SOL     OW38524   2.978   0.476   5.847 -0.2055  0.4825  0.4558
 9021SOL    HW138525   2.962   0.451   5.938  0.8653  2.1176  1.0807
 9021SOL    HW238526   2.910   0.435   5.793  0.3096 -0.2418  0.3447
 9022SOL     OW38527   2.537   2.011   7.832 -0.3346 -0.1873 -0.1149
 9022SOL    HW138528   2.564   1.931   7.878  1.2983  0.1575 -0.4686
 9022SOL    HW238529   2.616   2.038   7.786 -1.0786  1.3723 -0.4571
 9023SOL     OW38530   3.211   3.515   1.206 -0.5217 -0.2272  0.0524
 9023SOL    HW138531   3.128   3.483   1.172 -0.6584 -0.2647  0.4330
 9023SOL    HW238532   3.195   3.608   1.224 -0.2513 -0.2343  0.3169
 9024SOL     OW38533   3.850   1.467   6.428 -0.1107  0.7108  0.1934
 9024SOL    HW138534   3.872   1.375   6.438 -2.6190 -0.0099 -0.7767
 9024SOL    HW238535   3.894   1.511   6.500  1.2682 -0.3597  0.0085
 9025SOL     OW38536   4.192   0.005   3.002  0.6207  0.5974 -0.3197
 9025SOL    HW138537   4.172   4.674   3.079  2.1915 -0.1782 -0.4544
 9025SOL    HW238538   4.106   0.009   2.961  0.8224  0.9405 -0.7113
 9026SOL     OW38539   3.248   0.317   3.734 -0.7155  0.2461 -0.0322
 9026SOL    HW138540   3.168   0.364   3.758 -1.0278  0.1671 -0.9076
 9026SOL    HW238541   3.311   0.387   3.753 -0.5808  0.1202 -0.0130
 9027SOL     OW38542   4.445   1.058   6.575  0.2541 -0.0213 -0.2218
 9027SOL    HW138543   4.498   1.129   6.611  0.0420  0.6023 -1.1382
 9027SOL    HW238544   4.370   1.078   6.630  0.1869 -2.9582  0.7883
 9028SOL     OW38545   3.958   1.441   6.701 -0.0243  0.4945 -0.2361
 9028SOL    HW138546   3.943   1.374   6.768 -0.4155  0.2582 -0.5589
 9028SOL    HW238547   4.007   1.502   6.756 -0.1268 -0.6805  1.1403
 9029SOL     OW38548   3.385   1.649   3.122  0.0683 -0.3203  0.1158
 9029SOL    HW138549   3.421   1.686   3.203  0.9618 -0.8239 -0.0486
 9029SOL    HW238550   3.445   1.579   3.099 -0.1626  0.2556 -2.2520
 9030SOL     OW38551   3.312   2.288   7.917  0.4205 -0.2735 -0.1381
 9030SOL    HW138552   3.244   2.294   7.850 -2.2965  1.2584  2.7678
 9030SOL    HW238553   3.324   2.196   7.942  0.6212 -0.1944  0.0657
 9031SOL     OW38554   0.247   2.568   5.411  0.1001  0.0312  0.2426
 9031SOL    HW138555   0.323   2.626   5.417  0.1884 -0.0578 -0.0113
 9031SOL    HW238556   0.292   2.487   5.387  2.7458  1.5057  0.3170
 9032SOL     OW38557   3.208   3.786   1.179 -0.3333  0.3495 -0.0067
 9032SOL    HW138558   3.164   3.852   1.233 -0.6788 -0.1670  0.3360
 9032SOL    HW238559   3.147   3.784   1.105  0.3543 -2.3311 -0.4859
 9033SOL     OW38560   1.892   2.520   0.065 -0.0292  0.6252 -0.3223
 9033SOL    HW138561   1.822   2.486   0.010 -0.7244 -0.8708  1.5048
 9033SOL    HW238562   1.852   2.512   0.152  0.7036  2.8580  0.2217
 9034SOL     OW38563   3.192   3.932   5.821 -0.6476  0.3000 -0.1812
 9034SOL    HW138564   3.251   3.989   5.772 -0.0189 -1.7251 -1.8242
 9034SOL    HW238565   3.216   3.845   5.787  0.2566 -0.9981  3.8601
 9035SOL     OW38566   0.150   2.410   2.018 -0.0496 -0.0738  0.0430
 9035SOL    HW138567   0.155   2.505   2.029 -1.7415  0.0457 -0.2410
 9035SOL    HW238568   0.123   2.393   1.927 -0.5614 -0.5806  0.2854
 9036SOL     OW38569   3.308   3.062  14.101 -0.7878 -0.3501  0.2913
 9036SOL    HW138570   3.344   3.027  14.183  2.0442  0.8232 -0.4375
 9036SOL    HW238571   3.252   2.988  14.079 -2.5087  1.2301 -0.5680
 9037SOL     OW38572   0.371   2.814   2.626  0.0066 -0.3775 -0.3897
 9037SOL    HW138573   0.280   2.826   2.599 -0.9584 -3.0588  1.8010
 9037SOL    HW238574   0.398   2.736   2.577  0.8865  0.8955 -1.9545
 9038SOL     OW38575   3.689   4.015   5.701 -0.0045  0.1834 -0.1157
 9038SOL    HW138576   3.668   3.959   5.776 -0.0416 -0.0809 -0.3227
 9038SOL    HW238577   3.784   4.015   5.708 -0.1141 -0.6745  1.3070
 9039SOL     OW38578   4.422   0.444   7.210 -0.0663  0.2558  0.5314
 9039SOL    HW138579   4.475   0.380   7.163 -1.0428  1.1148 -1.7364
 9039SOL    HW238580   4.379   0.500   7.145 -0.2964 -1.2177 -0.5899
 9040SOL     OW38581   3.582   2.014   6.225  0.6492  0.3146  0.1366
 9040SOL    HW138582   3.598   1.920   6.222 -0.8695  0.0866 -0.6810
 9040SOL    HW238583   3.514   2.021   6.291 -1.4631 -2.3713 -1.7692
 9041SOL     OW38584   4.097   1.510   1.389 -0.0490 -0.1240  0.2613
 9041SOL    HW138585   4.031   1.517   1.320  0.3276  0.1812 -0.0681
 9041SOL    HW238586   4.068   1.590   1.432  2.0675  1.5255 -1.3936
 9042SOL     OW38587   0.338   3.675   5.065 -0.1712  0.5991 -0.0171
 9042SOL    HW138588   0.411   3.629   5.107  0.0568  1.1843  0.2218
 9042SOL    HW238589   0.299   3.722   5.138  0.1952  1.0977 -0.1410
 9043SOL     OW38590   4.585   2.284   3.417  0.4173  0.4195 -0.4446
 9043SOL    HW138591   4.510   2.270   3.359  1.3571 -0.8287 -1.3497
 9043SOL    HW238592   4.648   2.321   3.356  3.0270 -3.0235  0.1165
 9044SOL     OW38593   2.403   2.704   9.232  0.1704  0.0331  0.1398
 9044SOL    HW138594   2.417   2.611   9.246  0.3206  0.0340 -0.0053
 9044SOL    HW238595   2.474   2.729   9.172 -0.4218  0.5313 -0.3608
 9045SOL     OW38596   4.656   0.879   2.341 -0.4913 -0.3111 -0.0395
 9045SOL    HW138597   4.703   0.861   2.422 -3.0618 -5.9199  0.2506
 9045SOL    HW238598   4.571   0.902   2.379 -1.3042 -0.3202 -1.8709
 9046SOL     OW38599   3.952   1.088   4.268  0.2977  0.1204  0.1618
 9046SOL    HW138600   3.891   1.015   4.256 -1.5188  1.6869 -0.0270
 9046SOL    HW238601   3.897   1.165   4.277  1.2726  0.7399  0.8140
 9047SOL     OW38602   4.310   2.361  16.149  0.0755 -0.0191  0.6403
 9047SOL    HW138603   4.275   2.273  16.160  0.5957 -0.2178  0.7027
 9047SOL    HW238604   4.233   2.416  16.130 -0.1292 -0.1666  1.0218
 9048SOL     OW38605   1.613   2.215   6.921  0.1044 -0.2140 -0.1790
 9048SOL    HW138606   1.533   2.242   6.965  0.5667  1.6861 -0.5290
 9048SOL    HW238607   1.667   2.281   6.963  1.3936 -1.3406 -0.0278
 9049SOL     OW38608   0.653   4.536   3.357 -0.1884 -0.0775  0.3425
 9049SOL    HW138609   0.683   4.540   3.448  0.2160 -2.7984  0.3318
 9049SOL    HW238610   0.567   4.574   3.371  0.8175  1.7037  1.6144
 9050SOL     OW38611   1.283   4.127   3.327 -0.0208  0.6949  0.0061
 9050SOL    HW138612   1.335   4.178   3.263  0.5001 -1.7060 -1.4986
 9050SOL    HW238613   1.286   4.190   3.399 -0.5107 -0.1116  0.7291
 9051SOL     OW38614   4.207   4.151   6.834  0.1576 -0.2068 -0.0821
 9051SOL    HW138615   4.262   4.117   6.764 -1.7363  2.4783 -2.8692
 9051SOL    HW238616   4.254   4.228   6.868  2.1366 -1.6417  0.4245
 9052SOL     OW38617   0.437   2.697  15.887 -0.5814  0.2467 -0.4059
 9052SOL    HW138618   0.457   2.784  15.920  0.9533 -0.4489  0.5143
 9052SOL    HW238619   0.367   2.672  15.946 -0.0528 -0.7033 -0.1754
 9053SOL     OW38620   4.096   2.371  14.687  0.3129  0.2940 -0.0594
 9053SOL    HW138621   4.113   2.284  14.651  0.4596  0.1297  0.4035
 9053SOL    HW238622   4.177   2.376  14.737 -0.3420 -0.5372  1.0840
 9054SOL     OW38623   2.778   1.310   7.563  0.7646 -0.3697  0.5456
 9054SOL    HW138624   2.715   1.301   7.635  0.2291  0.6970  0.2197
 9054SOL    HW238625   2.724   1.370   7.511  0.0967 -0.3222  1.2832
 9055SOL     OW38626   2.145   3.352   0.249  0.2318 -0.1419 -0.1435
 9055SOL    HW138627   2.139   3.334   0.343  0.8976 -0.4264 -0.1547
 9055SOL    HW238628   2.201   3.280   0.219 -0.6409  0.5491 -3.3791
 9056SOL     OW38629   3.543   0.857   6.755  0.2846 -0.3080  0.5034
 9056SOL    HW138630   3.577   0.857   6.666 -1.1074 -0.3187 -0.0269
 9056SOL    HW238631   3.454   0.830   6.733  0.0674  0.2269  0.7274
 9057SOL     OW38632   1.906   2.109   3.656 -0.3387 -0.0477 -0.4988
 9057SOL    HW138633   1.817   2.102   3.621 -0.7647 -1.5854  0.8833
 9057SOL    HW238634   1.908   2.021   3.695 -2.6777 -0.6244 -1.7067
 9058SOL     OW38635   0.779   1.315   1.906  0.0086 -0.2677 -0.3765
 9058SOL    HW138636   0.697   1.364   1.900  0.4629  0.6254  0.7318
 9058SOL    HW238637   0.748   1.254   1.971  0.8445 -1.1965 -0.8467
 9059SOL     OW38638   0.376   2.752   4.100 -0.3809  0.6873 -0.1150
 9059SOL    HW138639   0.457   2.768   4.051  1.0002  1.7109  2.4916
 9059SOL    HW238640   0.317   2.795   4.038  1.2671  0.1904 -2.0416
 9060SOL     OW38641   3.357   3.999  15.734  0.0085  0.7235 -0.0113
 9060SOL    HW138642   3.275   3.951  15.744  0.1246  1.1396  2.8432
 9060SOL    HW238643   3.373   4.027  15.824  1.7236  0.8994 -0.3685
 9061SOL     OW38644   1.290   1.639   4.796 -0.0906 -0.6239  0.1198
 9061SOL    HW138645   1.238   1.581   4.852  1.3393 -1.8248  0.1852
 9061SOL    HW238646   1.366   1.663   4.850 -1.1493  0.2929  1.2207
 9062SOL     OW38647   1.788   2.863   9.123 -0.2366 -0.2132 -0.4057
 9062SOL    HW138648   1.798   2.889   9.215  0.5217 -1.2622 -0.1859
 9062SOL    HW238649   1.712   2.916   9.104  0.1628  0.4608 -0.1124
 9063SOL     OW38650   0.067   4.716   1.433 -0.1317  0.2148 -0.6263
 9063SOL    HW138651   0.049   4.627   1.404  2.0493 -0.1027 -1.0063
 9063SOL    HW238652   0.103   0.029   1.351  3.7513  0.8689  1.3255
 9064SOL     OW38653   2.968   0.145   1.475 -0.0210 -0.1905 -0.0461
 9064SOL    HW138654   3.000   0.077   1.534 -0.9415  0.2222  0.9216
 9064SOL    HW238655   2.880   0.109   1.460 -0.3668  0.5671  0.1666
 9065SOL     OW38656   0.933   2.303   6.842 -0.0287  0.1153 -0.3748
 9065SOL    HW138657   0.908   2.237   6.777  0.4231  2.5313 -3.0013
 9065SOL    HW238658   0.893   2.378   6.798 -0.8277 -1.0948 -1.7067
 9066SOL     OW38659   3.397   1.314   8.117 -0.4078 -0.1215 -0.0805
 9066SOL    HW138660   3.305   1.290   8.131 -0.4804  0.0007 -0.3556
 9066SOL    HW238661   3.394   1.391   8.060  1.3732  0.6419  0.8582
 9067SOL     OW38662   2.945   2.315   2.596  0.5465 -0.8672 -0.2119
 9067SOL    HW138663   3.031   2.273   2.595  1.4866  0.9930  1.1954
 9067SOL    HW238664   2.903   2.271   2.522  0.2499 -0.4663 -0.2849
 9068SOL     OW38665   3.613   4.306   6.394  0.3853 -0.3215  0.1677
 9068SOL    HW138666   3.656   4.382   6.434  0.0163 -0.1025  0.1494
 9068SOL    HW238667   3.672   4.288   6.321 -0.1231 -2.6864  0.3527
 9069SOL     OW38668   1.191   4.353   8.626 -0.1404 -0.0610  0.0106
 9069SOL    HW138669   1.195   4.353   8.722  1.0686 -0.4275 -0.0406
 9069SOL    HW238670   1.136   4.275   8.621  0.4122 -0.5529  1.5631
 9070SOL     OW38671   3.355   3.693  13.799 -0.0834  0.3316  0.2113
 9070SOL    HW138672   3.293   3.765  13.816 -0.1962  0.5532 -1.1391
 9070SOL    HW238673   3.376   3.695  13.706  1.8922 -1.9973  0.6254
 9071SOL     OW38674   0.195   3.428   8.917  0.0937  0.0235  0.4777
 9071SOL    HW138675   0.222   3.458   9.004  1.7784 -1.5444  0.4859
 9071SOL    HW238676   0.128   3.491   8.890 -0.2584 -1.3593 -1.8379
 9072SOL     OW38677   1.574   3.023   1.067  0.2254 -0.3101 -0.1564
 9072SOL    HW138678   1.535   3.110   1.072 -0.5659 -0.5624 -1.8171
 9072SOL    HW238679   1.598   3.014   1.159  0.3827 -0.6474 -0.2288
 9073SOL     OW38680   2.970   3.202  13.985 -0.1291 -0.5297  0.0256
 9073SOL    HW138681   3.038   3.238  13.928 -2.1542  1.9503 -0.7990
 9073SOL    HW238682   2.938   3.278  14.032 -1.2751 -1.9282  1.5231
 9074SOL     OW38683   3.919   2.325   9.182 -0.1884  0.1321 -0.2296
 9074SOL    HW138684   4.003   2.370   9.188 -0.4491  0.4755  0.7924
 9074SOL    HW238685   3.881   2.360   9.263 -1.6301 -0.6542 -0.5541
 9075SOL     OW38686   1.312   0.500  13.704 -0.6584  0.2537 -0.1811
 9075SOL    HW138687   1.391   0.528  13.750 -0.9561 -0.5662  0.8154
 9075SOL    HW238688   1.325   0.409  13.730  0.2114  0.3971 -0.1018
 9076SOL     OW38689   2.277   1.525   2.456  0.1817  0.0947 -0.1356
 9076SOL    HW138690   2.344   1.581   2.494  1.0926 -1.0013 -0.1437
 9076SOL    HW238691   2.244   1.482   2.534 -0.0571 -0.9348 -0.8055
 9077SOL     OW38692   1.036   2.598   5.667 -0.1987 -0.3315 -0.3697
 9077SOL    HW138693   0.986   2.614   5.747  0.6553 -1.9253  0.4765
 9077SOL    HW238694   1.065   2.687   5.645 -2.7386  0.4162 -0.6959
 9078SOL     OW38695   2.326   3.697   2.564 -0.5415  0.1016  0.0028
 9078SOL    HW138696   2.293   3.695   2.474  0.3456  0.4888 -0.3305
 9078SOL    HW238697   2.417   3.674   2.543 -0.0527 -0.5337  2.7431
 9079SOL     OW38698   4.122   2.511  16.000  0.0963  0.3989  0.4655
 9079SOL    HW138699   4.105   2.565  15.922  2.6364  1.7140  0.8076
 9079SOL    HW238700   4.073   2.570  16.057  0.1233  1.0245 -0.1522
 9080SOL     OW38701   4.164   4.117   9.405 -0.2629  0.0433 -0.7752
 9080SOL    HW138702   4.107   4.045   9.431  0.5882 -0.5208 -0.4573
 9080SOL    HW238703   4.107   4.173   9.352 -2.1017 -1.3879 -0.3312
 9081SOL     OW38704   1.406   0.813   4.479  0.7790 -0.3905 -0.2996
 9081SOL    HW138705   1.500   0.808   4.494  0.5531  3.5424  2.3966
 9081SOL    HW238706   1.390   0.719   4.470 -1.3165 -0.1748  1.2674
 9082SOL     OW38707   1.614   0.387   2.766 -0.0232  0.2985  0.3489
 9082SOL    HW138708   1.600   0.381   2.672 -2.0818  2.4606  0.4987
 9082SOL    HW238709   1.533   0.345   2.798  0.8619 -1.8402 -0.2454
 9083SOL     OW38710   3.527   2.562  13.261  0.1387  0.1666  0.9986
 9083SOL    HW138711   3.561   2.575  13.172 -2.2918 -2.5809 -0.3011
 9083SOL    HW238712   3.439   2.597  13.254 -0.5174 -1.8711 -1.1238
 9084SOL     OW38713   3.716   2.007  15.217  0.0307 -0.0027  0.4739
 9084SOL    HW138714   3.700   2.095  15.183  1.5399  0.0553 -0.0850
 9084SOL    HW238715   3.797   1.988  15.169 -0.8275 -0.8380 -0.6347
 9085SOL     OW38716   4.038   1.042   0.459 -0.0284 -0.2849 -0.0529
 9085SOL    HW138717   4.045   1.129   0.420 -2.4214 -0.4914 -0.9232
 9085SOL    HW238718   4.045   1.061   0.553 -1.5173 -1.1423  0.2329
 9086SOL     OW38719   1.207   3.577  11.005 -0.2837  0.5848 -0.5310
 9086SOL    HW138720   1.156   3.644  10.961  0.1855  1.5271  0.3532
 9086SOL    HW238721   1.254   3.619  11.077  0.8740  0.8475 -1.4407
 9087SOL     OW38722   0.459   3.414   5.390 -0.3509 -0.6649 -0.1084
 9087SOL    HW138723   0.396   3.382   5.326 -0.7323 -1.1753  0.5197
 9087SOL    HW238724   0.421   3.360   5.460 -2.2093 -1.0790 -1.4450
 9088SOL     OW38725   0.884   3.559   5.173  0.0094  0.2040  0.5712
 9088SOL    HW138726   0.934   3.522   5.101  0.1299  1.6670 -0.1104
 9088SOL    HW238727   0.909   3.500   5.244 -0.2583  1.0720  1.3936
 9089SOL     OW38728   0.450   1.266  12.754 -0.1330 -0.2710 -0.1302
 9089SOL    HW138729   0.463   1.215  12.674  2.3556 -0.7958  0.6115
 9089SOL    HW238730   0.523   1.327  12.758 -0.8842  0.6238 -0.1581
 9090SOL     OW38731   4.072   2.422  14.401  0.1231  0.1761 -0.4128
 9090SOL    HW138732   4.130   2.402  14.327 -1.6549 -2.6120 -1.0803
 9090SOL    HW238733   4.087   2.342  14.451 -2.2676  0.8633  1.3759
 9091SOL     OW38734   0.322   3.105  10.697  0.4264  0.1438  0.0102
 9091SOL    HW138735   0.409   3.073  10.721  0.0769 -1.3421 -0.6915
 9091SOL    HW238736   0.328   3.116  10.602 -0.1599  1.4162  0.1184
 9092SOL     OW38737   0.186   1.213   8.329  0.4361  0.1749  0.2753
 9092SOL    HW138738   0.102   1.224   8.285  0.8148 -0.3571 -0.5966
 9092SOL    HW238739   0.166   1.145   8.394 -2.1900  0.8583  0.1590
 9093SOL     OW38740   1.394   2.044   7.382  0.1605  0.0513  0.0278
 9093SOL    HW138741   1.310   2.034   7.338  0.1791  0.4445 -0.0898
 9093SOL    HW238742   1.448   2.066   7.307  1.9803 -0.5504  1.1557
 9094SOL     OW38743   2.806   4.205  17.557  0.3401 -0.4995 -0.4436
 9094SOL    HW138744   2.879   4.222  17.498  0.7064  1.4353  0.5753
 9094SOL    HW238745   2.758   4.152  17.493 -1.0415  1.3681 -0.9480
 9095SOL     OW38746   2.580   1.696   3.874 -0.0001 -0.3667 -0.3200
 9095SOL    HW138747   2.530   1.640   3.933  1.9691  0.8867  2.5495
 9095SOL    HW238748   2.633   1.627   3.835  2.5121  1.6355 -0.4805
 9096SOL     OW38749   0.098   1.185   8.750 -0.9979 -0.2949 -0.1018
 9096SOL    HW138750   0.111   1.128   8.675 -1.9646 -1.5103  0.6495
 9096SOL    HW238751   0.185   1.212   8.780 -0.3497 -1.6012 -0.8291
 9097SOL     OW38752   2.255   4.635   7.336 -0.1822  0.3018  0.2083
 9097SOL    HW138753   2.251   4.698   7.409 -0.3560  0.6904 -0.1399
 9097SOL    HW238754   2.238   4.553   7.381 -0.5393  1.1551  1.6508
 9098SOL     OW38755   3.255   2.228   9.270  0.3192  0.2775  0.2391
 9098SOL    HW138756   3.169   2.186   9.279  0.7591 -0.4257  1.1041
 9098SOL    HW238757   3.299   2.160   9.219 -1.5377 -0.3108 -0.5932
 9099SOL     OW38758   4.353   0.316   0.909  0.1784 -0.0657 -0.2481
 9099SOL    HW138759   4.367   0.327   1.003  0.7161 -1.7603 -0.1271
 9099SOL    HW238760   4.436   0.281   0.877  0.9326  0.2206  1.3931
 9100SOL     OW38761   3.242   1.690   2.370 -0.3573  0.0849  0.3552
 9100SOL    HW138762   3.222   1.685   2.277 -0.5540  2.4053  0.2781
 9100SOL    HW238763   3.331   1.726   2.368 -0.2750 -0.2226 -0.9838
 9101SOL     OW38764   4.230   1.316   0.739 -0.1695 -0.5542  0.0692
 9101SOL    HW138765   4.321   1.334   0.761 -0.4277 -2.4093  2.6087
 9101SOL    HW238766   4.171   1.361   0.800 -0.1261  0.3588 -0.5649
 9102SOL     OW38767   1.608   4.640   0.558  0.2914  0.1162 -0.0193
 9102SOL    HW138768   1.621   4.579   0.631 -0.8932  1.4407  1.2900
 9102SOL    HW238769   1.643   4.589   0.485  2.6835 -0.9213  1.8252
 9103SOL     OW38770   2.966   3.245   1.648  0.7360  0.0541 -0.0282
 9103SOL    HW138771   2.897   3.280   1.591  1.5504 -1.3623 -1.8716
 9103SOL    HW238772   3.040   3.300   1.620 -0.5500  1.6222 -0.3606
 9104SOL     OW38773   2.700   0.728   2.557  0.2970 -0.3365  0.3469
 9104SOL    HW138774   2.675   0.798   2.496  0.1964  0.9238  1.8157
 9104SOL    HW238775   2.787   0.696   2.532  0.1254 -1.3970  1.1303
 9105SOL     OW38776   2.997   3.475   1.996 -0.2966 -0.0302 -0.2748
 9105SOL    HW138777   2.924   3.501   2.053 -1.8283 -2.2715 -1.1895
 9105SOL    HW238778   3.063   3.468   2.065 -0.5639  0.3804  0.0283
 9106SOL     OW38779   4.329   0.608   3.155  0.1516  0.1875 -0.2586
 9106SOL    HW138780   4.384   0.597   3.077  2.5142  0.7100  1.3444
 9106SOL    HW238781   4.280   0.678   3.112  2.2752  2.0692  0.3785
 9107SOL     OW38782   4.090   1.461   0.918  0.7445  0.2893  0.0015
 9107SOL    HW138783   4.058   1.500   0.837  0.1252 -1.8722 -0.7950
 9107SOL    HW238784   4.030   1.504   0.978  2.9054  2.8255  0.3551
 9108SOL     OW38785   3.827   3.350   5.885  0.4407  0.2849 -0.3779
 9108SOL    HW138786   3.856   3.274   5.834  1.0589  0.9527 -1.0055
 9108SOL    HW238787   3.904   3.406   5.884  0.2706  0.5496  0.6988
 9109SOL     OW38788   1.066   4.486   3.541  0.3865  0.0360 -0.0633
 9109SOL    HW138789   1.073   4.553   3.609 -0.8928 -0.5139  0.6204
 9109SOL    HW238790   0.975   4.460   3.558  0.5128 -0.2009  0.2492
 9110SOL     OW38791   2.468   2.361   7.581 -0.6989  0.2802  0.0852
 9110SOL    HW138792   2.418   2.442   7.581 -1.1692 -0.0052 -3.0048
 9110SOL    HW238793   2.430   2.303   7.647 -2.3034  0.8458 -0.3517
 9111SOL     OW38794   2.404   4.559   1.031 -0.1184 -0.7629  0.1630
 9111SOL    HW138795   2.418   4.630   1.093 -1.1265  2.4112 -3.2717
 9111SOL    HW238796   2.311   4.572   1.014 -0.1846  1.6461  2.3203
 9112SOL     OW38797   1.672   4.409  16.733  0.0222  0.2953 -0.2422
 9112SOL    HW138798   1.729   4.347  16.689  1.1779  0.3940  1.1224
 9112SOL    HW238799   1.641   4.474  16.669  0.0794  0.2598 -0.3057
 9113SOL     OW38800   1.679   1.229   9.429  0.0803 -0.0931 -0.1219
 9113SOL    HW138801   1.770   1.214   9.453  0.7093  3.4529 -0.3834
 9113SOL    HW238802   1.644   1.147   9.464 -1.0631  0.0418 -0.9550
 9114SOL     OW38803   4.561   0.992   6.039  0.5667  0.2849  0.0471
 9114SOL    HW138804   4.588   1.060   6.101 -1.3940  0.6659  0.4740
 9114SOL    HW238805   4.568   1.041   5.957  1.2825 -0.4107 -0.3007
 9115SOL     OW38806   0.733   3.837   6.650  0.4362 -0.0299 -0.2111
 9115SOL    HW138807   0.816   3.875   6.676 -0.0447  0.9742 -0.1554
 9115SOL    HW238808   0.717   3.881   6.567 -0.7669  0.2827  0.1811
 9116SOL     OW38809   3.717   2.083   2.314  0.4986  0.3815 -0.4501
 9116SOL    HW138810   3.767   2.118   2.240  1.5308 -1.8344 -0.7993
 9116SOL    HW238811   3.779   2.046   2.376 -1.7566  1.2114  2.3020
 9117SOL     OW38812   0.479   0.563   5.479 -0.4600  0.6570  0.0383
 9117SOL    HW138813   0.553   0.589   5.423  0.5894 -0.8391  0.7429
 9117SOL    HW238814   0.477   0.469   5.462  1.0772  0.2658  2.0057
 9118SOL     OW38815   0.297   3.889  13.037  0.0360 -0.2176  0.2327
 9118SOL    HW138816   0.317   3.983  13.041 -1.1922  0.0024  0.9880
 9118SOL    HW238817   0.329   3.870  12.949  0.0113 -1.2032  0.4428
 9119SOL     OW38818   0.457   0.915   4.471 -0.0394 -0.0138  0.6991
 9119SOL    HW138819   0.396   0.904   4.544 -0.0663 -1.5883  0.4287
 9119SOL    HW238820   0.405   0.907   4.391  0.3472  0.7982  0.3658
 9120SOL     OW38821   0.768   0.946   7.148  0.0561  0.0044 -0.3197
 9120SOL    HW138822   0.673   0.955   7.144 -0.1064 -0.9194  1.4146
 9120SOL    HW238823   0.795   1.038   7.143  2.2551 -0.6927 -1.3259
 9121SOL     OW38824   1.927   4.223   5.631 -0.0665 -0.8752 -0.1089
 9121SOL    HW138825   1.967   4.168   5.698  0.3825  0.9522  1.1113
 9121SOL    HW238826   1.867   4.276   5.683 -0.0266 -0.9835  0.0473
 9122SOL     OW38827   4.682   3.881   8.787 -0.2907 -0.3966 -0.2524
 9122SOL    HW138828   4.624   3.950   8.754 -1.2354 -0.7543  0.6588
 9122SOL    HW238829   0.046   3.905   8.753  1.0576 -3.3265  1.1106
 9123SOL     OW38830   3.485   2.605  10.786  0.4286 -0.0833  0.3748
 9123SOL    HW138831   3.525   2.602  10.699 -1.8290  0.2144 -0.6794
 9123SOL    HW238832   3.448   2.516  10.791 -0.2925  0.1079 -1.5931
 9124SOL     OW38833   3.125   2.602   7.926  0.1988 -0.4648 -0.1201
 9124SOL    HW138834   3.051   2.542   7.918  0.5732 -0.7653 -1.3836
 9124SOL    HW238835   3.120   2.653   7.845 -0.5008  0.7455  0.7028
 9125SOL     OW38836   3.683   1.841   3.485 -0.5363 -0.5338  0.0525
 9125SOL    HW138837   3.588   1.856   3.482 -0.2174  1.2978 -0.6218
 9125SOL    HW238838   3.690   1.764   3.429 -2.4339 -0.1482 -0.7271
 9126SOL     OW38839   4.002   3.933   3.622  0.3961 -0.0187  0.8091
 9126SOL    HW138840   4.040   4.014   3.590  1.1692 -1.6169 -2.2771
 9126SOL    HW238841   4.072   3.870   3.603 -1.2841 -1.1640 -1.4991
 9127SOL     OW38842   3.340   0.173   9.055  0.1691 -0.3906 -0.3061
 9127SOL    HW138843   3.380   0.239   9.111  2.4165  1.1062 -3.6742
 9127SOL    HW238844   3.250   0.178   9.084  0.1132 -1.5569 -0.2555
 9128SOL     OW38845   3.230   2.299   8.168  0.0436 -0.4646 -0.0113
 9128SOL    HW138846   3.275   2.299   8.083 -1.3321  2.9884 -0.7136
 9128SOL    HW238847   3.178   2.219   8.170  1.2580 -1.2691 -0.6332
 9129SOL     OW38848   3.584   2.777   4.469  0.1096  0.0810  0.2660
 9129SOL    HW138849   3.639   2.805   4.395  1.7379  0.1481  1.4966
 9129SOL    HW238850   3.615   2.689   4.489  2.7028  0.3966 -2.2680
 9130SOL     OW38851   1.038   0.001   5.157  0.1704  0.3680 -0.0327
 9130SOL    HW138852   1.074   0.090   5.154  1.0014 -0.0420 -2.3228
 9130SOL    HW238853   1.085   4.680   5.228 -0.5176  0.8338  0.7112
 9131SOL     OW38854   3.620   3.239   0.426  0.5204  0.1853 -0.1489
 9131SOL    HW138855   3.526   3.249   0.444  0.2324 -3.0167  0.2454
 9131SOL    HW238856   3.653   3.296   0.495 -1.0808  1.3709 -0.3582
 9132SOL     OW38857   2.870   3.777   2.733  0.1053  0.0218  0.3994
 9132SOL    HW138858   2.925   3.702   2.755 -0.1337  1.2604  5.2852
 9132SOL    HW238859   2.886   3.837   2.806  1.7873  1.6874 -1.3407
 9133SOL     OW38860   2.169   0.645  15.340  0.1948  0.2750  0.1913
 9133SOL    HW138861   2.127   0.723  15.305  0.0299  0.1269  0.0560
 9133SOL    HW238862   2.126   0.578  15.286 -0.4350  1.4307 -0.7348
 9134SOL     OW38863   3.953   0.207  16.089 -0.6263  0.1886 -0.2479
 9134SOL    HW138864   3.987   0.223  16.177 -1.9412 -0.4120  0.3646
 9134SOL    HW238865   4.011   0.138  16.058 -0.5125 -0.5557  1.6412
 9135SOL     OW38866   4.359   0.123   6.201 -0.1795  0.0083  0.8150
 9135SOL    HW138867   4.420   0.071   6.148  0.8565  2.6895 -0.6010
 9135SOL    HW238868   4.418   0.198   6.207 -0.4467  0.3003 -0.2900
 9136SOL     OW38869   1.750   2.581   2.495 -0.1148  0.4698  0.9109
 9136SOL    HW138870   1.827   2.526   2.508  0.4797  1.2990  0.8848
 9136SOL    HW238871   1.684   2.517   2.523 -0.2024  0.5061  0.7844
 9137SOL     OW38872   2.282   3.897   1.554  0.1108  0.1053  0.2020
 9137SOL    HW138873   2.300   3.956   1.627  2.0949 -1.2251  0.7855
 9137SOL    HW238874   2.356   3.838   1.566  0.2384 -0.0248 -1.3214
 9138SOL     OW38875   2.543   4.622   2.168  0.2177  0.4613  0.1450
 9138SOL    HW138876   2.476   4.634   2.234 -1.0039  0.9273 -1.1677
 9138SOL    HW238877   2.576   4.711   2.155 -2.5870  0.9574 -3.6861
 9139SOL     OW38878   2.816   4.436   2.422  0.4810 -0.3945  0.5179
 9139SOL    HW138879   2.725   4.449   2.397  0.4972  1.0433  1.1979
 9139SOL    HW238880   2.801   4.345   2.450 -0.1339  0.0127  1.5180
 9140SOL     OW38881   0.096   0.367   8.126  0.0224 -0.1770  0.8788
 9140SOL    HW138882   0.044   0.301   8.172 -1.6293  0.6647  0.2201
 9140SOL    HW238883   0.049   0.446   8.154  0.9345  0.9472 -0.7772
 9141SOL     OW38884   2.975   1.252   3.999 -0.3523 -0.4643 -0.6161
 9141SOL    HW138885   2.896   1.214   3.961 -1.0052 -1.3909  1.6837
 9141SOL    HW238886   3.027   1.276   3.922 -1.3643 -1.2895 -1.5598
 9142SOL     OW38887   1.472   1.217   7.042  0.1103 -0.7437  0.2425
 9142SOL    HW138888   1.455   1.302   7.082 -1.0474 -0.3669 -1.0474
 9142SOL    HW238889   1.413   1.211   6.967  0.2936  0.1393  0.0350
 9143SOL     OW38890   2.122   2.061   5.409  0.4230 -0.2838  0.1511
 9143SOL    HW138891   2.096   2.052   5.501  0.5822  2.5482  0.4753
 9143SOL    HW238892   2.034   2.041   5.378  0.2812 -0.4301  0.6495
 9144SOL     OW38893   2.184   1.532   7.173 -0.0826 -0.7103 -0.0531
 9144SOL    HW138894   2.205   1.439   7.169 -0.3466 -0.8149  0.9782
 9144SOL    HW238895   2.189   1.535   7.269  1.5836  1.0947 -0.2070
 9145SOL     OW38896   4.603   2.273   7.331  0.4038 -0.0384  0.1966
 9145SOL    HW138897   4.559   2.244   7.251 -1.7076 -2.0193  2.0770
 9145SOL    HW238898   4.569   2.211   7.396 -1.2624  0.0061 -0.6417
 9146SOL     OW38899   1.393   3.742   1.111 -0.1888 -0.6054  0.0106
 9146SOL    HW138900   1.479   3.704   1.125  0.3368  1.1820  1.6596
 9146SOL    HW238901   1.377   3.789   1.193  0.3522 -2.0644  0.9448
 9147SOL     OW38902   4.489   3.231   0.687  0.4618 -0.5179 -0.5938
 9147SOL    HW138903   4.522   3.209   0.774 -0.6987 -0.4630 -0.1302
 9147SOL    HW238904   4.561   3.278   0.646 -0.4013 -1.4748 -3.1657
 9148SOL     OW38905   0.716   0.033   8.095  0.0111 -0.2552 -0.7401
 9148SOL    HW138906   0.678   0.120   8.085  0.0504 -0.2732 -1.0467
 9148SOL    HW238907   0.648   4.690   8.108  0.2312 -0.2162  0.6398
 9149SOL     OW38908   3.538   1.296  14.842 -0.6400  0.4399 -0.2086
 9149SOL    HW138909   3.472   1.364  14.856 -1.6685 -0.4320 -0.8059
 9149SOL    HW238910   3.543   1.296  14.746  0.4048  2.4023 -0.1612
 9150SOL     OW38911   1.233   0.434   6.558  0.3346  0.1888 -0.8759
 9150SOL    HW138912   1.239   0.437   6.462  1.1042  1.1802 -0.8025
 9150SOL    HW238913   1.267   0.521   6.582 -0.0331  0.8784 -2.8147
 9151SOL     OW38914   0.572   4.075   0.449 -0.4583 -0.2787 -0.5878
 9151SOL    HW138915   0.501   4.024   0.487 -0.5698  0.7153  0.5251
 9151SOL    HW238916   0.568   4.166   0.479  0.2169 -1.4728  3.0500
 9152SOL     OW38917   4.694   3.737  12.457  0.2294  0.4256  0.4156
 9152SOL    HW138918   0.020   3.684  12.394 -0.1040 -0.2677  0.7378
 9152SOL    HW238919   4.714   3.824  12.423 -0.9098  0.2126 -0.8356
 9153SOL     OW38920   2.882   2.778  14.207  0.1939 -0.0547 -0.1173
 9153SOL    HW138921   2.816   2.848  14.212  0.2704  0.0231 -0.1958
 9153SOL    HW238922   2.953   2.806  14.264  0.2954 -1.0005  0.2157
 9154SOL     OW38923   1.952   4.498   7.663 -0.4226 -0.0895 -0.3708
 9154SOL    HW138924   1.866   4.519   7.700  0.7815  1.3943  1.5540
 9154SOL    HW238925   1.922   4.476   7.575  1.5240 -1.8194 -0.5975
 9155SOL     OW38926   1.248   1.807   1.020  0.0224 -0.0989  0.1952
 9155SOL    HW138927   1.176   1.821   0.958  0.2578  0.4690  0.0476
 9155SOL    HW238928   1.325   1.825   0.964  0.8681 -0.7789  1.1385
 9156SOL     OW38929   1.455   2.541   3.330  0.1172  0.0081 -0.2372
 9156SOL    HW138930   1.379   2.495   3.294 -1.7006  2.0996  0.9549
 9156SOL    HW238931   1.477   2.483   3.403  1.2607 -0.1534 -0.7049
 9157SOL     OW38932   4.107   4.371   6.034 -0.3355  0.6571 -0.0190
 9157SOL    HW138933   4.117   4.367   5.939  2.3749  0.0636  0.2800
 9157SOL    HW238934   4.012   4.368   6.035 -0.2124 -3.7611  2.0656
 9158SOL     OW38935   3.759   0.123  15.079  0.2342  0.3653  0.3453
 9158SOL    HW138936   3.840   0.147  15.123  1.3061 -1.5434 -0.6263
 9158SOL    HW238937   3.730   0.205  15.037  1.6245 -0.4403 -2.1427
 9159SOL     OW38938   3.370   0.140  13.245  0.1576  0.0238 -0.1340
 9159SOL    HW138939   3.430   0.138  13.171  0.1012  0.7282 -0.2050
 9159SOL    HW238940   3.435   0.145  13.315  0.5892  1.1392 -0.6006
 9160SOL     OW38941   0.816   0.284   7.892  0.0011  0.0704  0.0747
 9160SOL    HW138942   0.728   0.295   7.927 -0.4902 -2.2682 -0.3754
 9160SOL    HW238943   0.809   0.225   7.817 -2.9697 -1.3367  1.4486
 9161SOL     OW38944   0.069   0.565   1.689 -0.0250  0.6824 -0.1123
 9161SOL    HW138945   0.109   0.642   1.650  3.0744  0.0411  1.7987
 9161SOL    HW238946   0.116   0.502   1.635  1.9948 -1.8504  4.5146
 9162SOL     OW38947   2.315   4.580   2.313  0.4646 -0.4977 -0.1293
 9162SOL    HW138948   2.315   4.666   2.272 -0.7876 -0.4046  0.0751
 9162SOL    HW238949   2.280   4.521   2.247  0.3650  0.0004 -0.5195
 9163SOL     OW38950   3.638   2.775   7.276 -0.0047  0.3856 -0.4600
 9163SOL    HW138951   3.698   2.717   7.325 -0.7392  0.0070 -0.0049
 9163SOL    HW238952   3.574   2.791   7.346  0.9542 -0.7461  0.6870
 9164SOL     OW38953   2.426   0.479  12.545  0.7088  0.4035  0.5114
 9164SOL    HW138954   2.488   0.410  12.520 -0.2770 -0.1015 -0.5646
 9164SOL    HW238955   2.389   0.491  12.458 -0.1265  1.0245  0.9567
 9165SOL     OW38956   3.050   1.618  10.518 -0.0828  0.1150 -0.4602
 9165SOL    HW138957   2.978   1.556  10.526 -0.7009  1.0159  0.9075
 9165SOL    HW238958   3.004   1.702  10.514  2.5469  1.6286  1.0882
 9166SOL     OW38959   1.600   2.933  15.384  0.1455 -0.3540  0.3875
 9166SOL    HW138960   1.586   2.847  15.345  0.7195 -0.7680  1.0887
 9166SOL    HW238961   1.511   2.963  15.402  0.5401  0.5703  0.7737
 9167SOL     OW38962   0.322   1.407   1.668  0.1863  0.4490 -0.0424
 9167SOL    HW138963   0.231   1.387   1.690  0.7679  0.7304  2.5903
 9167SOL    HW238964   0.360   1.322   1.690 -1.8331 -0.5227 -0.3550
 9168SOL     OW38965   4.431   2.223   8.221 -0.0346 -0.3917 -0.5369
 9168SOL    HW138966   4.343   2.190   8.237 -0.0431  0.8067  1.8236
 9168SOL    HW238967   4.408   2.303   8.172 -2.0916  0.2547  1.4934
 9169SOL     OW38968   4.152   1.855  10.788  0.6136 -0.2605  0.5078
 9169SOL    HW138969   4.117   1.777  10.744  0.7421  0.7508 -1.3508
 9169SOL    HW238970   4.129   1.834  10.879  0.6370 -3.1732 -0.1544
 9170SOL     OW38971   4.129   2.917  10.260 -0.0115 -0.5314  0.5372
 9170SOL    HW138972   4.110   3.011  10.266  3.1036  0.2523 -1.8343
 9170SOL    HW238973   4.060   2.890  10.199 -0.7447  1.2466  0.5782
 9171SOL     OW38974   4.320   0.782   4.074  0.0478 -0.0661  0.0730
 9171SOL    HW138975   4.319   0.810   4.166  3.0895  0.7775 -0.1483
 9171SOL    HW238976   4.235   0.804   4.038  1.6841  0.4403 -3.4930
 9172SOL     OW38977   0.801   4.059   5.431  0.2543 -0.9024  0.1348
 9172SOL    HW138978   0.889   4.087   5.404  0.6748 -0.4091  2.0138
 9172SOL    HW238979   0.805   3.969   5.401 -2.3605 -1.3210  1.0409
 9173SOL     OW38980   3.005   1.273   0.559 -0.1068 -0.3373 -0.3066
 9173SOL    HW138981   3.012   1.230   0.644 -2.1397 -0.8554 -0.3949
 9173SOL    HW238982   2.919   1.243   0.530 -1.2820  1.0544  1.7575
 9174SOL     OW38983   1.354   0.615   9.103  0.1946 -0.6949 -0.0977
 9174SOL    HW138984   1.325   0.552   9.037  0.1517 -1.5759  0.7643
 9174SOL    HW238985   1.267   0.630   9.140  0.5524  1.3824 -0.0641
 9175SOL     OW38986   3.283   3.752  17.495 -0.0155 -0.4422  0.1491
 9175SOL    HW138987   3.296   3.658  17.496  2.1394 -0.1321  1.3511
 9175SOL    HW238988   3.373   3.787  17.494  0.3123 -1.2961 -0.2922
 9176SOL     OW38989   1.571   2.860   9.480  0.4974 -0.0128  0.3120
 9176SOL    HW138990   1.666   2.859   9.467  0.3159 -1.8714 -0.8601
 9176SOL    HW238991   1.575   2.865   9.576 -1.6688  0.1114  0.3965
 9177SOL     OW38992   1.431   0.011   1.470  0.4056  0.5122 -0.4585
 9177SOL    HW138993   1.362   0.035   1.531  2.1785 -0.0702  1.7762
 9177SOL    HW238994   1.378   4.685   1.407 -2.0333  1.5736  0.7682
 9178SOL     OW38995   2.782   0.344   5.699 -0.9449  0.3232  0.0435
 9178SOL    HW138996   2.763   0.370   5.608 -1.8061  2.9980  0.9664
 9178SOL    HW238997   2.709   0.374   5.754 -0.2775  2.8709 -0.4333
 9179SOL     OW38998   3.066   3.733   3.059 -0.4052 -0.6041 -0.2331
 9179SOL    HW138999   3.157   3.740   3.087 -0.6107  0.1734  0.2414
 9179SOL    HW239000   3.054   3.638   3.062  0.0013 -0.6699 -0.8016
 9180SOL     OW39001   0.982   0.356   0.208 -0.4313 -0.6863  0.2386
 9180SOL    HW139002   0.924   0.391   0.141  0.1594 -2.8530 -1.4492
 9180SOL    HW239003   1.058   0.406   0.177  0.6601 -0.7968  2.7464
 9181SOL     OW39004   3.907   4.617   3.706  0.0430 -0.2234 -0.1681
 9181SOL    HW139005   3.881   4.683   3.643  1.7742 -2.1013 -2.8261
 9181SOL    HW239006   3.912   4.543   3.646  1.8739 -1.1233  1.0797
 9182SOL     OW39007   3.508   1.143  17.444  0.0608  0.0563  0.7213
 9182SOL    HW139008   3.413   1.150  17.433  0.2120 -0.1514 -0.8197
 9182SOL    HW239009   3.515   1.135  17.539 -0.7356 -1.5564  0.6409
 9183SOL     OW39010   0.645   1.684   2.176 -0.4911  0.4152  0.3520
 9183SOL    HW139011   0.719   1.729   2.216  0.6314  0.1867 -1.4980
 9183SOL    HW239012   0.587   1.758   2.157 -0.3029  0.8242  1.3920
 9184SOL     OW39013   3.126   4.354   3.316 -0.3610  0.0489 -0.3044
 9184SOL    HW139014   3.219   4.363   3.336 -0.7000  2.6666  0.1701
 9184SOL    HW239015   3.089   4.323   3.398 -0.1543 -3.4419 -1.5268
 9185SOL     OW39016   1.256   2.153  11.881 -0.1079  1.0448 -0.6331
 9185SOL    HW139017   1.222   2.239  11.907 -0.9011  1.3772 -2.8574
 9185SOL    HW239018   1.172   2.108  11.882  0.1252  0.6472  1.8646
 9186SOL     OW39019   4.161   0.130   5.494  0.2915 -0.4873  0.4303
 9186SOL    HW139020   4.162   0.214   5.538  0.0270  0.1303 -0.7428
 9186SOL    HW239021   4.214   0.168   5.424  1.3340 -0.0422  1.4692
 9187SOL     OW39022   0.186   2.995   5.086 -0.7416 -0.1464 -0.2931
 9187SOL    HW139023   0.197   2.904   5.061  0.0651 -0.5149  1.4153
 9187SOL    HW239024   0.271   3.001   5.130 -1.2098 -1.7808  0.8087
 9188SOL     OW39025   0.192   1.833   4.817 -0.2535  0.6262 -0.5376
 9188SOL    HW139026   0.254   1.882   4.763  1.1164  0.4139  0.8443
 9188SOL    HW239027   0.126   1.801   4.755 -1.7692 -0.9417  1.9057
 9189SOL     OW39028   2.058   3.766   2.650  0.0365  0.8799 -0.2211
 9189SOL    HW139029   2.146   3.776   2.616  0.0394 -0.1254 -0.4935
 9189SOL    HW239030   2.047   3.672   2.665 -1.8625  0.7399 -2.4886
 9190SOL     OW39031   3.390   0.870  17.582 -0.4726 -0.1221  0.3820
 9190SOL    HW139032   3.472   0.826  17.605 -0.1892  0.2918  0.1792
 9190SOL    HW239033   3.410   0.954  17.623 -0.4337 -0.3383  0.8025
 9191SOL     OW39034   3.094   0.405   1.461  0.3929  0.0990 -0.2778
 9191SOL    HW139035   3.064   0.315   1.473  0.8167 -0.1634 -1.1906
 9191SOL    HW239036   3.101   0.441   1.549  0.2080 -2.3822  0.7603
 9192SOL     OW39037   4.479   3.769   5.181 -0.8623  0.0747  0.2376
 9192SOL    HW139038   4.478   3.816   5.097  2.6120  1.1435  0.7551
 9192SOL    HW239039   4.409   3.710   5.157 -1.0390 -0.5119  2.2016
 9193SOL     OW39040   2.456   4.578  17.608  0.0437  0.1490  0.8053
 9193SOL    HW139041   2.478   4.493  17.570 -0.5117  0.6839 -0.7154
 9193SOL    HW239042   2.414   4.621  17.534  0.2553 -2.2867 -0.7211
 9194SOL     OW39043   1.278   2.549   4.355 -0.4413  0.0724  0.2476
 9194SOL    HW139044   1.262   2.463   4.394  3.2608 -0.9028 -0.3368
 9194SOL    HW239045   1.357   2.524   4.307 -0.4069 -0.1445  0.4198
 9195SOL     OW39046   3.630   2.163   2.602  0.0307  0.4820  0.2828
 9195SOL    HW139047   3.663   2.145   2.514 -3.9999 -0.1008 -1.1066
 9195SOL    HW239048   3.538   2.161   2.575  0.6514 -0.0765 -1.8465
 9196SOL     OW39049   2.140   1.787   8.900  0.3398  0.3054 -0.1573
 9196SOL    HW139050   2.098   1.705   8.877  1.8635 -0.9396  1.5488
 9196SOL    HW239051   2.063   1.836   8.929  0.1831  1.0002 -1.7469
 9197SOL     OW39052   0.441   0.820   3.703  0.2442 -0.1071 -0.0029
 9197SOL    HW139053   0.465   0.730   3.728  1.4760 -0.3342 -1.9961
 9197SOL    HW239054   0.425   0.813   3.608  1.1846 -0.0634 -0.1644
 9198SOL     OW39055   0.787   4.201   4.144 -0.8485  0.2278 -0.2345
 9198SOL    HW139056   0.731   4.268   4.103 -2.1804 -0.2122  0.8597
 9198SOL    HW239057   0.776   4.238   4.231 -0.7603 -0.2769 -0.0115
 9199SOL     OW39058   0.843   2.654   6.446 -0.5976  0.1974 -0.0822
 9199SOL    HW139059   0.876   2.605   6.521  1.2595 -0.2778 -1.2166
 9199SOL    HW239060   0.810   2.587   6.386  1.8658 -1.2683  0.1988
 9200SOL     OW39061   2.343   2.211   6.785  0.4037  0.3433 -0.3199
 9200SOL    HW139062   2.429   2.188   6.818 -0.0744 -0.0297  0.6591
 9200SOL    HW239063   2.363   2.286   6.730 -1.7171  1.0200 -0.1623
 9201SOL     OW39064   2.290   3.715   8.991  0.0722 -0.3287  0.4303
 9201SOL    HW139065   2.261   3.632   8.954 -0.8240  0.2155 -0.0996
 9201SOL    HW239066   2.333   3.669   9.062  0.5099  0.3809  0.6256
 9202SOL     OW39067   2.547   0.712  10.038 -0.3863  0.2476 -0.0086
 9202SOL    HW139068   2.563   0.619  10.051 -3.4963 -0.2134  0.4305
 9202SOL    HW239069   2.482   0.711   9.968  0.1635  0.7549 -0.5388
 9203SOL     OW39070   4.116   3.722   6.086 -0.2666  0.2257  0.3986
 9203SOL    HW139071   4.171   3.663   6.035 -2.4392 -0.9594 -0.5902
 9203SOL    HW239072   4.183   3.790   6.094  0.2189 -0.1025 -0.9900
 9204SOL     OW39073   0.027   4.252   1.626  0.6151 -0.6573 -0.3407
 9204SOL    HW139074   0.094   4.188   1.648 -0.2599 -2.2369 -2.3675
 9204SOL    HW239075   4.694   4.189   1.580 -2.9217  0.3430  2.5306
 9205SOL     OW39076   1.970   2.607   8.761  0.7138 -0.1216  0.0343
 9205SOL    HW139077   2.008   2.653   8.836  0.2798  0.3772 -0.0446
 9205SOL    HW239078   1.880   2.633   8.782  0.5664 -1.3551  0.9433
 9206SOL     OW39079   0.941   1.492   6.788 -0.0470 -1.0761 -0.0736
 9206SOL    HW139080   0.918   1.423   6.850 -0.7476  0.9530  1.9241
 9206SOL    HW239081   0.853   1.529   6.791 -0.0402 -1.0657 -0.0101
 9207SOL     OW39082   3.916   1.933   4.861  0.5201  0.3524 -0.2203
 9207SOL    HW139083   3.865   1.969   4.789  0.4597  1.9168  0.6031
 9207SOL    HW239084   4.001   1.967   4.834 -0.6629  1.7917 -2.1341
 9208SOL     OW39085   3.852   3.674   8.270 -0.5516  0.0928 -0.1753
 9208SOL    HW139086   3.769   3.720   8.284 -0.7879 -1.0239  1.9613
 9208SOL    HW239087   3.907   3.743   8.232  1.5804 -1.9437 -0.7462
 9209SOL     OW39088   1.089   2.865   5.541  0.5317 -0.2639  0.2585
 9209SOL    HW139089   1.143   2.835   5.469 -0.1343  0.5082 -0.5579
 9209SOL    HW239090   1.127   2.949   5.566 -0.9402  1.5292 -3.6252
 9210SOL     OW39091   1.611   2.698   5.825  0.1373 -0.1316  0.1706
 9210SOL    HW139092   1.565   2.749   5.893 -0.2786  1.1130 -1.0296
 9210SOL    HW239093   1.652   2.630   5.877  0.9912 -0.4355 -0.9169
 9211SOL     OW39094   3.333   0.268  11.298 -0.2350  0.6274 -0.0488
 9211SOL    HW139095   3.240   0.259  11.320 -0.2693  0.8013 -0.1252
 9211SOL    HW239096   3.331   0.277  11.203  0.2691  0.8916 -0.0360
 9212SOL     OW39097   2.495   2.758  17.002  0.0037  0.4405 -0.0465
 9212SOL    HW139098   2.400   2.765  16.997 -0.1460 -0.9626  0.9151
 9212SOL    HW239099   2.513   2.806  17.083 -0.8403 -0.8932  0.9250
 9213SOL     OW39100   1.638   2.988   2.243  0.0318 -0.0693  0.0550
 9213SOL    HW139101   1.565   2.930   2.264 -0.5684  0.3839 -0.7877
 9213SOL    HW239102   1.709   2.928   2.263  1.9503  2.7303  1.6712
 9214SOL     OW39103   4.452   1.759   5.019  0.4145 -0.4037  0.1549
 9214SOL    HW139104   4.372   1.775   4.969 -0.9382  0.5183  2.6152
 9214SOL    HW239105   4.493   1.685   4.975 -3.0017 -1.7512 -0.7377
 9215SOL     OW39106   2.588   2.583  15.411  0.0640 -0.0760  0.5265
 9215SOL    HW139107   2.542   2.566  15.329  0.5862  0.4880  0.1180
 9215SOL    HW239108   2.546   2.666  15.434 -0.0861 -0.2226  0.7781
 9216SOL     OW39109   0.297   1.241   8.938  0.2364 -0.6419 -0.1053
 9216SOL    HW139110   0.348   1.202   9.009  0.9103  0.7949  0.2190
 9216SOL    HW239111   0.257   1.322   8.971  0.3753 -0.4913 -0.3125
 9217SOL     OW39112   4.349   1.555   8.110  0.1561  0.6532  0.3579
 9217SOL    HW139113   4.419   1.547   8.175 -1.5682 -1.1382  1.9938
 9217SOL    HW239114   4.276   1.505   8.148  1.4891 -0.5494  1.3378
 9218SOL     OW39115   4.369   4.691   1.144 -0.6052  0.4617 -0.5509
 9218SOL    HW139116   4.453   4.684   1.098  0.1572 -1.6637  1.1603
 9218SOL    HW239117   4.388   4.682   1.237 -1.3467  0.6974 -0.3832
 9219SOL     OW39118   3.511   2.110  17.180  0.1944 -0.8726  0.2449
 9219SOL    HW139119   3.528   2.047  17.110  0.7157  0.1608 -0.5668
 9219SOL    HW239120   3.550   2.194  17.154  1.2510 -0.4328  3.2828
 9220SOL     OW39121   2.068   3.023   3.195  0.4013  0.3496  0.2933
 9220SOL    HW139122   2.115   3.088   3.143  0.8678 -0.7378 -0.6485
 9220SOL    HW239123   2.006   3.081   3.240  0.4602  0.1153  0.6731
 9221SOL     OW39124   0.459   4.136   7.428 -0.1541 -0.4775  0.7232
 9221SOL    HW139125   0.397   4.203   7.398  0.9581  0.0075 -0.4900
 9221SOL    HW239126   0.546   4.171   7.410  0.0663 -1.1941  0.3989
 9222SOL     OW39127   0.770   3.722  16.993 -0.0800  0.0472  0.0057
 9222SOL    HW139128   0.747   3.774  16.916  2.3533 -0.7876 -1.2818
 9222SOL    HW239129   0.793   3.795  17.051  0.0447 -0.5542  0.7168
 9223SOL     OW39130   1.090   2.568  12.148 -0.6695 -0.4943  0.5699
 9223SOL    HW139131   1.180   2.546  12.171 -0.5126  0.7839  1.1858
 9223SOL    HW239132   1.052   2.583  12.235 -1.4955  0.1127  0.1083
 9224SOL     OW39133   1.724   4.381   5.811  0.9793  0.1536  0.0653
 9224SOL    HW139134   1.755   4.470   5.793 -0.9401  0.6789 -0.7077
 9224SOL    HW239135   1.747   4.366   5.902 -0.1958  0.8665  0.4871
 9225SOL     OW39136   0.225   4.286  15.889  0.3592 -0.4576  0.2767
 9225SOL    HW139137   0.171   4.345  15.836  1.0402  0.2338  0.3505
 9225SOL    HW239138   0.173   4.283  15.969  0.3845 -0.9084  0.2774
 9226SOL     OW39139   3.831   1.408   5.593 -0.5481  0.1369  0.4288
 9226SOL    HW139140   3.820   1.460   5.513 -2.2201  0.0924  0.6336
 9226SOL    HW239141   3.890   1.459   5.649  1.0906 -1.5013  0.1976
 9227SOL     OW39142   3.501   3.857   1.867 -0.1021 -0.7147 -0.4752
 9227SOL    HW139143   3.467   3.773   1.837  0.0556 -1.3539  1.1375
 9227SOL    HW239144   3.421   3.908   1.882  1.5067  1.8804 -0.6138
 9228SOL     OW39145   0.970   4.678   9.123  0.5303 -0.2458  0.1708
 9228SOL    HW139146   1.058   4.683   9.160  0.1589  1.3803  0.8235
 9228SOL    HW239147   0.923   4.604   9.160  0.6554 -0.7531 -0.6726
 9229SOL     OW39148   3.557   2.948   8.483  0.4519 -0.3551 -1.0017
 9229SOL    HW139149   3.516   2.863   8.464 -2.8691  0.5476  2.0459
 9229SOL    HW239150   3.509   2.979   8.560  0.1953 -2.1199 -0.4537
 9230SOL     OW39151   3.301   0.576   5.855 -0.0647 -0.8179  0.0002
 9230SOL    HW139152   3.215   0.569   5.897  0.7719 -1.1786  1.6455
 9230SOL    HW239153   3.315   0.492   5.810  1.2644 -0.4721 -0.2163
 9231SOL     OW39154   2.232   1.862   6.522  0.2744 -0.2003 -0.4608
 9231SOL    HW139155   2.162   1.840   6.460 -2.9265  0.5835  2.9168
 9231SOL    HW239156   2.247   1.779   6.567 -0.4743  0.3409  0.7839
 9232SOL     OW39157   2.985   0.884   3.792 -0.1010  0.1206  0.0267
 9232SOL    HW139158   3.052   0.816   3.791 -2.2007 -1.8970 -1.9470
 9232SOL    HW239159   3.008   0.912   3.703 -2.9059  1.0294 -0.4102
 9233SOL     OW39160   3.906   4.522   2.620  0.5308 -0.8382  0.2899
 9233SOL    HW139161   3.983   4.579   2.621  0.0628 -0.1999  0.0125
 9233SOL    HW239162   3.907   4.486   2.709  1.3800  2.3596  1.6061
 9234SOL     OW39163   2.507   1.404   8.046  0.4232  0.6787 -0.5807
 9234SOL    HW139164   2.567   1.339   8.083 -1.8293 -0.8068  0.4458
 9234SOL    HW239165   2.530   1.482   8.095 -0.8250  2.1658 -2.3495
 9235SOL     OW39166   1.483   0.355  16.977 -0.1180 -0.1375 -0.7069
 9235SOL    HW139167   1.396   0.383  17.006 -0.1995 -1.4509  0.2910
 9235SOL    HW239168   1.515   0.332  17.064 -0.1208  1.4663 -0.2796
 9236SOL     OW39169   4.184   0.862   2.499 -0.2201 -0.0285 -0.1479
 9236SOL    HW139170   4.099   0.827   2.526  0.2707  0.0861  1.5298
 9236SOL    HW239171   4.160   0.901   2.414  0.4945 -1.2663 -0.9095
 9237SOL     OW39172   4.720   1.514  16.098 -0.0970 -0.2286 -0.1756
 9237SOL    HW139173   0.020   1.428  16.133 -0.6813 -0.2204  0.2367
 9237SOL    HW239174   0.027   1.569  16.170  3.2395  0.8839 -2.4020
 9238SOL     OW39175   0.487   3.006  14.207  0.4272  0.0274  0.2426
 9238SOL    HW139176   0.558   2.958  14.249  0.1913 -1.2148 -0.7727
 9238SOL    HW239177   0.420   3.011  14.275 -0.9466 -0.9121 -1.0584
 9239SOL     OW39178   1.254   0.800  15.228 -0.4107 -0.5839 -0.7586
 9239SOL    HW139179   1.161   0.813  15.248 -0.4926  1.3573 -2.3777
 9239SOL    HW239180   1.263   0.705  15.229 -1.2786 -0.6788 -1.1585
 9240SOL     OW39181   4.637   1.181   4.975  0.5532 -0.3011  0.0931
 9240SOL    HW139182   4.712   1.240   4.982  0.0724  0.2945  0.2694
 9240SOL    HW239183   4.658   1.129   5.053 -2.5730 -0.2648  0.9545
 9241SOL     OW39184   2.936   2.960   8.054  0.1340  0.5124 -0.2965
 9241SOL    HW139185   3.007   3.007   8.012 -0.0161  0.8362 -0.1876
 9241SOL    HW239186   2.973   2.925   8.135 -0.7118 -0.2832 -0.2475
 9242SOL     OW39187   4.157   2.870   3.579 -0.4853 -0.3884  0.2519
 9242SOL    HW139188   4.111   2.794   3.542  0.4104 -1.0133  0.4387
 9242SOL    HW239189   4.212   2.831   3.646 -0.0312 -1.7771 -0.9190
 9243SOL     OW39190   4.701   3.340   1.664  0.2000 -0.0129 -0.0497
 9243SOL    HW139191   4.681   3.263   1.718 -0.3477 -0.5268 -0.9923
 9243SOL    HW239192   4.620   3.392   1.662 -0.0924 -0.4648 -0.0814
 9244SOL     OW39193   0.299   2.749  11.750 -0.2937  0.1483 -0.7190
 9244SOL    HW139194   0.226   2.811  11.739 -0.8248 -0.6239 -1.5963
 9244SOL    HW239195   0.295   2.740  11.846  0.5067  0.2995 -0.6736
 9245SOL     OW39196   3.499   0.745   7.443  0.2519  0.1859 -0.0316
 9245SOL    HW139197   3.470   0.764   7.533  0.2855 -2.0140  0.4474
 9245SOL    HW239198   3.429   0.687   7.415  0.3146  0.2529 -0.3230
 9246SOL     OW39199   4.669   1.151  12.703 -0.2285  0.4141  0.5961
 9246SOL    HW139200   4.634   1.069  12.670  2.4198 -0.4290 -0.0723
 9246SOL    HW239201   0.037   1.149  12.673 -0.4419  1.4710 -0.1270
 9247SOL     OW39202   2.075   2.383  16.130  0.5148  0.1593 -0.4685
 9247SOL    HW139203   2.098   2.473  16.107  0.2256 -0.0344 -1.5005
 9247SOL    HW239204   2.156   2.332  16.143  0.7969  1.3954  2.7306
 9248SOL     OW39205   0.598   0.780   8.368  0.6099  0.2681 -0.7136
 9248SOL    HW139206   0.634   0.790   8.456  0.4256 -0.1668 -0.5883
 9248SOL    HW239207   0.665   0.728   8.323 -0.5187 -0.2508 -1.7911
 9249SOL     OW39208   3.872   4.050  16.279 -0.1865 -0.2407 -0.6273
 9249SOL    HW139209   3.852   3.959  16.300 -0.4919  0.1908  0.9606
 9249SOL    HW239210   3.967   4.062  16.281  0.0091 -2.2960  1.9637
 9250SOL     OW39211   3.780   3.424   8.408 -0.5529  0.1049 -0.0183
 9250SOL    HW139212   3.730   3.500   8.439 -2.0987 -0.7616 -0.3545
 9250SOL    HW239213   3.867   3.461   8.423  0.1129 -1.3876 -0.2547
 9251SOL     OW39214   3.147   1.825   4.168 -0.0852 -1.1413 -0.0887
 9251SOL    HW139215   3.144   1.847   4.074 -0.7212  0.7683  0.3721
 9251SOL    HW239216   3.055   1.813   4.191  0.5424 -1.1745  2.3607
 9252SOL     OW39217   2.463   0.177   3.384  0.2459  0.4914 -0.1675
 9252SOL    HW139218   2.370   0.169   3.403 -0.1014  1.2753 -1.5594
 9252SOL    HW239219   2.489   0.256   3.432 -1.4952  1.8173 -1.4297
 9253SOL     OW39220   4.293   1.725   1.343  0.0109 -0.2673  0.0885
 9253SOL    HW139221   4.201   1.704   1.359 -0.3676 -0.0028 -1.7716
 9253SOL    HW239222   4.309   1.769   1.427  0.2459 -0.1451 -0.0202
 9254SOL     OW39223   2.154   2.692   5.582 -0.5666 -0.0080  0.2443
 9254SOL    HW139224   2.077   2.711   5.528  0.3754 -1.1051 -1.4922
 9254SOL    HW239225   2.224   2.695   5.517 -0.7493 -0.5176  0.0254
 9255SOL     OW39226   0.651   1.748   1.810  0.4734 -0.2373  0.4677
 9255SOL    HW139227   0.599   1.712   1.738 -1.8131  2.6710  0.7003
 9255SOL    HW239228   0.734   1.741   1.762 -1.3238 -2.8461 -2.2990
 9256SOL     OW39229   0.841   0.296   4.565 -0.8764  0.4657  0.7550
 9256SOL    HW139230   0.834   0.326   4.474  0.7260 -1.0637  0.1255
 9256SOL    HW239231   0.817   0.377   4.609  0.8053  1.2948  0.1493
 9257SOL     OW39232   2.766   3.058  15.476 -0.3907  0.1163  0.0841
 9257SOL    HW139233   2.767   3.008  15.558  1.4078 -0.2500 -0.1502
 9257SOL    HW239234   2.809   2.997  15.416 -1.1655 -2.5593  2.2257
 9258SOL     OW39235   2.605   2.707  15.105  0.2433 -0.4734 -0.2806
 9258SOL    HW139236   2.559   2.625  15.123  1.5691 -1.0102  0.6586
 9258SOL    HW239237   2.675   2.662  15.058 -0.4597  0.0373 -1.7988
 9259SOL     OW39238   2.816   3.531  16.765 -0.1419  0.2197  0.0094
 9259SOL    HW139239   2.887   3.563  16.709 -0.7198  0.8033 -0.3885
 9259SOL    HW239240   2.776   3.478  16.696  2.4227 -2.2970  0.4507
 9260SOL     OW39241   3.093   1.247  16.380  0.0724  0.0455  0.1742
 9260SOL    HW139242   3.032   1.294  16.437 -0.1753  0.6426 -0.5763
 9260SOL    HW239243   3.167   1.307  16.367 -1.4265  1.9552  0.4579
 9261SOL     OW39244   0.375   1.787  16.518 -0.2292  0.2599  0.0937
 9261SOL    HW139245   0.333   1.851  16.461 -1.2572  0.2852  0.8881
 9261SOL    HW239246   0.468   1.812  16.515 -0.1779 -0.1332 -1.7815
 9262SOL     OW39247   2.535   3.135   2.572 -0.2915  0.6183 -0.0192
 9262SOL    HW139248   2.546   3.069   2.504 -1.0268 -1.1851  1.5985
 9262SOL    HW239249   2.456   3.104   2.616 -0.9884  1.1060 -0.9218
 9263SOL     OW39250   3.363   0.838  16.446 -0.1081 -0.0522 -0.5224
 9263SOL    HW139251   3.318   0.754  16.440 -3.0955  1.6233 -1.3391
 9263SOL    HW239252   3.299   0.897  16.408 -0.6459  0.2269  0.8348
 9264SOL     OW39253   2.287   1.672   6.860 -0.1495 -0.2681  0.4913
 9264SOL    HW139254   2.275   1.766   6.846  0.6688 -0.2136  0.1864
 9264SOL    HW239255   2.342   1.674   6.939  0.4154 -0.6319  0.0981
 9265SOL     OW39256   3.038   2.252   6.452  0.0340  0.0803 -0.0547
 9265SOL    HW139257   2.967   2.202   6.411 -0.1902 -0.8428  1.4182
 9265SOL    HW239258   3.108   2.190   6.435  0.4122  1.1675 -2.4639
 9266SOL     OW39259   1.518   2.477   5.295 -0.8317  0.3232 -0.3194
 9266SOL    HW139260   1.614   2.480   5.298 -0.9330  0.7224  2.1003
 9266SOL    HW239261   1.492   2.558   5.338 -0.3307  0.6043 -0.5455
 9267SOL     OW39262   4.058   2.707   9.822  0.3396  0.2762  0.3611
 9267SOL    HW139263   4.047   2.677   9.913  2.2679  2.1767  1.2064
 9267SOL    HW239264   3.975   2.740   9.788  0.0727 -2.3560 -1.5634
 9268SOL     OW39265   4.367   2.686   3.669  0.0271 -0.5431  0.4482
 9268SOL    HW139266   4.379   2.595   3.642  0.9474 -0.2248 -0.2172
 9268SOL    HW239267   4.430   2.723   3.607  0.6833 -0.5025  1.1417
 9269SOL     OW39268   1.243   1.312  12.415 -0.0691 -0.3207 -0.0078
 9269SOL    HW139269   1.175   1.258  12.456 -0.4754 -1.4959 -2.2133
 9269SOL    HW239270   1.269   1.259  12.340 -0.0499 -1.8827  1.0963
 9270SOL     OW39271   3.560   1.130   6.514 -0.3646 -0.5217  0.6318
 9270SOL    HW139272   3.492   1.064   6.526 -0.3498  0.0196  3.5807
 9270SOL    HW239273   3.639   1.077   6.507 -1.3052 -1.5712 -1.8266
 9271SOL     OW39274   2.168   2.057   6.235 -0.1238 -0.2590  0.0540
 9271SOL    HW139275   2.170   2.067   6.330 -1.5097  1.1559 -0.0649
 9271SOL    HW239276   2.207   2.140   6.206  0.2172 -0.0681  1.0594
 9272SOL     OW39277   0.154   2.082   3.590  0.2676  0.4051 -1.0112
 9272SOL    HW139278   0.177   2.009   3.647  3.5155  0.4236 -2.3440
 9272SOL    HW239279   0.062   2.089   3.615  0.5749  2.8881 -0.6428
 9273SOL     OW39280   3.910   2.741   8.618 -0.2199 -0.1859  0.0162
 9273SOL    HW139281   3.849   2.785   8.678 -0.9876  0.3448 -1.1494
 9273SOL    HW239282   3.963   2.810   8.577  1.8911 -0.3876  2.4157
 9274SOL     OW39283   1.544   1.812   5.498 -0.4495  0.1144  0.1726
 9274SOL    HW139284   1.486   1.840   5.427 -1.8909 -1.6677  0.6456
 9274SOL    HW239285   1.511   1.863   5.572 -0.2291  0.0432  0.3200
 9275SOL     OW39286   2.414   0.277  15.412  0.1386 -0.4996 -0.0096
 9275SOL    HW139287   2.359   0.327  15.472  3.4982  0.5761  2.1987
 9275SOL    HW239288   2.414   0.306  15.321 -1.1872 -1.3847 -0.2766
 9276SOL     OW39289   0.100   0.022   6.547 -0.3263 -0.2152 -0.0458
 9276SOL    HW139290   0.067   0.080   6.478 -0.7488 -1.4858 -0.9291
 9276SOL    HW239291   0.062   0.061   6.626 -0.2764  0.7000 -0.4755
 9277SOL     OW39292   0.040   0.217   5.194 -0.3180  0.2965 -0.9780
 9277SOL    HW139293   0.072   0.128   5.177  2.0129  1.1346 -0.9403
 9277SOL    HW239294   0.115   0.275   5.207 -1.5985  1.0302  3.1273
 9278SOL     OW39295   0.112   3.199   6.296 -0.0175 -1.0905 -0.2943
 9278SOL    HW139296   0.095   3.293   6.310 -1.4173 -1.4542  0.4797
 9278SOL    HW239297   0.119   3.162   6.384  1.5985 -0.3190 -0.0968
 9279SOL     OW39298   4.408   1.403   7.487 -0.4885  0.3006  0.1006
 9279SOL    HW139299   4.329   1.404   7.542 -0.6489 -0.0572 -0.1247
 9279SOL    HW239300   4.410   1.321   7.438  3.6159  1.3621 -1.5090
 9280SOL     OW39301   1.141   2.246   5.783  0.0245  0.3014 -0.1725
 9280SOL    HW139302   1.125   2.202   5.700 -0.8378  0.2020  0.0451
 9280SOL    HW239303   1.230   2.281   5.777 -0.1285  0.9384  1.1934
 9281SOL     OW39304   0.758   2.789   5.001 -0.1614 -0.8388  0.0126
 9281SOL    HW139305   0.813   2.863   5.027 -0.8107 -0.2826 -0.2010
 9281SOL    HW239306   0.781   2.780   4.909 -2.1389 -1.9407 -0.3641
 9282SOL     OW39307   1.910   0.416   8.419  0.0683 -0.6422 -0.2460
 9282SOL    HW139308   1.882   0.445   8.506 -1.0069 -1.4358 -0.3289
 9282SOL    HW239309   1.876   0.326   8.424  0.1569 -0.7104 -0.9600
 9283SOL     OW39310   4.037   1.046  12.318 -0.0678 -0.9622  0.8274
 9283SOL    HW139311   4.060   0.953  12.322  2.5898 -0.2098  2.7774
 9283SOL    HW239312   4.115   1.099  12.333 -0.2069 -0.5301  0.0352
 9284SOL     OW39313   0.791   2.347   1.021 -0.0947  0.5731  0.0947
 9284SOL    HW139314   0.865   2.313   0.971 -0.4430  2.0608 -1.3910
 9284SOL    HW239315   0.719   2.288   1.000  0.6857 -0.8329  1.3466
 9285SOL     OW39316   3.898   3.770  12.480 -0.5060  0.4736 -0.6568
 9285SOL    HW139317   3.931   3.859  12.497 -3.3058  1.6476 -1.3259
 9285SOL    HW239318   3.974   3.729  12.521 -1.3127  1.0530  1.3847
 9286SOL     OW39319   1.829   3.616   8.320  0.1978 -0.1277  0.3853
 9286SOL    HW139320   1.782   3.613   8.404 -0.4971  1.7016  0.0689
 9286SOL    HW239321   1.895   3.548   8.324 -0.5955 -0.8616  0.8848
 9287SOL     OW39322   3.220   1.201   4.623  0.4327 -0.2241 -0.3401
 9287SOL    HW139323   3.164   1.210   4.546  0.2297 -1.8556 -0.3745
 9287SOL    HW239324   3.220   1.288   4.663 -0.4875 -0.2124 -0.3813
 9288SOL     OW39325   0.137   2.090   8.731  0.0545 -0.0157 -0.2373
 9288SOL    HW139326   0.183   2.100   8.814 -1.5950  2.5945  0.3930
 9288SOL    HW239327   0.205   2.107   8.666  0.3017  4.3845  1.1527
 9289SOL     OW39328   2.019   1.082   3.107 -0.6148 -0.3324 -0.1282
 9289SOL    HW139329   2.018   1.177   3.092  1.1261 -0.4860 -1.3285
 9289SOL    HW239330   2.109   1.056   3.087 -0.3981  0.0227  0.3782
 9290SOL     OW39331   1.942   3.484   1.437  0.3977  0.3598  0.1337
 9290SOL    HW139332   1.876   3.550   1.458  1.7776  1.3977  1.1867
 9290SOL    HW239333   1.931   3.413   1.500  1.5774  0.0730  0.0183
 9291SOL     OW39334   0.151   1.134  12.479 -0.0473  0.7547  0.0219
 9291SOL    HW139335   0.195   1.213  12.512  0.8398 -0.8012  2.5983
 9291SOL    HW239336   0.189   1.071  12.540  0.2322  0.7506 -0.1576
 9292SOL     OW39337   0.686   2.594   7.304  0.0249 -0.4696  0.1194
 9292SOL    HW139338   0.744   2.524   7.275  0.4577  0.0601 -0.3051
 9292SOL    HW239339   0.631   2.549   7.367 -0.1209 -0.0604  0.2886
 9293SOL     OW39340   0.102   1.230   4.734 -0.0566 -0.5603  0.1988
 9293SOL    HW139341   0.118   1.208   4.826  1.6345  0.1964  0.0905
 9293SOL    HW239342   0.177   1.192   4.688 -1.0672 -2.3802  0.0686
 9294SOL     OW39343   4.374   3.650   8.523 -0.1695  0.5640 -0.1539
 9294SOL    HW139344   4.430   3.573   8.521  0.3883  0.9742 -0.4206
 9294SOL    HW239345   4.359   3.653   8.617 -3.0035  0.8219 -0.6184
 9295SOL     OW39346   3.921   3.928   5.400 -0.7521 -0.1139  0.3664
 9295SOL    HW139347   3.938   3.915   5.493 -2.0954 -1.6624  0.3953
 9295SOL    HW239348   3.841   3.979   5.414  0.0514 -0.2506  5.4058
 9296SOL     OW39349   0.497   1.017  12.130 -0.3112 -0.1876 -0.1649
 9296SOL    HW139350   0.520   1.004  12.222  1.9570  1.0874 -0.5428
 9296SOL    HW239351   0.406   1.037  12.149 -0.9629 -0.9079 -2.5045
 9297SOL     OW39352   4.195   3.306  14.953  0.2683  0.0509 -0.4969
 9297SOL    HW139353   4.228   3.350  15.031 -2.1910  0.5023  0.2850
 9297SOL    HW239354   4.267   3.250  14.925  0.9217  0.9519 -0.6356
 9298SOL     OW39355   4.179   4.662   7.022 -0.5517 -0.3864 -0.3745
 9298SOL    HW139356   4.208   4.699   7.105 -0.6763 -1.0191 -0.0470
 9298SOL    HW239357   4.085   4.653   7.037 -0.5397 -0.3447 -0.2785
 9299SOL     OW39358   4.109   3.069   7.556  0.2807  0.0713 -0.5135
 9299SOL    HW139359   4.169   3.006   7.595  0.3514 -0.2733 -1.1975
 9299SOL    HW239360   4.165   3.113   7.492  1.1778  1.5171  1.2584
 9300SOL     OW39361   4.541   0.857   5.339 -0.2093  0.4321  0.6694
 9300SOL    HW139362   4.580   0.778   5.376  0.0359 -2.1927 -5.2143
 9300SOL    HW239363   4.479   0.875   5.410  0.1807 -1.3137  1.4431
 9301SOL     OW39364   3.389   2.100   9.511  0.0976 -0.6046 -0.0315
 9301SOL    HW139365   3.433   2.170   9.560 -1.5098 -0.3249  0.9884
 9301SOL    HW239366   3.372   2.143   9.427  0.7228  0.1503  0.2206
 9302SOL     OW39367   0.805   3.585  10.959 -0.7709  0.9100  0.4225
 9302SOL    HW139368   0.833   3.666  10.916 -0.2738  0.3078 -0.3889
 9302SOL    HW239369   0.721   3.574  10.915 -0.7354  2.4504 -0.0231
 9303SOL     OW39370   1.797   1.592  16.013 -0.2224  0.4997 -0.1336
 9303SOL    HW139371   1.762   1.535  16.081  1.1984  0.0923  0.2506
 9303SOL    HW239372   1.840   1.530  15.954 -2.2033 -1.0745  0.0742
 9304SOL     OW39373   2.249   0.732   5.431  0.0724 -0.4035 -0.8309
 9304SOL    HW139374   2.195   0.755   5.356  0.4100 -0.3008 -1.0441
 9304SOL    HW239375   2.206   0.652   5.462 -1.4284  0.4987 -0.5899
 9305SOL     OW39376   1.942   0.708   8.396 -0.2053 -0.1514 -0.1927
 9305SOL    HW139377   1.907   0.624   8.365  2.0877 -0.9983 -0.5382
 9305SOL    HW239378   1.959   0.757   8.315  1.1957  0.8153  0.6938
 9306SOL     OW39379   4.277   3.575   9.625 -0.7098  0.4322 -0.1165
 9306SOL    HW139380   4.295   3.510   9.557 -0.5321  1.2708 -0.8643
 9306SOL    HW239381   4.354   3.546   9.673  1.1695  2.9425 -1.6589
 9307SOL     OW39382   3.933   3.780   1.366  0.0700 -0.1488  0.5953
 9307SOL    HW139383   3.931   3.787   1.270 -0.0305  0.6374  0.6580
 9307SOL    HW239384   3.958   3.687   1.363  1.3634  0.1820  1.2892
 9308SOL     OW39385   2.967   0.885   8.894  0.4782 -0.0138 -0.0497
 9308SOL    HW139386   2.901   0.826   8.857 -0.9846  0.8490  1.1937
 9308SOL    HW239387   2.929   0.968   8.865 -1.7619 -0.9509  0.2760
 9309SOL     OW39388   2.627   0.562   6.379 -0.5891  0.0501 -0.0572
 9309SOL    HW139389   2.715   0.584   6.348 -0.3364 -0.3611  0.3685
 9309SOL    HW239390   2.568   0.595   6.312  1.4569  1.3102 -1.2418
 9310SOL     OW39391   1.223   2.797   8.183  0.2437 -0.1220 -0.0385
 9310SOL    HW139392   1.197   2.709   8.157 -0.0173 -0.4631  1.3893
 9310SOL    HW239393   1.197   2.785   8.274  1.4528 -0.7469  0.2177
 9311SOL     OW39394   3.984   3.787   1.097 -0.2203 -0.0167 -0.0230
 9311SOL    HW139395   4.055   3.741   1.052  1.5329  0.6927  1.9942
 9311SOL    HW239396   4.006   3.879   1.086  1.1021 -0.2991  0.2320
 9312SOL     OW39397   1.811   4.426   6.074 -0.2291  0.2064  0.1283
 9312SOL    HW139398   1.890   4.478   6.085  0.7794 -1.1832 -0.6636
 9312SOL    HW239399   1.804   4.383   6.159  1.7861 -0.3455  0.0125
 9313SOL     OW39400   0.122   2.782   3.150 -0.1829  0.0655 -0.0959
 9313SOL    HW139401   0.116   2.817   3.061  2.4062  1.9258  0.4540
 9313SOL    HW239402   0.176   2.709   3.122 -0.1141 -0.4562  1.3931
 9314SOL     OW39403   1.685   4.634   1.278  0.3991 -0.2064 -0.3457
 9314SOL    HW139404   1.715   4.698   1.343  0.8813 -1.6686  0.8589
 9314SOL    HW239405   1.732   4.555   1.305 -0.3249 -0.6948 -0.5211
 9315SOL     OW39406   0.385   2.278   2.444 -0.0390 -0.2066 -0.5203
 9315SOL    HW139407   0.353   2.286   2.354 -1.4072  0.5579  0.0384
 9315SOL    HW239408   0.450   2.208   2.434  0.3203 -0.3715  3.2766
 9316SOL     OW39409   4.690   1.199  10.998 -0.5616  0.3665 -0.2680
 9316SOL    HW139410   0.056   1.165  11.009 -0.5661  0.3552 -0.2665
 9316SOL    HW239411   4.646   1.144  11.063  0.7597  1.3531  1.4699
 9317SOL     OW39412   4.049   0.979   4.884  0.1907  0.3455 -0.2057
 9317SOL    HW139413   4.008   0.896   4.864  1.0836 -0.7451  2.5083
 9317SOL    HW239414   3.976   1.040   4.872 -0.5770 -1.1501 -3.1908
 9318SOL     OW39415   3.047   2.638   8.591  0.1206  0.0379 -0.4732
 9318SOL    HW139416   3.129   2.678   8.621  1.1500 -3.2211  1.0841
 9318SOL    HW239417   3.058   2.547   8.617  1.1831  0.3073  0.0155
 9319SOL     OW39418   0.559   4.300   7.725  0.3905  0.0376 -0.1392
 9319SOL    HW139419   0.514   4.327   7.805  0.7401  1.1821 -0.3304
 9319SOL    HW239420   0.495   4.246   7.679  1.8067 -1.9200  0.1660
 9320SOL     OW39421   3.880   1.500   7.207  0.2901 -0.4046 -0.2244
 9320SOL    HW139422   3.831   1.500   7.289 -1.1000 -0.0691 -1.0655
 9320SOL    HW239423   3.814   1.482   7.140 -0.6748 -0.3857  0.7219
 9321SOL     OW39424   2.523   0.146  16.160 -0.4265  0.4960 -1.0931
 9321SOL    HW139425   2.614   0.145  16.133 -0.4473 -0.4081 -1.1142
 9321SOL    HW239426   2.483   0.225  16.124 -0.2555 -0.1361 -2.6676
 9322SOL     OW39427   1.702   0.228   8.675 -0.3052  0.1303 -0.3029
 9322SOL    HW139428   1.767   0.194   8.736 -0.5721 -1.8826 -1.1362
 9322SOL    HW239429   1.637   0.159   8.687 -0.2211 -0.1625 -1.5266
 9323SOL     OW39430   3.164   4.038   8.833  0.0057 -0.1468 -0.0286
 9323SOL    HW139431   3.103   4.086   8.889 -0.8733  0.0430 -1.1498
 9323SOL    HW239432   3.183   4.100   8.763 -1.9473  0.9142  0.3853
 9324SOL     OW39433   1.761   4.010   6.570  0.4822  0.4338  0.1492
 9324SOL    HW139434   1.748   3.968   6.485  1.0524 -1.8660  1.2029
 9324SOL    HW239435   1.732   3.947   6.636 -1.0379 -0.9738 -1.8616
 9325SOL     OW39436   1.000   0.336  12.605 -0.0551 -0.0884 -0.6527
 9325SOL    HW139437   0.994   0.241  12.620 -0.5611  0.1820  0.8854
 9325SOL    HW239438   0.987   0.338  12.511  0.4998 -0.0115 -0.7313
 9326SOL     OW39439   0.275   1.304  13.001  0.3181 -0.3924 -0.0888
 9326SOL    HW139440   0.314   1.269  12.922 -0.9399 -2.9099  0.4136
 9326SOL    HW239441   0.181   1.302  12.982  0.1227 -2.3752  1.0709
 9327SOL     OW39442   2.410   2.104   3.980 -0.0785 -0.4642  0.1096
 9327SOL    HW139443   2.429   2.130   4.070 -2.1849  1.1257  0.1080
 9327SOL    HW239444   2.406   2.184   3.927  1.7630 -1.1402 -1.0696
 9328SOL     OW39445   2.911   2.400   3.786  0.2914 -0.2327  0.2161
 9328SOL    HW139446   2.910   2.492   3.813 -0.2098 -0.0281 -0.4886
 9328SOL    HW239447   2.903   2.402   3.690 -6.1574  0.7854  0.7769
 9329SOL     OW39448   1.612   3.644   4.593  0.1201 -0.0392  0.1447
 9329SOL    HW139449   1.659   3.725   4.606 -0.4686  0.1290  1.2147
 9329SOL    HW239450   1.634   3.629   4.501  1.2461  0.4057  0.3480
 9330SOL     OW39451   2.342   0.331   2.055 -0.4799 -0.0282  0.1178
 9330SOL    HW139452   2.391   0.313   1.975  1.9815  0.9700  1.4131
 9330SOL    HW239453   2.261   0.361   2.013 -0.1679  1.1591  0.3569
 9331SOL     OW39454   4.336   2.538  16.672 -0.0062  0.3496  0.4840
 9331SOL    HW139455   4.256   2.583  16.645  0.5204 -0.3552 -2.2040
 9331SOL    HW239456   4.385   2.557  16.592  0.6822  0.5921  0.9679
 9332SOL     OW39457   0.942   1.295  10.153  0.2857 -0.0720  0.4740
 9332SOL    HW139458   0.945   1.338  10.068  0.3513 -0.3378  0.3438
 9332SOL    HW239459   1.011   1.231  10.137 -1.1068 -1.4468  0.0240
 9333SOL     OW39460   0.276   0.113  12.017 -0.0338  0.2658  0.5713
 9333SOL    HW139461   0.353   0.068  11.981  0.5570  1.1882  0.6800
 9333SOL    HW239462   0.214   0.044  12.042 -0.4311  1.4021  2.6360
 9334SOL     OW39463   4.462   3.494  12.695 -0.0923  0.5884  0.4162
 9334SOL    HW139464   4.376   3.496  12.737 -1.1031  1.0717 -1.6720
 9334SOL    HW239465   4.491   3.581  12.721  1.2536  0.4723 -0.6936
 9335SOL     OW39466   2.623   1.559   1.278 -0.5824 -0.1400  0.1985
 9335SOL    HW139467   2.534   1.553   1.312 -0.4227  0.5263  0.7439
 9335SOL    HW239468   2.665   1.622   1.336 -0.4763 -0.7191  0.7631
 9336SOL     OW39469   0.970   4.477   6.173  0.1130 -0.3160 -0.5902
 9336SOL    HW139470   0.945   4.560   6.132  0.4703  0.2074  0.2297
 9336SOL    HW239471   0.883   4.450   6.204 -0.3312 -0.8278 -2.3155
 9337SOL     OW39472   1.015   2.616   7.064 -0.1790 -0.5056 -0.2387
 9337SOL    HW139473   0.945   2.678   7.041  1.3715  1.1024 -0.6666
 9337SOL    HW239474   0.966   2.550   7.111 -1.4504 -0.4249 -1.4369
 9338SOL     OW39475   0.344   3.951  12.099  0.8014 -0.7848 -0.2762
 9338SOL    HW139476   0.424   3.925  12.053  1.5522 -0.5632  0.9157
 9338SOL    HW239477   0.355   3.902  12.180 -3.4480  0.6397  1.1446
 9339SOL     OW39478   1.541   3.119  15.977  0.0208  0.9003 -0.0861
 9339SOL    HW139479   1.577   3.199  15.938  1.9589  0.1591  0.1465
 9339SOL    HW239480   1.613   3.065  15.944 -1.0000 -0.3784 -0.2077
 9340SOL     OW39481   1.067   3.516   6.766 -0.3835 -0.1929  0.3842
 9340SOL    HW139482   1.059   3.526   6.861 -3.9601 -1.4366  0.1943
 9340SOL    HW239483   1.069   3.421   6.767 -1.5429 -0.1933  2.6566
 9341SOL     OW39484   0.566   2.973   4.639 -0.1035  0.4983 -0.0491
 9341SOL    HW139485   0.478   2.956   4.606  0.2536  1.2814 -1.3853
 9341SOL    HW239486   0.548   3.023   4.719 -0.3968 -1.0531  0.8656
 9342SOL     OW39487   1.073   0.925  12.368  0.5496  0.0072  0.8774
 9342SOL    HW139488   1.156   0.906  12.411  1.5440 -1.0010 -1.4724
 9342SOL    HW239489   1.091   0.887  12.282 -1.6708  1.0632 -0.0663
 9343SOL     OW39490   4.082   3.269  14.030  0.2999  0.0002  0.1975
 9343SOL    HW139491   4.065   3.287  14.122 -1.0270  0.6046 -0.1607
 9343SOL    HW239492   4.051   3.347  13.984 -0.2678  1.0927  2.4239
 9344SOL     OW39493   1.839   1.477   3.093 -0.1375  0.2094 -0.3152
 9344SOL    HW139494   1.847   1.476   3.189  0.9422  0.7653 -0.4023
 9344SOL    HW239495   1.792   1.396   3.077 -0.1065 -0.2395  1.8507
 9345SOL     OW39496   3.158   4.093  17.219  0.0553 -0.1964 -0.4326
 9345SOL    HW139497   3.115   4.149  17.283 -3.4038 -1.3852 -1.6912
 9345SOL    HW239498   3.133   4.003  17.240  0.5657  0.4968  3.1194
 9346SOL     OW39499   1.014   0.346  11.386 -0.0716 -0.1192  0.4396
 9346SOL    HW139500   0.965   0.348  11.469  0.4399  1.2293  0.7022
 9346SOL    HW239501   1.097   0.389  11.403 -0.1169  0.4101 -0.6871
 9347SOL     OW39502   3.807   3.409  13.207  0.3912  0.0858  0.2352
 9347SOL    HW139503   3.716   3.379  13.202  0.5506 -0.3595 -0.0189
 9347SOL    HW239504   3.828   3.385  13.116  0.2638  0.4536  0.1053
 9348SOL     OW39505   0.367   4.089  16.950  0.1593 -0.4283  0.0121
 9348SOL    HW139506   0.334   4.001  16.964  1.1537 -0.8885 -0.4954
 9348SOL    HW239507   0.333   4.106  16.862  0.8737  0.3236 -0.1191
 9349SOL     OW39508   2.056   3.387   8.216  0.2399 -0.1830 -0.4077
 9349SOL    HW139509   2.076   3.351   8.302 -1.4568 -0.7151 -0.2242
 9349SOL    HW239510   2.091   3.320   8.157 -1.5468  1.1598 -3.0006
 9350SOL     OW39511   4.260   3.548   5.349 -0.3330  0.0177  0.0539
 9350SOL    HW139512   4.231   3.586   5.266  1.1957 -0.0506 -0.5097
 9350SOL    HW239513   4.339   3.498   5.330 -1.0149 -1.1885  0.3817
 9351SOL     OW39514   1.570   1.457   3.745 -0.6225  0.1272 -0.2939
 9351SOL    HW139515   1.514   1.428   3.673 -0.0994  1.5093 -1.2574
 9351SOL    HW239516   1.660   1.433   3.724 -0.1593  0.3486  1.3823
 9352SOL     OW39517   3.037   4.424   6.473  0.1077 -0.2300  0.1154
 9352SOL    HW139518   3.119   4.429   6.522 -0.5042  0.7497  1.0135
 9352SOL    HW239519   3.051   4.339   6.431  0.8775 -0.6545  1.2364
 9353SOL     OW39520   0.156   0.499   7.463 -0.4615 -0.2901 -0.3749
 9353SOL    HW139521   0.230   0.450   7.497 -1.1660 -0.9847  0.1548
 9353SOL    HW239522   0.081   0.441   7.474  0.1510 -1.1786 -0.9025
 9354SOL     OW39523   2.747   4.018   1.417 -0.4605  0.2079 -0.5341
 9354SOL    HW139524   2.675   4.037   1.356 -0.2341  0.2092 -0.8037
 9354SOL    HW239525   2.707   4.058   1.494 -1.8815  1.5939 -1.9773
 9355SOL     OW39526   1.310   3.954   7.157  0.3263  0.4287  0.2936
 9355SOL    HW139527   1.224   3.930   7.123  1.1543 -1.9126 -0.1453
 9355SOL    HW239528   1.341   3.870   7.193  3.4418  2.4588  2.3692
 9356SOL     OW39529   0.319   1.172   4.589 -0.0283 -0.0691  0.3181
 9356SOL    HW139530   0.289   1.154   4.500 -0.1503 -1.4796  0.6522
 9356SOL    HW239531   0.385   1.240   4.575 -0.4859  0.4021  0.4526
 9357SOL     OW39532   0.212   4.120   3.111  0.3419  0.3178 -0.5368
 9357SOL    HW139533   0.144   4.063   3.074 -0.9036  1.5613 -0.1663
 9357SOL    HW239534   0.179   4.200   3.070 -0.2866  0.2390 -0.1890
 9358SOL     OW39535   3.463   3.628  13.322 -0.4230 -0.0993 -0.5237
 9358SOL    HW139536   3.510   3.645  13.240  0.4039 -0.7131 -0.1797
 9358SOL    HW239537   3.383   3.585  13.293  1.2245 -3.1357 -0.5044
 9359SOL     OW39538   1.317   1.547  14.147 -0.1825  0.4978 -0.1363
 9359SOL    HW139539   1.400   1.525  14.105  0.8736  2.0478  1.1471
 9359SOL    HW239540   1.316   1.643  14.151 -0.3938  0.5610 -1.5617
 9360SOL     OW39541   4.602   2.346   4.527 -0.7264 -0.2512  0.2472
 9360SOL    HW139542   4.585   2.351   4.433  0.6111  0.9744  0.0727
 9360SOL    HW239543   4.621   2.252   4.535 -1.3701 -0.4539 -0.6710
 9361SOL     OW39544   2.979   3.683   8.333  0.2182  0.5181 -0.3321
 9361SOL    HW139545   3.019   3.766   8.357 -0.3981  0.6901  0.0916
 9361SOL    HW239546   3.014   3.613   8.389  0.7703 -0.4251 -1.8409
 9362SOL     OW39547   4.003   4.091  10.895  0.6783  0.1739 -0.0433
 9362SOL    HW139548   3.933   4.131  10.843 -1.1662 -0.6494  1.7998
 9362SOL    HW239549   4.082   4.126  10.853  1.0964 -0.7790 -0.0511
 9363SOL     OW39550   3.176   0.985   0.172  0.4364 -0.7359  0.0161
 9363SOL    HW139551   3.263   1.025   0.173  1.3822 -2.8342  1.9333
 9363SOL    HW239552   3.140   0.988   0.261  1.3773 -0.8684  0.3998
 9364SOL     OW39553   3.776   0.848   8.272 -0.5523  0.0072  0.3705
 9364SOL    HW139554   3.808   0.872   8.359 -0.5414  0.4879  0.2292
 9364SOL    HW239555   3.865   0.842   8.236 -0.9168 -0.3718 -0.4444
 9365SOL     OW39556   3.307   4.040   1.915  0.7165  0.5099 -0.0204
 9365SOL    HW139557   3.336   4.126   1.946  3.0947  0.0287 -0.9242
 9365SOL    HW239558   3.228   4.021   1.965  1.2010 -0.4132  0.4021
 9366SOL     OW39559   0.041   1.453  10.020  0.0403  0.0202 -0.2838
 9366SOL    HW139560   0.032   1.443  10.115  0.8739  0.4811 -0.1556
 9366SOL    HW239561   0.132   1.485  10.015 -0.4400  1.6222  1.1833
 9367SOL     OW39562   4.199   3.242   5.128 -0.1994  0.2089  0.1352
 9367SOL    HW139563   4.159   3.174   5.074  1.2308 -0.8261  0.3692
 9367SOL    HW239564   4.246   3.193   5.195  0.4897  1.9146  0.9222
 9368SOL     OW39565   1.335   1.335   3.073  0.4385  0.2630 -0.1148
 9368SOL    HW139566   1.324   1.425   3.105  1.2525  0.6788 -0.9910
 9368SOL    HW239567   1.303   1.279   3.143 -2.8416 -1.6332 -3.1667
 9369SOL     OW39568   1.179   1.773   6.509  0.2215  0.1151 -0.4966
 9369SOL    HW139569   1.199   1.781   6.416 -2.2314 -2.0696 -1.1858
 9369SOL    HW239570   1.223   1.690   6.529  0.9826  0.6411  0.0339
 9370SOL     OW39571   3.916   0.013   2.962 -0.4278 -0.2185 -0.7893
 9370SOL    HW139572   3.825   0.033   2.937 -0.2476 -0.1142 -1.3494
 9370SOL    HW239573   3.903   4.695   3.048  2.2760 -1.0820 -0.8027
 9371SOL     OW39574   1.327   1.127   8.674 -0.1486  0.0495 -0.4986
 9371SOL    HW139575   1.373   1.116   8.757  2.1756  0.4844 -1.7326
 9371SOL    HW239576   1.397   1.156   8.614 -0.2787  2.4632  0.5156
 9372SOL     OW39577   3.580   4.362  16.300 -0.0956  0.9746 -0.3266
 9372SOL    HW139578   3.579   4.276  16.343 -2.6670  1.2248  0.0810
 9372SOL    HW239579   3.553   4.349  16.209 -4.8197  3.6308  0.7134
 9373SOL     OW39580   3.799   3.069   8.482  0.5972 -0.4037 -0.1392
 9373SOL    HW139581   3.724   3.011   8.477  1.5018 -1.5327 -0.5582
 9373SOL    HW239582   3.788   3.123   8.561  1.8208  0.2928 -0.4337
 9374SOL     OW39583   3.521   4.094   6.539  0.1132 -0.0628 -0.1108
 9374SOL    HW139584   3.540   4.156   6.469 -0.6251 -0.5597 -0.7405
 9374SOL    HW239585   3.560   4.015   6.503 -0.8555 -0.8639  0.5974
 9375SOL     OW39586   4.518   1.433   6.173  0.0146 -0.2582 -0.1123
 9375SOL    HW139587   4.531   1.422   6.079  0.5459 -1.6289  0.1316
 9375SOL    HW239588   4.574   1.370   6.218  1.1963  2.8442  2.7992
 9376SOL     OW39589   2.075   1.411   6.707  0.2276 -0.3956  0.4109
 9376SOL    HW139590   2.031   1.335   6.744 -3.2779  1.6436  0.4412
 9376SOL    HW239591   2.150   1.422   6.767  0.2995 -2.1176  0.6289
 9377SOL     OW39592   0.190   3.689   7.447  0.4826 -0.0843  0.6404
 9377SOL    HW139593   0.180   3.740   7.366  1.1463 -2.1928 -0.7769
 9377SOL    HW239594   0.116   3.627   7.449  0.2620  0.1777  0.6309
 9378SOL     OW39595   2.805   4.197  11.750  0.3065 -0.0416  0.4579
 9378SOL    HW139596   2.763   4.276  11.787  1.1445  0.0044  1.2938
 9378SOL    HW239597   2.843   4.226  11.666  1.8918  0.5320  1.3779
 9379SOL     OW39598   2.683   2.952   4.765 -0.4109 -0.0622 -0.3545
 9379SOL    HW139599   2.591   2.934   4.748  0.0960 -1.9835 -1.0754
 9379SOL    HW239600   2.731   2.870   4.754 -0.5395 -0.1898  0.0264
 9380SOL     OW39601   0.485   2.409  12.275 -0.3097 -0.0513 -0.0269
 9380SOL    HW139602   0.498   2.346  12.346 -1.4150 -0.6786 -0.3883
 9380SOL    HW239603   0.574   2.419  12.242 -0.9975  0.5550 -1.7210
 9381SOL     OW39604   0.263   2.016   9.233  0.5939 -0.2404  0.0621
 9381SOL    HW139605   0.255   2.059   9.319  1.9485  0.4305 -0.1458
 9381SOL    HW239606   0.290   1.931   9.268  0.6000 -0.1338  0.3209
 9382SOL     OW39607   2.368   3.600  10.848  0.3205 -0.5875  0.0101
 9382SOL    HW139608   2.346   3.692  10.865  0.3510 -0.9908  2.3236
 9382SOL    HW239609   2.337   3.558  10.929  2.7767  0.1071  1.3296
 9383SOL     OW39610   0.829   2.629  17.038 -0.2288 -0.1557 -0.4545
 9383SOL    HW139611   0.849   2.722  17.049  0.9275 -0.3284 -1.0550
 9383SOL    HW239612   0.860   2.594  17.121  0.0136 -1.1731 -0.9727
 9384SOL     OW39613   1.330   4.720   2.776  0.0978  0.4790 -0.4632
 9384SOL    HW139614   1.336   0.007   2.681 -0.3282  1.0295 -0.4378
 9384SOL    HW239615   1.253   4.664   2.782 -1.6438  2.9140  0.2730
 9385SOL     OW39616   4.634   1.453  10.993  0.4334  0.2917 -0.5466
 9385SOL    HW139617   4.687   1.490  10.923  3.0932 -1.3855  0.5764
 9385SOL    HW239618   4.664   1.363  11.004 -0.1207  0.1727  0.0046
 9386SOL     OW39619   1.207   2.945   5.832  0.3791 -0.4272 -1.0189
 9386SOL    HW139620   1.115   2.971   5.843  1.4875  2.0245  2.2852
 9386SOL    HW239621   1.227   2.983   5.746  2.3507 -0.2965 -0.4942
 9387SOL     OW39622   3.464   3.771   4.786 -0.0602  0.2695  0.0272
 9387SOL    HW139623   3.385   3.784   4.733  0.3894  1.9023 -0.2191
 9387SOL    HW239624   3.469   3.858   4.825  0.9639  0.4196 -0.4443
 9388SOL     OW39625   1.218   0.394   5.586 -0.4344 -0.1950 -0.3454
 9388SOL    HW139626   1.269   0.369   5.510  2.1222 -1.6470  1.8324
 9388SOL    HW239627   1.241   0.487   5.594 -0.1241 -0.3359  0.4413
 9389SOL     OW39628   0.414   3.903   3.574 -0.4840  0.0235  0.1400
 9389SOL    HW139629   0.481   3.929   3.636 -0.1702  0.5751 -0.4308
 9389SOL    HW239630   0.340   3.948   3.614 -1.6655 -2.0404  0.2942
 9390SOL     OW39631   4.586   4.175   3.272  0.4269 -0.3307  0.0260
 9390SOL    HW139632   4.615   4.266   3.271 -0.0236 -0.2121 -2.6101
 9390SOL    HW239633   4.569   4.161   3.179 -0.0065 -1.4724  0.2789
 9391SOL     OW39634   0.233   1.810   6.370  0.6383 -0.1563 -0.6728
 9391SOL    HW139635   0.239   1.837   6.278 -0.5739  1.7394 -0.1972
 9391SOL    HW239636   0.159   1.860   6.404  0.4267 -0.7437 -0.2850
 9392SOL     OW39637   1.177   2.785   7.320 -0.1729 -0.5177  0.0809
 9392SOL    HW139638   1.165   2.842   7.396  0.5251 -3.6317  2.5428
 9392SOL    HW239639   1.135   2.702   7.343 -1.4821 -0.2487 -1.3087
 9393SOL     OW39640   0.924   0.883   7.820  0.3316 -0.0909 -0.5444
 9393SOL    HW139641   0.907   0.810   7.879  0.3401  0.5576  0.2580
 9393SOL    HW239642   0.845   0.937   7.814  0.1158 -0.0142  2.9944
 9394SOL     OW39643   3.820   4.426   3.521 -1.0813 -0.7255 -0.3318
 9394SOL    HW139644   3.784   4.345   3.486 -0.9141  0.0071 -2.1795
 9394SOL    HW239645   3.739   4.469   3.551 -0.2213 -0.5440  1.7145
 9395SOL     OW39646   2.698   4.227   3.905  0.2799 -0.0316 -0.1133
 9395SOL    HW139647   2.750   4.251   3.829  0.1470 -0.6276 -0.3904
 9395SOL    HW239648   2.621   4.277   3.878 -0.8017 -0.5325  2.0068
 9396SOL     OW39649   0.660   1.806   0.598 -0.2075 -0.2680  0.3058
 9396SOL    HW139650   0.615   1.747   0.538 -0.4840  0.4532 -0.2061
 9396SOL    HW239651   0.720   1.746   0.642  1.5551 -1.7843 -4.2223
 9397SOL     OW39652   3.909   4.567  10.366  0.3828  0.3384 -0.2974
 9397SOL    HW139653   3.978   4.535  10.309  0.7001 -0.7956  0.7317
 9397SOL    HW239654   3.831   4.534  10.322 -0.6093  2.2481  0.0243
 9398SOL     OW39655   3.632   1.013   5.739  0.0196 -0.1088  0.0586
 9398SOL    HW139656   3.659   1.023   5.831 -1.5392 -0.1391  0.5166
 9398SOL    HW239657   3.560   0.951   5.753 -0.7787  0.5275 -1.3175
 9399SOL     OW39658   2.500   1.435   2.294 -0.2280 -0.5210  0.3237
 9399SOL    HW139659   2.411   1.469   2.293 -0.2747 -0.6453  0.2679
 9399SOL    HW239660   2.528   1.427   2.385  1.4371  0.2310 -0.1127
 9400SOL     OW39661   3.360   3.492   4.066 -0.6402  0.0930  0.5318
 9400SOL    HW139662   3.336   3.404   4.038 -0.1561 -0.0293  0.4977
 9400SOL    HW239663   3.372   3.488   4.161  0.0870  2.3883  0.5361
 9401SOL     OW39664   2.211   3.754  11.450 -0.3213  0.0576 -0.3786
 9401SOL    HW139665   2.234   3.818  11.382 -1.8273  0.5068 -0.4806
 9401SOL    HW239666   2.285   3.694  11.441  0.3046  0.6562  0.8191
 9402SOL     OW39667   4.641   2.731   2.600  0.5265 -0.5886 -0.3819
 9402SOL    HW139668   4.722   2.772   2.568  1.3212 -1.2484  0.7660
 9402SOL    HW239669   4.659   2.724   2.694  0.2326 -0.4185 -0.3145
 9403SOL     OW39670   0.576   0.022   6.881  0.4136 -0.3722  0.6165
 9403SOL    HW139671   0.632   0.078   6.826 -1.4647  1.3611  0.4583
 9403SOL    HW239672   0.574   4.666   6.827  0.5307  0.5737 -0.7755
 9404SOL     OW39673   0.520   3.010   9.478 -0.0601 -0.5679 -0.1713
 9404SOL    HW139674   0.544   2.941   9.539 -0.6987  0.7313  1.5618
 9404SOL    HW239675   0.522   2.964   9.394  0.3125  1.3290 -1.2056
 9405SOL     OW39676   4.520   1.681   8.831 -0.3053  0.1335  0.0326
 9405SOL    HW139677   4.586   1.721   8.889 -0.0982  3.7177 -2.6851
 9405SOL    HW239678   4.513   1.599   8.880 -3.0550 -0.5355 -1.5301
 9406SOL     OW39679   2.899   0.509   6.975 -0.1718  0.1968  0.0556
 9406SOL    HW139680   2.825   0.565   6.997  1.2761  2.0900  0.0973
 9406SOL    HW239681   2.902   0.452   7.052 -1.3366 -0.6740 -0.5532
 9407SOL     OW39682   2.046   1.446  12.201  0.0341  0.0567  0.1228
 9407SOL    HW139683   2.066   1.448  12.107 -0.0234  0.2221  0.1141
 9407SOL    HW239684   2.004   1.359  12.199 -0.2758  0.2365 -1.2897
 9408SOL     OW39685   4.600   4.492   1.415  0.1024 -0.0596  0.4334
 9408SOL    HW139686   4.570   4.445   1.337  0.1591  0.1235  0.3013
 9408SOL    HW239687   4.689   4.458   1.418  0.0183 -0.2201  1.1909
 9409SOL     OW39688   3.679   2.717   2.995 -0.3390  0.3358 -0.1881
 9409SOL    HW139689   3.647   2.802   3.026 -0.1741  0.8352 -1.3999
 9409SOL    HW239690   3.599   2.666   2.985  0.3645 -1.2774  2.3492
 9410SOL     OW39691   4.177   0.286   9.021 -0.0488  0.5142  0.4516
 9410SOL    HW139692   4.198   0.193   9.031 -2.9195 -0.3880 -1.7831
 9410SOL    HW239693   4.162   0.287   8.927 -0.1965 -0.6431  0.4605
 9411SOL     OW39694   3.145   0.108   0.673  0.2203  0.1334  0.6114
 9411SOL    HW139695   3.230   0.096   0.631  0.4910 -0.2504  1.2705
 9411SOL    HW239696   3.078   0.072   0.615 -0.9457  0.4641  1.7638
 9412SOL     OW39697   3.952   4.487   3.943  0.1252 -0.0124 -0.1573
 9412SOL    HW139698   4.016   4.417   3.929  1.6439  1.6399 -1.3793
 9412SOL    HW239699   3.956   4.539   3.863  0.8532 -0.0515 -0.1430
 9413SOL     OW39700   3.402   2.835   7.888  0.9461 -0.9209  0.0698
 9413SOL    HW139701   3.351   2.897   7.941  0.5264 -1.0583 -0.1722
 9413SOL    HW239702   3.465   2.811   7.955  2.0853 -0.2264 -0.7353
 9414SOL     OW39703   0.038   3.957  16.034 -0.5793  0.2354 -0.2491
 9414SOL    HW139704   0.028   3.900  16.110 -1.9948 -0.7060 -1.1462
 9414SOL    HW239705   0.055   4.043  16.073  0.4624 -0.0729 -0.0300
 9415SOL     OW39706   3.117   1.710   8.523  0.2788 -0.6012  0.2315
 9415SOL    HW139707   3.198   1.690   8.570  0.7201  0.1723 -0.1989
 9415SOL    HW239708   3.053   1.679   8.587 -0.9226  1.0449 -0.1748
 9416SOL     OW39709   4.339   3.678   4.450 -0.1584  0.8233  0.1000
 9416SOL    HW139710   4.271   3.612   4.457 -0.5783  1.3527  1.0759
 9416SOL    HW239711   4.388   3.661   4.369  0.1956 -2.8494  1.0754
 9417SOL     OW39712   0.172   2.952   7.892 -0.0575 -0.4587  0.0029
 9417SOL    HW139713   0.174   2.957   7.797 -1.2692 -0.8351 -0.0336
 9417SOL    HW239714   0.121   2.872   7.904 -1.6438  0.2464 -2.1134
 9418SOL     OW39715   2.241   0.473   1.273  0.0541  0.4449 -0.6837
 9418SOL    HW139716   2.266   0.422   1.196 -1.7088  1.0569 -1.6649
 9418SOL    HW239717   2.289   0.549   1.242  2.0122 -0.9429 -1.1000
 9419SOL     OW39718   4.220   4.049   2.097 -0.1434 -0.0160 -0.1104
 9419SOL    HW139719   4.168   4.118   2.055  1.6774  2.8493  2.3179
 9419SOL    HW239720   4.302   4.097   2.087  1.7539 -3.1940  0.1984
 9420SOL     OW39721   2.923   1.667   7.641  0.2030 -0.2832 -0.5106
 9420SOL    HW139722   2.897   1.622   7.561 -1.2991  0.2546 -0.3266
 9420SOL    HW239723   2.857   1.736   7.639  1.2089  0.6990 -0.0937
 9421SOL     OW39724   2.668   3.699  14.485 -0.0176  0.6439 -0.2930
 9421SOL    HW139725   2.618   3.720  14.406 -0.4728  0.4330 -0.0614
 9421SOL    HW239726   2.747   3.669  14.440 -1.9892 -2.5047 -1.6603
 9422SOL     OW39727   2.436   0.404   4.758  0.1345 -0.2539 -0.1133
 9422SOL    HW139728   2.510   0.423   4.701 -0.0153  2.8475  0.7264
 9422SOL    HW239729   2.464   0.325   4.803 -1.6019 -1.4392 -1.1215
 9423SOL     OW39730   0.997   0.072   2.815  0.0060 -0.1690 -0.5336
 9423SOL    HW139731   1.015   4.702   2.828 -0.5165  0.0068  1.4005
 9423SOL    HW239732   1.001   0.084   2.720 -2.7373  2.2557 -0.3567
 9424SOL     OW39733   0.115   3.866   3.356  0.2581  0.0462  0.5771
 9424SOL    HW139734   0.071   3.833   3.278 -0.4167 -0.3270  1.1060
 9424SOL    HW239735   0.196   3.894   3.314 -1.4814  2.2521 -1.2886
 9425SOL     OW39736   2.739   0.913   3.871 -0.0317  0.0207  0.3987
 9425SOL    HW139737   2.825   0.874   3.856 -1.1460 -2.2004 -0.2600
 9425SOL    HW239738   2.712   0.861   3.946  0.7178  0.6348  1.0876
 9426SOL     OW39739   2.838   1.135   4.558 -0.2132 -0.2567  0.2956
 9426SOL    HW139740   2.872   1.045   4.564  0.6197  0.3192  4.0947
 9426SOL    HW239741   2.884   1.194   4.618 -0.9444  2.6013 -2.0141
 9427SOL     OW39742   3.251   4.168   4.416 -0.1267 -0.1019 -0.3809
 9427SOL    HW139743   3.195   4.210   4.482 -0.0120 -1.1408  0.3681
 9427SOL    HW239744   3.206   4.084   4.412  2.2459 -1.4162  0.3892
 9428SOL     OW39745   1.402   0.050   8.424  0.1469  0.0154 -0.2697
 9428SOL    HW139746   1.484   0.002   8.422  0.6712  0.8886  0.2105
 9428SOL    HW239747   1.340   4.712   8.465 -1.6262  0.4951 -2.3006
 9429SOL     OW39748   1.460   3.131   8.361 -0.2549 -0.1044 -0.6799
 9429SOL    HW139749   1.407   3.203   8.393  1.0824 -1.4348  4.5286
 9429SOL    HW239750   1.494   3.083   8.436 -1.3834 -1.5584 -1.1020
 9430SOL     OW39751   0.834   0.491   4.302  0.0977  0.4335  0.1353
 9430SOL    HW139752   0.855   0.559   4.238  0.3045  0.5722  0.3511
 9430SOL    HW239753   0.743   0.482   4.274  0.5960  0.1201 -1.3871
 9431SOL     OW39754   2.684   2.880   8.541 -0.2261  0.8218 -0.2614
 9431SOL    HW139755   2.691   2.938   8.464 -1.8507  1.2010 -0.1137
 9431SOL    HW239756   2.748   2.925   8.596  0.0385 -1.6442  1.4397
 9432SOL     OW39757   4.075   2.305  17.327 -0.2965 -0.2515  0.2770
 9432SOL    HW139758   4.110   2.323  17.240 -2.2525  0.4038 -0.3715
 9432SOL    HW239759   4.007   2.244  17.299  1.2848 -0.7406 -2.4544
 9433SOL     OW39760   2.325   0.302   7.135 -0.4497  0.1494 -0.5238
 9433SOL    HW139761   2.392   0.370   7.146 -0.8685  0.5394 -0.3822
 9433SOL    HW239762   2.283   0.288   7.220  0.5848  0.3528  0.0222
 9434SOL     OW39763   2.158   2.874  11.903  0.5957  0.2101 -0.9678
 9434SOL    HW139764   2.215   2.925  11.844  0.1247  0.6578 -1.0396
 9434SOL    HW239765   2.088   2.937  11.920 -0.1967 -1.3149  1.3052
 9435SOL     OW39766   2.512   4.306   2.443  0.4642 -0.2119 -0.1743
 9435SOL    HW139767   2.440   4.365   2.463  1.5617  0.1107  2.7602
 9435SOL    HW239768   2.534   4.324   2.351 -0.9830  1.1994 -0.2497
 9436SOL     OW39769   0.837   3.887   3.941  0.0698  0.0040 -0.1922
 9436SOL    HW139770   0.857   3.793   3.937  1.9878  0.4205 -0.5464
 9436SOL    HW239771   0.804   3.893   4.031 -2.4525  0.6560 -1.1778
 9437SOL     OW39772   3.674   3.338   5.647 -0.6482  0.1202  0.1435
 9437SOL    HW139773   3.718   3.362   5.728 -1.5060  0.1791  0.5935
 9437SOL    HW239774   3.728   3.383   5.582  1.6817 -3.6214 -0.4908
 9438SOL     OW39775   3.475   0.133   6.158 -0.0613 -0.1750  0.0395
 9438SOL    HW139776   3.496   0.218   6.120  0.7592  0.2862  1.5247
 9438SOL    HW239777   3.424   0.156   6.236  0.9280  2.8585 -0.2156
 9439SOL     OW39778   3.779   1.177  14.928  0.2692 -0.2862  0.3076
 9439SOL    HW139779   3.692   1.198  14.894  1.1594  0.4504 -1.4864
 9439SOL    HW239780   3.818   1.141  14.848  0.4077  0.2624  0.1290
 9440SOL     OW39781   2.113   0.325   3.171 -0.1422 -0.2221  0.3381
 9440SOL    HW139782   2.073   0.242   3.146 -1.5611 -0.0098  1.9333
 9440SOL    HW239783   2.153   0.342   3.086  0.3947  0.4172  0.7181
 9441SOL     OW39784   1.585   1.271  12.659 -0.8306 -0.2751 -0.0940
 9441SOL    HW139785   1.530   1.194  12.673  1.0174 -1.4910  0.5064
 9441SOL    HW239786   1.661   1.222  12.628 -0.3482 -0.0360  0.7104
 9442SOL     OW39787   2.489   2.464  15.178  0.1044 -0.2476 -0.5304
 9442SOL    HW139788   2.528   2.379  15.198  0.8205  0.8850  2.9182
 9442SOL    HW239789   2.411   2.434  15.133  1.3484 -1.7866 -1.6658
 9443SOL     OW39790   1.881   4.202  11.020 -0.3305 -0.1262  0.0608
 9443SOL    HW139791   1.974   4.178  11.024 -0.2309  0.3225  0.4908
 9443SOL    HW239792   1.859   4.189  11.112 -0.7058 -0.2878 -0.0511
 9444SOL     OW39793   0.337   4.273  10.462 -0.1224 -0.4504  0.1304
 9444SOL    HW139794   0.289   4.209  10.408 -2.8846  3.0381 -1.5272
 9444SOL    HW239795   0.336   4.352  10.408  0.3428 -0.1027  0.6405
 9445SOL     OW39796   0.991   2.547  13.975  0.2009  0.1733  0.2737
 9445SOL    HW139797   0.906   2.578  14.007 -1.8763 -2.6572 -2.4637
 9445SOL    HW239798   1.019   2.621  13.922 -1.2288 -0.8581 -1.9432
 9446SOL     OW39799   3.039   3.364   4.395 -0.1611 -0.2823  0.4984
 9446SOL    HW139800   3.083   3.293   4.349  1.3308 -0.8372  2.7993
 9446SOL    HW239801   2.955   3.360   4.348  0.6819 -0.5749 -0.9638
 9447SOL     OW39802   3.427   0.011   4.297  0.1531 -0.4737 -0.3801
 9447SOL    HW139803   3.506   0.057   4.268 -2.0960  2.6513 -1.4372
 9447SOL    HW239804   3.367   0.085   4.291 -0.1462 -0.7580 -0.8506
 9448SOL     OW39805   3.582   1.607   6.421  0.4557 -0.0061 -0.5550
 9448SOL    HW139806   3.670   1.572   6.434  0.8563  1.2549  0.1018
 9448SOL    HW239807   3.536   1.523   6.417 -2.4882  1.6012  0.6229
 9449SOL     OW39808   3.345   2.683   3.120  0.1846  0.6592 -0.2895
 9449SOL    HW139809   3.371   2.669   3.029 -0.4998  2.6120 -0.7854
 9449SOL    HW239810   3.284   2.752   3.097 -2.0065 -1.2152 -0.0498
 9450SOL     OW39811   2.409   4.059   9.247 -0.2007 -0.0846  0.7330
 9450SOL    HW139812   2.359   4.031   9.170  1.1883  1.6615 -0.8278
 9450SOL    HW239813   2.424   3.978   9.295  0.2888 -0.9129 -0.7965
 9451SOL     OW39814   0.679   1.927  10.077  0.1091  0.2044  0.6142
 9451SOL    HW139815   0.667   1.887   9.992  1.3166  1.3270 -0.0885
 9451SOL    HW239816   0.742   1.996  10.056  2.8527 -2.0891  1.2745
 9452SOL     OW39817   3.832   0.042   6.239 -0.1880 -0.2314  0.1549
 9452SOL    HW139818   3.892   0.042   6.165  0.9524  1.4726  1.0735
 9452SOL    HW239819   3.880   4.711   6.302  2.5780  1.6303 -0.3747
 9453SOL     OW39820   4.444   4.415   2.210  0.7659  0.1688  0.6165
 9453SOL    HW139821   4.434   4.439   2.118 -1.4951 -0.0631  0.7872
 9453SOL    HW239822   4.382   4.475   2.251  0.6405  0.8523 -0.5717
 9454SOL     OW39823   1.408   3.922   7.988 -0.2927  0.4030  0.1875
 9454SOL    HW139824   1.502   3.940   7.990 -0.5267  1.6346  0.2498
 9454SOL    HW239825   1.390   3.944   8.079  0.8344 -1.4873  0.8490
 9455SOL     OW39826   3.626   2.669   3.968  0.4277 -0.5009 -0.3921
 9455SOL    HW139827   3.561   2.603   3.942  0.3183 -0.5844  0.0817
 9455SOL    HW239828   3.632   2.652   4.062 -0.2377  1.3847 -0.0115
 9456SOL     OW39829   4.672   2.993   6.202  0.1937  0.1749  0.3280
 9456SOL    HW139830   0.022   3.047   6.230  1.0127 -0.7651 -0.0030
 9456SOL    HW239831   4.598   3.009   6.262 -0.6524 -0.9434 -0.4088
 9457SOL     OW39832   1.166   2.711   8.444  0.2211 -0.8072 -0.1387
 9457SOL    HW139833   1.248   2.761   8.450 -0.5501  0.5831 -1.2394
 9457SOL    HW239834   1.183   2.643   8.509  0.4853 -1.3129 -0.7387
 9458SOL     OW39835   3.173   0.156   2.869  0.0936 -0.0990 -0.0114
 9458SOL    HW139836   3.249   0.187   2.820 -1.4643  0.9504 -1.7529
 9458SOL    HW239837   3.135   0.241   2.890 -0.3256 -0.2793 -0.0512
 9459SOL     OW39838   2.957   1.074   2.360 -0.5836 -0.0518  0.5739
 9459SOL    HW139839   3.028   1.137   2.347  0.1739 -1.4112 -1.8140
 9459SOL    HW239840   2.883   1.127   2.389  0.0447  1.6287 -0.8967
 9460SOL     OW39841   1.971   2.467   3.573 -0.8588 -0.2105 -0.1438
 9460SOL    HW139842   2.005   2.388   3.616 -0.7111  0.5402  1.1262
 9460SOL    HW239843   2.012   2.454   3.488 -0.2423  1.1485 -0.0491
 9461SOL     OW39844   2.156   0.999   1.598 -0.2792  0.4936 -0.0486
 9461SOL    HW139845   2.126   0.967   1.683  0.3265 -0.0858 -0.0513
 9461SOL    HW239846   2.153   0.924   1.539  0.3219 -0.4774  1.1683
 9462SOL     OW39847   0.265   1.726   9.278  0.1058 -0.0857  0.1466
 9462SOL    HW139848   0.276   1.706   9.185 -3.0473  0.3639 -0.3310
 9462SOL    HW239849   0.196   1.666   9.306  0.3599  0.9583  2.9256
 9463SOL     OW39850   2.500   3.076   5.690 -0.2270  0.6253  0.0548
 9463SOL    HW139851   2.517   3.171   5.692 -1.4992  0.8657 -1.0104
 9463SOL    HW239852   2.555   3.039   5.622 -1.8724  0.5103 -1.2049
 9464SOL     OW39853   1.085   1.827   2.999  0.5757  0.1353 -0.1806
 9464SOL    HW139854   1.157   1.885   3.022  0.9012 -0.5058  0.4088
 9464SOL    HW239855   1.134   1.746   2.993 -0.0629 -0.3908  1.7343
 9465SOL     OW39856   1.835   1.553   9.262  0.2462  0.4087 -0.0703
 9465SOL    HW139857   1.777   1.615   9.305 -0.1099 -0.6967  1.0371
 9465SOL    HW239858   1.846   1.600   9.179  1.6428  1.8774  0.9450
 9466SOL     OW39859   2.402   0.671   9.801  0.9705  0.3280  0.1615
 9466SOL    HW139860   2.395   0.617   9.722  2.3186  0.7365 -0.2310
 9466SOL    HW239861   2.338   0.737   9.775 -0.0718 -0.2345  1.3036
 9467SOL     OW39862   3.235   3.745   4.587 -0.2416  0.2514  0.5549
 9467SOL    HW139863   3.153   3.746   4.637 -0.0667  0.5970  0.8321
 9467SOL    HW239864   3.208   3.797   4.511 -1.0087 -1.5100 -0.3951
 9468SOL     OW39865   4.198   2.674   0.540 -0.2279 -0.2396  0.1017
 9468SOL    HW139866   4.180   2.675   0.634 -2.6071  0.3882 -0.3530
 9468SOL    HW239867   4.206   2.580   0.528 -1.7176 -0.3316 -0.2781
 9469SOL     OW39868   4.025   3.896   3.909  0.6488 -0.5473  0.3868
 9469SOL    HW139869   4.022   3.927   3.818 -1.5683 -0.1386  0.5791
 9469SOL    HW239870   3.946   3.841   3.906  0.0052  0.3367  1.4019
 9470SOL     OW39871   2.916   4.021   0.562  0.2786 -0.2692  0.1812
 9470SOL    HW139872   2.986   3.965   0.528  1.3062  0.1121  1.6909
 9470SOL    HW239873   2.836   3.976   0.535  1.2036 -0.7352 -1.8303
 9471SOL     OW39874   2.253   0.207   2.549  0.1619 -0.2123  0.2652
 9471SOL    HW139875   2.250   0.250   2.463 -0.1438  1.1603  0.9717
 9471SOL    HW239876   2.340   0.167   2.547  0.7549  1.0602  1.2132
 9472SOL     OW39877   1.737   1.790   8.547  0.4575 -0.2652 -0.1762
 9472SOL    HW139878   1.681   1.806   8.623  1.4492 -0.7286  0.6469
 9472SOL    HW239879   1.686   1.799   8.467  1.0820 -3.9757 -0.9973
 9473SOL     OW39880   2.813   1.494  16.818 -0.0058 -0.4116 -0.3579
 9473SOL    HW139881   2.851   1.406  16.818 -0.6607 -0.6945  0.5506
 9473SOL    HW239882   2.896   1.539  16.807 -0.1343 -0.2357 -0.5960
 9474SOL     OW39883   1.847   3.607   2.337  0.0754 -0.0816 -0.4705
 9474SOL    HW139884   1.881   3.694   2.362  2.4163 -0.8236 -1.0380
 9474SOL    HW239885   1.796   3.592   2.416 -0.5384  1.5649 -0.5594
 9475SOL     OW39886   2.641   3.888  15.808 -0.0376 -0.1276 -0.3783
 9475SOL    HW139887   2.548   3.889  15.787  0.3374  0.9181 -1.9666
 9475SOL    HW239888   2.666   3.800  15.779  0.8764  0.0797 -0.2358
 9476SOL     OW39889   4.711   3.236   6.789 -0.2743  0.0324  0.0004
 9476SOL    HW139890   0.030   3.174   6.848  1.8435  2.7527  1.3119
 9476SOL    HW239891   0.046   3.311   6.776 -1.2827  0.5749 -1.4702
 9477SOL     OW39892   0.847   3.946   2.621  0.2435  0.0154 -0.0927
 9477SOL    HW139893   0.926   3.996   2.643 -0.3255  1.9060 -2.2717
 9477SOL    HW239894   0.790   4.019   2.596  0.4269  0.2300  0.1126
 9478SOL     OW39895   1.692   0.350  13.106 -0.0307  0.2912  0.3021
 9478SOL    HW139896   1.667   0.365  13.197  0.1323 -0.4910  0.4686
 9478SOL    HW239897   1.677   0.256  13.101 -0.3880  0.3862 -0.4096
 9479SOL     OW39898   2.445   3.538  11.160 -0.1208 -0.0343 -0.1747
 9479SOL    HW139899   2.456   3.570  11.249 -0.2775 -0.4233 -0.0169
 9479SOL    HW239900   2.354   3.563  11.140  0.4268  1.7853 -0.4228
 9480SOL     OW39901   2.319   4.115   3.978  0.1041 -0.3424 -0.1957
 9480SOL    HW139902   2.362   4.101   3.893 -1.5811 -0.5573 -1.0214
 9480SOL    HW239903   2.247   4.173   3.952 -0.3342  0.3261  2.5171
 9481SOL     OW39904   4.347   0.550   8.048 -0.1732 -0.0009  0.0173
 9481SOL    HW139905   4.380   0.524   7.962  0.1138 -0.5430  0.2942
 9481SOL    HW239906   4.364   0.468   8.093  0.5170 -0.6448 -1.4153
 9482SOL     OW39907   3.071   1.339  12.385  0.9288  0.0057 -0.0889
 9482SOL    HW139908   2.988   1.300  12.413  1.5688 -1.0121  0.3986
 9482SOL    HW239909   3.086   1.283  12.309 -3.8877 -0.5776 -0.6230
 9483SOL     OW39910   2.414   1.397   5.563 -0.2844 -0.0594 -0.3816
 9483SOL    HW139911   2.375   1.404   5.650 -0.2548 -1.5353 -0.2477
 9483SOL    HW239912   2.474   1.322   5.572  0.7248  1.0827  2.6407
 9484SOL     OW39913   4.525   3.782   6.439  0.1667 -0.2967  0.2891
 9484SOL    HW139914   4.515   3.688   6.423  0.8779 -0.5848  1.4877
 9484SOL    HW239915   4.434   3.801   6.462  0.7928  2.1704  0.7774
 9485SOL     OW39916   3.557   0.126   0.681  0.0595  0.3326 -0.1646
 9485SOL    HW139917   3.616   0.051   0.684 -0.9194 -0.4413 -0.3217
 9485SOL    HW239918   3.483   0.091   0.630  0.0924  2.0003 -1.3910
 9486SOL     OW39919   3.960   0.244   9.238  0.4100  0.2623  0.1698
 9486SOL    HW139920   3.986   0.153   9.224  2.5470  0.9066  0.1015
 9486SOL    HW239921   3.906   0.263   9.161 -1.5400 -1.3302  1.1336
 9487SOL     OW39922   2.519   1.879   6.160  0.2743 -0.4568  0.5603
 9487SOL    HW139923   2.556   1.931   6.231 -0.1324  0.6735 -0.0380
 9487SOL    HW239924   2.584   1.903   6.094 -1.4512 -2.7346 -1.9839
 9488SOL     OW39925   3.146   3.478   0.741  0.5574  0.0151 -0.1742
 9488SOL    HW139926   3.076   3.544   0.731 -0.1616 -0.5187  1.3970
 9488SOL    HW239927   3.186   3.472   0.654  0.4032  1.5624 -0.3685
 9489SOL     OW39928   4.326   1.869   4.349 -0.0504  0.5428  0.0433
 9489SOL    HW139929   4.398   1.806   4.353 -0.4792 -0.0819 -1.9581
 9489SOL    HW239930   4.257   1.822   4.396  0.4547  1.9032  2.1305
 9490SOL     OW39931   1.072   2.005   6.613  0.2605  0.1013 -0.0877
 9490SOL    HW139932   1.123   1.940   6.564 -0.2145  0.2834 -0.8276
 9490SOL    HW239933   0.991   1.955   6.623  0.9139 -0.5749  1.7838
 9491SOL     OW39934   1.091   1.701   3.664 -0.1138  0.3841 -0.6825
 9491SOL    HW139935   1.125   1.618   3.631 -2.2418  0.7438 -3.7033
 9491SOL    HW239936   1.023   1.723   3.601  0.7102  0.1919 -1.6466
 9492SOL     OW39937   2.475   4.339   9.326 -0.9267 -0.4795  0.5998
 9492SOL    HW139938   2.549   4.387   9.288 -0.7741 -1.3001 -0.1543
 9492SOL    HW239939   2.476   4.250   9.291  0.5215 -0.5323  0.7640
 9493SOL     OW39940   1.341   2.094   4.199  0.1269 -0.2183  0.3823
 9493SOL    HW139941   1.405   2.135   4.257  1.1189 -2.0143  0.5468
 9493SOL    HW239942   1.387   2.073   4.118 -1.0743 -1.1219 -0.0638
 9494SOL     OW39943   4.340   2.665   9.051  0.3017  0.2618 -0.5309
 9494SOL    HW139944   4.427   2.656   9.090 -0.4220 -0.1936  0.9693
 9494SOL    HW239945   4.349   2.618   8.969 -0.5289  1.8046 -1.5033
 9495SOL     OW39946   0.196   4.712   5.143  0.4425 -0.2163 -0.0856
 9495SOL    HW139947   0.176   4.624   5.174  1.5165 -0.2012  0.6326
 9495SOL    HW239948   0.132   4.716   5.072 -0.5925 -1.1119  0.7925
 9496SOL     OW39949   1.183   0.333   3.210 -0.0874 -0.5274 -0.6502
 9496SOL    HW139950   1.198   0.303   3.121 -0.7155 -0.9022 -0.6301
 9496SOL    HW239951   1.183   0.252   3.261  2.9815  0.8266  1.5215
 9497SOL     OW39952   2.603   1.618  10.406  0.4194  0.3652  0.9724
 9497SOL    HW139953   2.585   1.539  10.355  0.9405  0.0865  1.2201
 9497SOL    HW239954   2.697   1.634  10.410  0.6386 -0.2725 -1.6489
 9498SOL     OW39955   0.807   2.823   5.503 -0.2089  0.1542  0.1983
 9498SOL    HW139956   0.747   2.750   5.520  2.2333 -1.8335  0.2376
 9498SOL    HW239957   0.857   2.783   5.432 -1.8036  0.3362 -1.0256
 9499SOL     OW39958   3.943   2.226   3.838  0.6232 -0.1269  0.0118
 9499SOL    HW139959   3.891   2.246   3.916 -1.5514  0.2943 -1.5374
 9499SOL    HW239960   3.868   2.243   3.780 -0.6549 -3.7151  0.6170
 9500SOL     OW39961   3.497   1.538   7.297  0.6758  0.1524  0.0921
 9500SOL    HW139962   3.448   1.456   7.299  1.0839 -0.0939  0.0199
 9500SOL    HW239963   3.576   1.511   7.251  0.7351 -1.6969  1.2840
 9501SOL     OW39964   4.216   3.715   0.667 -0.0282  0.1728 -0.9398
 9501SOL    HW139965   4.228   3.673   0.582 -0.2099  2.0516 -1.8934
 9501SOL    HW239966   4.271   3.792   0.654  0.0136 -0.0042 -1.7953
 9502SOL     OW39967   4.263   1.321   4.615 -0.1319  0.4395  0.0737
 9502SOL    HW139968   4.321   1.303   4.541  0.1054  0.1363  0.3349
 9502SOL    HW239969   4.180   1.322   4.568 -0.3403 -1.9996  0.3870
 9503SOL     OW39970   1.381   2.862   1.330 -0.6173  0.2312 -0.4165
 9503SOL    HW139971   1.317   2.863   1.401 -1.0386  0.7521 -0.7976
 9503SOL    HW239972   1.352   2.941   1.284 -1.8589 -1.4883 -2.5579
 9504SOL     OW39973   2.995   1.583   4.706  0.1119  0.4709 -0.0050
 9504SOL    HW139974   2.942   1.551   4.634  1.8934  0.6759 -1.4144
 9504SOL    HW239975   2.924   1.641   4.735  0.3043  0.3711  0.6645
 9505SOL     OW39976   1.480   4.513   9.260  0.3002 -0.0395  0.3173
 9505SOL    HW139977   1.567   4.508   9.222 -1.5803  0.2790 -4.0237
 9505SOL    HW239978   1.504   4.501   9.352  0.5053  1.7866  0.5032
 9506SOL     OW39979   3.500   2.587   2.151 -0.2873  0.0459 -0.9654
 9506SOL    HW139980   3.439   2.657   2.127 -0.5415 -0.5409 -1.9802
 9506SOL    HW239981   3.452   2.513   2.115 -1.5451 -1.0664  2.9953
 9507SOL     OW39982   1.230   2.453  14.610 -0.0025  0.3678 -0.6408
 9507SOL    HW139983   1.197   2.528  14.658 -0.6487 -1.7346  2.2154
 9507SOL    HW239984   1.213   2.483  14.521 -1.6119 -1.1283 -0.8517
 9508SOL     OW39985   3.452   1.264   1.261  0.4419  0.2778  0.2415
 9508SOL    HW139986   3.376   1.269   1.319 -0.0748 -0.9080 -0.3483
 9508SOL    HW239987   3.518   1.315   1.308  1.5035 -1.2358  0.4098
 9509SOL     OW39988   4.702   3.503   0.243 -0.5680 -0.4822  0.3218
 9509SOL    HW139989   0.047   3.546   0.296 -0.9894  1.5998 -0.8441
 9509SOL    HW239990   0.022   3.425   0.208  0.7599  1.2059 -1.8522
 9510SOL     OW39991   0.944   2.253   2.180  0.2102 -0.1662 -0.4093
 9510SOL    HW139992   0.981   2.211   2.102 -1.0402 -0.3504 -0.9023
 9510SOL    HW239993   0.857   2.213   2.189  0.0275  0.6765  1.5902
 9511SOL     OW39994   2.462   3.533   3.508  0.2971 -0.0544  0.6700
 9511SOL    HW139995   2.551   3.510   3.481  0.3691  0.1423  0.7391
 9511SOL    HW239996   2.411   3.460   3.473 -1.1810  2.0246 -1.5055
 9512SOL     OW39997   0.509   0.241  11.408  0.3984  0.0494  0.1205
 9512SOL    HW139998   0.480   0.309  11.469  1.1079  1.1863 -0.8125
 9512SOL    HW239999   0.421   0.210  11.386  2.2035 -3.1948 -2.5273
 9513SOL     OW40000   0.613   3.800  12.195  0.2755 -0.1676  0.1144
 9513SOL    HW140001   0.643   3.709  12.193  1.0493  0.0863  0.1381
 9513SOL    HW240002   0.530   3.805  12.242  1.6369  0.0956  2.4869
 9514SOL     OW40003   1.455   1.392  13.134 -1.0494 -0.3639 -0.1711
 9514SOL    HW140004   1.415   1.361  13.215 -0.3497 -0.6529  0.0738
 9514SOL    HW240005   1.388   1.384  13.066 -0.7318 -0.5591 -0.4681
 9515SOL     OW40006   2.090   1.367   3.651 -0.0149 -0.2415 -0.0562
 9515SOL    HW140007   2.172   1.399   3.689 -0.3372  0.8228 -0.2443
 9515SOL    HW240008   2.045   1.451   3.639  0.4987  0.0954  0.3303
 9516SOL     OW40009   1.985   3.476   7.503 -0.7841 -0.1087  0.3367
 9516SOL    HW140010   2.031   3.460   7.586  0.6639 -1.6076 -0.7516
 9516SOL    HW240011   1.916   3.410   7.502  1.1897 -2.2161  1.8973
 9517SOL     OW40012   4.329   4.674   0.629 -0.0895 -0.5198 -0.0560
 9517SOL    HW140013   4.276   4.645   0.555  0.2314 -2.8949  0.6584
 9517SOL    HW240014   4.271   0.010   0.677  1.0483  0.9716 -0.5010
 9518SOL     OW40015   3.466   1.246   7.643  1.1603 -0.2229 -0.2821
 9518SOL    HW140016   3.443   1.336   7.667  2.0079 -0.4721  1.4646
 9518SOL    HW240017   3.419   1.235   7.560  0.9549 -1.3285 -0.0086
 9519SOL     OW40018   3.789   3.618  13.402  0.4084  0.1561  0.0559
 9519SOL    HW140019   3.732   3.694  13.386 -0.9385 -0.5409  1.5799
 9519SOL    HW240020   3.784   3.577  13.316 -1.3579 -1.3824  0.9026
 9520SOL     OW40021   1.805   0.932   5.181 -0.3022 -0.5170 -0.0304
 9520SOL    HW140022   1.836   0.999   5.120  0.8812 -0.0539  1.1013
 9520SOL    HW240023   1.773   0.870   5.115  0.0042 -0.8671  0.1539
 9521SOL     OW40024   3.966   2.063   2.128  0.1716  0.7731  0.5699
 9521SOL    HW140025   4.055   2.082   2.098  1.1781 -0.9057  2.5137
 9521SOL    HW240026   3.951   1.990   2.068 -0.0154  0.5504  0.8885
 9522SOL     OW40027   0.415   1.282   6.723  0.0115 -0.3198  0.1914
 9522SOL    HW140028   0.378   1.282   6.811 -3.1176 -2.1022 -1.1373
 9522SOL    HW240029   0.467   1.203   6.716  3.6789  2.1241 -0.3234
 9523SOL     OW40030   4.665   2.714   4.243  0.1450  0.1815  0.4021
 9523SOL    HW140031   4.643   2.756   4.326 -0.1964  0.6643  0.0688
 9523SOL    HW240032   4.677   2.796   4.194 -0.9419 -0.8564 -1.5984
 9524SOL     OW40033   1.455   3.546  10.268  0.3111  0.0473  0.0878
 9524SOL    HW140034   1.463   3.556  10.173  0.6349  2.3539  0.3769
 9524SOL    HW240035   1.361   3.528  10.264  0.4958 -0.7742 -0.7555
 9525SOL     OW40036   2.876   3.068   4.093  0.7519 -0.1670  0.1732
 9525SOL    HW140037   2.932   3.092   4.167  0.5813 -1.8798  0.8425
 9525SOL    HW240038   2.932   3.098   4.020 -0.7500  3.4402  0.4766
 9526SOL     OW40039   1.913   0.263  14.337 -0.6898  0.4141 -0.3026
 9526SOL    HW140040   1.977   0.316  14.384 -2.4241  0.2417  2.2370
 9526SOL    HW240041   1.972   0.192  14.311  1.5486  2.1905 -0.0069
 9527SOL     OW40042   3.428   0.174   7.024  0.0392  0.0489  0.2708
 9527SOL    HW140043   3.521   0.182   7.044 -0.6958  2.3112  2.7797
 9527SOL    HW240044   3.435   0.123   6.944  0.6802  2.0476 -0.9314
 9528SOL     OW40045   0.494   3.531   7.854 -0.3586 -0.1994  0.0660
 9528SOL    HW140046   0.555   3.560   7.922  1.8275 -0.9004 -1.5922
 9528SOL    HW240047   0.526   3.441   7.848 -0.2937 -0.0337 -1.9073
 9529SOL     OW40048   3.571   0.107  13.070 -0.3550 -0.1321  0.0978
 9529SOL    HW140049   3.638   0.137  13.010 -2.0923  2.3690 -0.5958
 9529SOL    HW240050   3.620   0.032  13.104  0.9254  1.4589  1.7422
 9530SOL     OW40051   0.312   0.484   6.896  0.0154 -0.0179  0.2815
 9530SOL    HW140052   0.314   0.438   6.980  0.5002 -0.7611 -0.1328
 9530SOL    HW240053   0.370   0.559   6.905 -0.5460  0.7406 -2.6711
 9531SOL     OW40054   2.288   0.854   3.275 -0.4191  0.5765  0.2952
 9531SOL    HW140055   2.289   0.908   3.354  2.6919  2.3982 -0.9763
 9531SOL    HW240056   2.304   0.926   3.214 -0.0959  1.0027  0.8791
 9532SOL     OW40057   1.530   0.942   9.237 -0.3111 -0.2711  0.9733
 9532SOL    HW140058   1.530   0.924   9.331  1.0577  0.8539  1.1804
 9532SOL    HW240059   1.440   0.972   9.227 -0.3047 -0.6402 -0.2022
 9533SOL     OW40060   2.641   3.531   3.281 -0.2192  0.3516 -0.8247
 9533SOL    HW140061   2.593   3.488   3.210 -0.6513  0.5481 -0.6510
 9533SOL    HW240062   2.690   3.603   3.241  1.4431  0.2923  1.1671
 9534SOL     OW40063   0.801   2.247  17.194 -0.3477  0.1240 -0.3161
 9534SOL    HW140064   0.860   2.172  17.200  1.8145  1.8173  0.0308
 9534SOL    HW240065   0.846   2.294  17.123  2.9274 -0.2406  1.5155
 9535SOL     OW40066   3.484   2.958  10.831  0.0900  0.0926 -0.4196
 9535SOL    HW140067   3.499   3.053  10.828  1.7997 -0.1931 -1.2311
 9535SOL    HW240068   3.567   2.921  10.861 -0.4271 -0.3279  0.4509
 9536SOL     OW40069   0.571   3.358   6.792  0.5494 -0.2517  0.3888
 9536SOL    HW140070   0.522   3.403   6.724  0.1272  0.5705  1.2337
 9536SOL    HW240071   0.650   3.408   6.774 -1.3557  2.4315 -0.4936
 9537SOL     OW40072   0.905   3.842   5.081 -0.5458 -0.2545 -0.5099
 9537SOL    HW140073   0.879   3.752   5.102 -1.7666 -0.0508 -1.1916
 9537SOL    HW240074   0.848   3.872   5.011 -0.4432  3.1945  0.9115
 9538SOL     OW40075   0.463   2.552   2.514 -0.0088 -0.1222 -0.0516
 9538SOL    HW140076   0.556   2.529   2.508  0.5912  2.3426 -0.2389
 9538SOL    HW240077   0.421   2.467   2.511 -1.4637  0.6372 -1.1103
 9539SOL     OW40078   0.235   0.705  15.663  0.0157  0.1598 -0.0283
 9539SOL    HW140079   0.277   0.734  15.744  1.0462 -0.8702 -0.1867
 9539SOL    HW240080   0.309   0.717  15.604  1.8991  2.0581  2.6985
 9540SOL     OW40081   3.039   0.163   0.058  0.3345 -0.1006  0.0989
 9540SOL    HW140082   2.986   0.240   0.076  1.7156  0.8165  0.2269
 9540SOL    HW240083   3.111   0.176   0.120 -2.9231 -0.3886  3.9115
 9541SOL     OW40084   1.848   0.802   7.451 -0.2315  0.1300  0.0695
 9541SOL    HW140085   1.817   0.816   7.541 -1.9488  1.5384 -0.7482
 9541SOL    HW240086   1.796   0.728   7.420 -0.2769 -0.4896  1.6269
 9542SOL     OW40087   2.065   1.231   5.186  0.1855 -0.5246  0.7866
 9542SOL    HW140088   2.105   1.278   5.259  1.0183  4.3086 -2.8128
 9542SOL    HW240089   2.021   1.293   5.128  1.4960 -0.9483 -0.6400
 9543SOL     OW40090   1.880   2.105   8.039  0.2455 -0.6188  0.0151
 9543SOL    HW140091   1.885   2.021   7.994 -1.0388 -0.8454  0.3108
 9543SOL    HW240092   1.827   2.161   7.982  3.0208 -0.7651 -2.7095
 9544SOL     OW40093   1.754   3.707   1.527  0.0897  0.4000  0.0350
 9544SOL    HW140094   1.723   3.785   1.482  1.5741 -0.4152 -2.4376
 9544SOL    HW240095   1.843   3.732   1.553  0.6583 -1.8270  0.2740
 9545SOL     OW40096   3.132   0.375  16.244  0.1542  0.0083 -0.6473
 9545SOL    HW140097   3.137   0.355  16.150  4.4163 -0.2282 -0.3605
 9545SOL    HW240098   3.049   0.332  16.267 -0.5316  2.0833  0.6962
 9546SOL     OW40099   3.405   3.306   5.655 -0.3893  0.2010  0.5156
 9546SOL    HW140100   3.497   3.283   5.637  0.1346  3.7542 -1.1151
 9546SOL    HW240101   3.409   3.337   5.746 -2.6807  0.1583  0.6327
 9547SOL     OW40102   1.004   2.982   0.006 -0.1052  0.2190  0.2912
 9547SOL    HW140103   0.949   2.983  17.621  0.4466 -0.2726 -0.0912
 9547SOL    HW240104   1.006   3.077   0.018  1.0430  0.6511 -3.2934
 9548SOL     OW40105   3.959   1.990   7.517  0.4810  0.1602 -0.2103
 9548SOL    HW140106   3.995   2.025   7.598  3.2680 -1.0956 -0.9124
 9548SOL    HW240107   3.870   1.965   7.543  0.4135  0.4302 -0.1904
 9549SOL     OW40108   4.582   1.549   8.264 -0.0277 -0.4410  0.2760
 9549SOL    HW140109   4.670   1.568   8.231 -0.5408 -0.6066 -1.1886
 9549SOL    HW240110   4.584   1.575   8.356  0.0874  2.3381 -0.5004
 9550SOL     OW40111   2.705   3.483   0.669 -0.1903 -0.0095  0.2354
 9550SOL    HW140112   2.760   3.408   0.648 -0.1177 -0.3290  1.5581
 9550SOL    HW240113   2.633   3.441   0.717 -0.2552 -2.6508 -2.1797
 9551SOL     OW40114   2.537   0.007   4.077  0.1620  0.0302  0.4502
 9551SOL    HW140115   2.496   4.649   4.048 -0.1191  0.2803  0.1479
 9551SOL    HW240116   2.578   0.035   3.995  0.2530  1.8161  1.1020
 9552SOL     OW40117   0.943   1.074  11.061  0.1641  0.3044  0.4932
 9552SOL    HW140118   0.964   1.161  11.026 -3.1268  0.0607 -2.1442
 9552SOL    HW240119   1.030   1.052  11.093 -0.1396  1.8087  2.3545
 9553SOL     OW40120   0.044   3.100   7.014 -0.0239  0.2955  0.1607
 9553SOL    HW140121   4.707   3.052   7.071  1.1829 -0.9516  0.3397
 9553SOL    HW240122   0.131   3.073   7.039  0.4809  1.8525  0.1193
 9554SOL     OW40123   3.638   3.968   6.337  0.4355  0.0426  0.1793
 9554SOL    HW140124   3.709   4.031   6.345  0.8122 -0.2299 -0.9596
 9554SOL    HW240125   3.653   3.951   6.244 -0.6798  1.7181 -0.3017
 9555SOL     OW40126   0.303   0.361   0.353 -0.4491  0.0468 -0.0066
 9555SOL    HW140127   0.345   0.443   0.325 -1.7311  1.6624  2.7660
 9555SOL    HW240128   0.210   0.372   0.331 -0.4247  4.0101  1.9326
 9556SOL     OW40129   3.289   2.795   8.543  0.0773  0.5265 -0.0135
 9556SOL    HW140130   3.326   2.845   8.616 -0.5950 -1.9020  2.0010
 9556SOL    HW240131   3.220   2.854   8.513  1.1048  1.0579 -1.3619
 9557SOL     OW40132   0.621   1.141   8.315 -0.0744  0.5223 -0.3991
 9557SOL    HW140133   0.686   1.126   8.246  1.6343  0.8718  1.1534
 9557SOL    HW240134   0.659   1.092   8.387  1.2734 -0.2173 -1.6207
 9558SOL     OW40135   2.088   4.175  13.103  0.0407 -0.0940 -0.2455
 9558SOL    HW140136   2.134   4.125  13.036  0.0763  0.5206 -0.6816
 9558SOL    HW240137   2.163   4.208  13.153 -0.9891  0.5748  0.8642
 9559SOL     OW40138   2.635   4.275   0.738  0.3634 -0.6459 -0.1355
 9559SOL    HW140139   2.627   4.239   0.827  0.6073  0.1210  0.1920
 9559SOL    HW240140   2.628   4.366   0.767 -0.1543 -1.2926  1.8140
 9560SOL     OW40141   2.068   1.128   0.660 -0.1183  0.2211 -0.7475
 9560SOL    HW140142   2.144   1.162   0.707 -0.5624  1.1128 -0.6709
 9560SOL    HW240143   2.108   1.043   0.644 -0.0472  0.3689 -1.3406
 9561SOL     OW40144   2.374   3.135  10.319  0.0582  0.4614 -0.0410
 9561SOL    HW140145   2.301   3.194  10.339 -0.2815 -0.0144  0.1274
 9561SOL    HW240146   2.345   3.058  10.368 -1.7679  0.2599 -1.4263
 9562SOL     OW40147   4.185   0.593   4.797 -0.4968  0.5549 -0.2561
 9562SOL    HW140148   4.194   0.632   4.884  0.2886  1.3365 -0.6920
 9562SOL    HW240149   4.257   0.638   4.754 -1.3324  1.7943 -0.3594
 9563SOL     OW40150   2.446   1.666   3.383  0.1112  0.1197 -0.4818
 9563SOL    HW140151   2.454   1.682   3.477  1.3134  0.8965 -0.7174
 9563SOL    HW240152   2.371   1.719   3.355 -0.7437 -0.0777  1.4576
 9564SOL     OW40153   4.160   4.613   8.511  0.1624 -0.7656  0.0888
 9564SOL    HW140154   4.131   4.593   8.422  1.2142 -1.0506 -0.1790
 9564SOL    HW240155   4.243   4.657   8.498  0.7742 -1.4110  1.7432
 9565SOL     OW40156   1.498   2.322   9.388 -0.2495  0.5167  0.1137
 9565SOL    HW140157   1.519   2.295   9.477 -2.1043 -2.0852 -0.2252
 9565SOL    HW240158   1.491   2.417   9.398 -0.1508  0.8738 -3.1286
 9566SOL     OW40159   0.525   0.687   6.390 -0.0154 -0.6826 -0.1786
 9566SOL    HW140160   0.566   0.727   6.313 -2.6352 -2.1754 -2.3647
 9566SOL    HW240161   0.437   0.670   6.356  0.7975  1.6412 -3.4101
 9567SOL     OW40162   2.998   0.452   9.039  0.5392 -0.5340  0.1542
 9567SOL    HW140163   2.914   0.468   9.082 -0.3374 -1.2186 -1.2962
 9567SOL    HW240164   3.051   0.396   9.096  2.6241  1.9139  0.6152
 9568SOL     OW40165   4.649   0.636   7.255  0.4919  0.0142  0.7020
 9568SOL    HW140166   4.681   0.568   7.196  0.3382 -0.7891  1.5421
 9568SOL    HW240167   4.614   0.569   7.314 -1.1549 -1.2883 -1.7256
   4.72286   4.72286  17.69340
